 vasp.5.4.1 05Feb16 (build Jul 05 2020 17:13:04) complex                        
  
 executed on           IFC91_ompi date 2024.05.11  17:49:26
 running on   40 total cores
 distrk:  each k-point on   40 cores,    1 groups
 distr:  one band on NCORES_PER_BAND=   1 cores,   40 groups


--------------------------------------------------------------------------------------------------------


 INCAR:
 POTCAR:   PAW_PBE V 08Apr2002                    
 POTCAR:   PAW_PBE Mo 08Apr2002                   
 POTCAR:   PAW_PBE W 08Apr2002                    
 POTCAR:    PAW_PBE S 17Jan2003                   

 ----------------------------------------------------------------------------- 
|                                                                             |
|           W    W    AA    RRRRR   N    N  II  N    N   GGGG   !!!           |
|           W    W   A  A   R    R  NN   N  II  NN   N  G    G  !!!           |
|           W    W  A    A  R    R  N N  N  II  N N  N  G       !!!           |
|           W WW W  AAAAAA  RRRRR   N  N N  II  N  N N  G  GGG   !            |
|           WW  WW  A    A  R   R   N   NN  II  N   NN  G    G                |
|           W    W  A    A  R    R  N    N  II  N    N   GGGG   !!!           |
|                                                                             |
|      For optimal performance we recommend to set                            |
|        NCORE= 4 - approx SQRT( number of cores)                             |
|      NCORE specifies how many cores store one orbital (NPAR=cpu/NCORE).     |
|      This setting can  greatly improve the performance of VASP for DFT.     |
|      The default, NPAR=number of cores might be grossly inefficient         |
|      on modern multi-core architectures or massively parallel machines.     |
|      Do your own testing !!!!                                               |
|      Unfortunately you need to use the default for GW and RPA calculations. |
|      (for HF NCORE is supported but not extensively tested yet)             |
|                                                                             |
 ----------------------------------------------------------------------------- 

 POTCAR:   PAW_PBE V 08Apr2002                    
   VRHFIN =V: p6 d4 s1                                                          
   LEXCH  = PE                                                                  
   EATOM  =   170.8679 eV,   12.5584 Ry                                         
                                                                                
   TITEL  = PAW_PBE V 08Apr2002                                                 
   LULTRA =        F    use ultrasoft PP ?                                      
   IUNSCR =        1    unscreen: 0-lin 1-nonlin 2-no                           
   RPACOR =    2.000    partial core radius                                     
   POMASS =   50.941; ZVAL   =    5.000    mass and valenz                      
   RCORE  =    2.700    outmost cutoff radius                                   
   RWIGS  =    2.500; RWIGS  =    1.323    wigner-seitz radius (au A)           
   ENMAX  =  192.543; ENMIN  =  144.408 eV                                      
   RCLOC  =    1.779    cutoff for local pot                                    
   LCOR   =        T    correct aug charges                                     
   LPAW   =        T    paw PP                                                  
   EAUG   =  358.662                                                            
   DEXC   =    -.034                                                            
   RMAX   =    3.323    core radius for proj-oper                               
   RAUG   =    1.300    factor for augmentation sphere                          
   RDEP   =    2.762    radius for radial grids                                 
   QCUT   =   -3.762; QGAM   =    7.524    optimization parameters              
                                                                                
   Description                                                                  
     l     E      TYP  RCUT    TYP  RCUT                                        
     2   .000     23  2.700                                                     
     2   .000     23  2.700                                                     
     0   .000     23  2.700                                                     
     0  2.000     23  2.700                                                     
     1   .000     23  2.700                                                     
     1  2.000     23  2.700                                                     
     3   .000      7   .000                                                     
  local pseudopotential read in
  partial core-charges read in
  atomic valenz-charges read in
  non local Contribution for L=           2  read in
    real space projection operators read in
  non local Contribution for L=           2  read in
    real space projection operators read in
  non local Contribution for L=           0  read in
    real space projection operators read in
  non local Contribution for L=           0  read in
    real space projection operators read in
  non local Contribution for L=           1  read in
    real space projection operators read in
  non local Contribution for L=           1  read in
    real space projection operators read in
    PAW grid and wavefunctions read in
 
   number of l-projection  operators is LMAX  =           6
   number of lm-projection operators is LMMAX =          18
 
 POTCAR:   PAW_PBE Mo 08Apr2002                   
   VRHFIN =Mo: 4p5s4d                                                           
   LEXCH  = PE                                                                  
   EATOM  =   217.5180 eV,   15.9871 Ry                                         
                                                                                
   TITEL  = PAW_PBE Mo 08Apr2002                                                
   LULTRA =        F    use ultrasoft PP ?                                      
   IUNSCR =        1    unscreen: 0-lin 1-nonlin 2-no                           
   RPACOR =    2.200    partial core radius                                     
   POMASS =   95.940; ZVAL   =    6.000    mass and valenz                      
   RCORE  =    2.750    outmost cutoff radius                                   
   RWIGS  =    2.750; RWIGS  =    1.455    wigner-seitz radius (au A)           
   ENMAX  =  224.584; ENMIN  =  168.438 eV                                      
   RCLOC  =    2.111    cutoff for local pot                                    
   LCOR   =        T    correct aug charges                                     
   LPAW   =        T    paw PP                                                  
   EAUG   =  345.278                                                            
   DEXC   =    -.088                                                            
   RMAX   =    3.077    core radius for proj-oper                               
   RAUG   =    1.300    factor for augmentation sphere                          
   RDEP   =    2.815    radius for radial grids                                 
   QCUT   =   -4.063; QGAM   =    8.126    optimization parameters              
                                                                                
   Description                                                                  
     l     E      TYP  RCUT    TYP  RCUT                                        
     2   .000     23  2.500                                                     
     2   .000     23  2.500                                                     
     0   .000     23  2.600                                                     
     0  1.000     23  2.600                                                     
     1   .400     23  2.750                                                     
     1  2.000     23  2.750                                                     
     3   .000      7   .000                                                     
  local pseudopotential read in
  partial core-charges read in
  atomic valenz-charges read in
  non local Contribution for L=           2  read in
    real space projection operators read in
  non local Contribution for L=           2  read in
    real space projection operators read in
  non local Contribution for L=           0  read in
    real space projection operators read in
  non local Contribution for L=           0  read in
    real space projection operators read in
  non local Contribution for L=           1  read in
    real space projection operators read in
  non local Contribution for L=           1  read in
    real space projection operators read in
    PAW grid and wavefunctions read in
 
   number of l-projection  operators is LMAX  =           6
   number of lm-projection operators is LMMAX =          18
 
 POTCAR:   PAW_PBE W 08Apr2002                    
   VRHFIN =W : 6s5d                                                             
   LEXCH  = PE                                                                  
   EATOM  =   204.6100 eV,   15.0384 Ry                                         
                                                                                
   TITEL  = PAW_PBE W 08Apr2002                                                 
   LULTRA =        F    use ultrasoft PP ?                                      
   IUNSCR =        1    unscreen: 0-lin 1-nonlin 2-no                           
   RPACOR =    2.330    partial core radius                                     
   POMASS =  183.850; ZVAL   =    6.000    mass and valenz                      
   RCORE  =    2.750    outmost cutoff radius                                   
   RWIGS  =    2.750; RWIGS  =    1.455    wigner-seitz radius (au A)           
   ENMAX  =  223.057; ENMIN  =  167.293 eV                                      
   RCLOC  =    2.147    cutoff for local pot                                    
   LCOR   =        T    correct aug charges                                     
   LPAW   =        T    paw PP                                                  
   EAUG   =  373.438                                                            
   DEXC   =    -.060                                                            
   RMAX   =    3.087    core radius for proj-oper                               
   RAUG   =    1.300    factor for augmentation sphere                          
   RDEP   =    2.886    radius for radial grids                                 
   QCUT   =   -4.049; QGAM   =    8.098    optimization parameters              
                                                                                
   Description                                                                  
     l     E      TYP  RCUT    TYP  RCUT                                        
     2   .000     23  2.500                                                     
     2   .000     23  2.500                                                     
     0   .000     23  2.500                                                     
     0   .000     23  2.500                                                     
     1   .200     23  2.750                                                     
     1  2.000     23  2.750                                                     
     3   .000      7   .000                                                     
  local pseudopotential read in
  partial core-charges read in
  atomic valenz-charges read in
  non local Contribution for L=           2  read in
    real space projection operators read in
  non local Contribution for L=           2  read in
    real space projection operators read in
  non local Contribution for L=           0  read in
    real space projection operators read in
  non local Contribution for L=           0  read in
    real space projection operators read in
  non local Contribution for L=           1  read in
    real space projection operators read in
  non local Contribution for L=           1  read in
    real space projection operators read in
    PAW grid and wavefunctions read in
 
   number of l-projection  operators is LMAX  =           6
   number of lm-projection operators is LMMAX =          18
 
 POTCAR:    PAW_PBE S 17Jan2003                   
   VRHFIN =S : s2p4                                                             
   LEXCH  = PE                                                                  
   EATOM  =   276.8230 eV,   20.3459 Ry                                         
                                                                                
   TITEL  = PAW_PBE S 17Jan2003                                                 
   LULTRA =        F    use ultrasoft PP ?                                      
   IUNSCR =        1    unscreen: 0-lin 1-nonlin 2-no                           
   RPACOR =    1.500    partial core radius                                     
   POMASS =   32.066; ZVAL   =    6.000    mass and valenz                      
   RCORE  =    1.900    outmost cutoff radius                                   
   RWIGS  =    2.200; RWIGS  =    1.164    wigner-seitz radius (au A)           
   ENMAX  =  280.000; ENMIN  =  194.016 eV                                      
   ICORE  =        2    local potential                                         
   LCOR   =        T    correct aug charges                                     
   LPAW   =        T    paw PP                                                  
   EAUG   =  335.092                                                            
   DEXC   =     .000                                                            
   RMAX   =    2.867    core radius for proj-oper                               
   RAUG   =    1.300    factor for augmentation sphere                          
   RDEP   =    1.954    radius for radial grids                                 
   QCUT   =   -4.360; QGAM   =    8.721    optimization parameters              
                                                                                
   Description                                                                  
     l     E      TYP  RCUT    TYP  RCUT                                        
     0   .000     23  1.900                                                     
     0   .000     23  1.900                                                     
     1   .000     23  1.900                                                     
     1   .000     23  1.900                                                     
     2   .000     23  1.900                                                     
  local pseudopotential read in
  partial core-charges read in
  atomic valenz-charges read in
  non local Contribution for L=           0  read in
    real space projection operators read in
  non local Contribution for L=           0  read in
    real space projection operators read in
  non local Contribution for L=           1  read in
    real space projection operators read in
  non local Contribution for L=           1  read in
    real space projection operators read in
    PAW grid and wavefunctions read in
 
   number of l-projection  operators is LMAX  =           4
   number of lm-projection operators is LMMAX =           8
 

 ----------------------------------------------------------------------------- 
|                                                                             |
|  ADVICE TO THIS USER RUNNING 'VASP/VAMP'   (HEAR YOUR MASTER'S VOICE ...):  |
|                                                                             |
|      You have a (more or less) 'large supercell' and for larger cells       |
|      it might be more efficient to use real space projection operators      |
|      So try LREAL= Auto  in the INCAR   file.                               |
|      Mind: If you want to do a very accurate calculations keep the          |
|      reciprocal projection scheme          (i.e. LREAL=.FALSE.)             |
|                                                                             |
 ----------------------------------------------------------------------------- 

 PAW_PBE V 08Apr2002                    :
 energy of atom  1       EATOM= -170.8679
 kinetic energy error for atom=    0.0047 (will be added to EATOM!!)
 PAW_PBE Mo 08Apr2002                   :
 energy of atom  2       EATOM= -217.5180
 kinetic energy error for atom=    0.0215 (will be added to EATOM!!)
 PAW_PBE W 08Apr2002                    :
 energy of atom  3       EATOM= -204.6100
 kinetic energy error for atom=    0.0205 (will be added to EATOM!!)
  PAW_PBE S 17Jan2003                   :
 energy of atom  4       EATOM= -276.8230
 kinetic energy error for atom=    0.0122 (will be added to EATOM!!)
 
 
 POSCAR: crystal structure from VMoWS2 with Hexag
  positions in cartesian coordinates
  No initial velocities read in
 exchange correlation table for  LEXCH =        8
   RHO(1)=    0.500       N(1)  =     2000
   RHO(2)=  100.500       N(2)  =     4000
 


--------------------------------------------------------------------------------------------------------


 ion  position               nearest neighbor table
   1  0.667  0.667  0.000-  21 2.34  24 2.34  27 2.36  26 2.36  19 2.36  18 2.36
   2  0.000  0.667  0.000-  27 2.34  12 2.34  14 2.36  15 2.36  24 2.36  25 2.36
   3  0.667  0.333  0.000-  19 2.34  22 2.34  25 2.36  24 2.36  17 2.36  16 2.36
   4  0.333  0.667  0.000-  15 2.34  18 2.34  20 2.36  21 2.36  13 2.36  12 2.36   5 3.34   9 3.34
                             6 3.36   8 3.36
   5  0.333  0.000  0.000-  11 2.34  20 2.34  17 2.36  16 2.36  15 2.36  14 2.36   4 3.34   9 3.34
                             6 3.34   7 3.34
   6  0.667  0.000  0.000-  17 2.34  26 2.34  23 2.36  22 2.36  21 2.36  20 2.36   7 3.34   5 3.34
                             8 3.36   4 3.36
   7  0.000  0.000  0.000-  23 2.34  14 2.34  11 2.36  10 2.36  27 2.36  26 2.36   6 3.34   8 3.34
                             5 3.34   9 3.36
   8  1.000  0.333  0.000-  25 2.34  10 2.34  13 2.36  12 2.36  22 2.36  23 2.36   7 3.34   9 3.34
                             6 3.36   4 3.36
   9  0.333  0.333  0.000-  13 2.34  16 2.34  19 2.36  18 2.36  11 2.36  10 2.36   4 3.34   5 3.34
                             8 3.34   7 3.36
  10  0.111  0.222  0.955-   8 2.34   7 2.36   9 2.36
  11  0.222  0.111  0.045-   5 2.34   7 2.36   9 2.36
  12  0.111  0.556  0.955-   2 2.34   8 2.36   4 2.36
  13  0.222  0.444  0.045-   9 2.34   8 2.36   4 2.36
  14  0.111  0.889  0.955-   7 2.34   2 2.36   5 2.36
  15  0.222  0.777  0.045-   4 2.34   2 2.36   5 2.36
  16  0.444  0.222  0.955-   9 2.34   5 2.36   3 2.36
  17  0.556  0.111  0.045-   6 2.34   5 2.36   3 2.36
  18  0.444  0.556  0.955-   4 2.34   9 2.36   1 2.36
  19  0.556  0.444  0.045-   3 2.34   9 2.36   1 2.36
  20  0.444  0.889  0.955-   5 2.34   4 2.36   6 2.36
  21  0.556  0.777  0.045-   1 2.34   4 2.36   6 2.36
  22  0.777  0.222  0.955-   3 2.34   6 2.36   8 2.36
  23  0.889  0.111  0.045-   7 2.34   6 2.36   8 2.36
  24  0.777  0.556  0.955-   1 2.34   3 2.36   2 2.36
  25  0.889  0.444  0.045-   8 2.34   3 2.36   2 2.36
  26  0.777  0.889  0.955-   6 2.34   1 2.36   7 2.36
  27  0.889  0.777  0.045-   2 2.34   1 2.36   7 2.36
 

IMPORTANT INFORMATION: All symmetrisations will be switched off!
NOSYMM: (Re-)initialisation of all symmetry stuff for point group C_1.

 
 
 KPOINTS: K-POINTS 	#supercell of CrS2 in hexagona

Automatic generation of k-mesh.
Space group operators:
 irot       det(A)        alpha          n_x          n_y          n_z        tau_x        tau_y        tau_z
    1     1.000000     0.000000     1.000000     0.000000     0.000000     0.000000     0.000000     0.000000
 
 Subroutine IBZKPT returns following result:
 ===========================================
 
 Found     34 irreducible k-points:
 
 Following reciprocal coordinates:
            Coordinates               Weight
  0.000000  0.000000  0.000000      1.000000
  0.125000  0.000000  0.000000      2.000000
  0.250000  0.000000  0.000000      2.000000
  0.375000  0.000000  0.000000      2.000000
  0.500000  0.000000  0.000000      1.000000
  0.000000  0.125000  0.000000      2.000000
  0.125000  0.125000  0.000000      2.000000
  0.250000  0.125000  0.000000      2.000000
  0.375000  0.125000  0.000000      2.000000
  0.500000  0.125000  0.000000      2.000000
 -0.375000  0.125000  0.000000      2.000000
 -0.250000  0.125000  0.000000      2.000000
 -0.125000  0.125000  0.000000      2.000000
  0.000000  0.250000  0.000000      2.000000
  0.125000  0.250000  0.000000      2.000000
  0.250000  0.250000  0.000000      2.000000
  0.375000  0.250000  0.000000      2.000000
  0.500000  0.250000  0.000000      2.000000
 -0.375000  0.250000  0.000000      2.000000
 -0.250000  0.250000  0.000000      2.000000
 -0.125000  0.250000  0.000000      2.000000
 -0.000000  0.375000  0.000000      2.000000
  0.125000  0.375000  0.000000      2.000000
  0.250000  0.375000  0.000000      2.000000
  0.375000  0.375000  0.000000      2.000000
  0.500000  0.375000  0.000000      2.000000
 -0.375000  0.375000  0.000000      2.000000
 -0.250000  0.375000  0.000000      2.000000
 -0.125000  0.375000  0.000000      2.000000
  0.000000  0.500000  0.000000      1.000000
  0.125000  0.500000  0.000000      2.000000
  0.250000  0.500000  0.000000      2.000000
  0.375000  0.500000  0.000000      2.000000
  0.500000  0.500000  0.000000      1.000000
 
 Following cartesian coordinates:
            Coordinates               Weight
  0.000000  0.000000  0.000000      1.000000
  0.007209  0.012401  0.000000      2.000000
  0.014418  0.024802  0.000000      2.000000
  0.021626  0.037202  0.000000      2.000000
  0.028835  0.049603  0.000000      1.000000
 -0.007209  0.012401  0.000000      2.000000
  0.000000  0.024802  0.000000      2.000000
  0.007209  0.037202  0.000000      2.000000
  0.014418  0.049603  0.000000      2.000000
  0.021626  0.062004  0.000000      2.000000
 -0.028835 -0.024802  0.000000      2.000000
 -0.021626 -0.012401  0.000000      2.000000
 -0.014418  0.000000  0.000000      2.000000
 -0.014418  0.024802  0.000000      2.000000
 -0.007209  0.037202  0.000000      2.000000
  0.000000  0.049603  0.000000      2.000000
  0.007209  0.062004  0.000000      2.000000
  0.014418  0.074405  0.000000      2.000000
 -0.036044 -0.012401  0.000000      2.000000
 -0.028835  0.000000  0.000000      2.000000
 -0.021626  0.012401  0.000000      2.000000
 -0.021626  0.037202  0.000000      2.000000
 -0.014418  0.049603  0.000000      2.000000
 -0.007209  0.062004  0.000000      2.000000
  0.000000  0.074405  0.000000      2.000000
  0.007209  0.086806  0.000000      2.000000
 -0.043253  0.000000  0.000000      2.000000
 -0.036044  0.012401  0.000000      2.000000
 -0.028835  0.024802  0.000000      2.000000
 -0.028835  0.049603  0.000000      1.000000
 -0.021626  0.062004  0.000000      2.000000
 -0.014418  0.074405  0.000000      2.000000
 -0.007209  0.086806  0.000000      2.000000
  0.000000  0.099206  0.000000      1.000000
 


--------------------------------------------------------------------------------------------------------




 Dimension of arrays:
   k-points           NKPTS =     34   k-points in BZ     NKDIM =     34   number of bands    NBANDS=    120
   number of dos      NEDOS =    301   number of ions     NIONS =     27
   non local maximal  LDIM  =      6   non local SUM 2l+1 LMDIM =     18
   total plane-waves  NPLWV = 222264
   max r-space proj   IRMAX =      1   max aug-charges    IRDMAX=   5642
   dimension x,y,z NGX =    42 NGY =   42 NGZ =  126
   dimension x,y,z NGXF=    84 NGYF=   84 NGZF=  252
   support grid    NGXF=    84 NGYF=   84 NGZF=  252
   ions per type =               3   3   3  18
 NGX,Y,Z   is equivalent  to a cutoff of   6.96,  6.96,  6.98 a.u.
 NGXF,Y,Z  is equivalent  to a cutoff of  13.92, 13.92, 13.96 a.u.


 I would recommend the setting:
   dimension x,y,z NGX =    41 NGY =   41 NGZ =  123
 SYSTEM =  unknown system                          
 POSCAR =  crystal structure from VMoWS2 with Hexag

 Startparameter for this run:
   NWRITE =      2    write-flag & timer
   PREC   = normal    normal or accurate (medium, high low for compatibility)
   ISTART =      0    job   : 0-new  1-cont  2-samecut
   ICHARG =      2    charge: 1-file 2-atom 10-const
   ISPIN  =      1    spin polarized calculation?
   LNONCOLLINEAR =      F non collinear calculations
   LSORBIT =      F    spin-orbit coupling
   INIWAV =      1    electr: 0-lowe 1-rand  2-diag
   LASPH  =      F    aspherical Exc in radial PAW
   METAGGA=      F    non-selfconsistent MetaGGA calc.

 Electronic Relaxation 1
   ENCUT  =  280.0 eV  20.58 Ry    4.54 a.u.  13.68 13.68 40.93*2*pi/ulx,y,z
   ENINI  =  280.0     initial cutoff
   ENAUG  =  373.4 eV  augmentation charge cutoff
   NELM   =     60;   NELMIN=  2; NELMDL= -5     # of ELM steps 
   EDIFF  = 0.1E-03   stopping-criterion for ELM
   LREAL  =      F    real-space projection
   NLSPLINE    = F    spline interpolate recip. space projectors
   LCOMPAT=      F    compatible to vasp.4.4
   GGA_COMPAT  = T    GGA compatible to vasp.4.4-vasp.4.6
   LMAXPAW     = -100 max onsite density
   LMAXMIX     =    2 max onsite mixed and CHGCAR
   VOSKOWN=      0    Vosko Wilk Nusair interpolation
   ROPT   =    0.00000   0.00000   0.00000   0.00000
 Ionic relaxation
   EDIFFG = 0.1E-02   stopping-criterion for IOM
   NSW    =    100    number of steps for IOM
   NBLOCK =      1;   KBLOCK =    100    inner block; outer block 
   IBRION =      1    ionic relax: 0-MD 1-quasi-New 2-CG
   NFREE  =      0    steps in history (QN), initial steepest desc. (CG)
   ISIF   =      3    stress and relaxation
   IWAVPR =     11    prediction:  0-non 1-charg 2-wave 3-comb
   ISYM   =      0    0-nonsym 1-usesym 2-fastsym
   LCORR  =      T    Harris-Foulkes like correction to forces

   POTIM  = 0.5000    time-step for ionic-motion
   TEIN   =    0.0    initial temperature
   TEBEG  =    0.0;   TEEND  =   0.0 temperature during run
   SMASS  =  -3.00    Nose mass-parameter (am)
   estimated Nose-frequenzy (Omega)   =  0.10E-29 period in steps =****** mass=  -0.230E-26a.u.
   SCALEE = 1.0000    scale energy and forces
   NPACO  =    256;   APACO  = 16.0  distance and # of slots for P.C.
   PSTRESS=    0.0 pullay stress

  Mass of Ions in am
   POMASS =  50.94 95.94183.85 32.07
  Ionic Valenz
   ZVAL   =   5.00  6.00  6.00  6.00
  Atomic Wigner-Seitz radii
   RWIGS  =  -1.00 -1.00 -1.00 -1.00
  virtual crystal weights 
   VCA    =   1.00  1.00  1.00  1.00
   NELECT =     159.0000    total number of electrons
   NUPDOWN=      -1.0000    fix difference up-down

 DOS related values:
   EMIN   =  10.00;   EMAX   =-10.00  energy-range for DOS
   EFERMI =   0.00
   ISMEAR =     0;   SIGMA  =   0.20  broadening in eV -4-tet -1-fermi 0-gaus

 Electronic relaxation 2 (details)
   IALGO  =     38    algorithm
   LDIAG  =      T    sub-space diagonalisation (order eigenvalues)
   LSUBROT=      F    optimize rotation matrix (better conditioning)
   TURBO    =      0    0=normal 1=particle mesh
   IRESTART =      0    0=no restart 2=restart with 2 vectors
   NREBOOT  =      0    no. of reboots
   NMIN     =      0    reboot dimension
   EREF     =   0.00    reference energy to select bands
   IMIX   =      4    mixing-type and parameters
     AMIX     =   0.40;   BMIX     =  1.00
     AMIX_MAG =   1.60;   BMIX_MAG =  1.00
     AMIN     =   0.10
     WC   =   100.;   INIMIX=   1;  MIXPRE=   1;  MAXMIX= -45

 Intra band minimization:
   WEIMIN = 0.0010     energy-eigenvalue tresh-hold
   EBREAK =  0.21E-06  absolut break condition
   DEPER  =   0.30     relativ break condition  

   TIME   =   0.40     timestep for ELM

  volume/ion in A,a.u.               =      97.10       655.29
  Fermi-wavevector in a.u.,A,eV,Ry     =   0.643191  1.215456  5.628665  0.413695
  Thomas-Fermi vector in A             =   1.710110
 
 Write flags
   LWAVE  =      F    write WAVECAR
   LCHARG =      F    write CHGCAR
   LVTOT  =      F    write LOCPOT, total local potential
   LVHAR  =      F    write LOCPOT, Hartree potential only
   LELF   =      F    write electronic localiz. function (ELF)
   LORBIT =      0    0 simple, 1 ext, 2 COOP (PROOUT)


 Dipole corrections
   LMONO  =      F    monopole corrections only (constant potential shift)
   LDIPOL =      F    correct potential (dipole corrections)
   IDIPOL =      0    1-x, 2-y, 3-z, 4-all directions 
   EPSILON=  1.0000000 bulk dielectric constant

 Exchange correlation treatment:
   GGA     =    --    GGA type
   LEXCH   =     8    internal setting for exchange type
   VOSKOWN=      0    Vosko Wilk Nusair interpolation
   LHFCALC =     F    Hartree Fock is set to
   LHFONE  =     F    Hartree Fock one center treatment
   AEXX    =    0.0000 exact exchange contribution

 Linear response parameters
   LEPSILON=     F    determine dielectric tensor
   LRPA    =     F    only Hartree local field effects (RPA)
   LNABLA  =     F    use nabla operator in PAW spheres
   LVEL    =     F    velocity operator in full k-point grid
   LINTERFAST=   F  fast interpolation
   KINTER  =     0    interpolate to denser k-point grid
   CSHIFT  =0.1000    complex shift for real part using Kramers Kronig
   OMEGAMAX=  -1.0    maximum frequency
   DEG_THRESHOLD= 0.2000000E-02 threshold for treating states as degnerate
   RTIME   =    0.100 relaxation time in fs

 Orbital magnetization related:
   ORBITALMAG=     F  switch on orbital magnetization
   LCHIMAG   =     F  perturbation theory with respect to B field
   DQ        =  0.001000  dq finite difference perturbation B field



--------------------------------------------------------------------------------------------------------


 quasi-Newton-method for relaxation of ions
 charge density and potential will be updated during run
 non-spin polarized calculation
 Variant of blocked Davidson
 Davidson routine will perform the subspace rotation
 perform sub-space diagonalisation
    after iterative eigenvector-optimisation
 modified Broyden-mixing scheme, WC =      100.0
 initial mixing is a Kerker type mixing with AMIX =  0.4000 and BMIX =      1.0000
 Hartree-type preconditioning will be used
 using additional bands           40
 reciprocal scheme for non local part
 use partial core corrections
 calculate Harris-corrections to forces 
   (improved forces if not selfconsistent)
 use gradient corrections 
 use of overlap-Matrix (Vanderbilt PP)
 Gauss-broadening in eV      SIGMA  =   0.20


--------------------------------------------------------------------------------------------------------


  energy-cutoff  :      280.00
  volume of cell :     2621.81
      direct lattice vectors                 reciprocal lattice vectors
     8.669999960  5.039999894  0.000000000     0.057670129  0.099206348  0.000000000
    -8.669999821  5.040000133  0.000000000    -0.057670126  0.099206350  0.000000000
     0.000000000  0.000000000 30.000000000     0.000000000  0.000000000  0.033333333

  length of vectors
    10.028484344 10.028484344 30.000000000     0.114750788  0.114750788  0.033333333


 
 k-points in units of 2pi/SCALE and weight: K-POINTS 	#supercell of CrS2 in hexagona
   0.00000000  0.00000000  0.00000000       0.016
   0.00720877  0.01240079  0.00000000       0.031
   0.01441753  0.02480159  0.00000000       0.031
   0.02162630  0.03720238  0.00000000       0.031
   0.02883506  0.04960317  0.00000000       0.016
  -0.00720877  0.01240079  0.00000000       0.031
   0.00000000  0.02480159  0.00000000       0.031
   0.00720877  0.03720238  0.00000000       0.031
   0.01441753  0.04960317  0.00000000       0.031
   0.02162630  0.06200397  0.00000000       0.031
  -0.02883506 -0.02480159  0.00000000       0.031
  -0.02162630 -0.01240079  0.00000000       0.031
  -0.01441753  0.00000000  0.00000000       0.031
  -0.01441753  0.02480159  0.00000000       0.031
  -0.00720877  0.03720238  0.00000000       0.031
   0.00000000  0.04960317  0.00000000       0.031
   0.00720877  0.06200397  0.00000000       0.031
   0.01441753  0.07440476  0.00000000       0.031
  -0.03604383 -0.01240079  0.00000000       0.031
  -0.02883506  0.00000000  0.00000000       0.031
  -0.02162630  0.01240079  0.00000000       0.031
  -0.02162630  0.03720238  0.00000000       0.031
  -0.01441753  0.04960317  0.00000000       0.031
  -0.00720877  0.06200397  0.00000000       0.031
   0.00000000  0.07440476  0.00000000       0.031
   0.00720877  0.08680556  0.00000000       0.031
  -0.04325260  0.00000000  0.00000000       0.031
  -0.03604383  0.01240079  0.00000000       0.031
  -0.02883506  0.02480159  0.00000000       0.031
  -0.02883506  0.04960317  0.00000000       0.016
  -0.02162630  0.06200397  0.00000000       0.031
  -0.01441753  0.07440476  0.00000000       0.031
  -0.00720876  0.08680556  0.00000000       0.031
   0.00000000  0.09920635  0.00000000       0.016
 
 k-points in reciprocal lattice and weights: K-POINTS 	#supercell of CrS2 in hexagona
   0.00000000  0.00000000  0.00000000       0.016
   0.12500000  0.00000000  0.00000000       0.031
   0.25000000  0.00000000  0.00000000       0.031
   0.37500000  0.00000000  0.00000000       0.031
   0.50000000  0.00000000  0.00000000       0.016
   0.00000000  0.12500000  0.00000000       0.031
   0.12500000  0.12500000  0.00000000       0.031
   0.25000000  0.12500000  0.00000000       0.031
   0.37500000  0.12500000  0.00000000       0.031
   0.50000000  0.12500000  0.00000000       0.031
  -0.37500000  0.12500000  0.00000000       0.031
  -0.25000000  0.12500000  0.00000000       0.031
  -0.12500000  0.12500000  0.00000000       0.031
   0.00000000  0.25000000  0.00000000       0.031
   0.12500000  0.25000000  0.00000000       0.031
   0.25000000  0.25000000  0.00000000       0.031
   0.37500000  0.25000000  0.00000000       0.031
   0.50000000  0.25000000  0.00000000       0.031
  -0.37500000  0.25000000  0.00000000       0.031
  -0.25000000  0.25000000  0.00000000       0.031
  -0.12500000  0.25000000  0.00000000       0.031
  -0.00000000  0.37500000  0.00000000       0.031
   0.12500000  0.37500000  0.00000000       0.031
   0.25000000  0.37500000  0.00000000       0.031
   0.37500000  0.37500000  0.00000000       0.031
   0.50000000  0.37500000  0.00000000       0.031
  -0.37500000  0.37500000  0.00000000       0.031
  -0.25000000  0.37500000  0.00000000       0.031
  -0.12500000  0.37500000  0.00000000       0.031
   0.00000000  0.50000000  0.00000000       0.016
   0.12500000  0.50000000  0.00000000       0.031
   0.25000000  0.50000000  0.00000000       0.031
   0.37500000  0.50000000  0.00000000       0.031
   0.50000000  0.50000000  0.00000000       0.016
 
 position of ions in fractional coordinates (direct lattice) 
   0.66666669  0.66666669  0.00000000
   0.00000000  0.66666669  0.00000000
   0.66666669  0.33333334  0.00000000
   0.33333334  0.66666669  0.00000000
   0.33333334  0.00000000  0.00000000
   0.66666669  0.00000000  0.00000000
   0.00000000  0.00000000  0.00000000
   1.00000000  0.33333334  0.00000000
   0.33333334  0.33333334  0.00000000
   0.11068511  0.22244981  0.95539999
   0.22244981  0.11068511  0.04460000
   0.11068511  0.55578315  0.95539999
   0.22244981  0.44401845  0.04460000
   0.11068511  0.88911647  0.95539999
   0.22244981  0.77735180  0.04460000
   0.44401845  0.22244981  0.95539999
   0.55578315  0.11068511  0.04460000
   0.44401845  0.55578315  0.95539999
   0.55578315  0.44401845  0.04460000
   0.44401845  0.88911647  0.95539999
   0.55578315  0.77735180  0.04460000
   0.77735180  0.22244981  0.95539999
   0.88911647  0.11068511  0.04460000
   0.77735180  0.55578315  0.95539999
   0.88911647  0.44401845  0.04460000
   0.77735180  0.88911647  0.95539999
   0.88911647  0.77735180  0.04460000
 
 position of ions in cartesian coordinates  (Angst):
   0.00000009  6.72000022  0.00000000
  -5.78000005  3.36000019  0.00000000
   2.89000012  5.04000012  0.00000000
  -2.88999998  5.04000020  0.00000000
   2.89000007  1.68000002  0.00000000
   5.78000015  3.36000003  0.00000000
   0.00000000  0.00000000  0.00000000
   5.77999993  6.71999999  0.00000000
   0.00000005  3.36000011  0.00000000
  -0.96899991  1.67900001 28.66199970
   0.96899995  1.67899998  1.33799996
  -3.85899993  3.35900011 28.66199970
  -1.92100007  3.35900008  1.33799996
  -6.74899970  5.03900005 28.66199970
  -4.81100010  5.03900017  1.33799996
   1.92100017  3.35900003 28.66199970
   3.85900003  3.35900000  1.33799996
  -0.96899986  5.03900012 28.66199970
   0.96900000  5.03900009  1.33799996
  -3.85899963  6.71900006 28.66199970
  -1.92100003  6.71900019  1.33799996
   4.81100024  5.03900004 28.66199970
   6.74899984  5.03899987  1.33799996
   1.92100021  6.71900014 28.66199970
   3.85899981  6.71899996  1.33799996
  -0.96899956  8.39900008 28.66199970
   0.96899979  8.39900005  1.33799996
 


--------------------------------------------------------------------------------------------------------


 k-point  1 :   0.0000 0.0000 0.0000  plane waves:   27959
 k-point  2 :   0.1250 0.0000 0.0000  plane waves:   27889
 k-point  3 :   0.2500 0.0000 0.0000  plane waves:   27875
 k-point  4 :   0.3750 0.0000 0.0000  plane waves:   27893
 k-point  5 :   0.5000 0.0000 0.0000  plane waves:   27932
 k-point  6 :   0.0000 0.1250 0.0000  plane waves:   27889
 k-point  7 :   0.1250 0.1250 0.0000  plane waves:   27906
 k-point  8 :   0.2500 0.1250 0.0000  plane waves:   27898
 k-point  9 :   0.3750 0.1250 0.0000  plane waves:   27888
 k-point 10 :   0.5000 0.1250 0.0000  plane waves:   27873
 k-point 11 :  -0.3750 0.1250 0.0000  plane waves:   27874
 k-point 12 :  -0.2500 0.1250 0.0000  plane waves:   27895
 k-point 13 :  -0.1250 0.1250 0.0000  plane waves:   27879
 k-point 14 :   0.0000 0.2500 0.0000  plane waves:   27875
 k-point 15 :   0.1250 0.2500 0.0000  plane waves:   27898
 k-point 16 :   0.2500 0.2500 0.0000  plane waves:   27920
 k-point 17 :   0.3750 0.2500 0.0000  plane waves:   27901
 k-point 18 :   0.5000 0.2500 0.0000  plane waves:   27875
 k-point 19 :  -0.3750 0.2500 0.0000  plane waves:   27894
 k-point 20 :  -0.2500 0.2500 0.0000  plane waves:   27870
 k-point 21 :  -0.1250 0.2500 0.0000  plane waves:   27895
 k-point 22 :  -0.0000 0.3750 0.0000  plane waves:   27893
 k-point 23 :   0.1250 0.3750 0.0000  plane waves:   27888
 k-point 24 :   0.2500 0.3750 0.0000  plane waves:   27901
 k-point 25 :   0.3750 0.3750 0.0000  plane waves:   27860
 k-point 26 :   0.5000 0.3750 0.0000  plane waves:   27895
 k-point 27 :  -0.3750 0.3750 0.0000  plane waves:   27858
 k-point 28 :  -0.2500 0.3750 0.0000  plane waves:   27894
 k-point 29 :  -0.1250 0.3750 0.0000  plane waves:   27874
 k-point 30 :   0.0000 0.5000 0.0000  plane waves:   27932
 k-point 31 :   0.1250 0.5000 0.0000  plane waves:   27873
 k-point 32 :   0.2500 0.5000 0.0000  plane waves:   27875
 k-point 33 :   0.3750 0.5000 0.0000  plane waves:   27895
 k-point 34 :   0.5000 0.5000 0.0000  plane waves:   27910

 maximum and minimum number of plane-waves per node :     27959    27858

 maximum number of plane-waves:     27959
 maximum index in each direction: 
   IXMAX=   14   IYMAX=   13   IZMAX=   40
   IXMIN=  -14   IYMIN=  -14   IZMIN=  -40

 WARNING: aliasing errors must be expected set NGX to  58 to avoid them
 WARNING: aliasing errors must be expected set NGY to  56 to avoid them
 WARNING: aliasing errors must be expected set NGZ to 162 to avoid them
 aliasing errors are usually negligible using standard VASP settings
 and one can safely disregard these warnings

 serial   3D FFT for wavefunctions

 total amount of memory used by VASP on root node   650782. kBytes
========================================================================

   base      :      30000. kBytes
   nonl-proj :     559647. kBytes
   fftplans  :       2414. kBytes
   grid      :      12150. kBytes
   one-center:        419. kBytes
   wavefun   :      46152. kBytes
 
     INWAV:  cpu time    0.0000: real time    0.0000
 Broyden mixing: mesh for mixing (old mesh)
   NGX = 27   NGY = 27   NGZ = 81
  (NGX  = 84   NGY  = 84   NGZ  =252)
  gives a total of  59049 points

 initial charge density was supplied:
 charge density of overlapping atoms calculated
 number of electron     159.0000000 magnetization 
 keeping initial charge density in first step


--------------------------------------------------------------------------------------------------------


 Maximum index for augmentation-charges          140 (set IRDMAX)


--------------------------------------------------------------------------------------------------------


 First call to EWALD:  gamma=   0.129
 Maximum number of real-space cells 4x 4x 2
 Maximum number of reciprocal cells 2x 2x 5

 FEWALD executed in parallel
    FEWALD:  cpu time    0.0015: real time    0.0016


----------------------------------------- Iteration    1(   1)  ---------------------------------------


    POTLOK:  cpu time    0.0367: real time    0.0370
    SETDIJ:  cpu time    0.0033: real time    0.0034
     EDDAV:  cpu time   21.6375: real time   21.7056
       DOS:  cpu time    0.0020: real time    0.0017
    --------------------------------------------
      LOOP:  cpu time   21.6825: real time   21.7570

 eigenvalue-minimisations  :  8160
 total energy-change (2. order) : 0.1123489E+04  (-0.3586874E+04)
 number of electron     159.0000000 magnetization 
 augmentation part      159.0000000 magnetization 

 Free energy of the ion-electron system (eV)
  ---------------------------------------------------
  alpha Z        PSCENC =        81.65567618
  Ewald energy   TEWEN  =     41891.17177386
  -Hartree energ DENC   =    -47723.81765316
  -exchange      EXHF   =         0.00000000
  -V(xc)+E(xc)   XCENC  =      -242.92465024
  PAW double counting   =      3467.42045192    -2871.19716117
  entropy T*S    EENTRO =        -0.53536351
  eigenvalues    EBANDS =      -239.72680761
  atomic energy  EATOM  =      6761.44252427
  Solvation  Ediel_sol  =         0.00000000
  ---------------------------------------------------
  free energy    TOTEN  =      1123.48879053 eV

  energy without entropy =     1124.02415405  energy(sigma->0) =     1123.75647229


--------------------------------------------------------------------------------------------------------




----------------------------------------- Iteration    1(   2)  ---------------------------------------


     EDDAV:  cpu time   28.0124: real time   28.0818
       DOS:  cpu time    0.0010: real time    0.0010
    --------------------------------------------
      LOOP:  cpu time   28.0146: real time   28.0918

 eigenvalue-minimisations  : 11200
 total energy-change (2. order) :-0.1127533E+04  (-0.1087364E+04)
 number of electron     159.0000000 magnetization 
 augmentation part      159.0000000 magnetization 

 Free energy of the ion-electron system (eV)
  ---------------------------------------------------
  alpha Z        PSCENC =        81.65567618
  Ewald energy   TEWEN  =     41891.17177386
  -Hartree energ DENC   =    -47723.81765316
  -exchange      EXHF   =         0.00000000
  -V(xc)+E(xc)   XCENC  =      -242.92465024
  PAW double counting   =      3467.42045192    -2871.19716117
  entropy T*S    EENTRO =        -0.19160748
  eigenvalues    EBANDS =     -1367.60341772
  atomic energy  EATOM  =      6761.44252427
  Solvation  Ediel_sol  =         0.00000000
  ---------------------------------------------------
  free energy    TOTEN  =        -4.04406355 eV

  energy without entropy =       -3.85245607  energy(sigma->0) =       -3.94825981


--------------------------------------------------------------------------------------------------------




----------------------------------------- Iteration    1(   3)  ---------------------------------------


     EDDAV:  cpu time   27.4339: real time   27.5010
       DOS:  cpu time    0.0010: real time    0.0010
    --------------------------------------------
      LOOP:  cpu time   27.4371: real time   27.5098

 eigenvalue-minimisations  : 10920
 total energy-change (2. order) :-0.1958146E+03  (-0.1881600E+03)
 number of electron     159.0000000 magnetization 
 augmentation part      159.0000000 magnetization 

 Free energy of the ion-electron system (eV)
  ---------------------------------------------------
  alpha Z        PSCENC =        81.65567618
  Ewald energy   TEWEN  =     41891.17177386
  -Hartree energ DENC   =    -47723.81765316
  -exchange      EXHF   =         0.00000000
  -V(xc)+E(xc)   XCENC  =      -242.92465024
  PAW double counting   =      3467.42045192    -2871.19716117
  entropy T*S    EENTRO =        -0.25535903
  eigenvalues    EBANDS =     -1563.35423712
  atomic energy  EATOM  =      6761.44252427
  Solvation  Ediel_sol  =         0.00000000
  ---------------------------------------------------
  free energy    TOTEN  =      -199.85863450 eV

  energy without entropy =     -199.60327547  energy(sigma->0) =     -199.73095499


--------------------------------------------------------------------------------------------------------




----------------------------------------- Iteration    1(   4)  ---------------------------------------


     EDDAV:  cpu time   29.7471: real time   29.8187
       DOS:  cpu time    0.0010: real time    0.0010
    --------------------------------------------
      LOOP:  cpu time   29.7489: real time   29.8280

 eigenvalue-minimisations  : 12040
 total energy-change (2. order) :-0.9106856E+01  (-0.8809081E+01)
 number of electron     159.0000000 magnetization 
 augmentation part      159.0000000 magnetization 

 Free energy of the ion-electron system (eV)
  ---------------------------------------------------
  alpha Z        PSCENC =        81.65567618
  Ewald energy   TEWEN  =     41891.17177386
  -Hartree energ DENC   =    -47723.81765316
  -exchange      EXHF   =         0.00000000
  -V(xc)+E(xc)   XCENC  =      -242.92465024
  PAW double counting   =      3467.42045192    -2871.19716117
  entropy T*S    EENTRO =        -0.28782654
  eigenvalues    EBANDS =     -1572.42862559
  atomic energy  EATOM  =      6761.44252427
  Solvation  Ediel_sol  =         0.00000000
  ---------------------------------------------------
  free energy    TOTEN  =      -208.96549047 eV

  energy without entropy =     -208.67766393  energy(sigma->0) =     -208.82157720


--------------------------------------------------------------------------------------------------------




----------------------------------------- Iteration    1(   5)  ---------------------------------------


     EDDAV:  cpu time   28.4520: real time   28.5204
       DOS:  cpu time    0.0010: real time    0.0010
    CHARGE:  cpu time    0.4654: real time    0.4674
    MIXING:  cpu time    0.0018: real time    0.0020
    --------------------------------------------
      LOOP:  cpu time   28.9223: real time   28.9987

 eigenvalue-minimisations  : 11440
 total energy-change (2. order) :-0.3322677E+00  (-0.3313004E+00)
 number of electron     159.0000110 magnetization 
 augmentation part       -9.8105657 magnetization 

 Broyden mixing:
  rms(total) = 0.27498E+01    rms(broyden)= 0.27493E+01
  rms(prec ) = 0.29349E+01
  weight for this iteration     100.00

 Free energy of the ion-electron system (eV)
  ---------------------------------------------------
  alpha Z        PSCENC =        81.65567618
  Ewald energy   TEWEN  =     41891.17177386
  -Hartree energ DENC   =    -47723.81765316
  -exchange      EXHF   =         0.00000000
  -V(xc)+E(xc)   XCENC  =      -242.92465024
  PAW double counting   =      3467.42045192    -2871.19716117
  entropy T*S    EENTRO =        -0.28467159
  eigenvalues    EBANDS =     -1572.76404826
  atomic energy  EATOM  =      6761.44252427
  Solvation  Ediel_sol  =         0.00000000
  ---------------------------------------------------
  free energy    TOTEN  =      -209.29775820 eV

  energy without entropy =     -209.01308661  energy(sigma->0) =     -209.15542240


--------------------------------------------------------------------------------------------------------




----------------------------------------- Iteration    1(   6)  ---------------------------------------


    POTLOK:  cpu time    0.0338: real time    0.0339
    SETDIJ:  cpu time    0.0026: real time    0.0026
     EDDAV:  cpu time   30.9643: real time   31.0389
       DOS:  cpu time    0.0012: real time    0.0012
    CHARGE:  cpu time    0.4600: real time    0.4611
    MIXING:  cpu time    0.0018: real time    0.0019
    --------------------------------------------
      LOOP:  cpu time   31.4647: real time   31.5487

 eigenvalue-minimisations  : 12720
 total energy-change (2. order) :-0.2830132E+02  (-0.1053173E+02)
 number of electron     159.0000106 magnetization 
 augmentation part        7.0819218 magnetization 

 Broyden mixing:
  rms(total) = 0.59361E+01    rms(broyden)= 0.59354E+01
  rms(prec ) = 0.65450E+01
  weight for this iteration     100.00

 eigenvalues of (default mixing * dielectric matrix)
  average eigenvalue GAMMA=   0.2942
  0.2942

 Free energy of the ion-electron system (eV)
  ---------------------------------------------------
  alpha Z        PSCENC =        81.65567618
  Ewald energy   TEWEN  =     41891.17177386
  -Hartree energ DENC   =    -47702.06176208
  -exchange      EXHF   =         0.00000000
  -V(xc)+E(xc)   XCENC  =      -233.62038155
  PAW double counting   =      3676.22443095    -3082.30511341
  entropy T*S    EENTRO =        -0.25130828
  eigenvalues    EBANDS =     -1629.85491684
  atomic energy  EATOM  =      6761.44252427
  Solvation  Ediel_sol  =         0.00000000
  ---------------------------------------------------
  free energy    TOTEN  =      -237.59907691 eV

  energy without entropy =     -237.34776862  energy(sigma->0) =     -237.47342277


--------------------------------------------------------------------------------------------------------




----------------------------------------- Iteration    1(   7)  ---------------------------------------


    POTLOK:  cpu time    0.0330: real time    0.0333
    SETDIJ:  cpu time    0.0025: real time    0.0025
     EDDAV:  cpu time   32.0090: real time   32.0863
       DOS:  cpu time    0.0010: real time    0.0010
    CHARGE:  cpu time    0.4725: real time    0.4737
    MIXING:  cpu time    0.0012: real time    0.0012
    --------------------------------------------
      LOOP:  cpu time   32.5204: real time   32.6072

 eigenvalue-minimisations  : 13200
 total energy-change (2. order) : 0.4097060E+02  (-0.1758911E+02)
 number of electron     159.0000090 magnetization 
 augmentation part       -6.2610760 magnetization 

 Broyden mixing:
  rms(total) = 0.20017E+01    rms(broyden)= 0.19997E+01
  rms(prec ) = 0.22231E+01
  weight for this iteration     100.00

 eigenvalues of (default mixing * dielectric matrix)
  average eigenvalue GAMMA=   0.5515
  0.8916  0.2114

 Free energy of the ion-electron system (eV)
  ---------------------------------------------------
  alpha Z        PSCENC =        81.65567618
  Ewald energy   TEWEN  =     41891.17177386
  -Hartree energ DENC   =    -47739.13217886
  -exchange      EXHF   =         0.00000000
  -V(xc)+E(xc)   XCENC  =      -234.99287968
  PAW double counting   =      3763.71640155    -3177.74451676
  entropy T*S    EENTRO =        -0.37044736
  eigenvalues    EBANDS =     -1542.37482602
  atomic energy  EATOM  =      6761.44252427
  Solvation  Ediel_sol  =         0.00000000
  ---------------------------------------------------
  free energy    TOTEN  =      -196.62847282 eV

  energy without entropy =     -196.25802546  energy(sigma->0) =     -196.44324914


--------------------------------------------------------------------------------------------------------




----------------------------------------- Iteration    1(   8)  ---------------------------------------


    POTLOK:  cpu time    0.0305: real time    0.0308
    SETDIJ:  cpu time    0.0024: real time    0.0024
     EDDAV:  cpu time   29.3448: real time   29.4156
       DOS:  cpu time    0.0011: real time    0.0011
    CHARGE:  cpu time    0.4824: real time    0.4835
    MIXING:  cpu time    0.0011: real time    0.0011
    --------------------------------------------
      LOOP:  cpu time   29.8635: real time   29.9440

 eigenvalue-minimisations  : 11880
 total energy-change (2. order) : 0.7143196E+01  (-0.1826964E+01)
 number of electron     159.0000095 magnetization 
 augmentation part       -6.3735038 magnetization 

 Broyden mixing:
  rms(total) = 0.12499E+01    rms(broyden)= 0.12496E+01
  rms(prec ) = 0.13503E+01
  weight for this iteration     100.00

 eigenvalues of (default mixing * dielectric matrix)
  average eigenvalue GAMMA=   0.5971
  1.1551  0.2306  0.4054

 Free energy of the ion-electron system (eV)
  ---------------------------------------------------
  alpha Z        PSCENC =        81.65567618
  Ewald energy   TEWEN  =     41891.17177386
  -Hartree energ DENC   =    -47762.18373560
  -exchange      EXHF   =         0.00000000
  -V(xc)+E(xc)   XCENC  =      -235.00399190
  PAW double counting   =      3906.74310949    -3322.40280408
  entropy T*S    EENTRO =        -0.32301160
  eigenvalues    EBANDS =     -1510.58481758
  atomic energy  EATOM  =      6761.44252427
  Solvation  Ediel_sol  =         0.00000000
  ---------------------------------------------------
  free energy    TOTEN  =      -189.48527696 eV

  energy without entropy =     -189.16226536  energy(sigma->0) =     -189.32377116


--------------------------------------------------------------------------------------------------------




----------------------------------------- Iteration    1(   9)  ---------------------------------------


    POTLOK:  cpu time    0.0301: real time    0.0305
    SETDIJ:  cpu time    0.0023: real time    0.0023
     EDDAV:  cpu time   32.8579: real time   32.9372
       DOS:  cpu time    0.0010: real time    0.0010
    CHARGE:  cpu time    0.4873: real time    0.4884
    MIXING:  cpu time    0.0012: real time    0.0012
    --------------------------------------------
      LOOP:  cpu time   33.3809: real time   33.4702

 eigenvalue-minimisations  : 13600
 total energy-change (2. order) : 0.1418045E+01  (-0.3114442E+00)
 number of electron     159.0000090 magnetization 
 augmentation part       -5.5193538 magnetization 

 Broyden mixing:
  rms(total) = 0.89031E+00    rms(broyden)= 0.89013E+00
  rms(prec ) = 0.96487E+00
  weight for this iteration     100.00

 eigenvalues of (default mixing * dielectric matrix)
  average eigenvalue GAMMA=   0.7570
  1.8468  0.6327  0.2211  0.3276

 Free energy of the ion-electron system (eV)
  ---------------------------------------------------
  alpha Z        PSCENC =        81.65567618
  Ewald energy   TEWEN  =     41891.17177386
  -Hartree energ DENC   =    -47767.25058110
  -exchange      EXHF   =         0.00000000
  -V(xc)+E(xc)   XCENC  =      -234.06449094
  PAW double counting   =      3981.06482901    -3397.65700965
  entropy T*S    EENTRO =        -0.31826691
  eigenvalues    EBANDS =     -1504.11168636
  atomic energy  EATOM  =      6761.44252427
  Solvation  Ediel_sol  =         0.00000000
  ---------------------------------------------------
  free energy    TOTEN  =      -188.06723165 eV

  energy without entropy =     -187.74896474  energy(sigma->0) =     -187.90809819


--------------------------------------------------------------------------------------------------------




----------------------------------------- Iteration    1(  10)  ---------------------------------------


    POTLOK:  cpu time    0.0320: real time    0.0321
    SETDIJ:  cpu time    0.0025: real time    0.0025
     EDDAV:  cpu time   32.6251: real time   32.7032
       DOS:  cpu time    0.0003: real time    0.0011
    CHARGE:  cpu time    0.4982: real time    0.4994
    MIXING:  cpu time    0.0013: real time    0.0013
    --------------------------------------------
      LOOP:  cpu time   33.1612: real time   33.2493

 eigenvalue-minimisations  : 13480
 total energy-change (2. order) : 0.1145798E+01  (-0.1591014E+00)
 number of electron     159.0000092 magnetization 
 augmentation part       -4.2153693 magnetization 

 Broyden mixing:
  rms(total) = 0.19586E+00    rms(broyden)= 0.19520E+00
  rms(prec ) = 0.20639E+00
  weight for this iteration     100.00

 eigenvalues of (default mixing * dielectric matrix)
  average eigenvalue GAMMA=   0.9471
  1.7808  1.7808  0.6467  0.2213  0.3057

 Free energy of the ion-electron system (eV)
  ---------------------------------------------------
  alpha Z        PSCENC =        81.65567618
  Ewald energy   TEWEN  =     41891.17177386
  -Hartree energ DENC   =    -47780.68176714
  -exchange      EXHF   =         0.00000000
  -V(xc)+E(xc)   XCENC  =      -232.54099464
  PAW double counting   =      4109.39703062    -3527.57017282
  entropy T*S    EENTRO =        -0.35187898
  eigenvalues    EBANDS =     -1489.44362524
  atomic energy  EATOM  =      6761.44252427
  Solvation  Ediel_sol  =         0.00000000
  ---------------------------------------------------
  free energy    TOTEN  =      -186.92143390 eV

  energy without entropy =     -186.56955492  energy(sigma->0) =     -186.74549441


--------------------------------------------------------------------------------------------------------




----------------------------------------- Iteration    1(  11)  ---------------------------------------


    POTLOK:  cpu time    0.0305: real time    0.0308
    SETDIJ:  cpu time    0.0024: real time    0.0024
     EDDAV:  cpu time   32.8801: real time   32.9594
       DOS:  cpu time    0.0010: real time    0.0010
    CHARGE:  cpu time    0.5054: real time    0.5067
    MIXING:  cpu time    0.0013: real time    0.0013
    --------------------------------------------
      LOOP:  cpu time   33.4219: real time   33.5108

 eigenvalue-minimisations  : 13600
 total energy-change (2. order) :-0.1261728E-01  (-0.4255363E-01)
 number of electron     159.0000087 magnetization 
 augmentation part       -4.6192757 magnetization 

 Broyden mixing:
  rms(total) = 0.30060E+00    rms(broyden)= 0.30052E+00
  rms(prec ) = 0.33441E+00
  weight for this iteration     100.00

 eigenvalues of (default mixing * dielectric matrix)
  average eigenvalue GAMMA=   0.9601
  2.1894  1.7374  0.6523  0.6523  0.2209  0.3084

 Free energy of the ion-electron system (eV)
  ---------------------------------------------------
  alpha Z        PSCENC =        81.65567618
  Ewald energy   TEWEN  =     41891.17177386
  -Hartree energ DENC   =    -47795.14199277
  -exchange      EXHF   =         0.00000000
  -V(xc)+E(xc)   XCENC  =      -232.08666225
  PAW double counting   =      4173.88433463    -3592.16955623
  entropy T*S    EENTRO =        -0.32583981
  eigenvalues    EBANDS =     -1475.36430905
  atomic energy  EATOM  =      6761.44252427
  Solvation  Ediel_sol  =         0.00000000
  ---------------------------------------------------
  free energy    TOTEN  =      -186.93405117 eV

  energy without entropy =     -186.60821136  energy(sigma->0) =     -186.77113127


--------------------------------------------------------------------------------------------------------




----------------------------------------- Iteration    1(  12)  ---------------------------------------


    POTLOK:  cpu time    0.0319: real time    0.0320
    SETDIJ:  cpu time    0.0024: real time    0.0024
     EDDAV:  cpu time   32.7064: real time   32.7852
       DOS:  cpu time    0.0010: real time    0.0010
    CHARGE:  cpu time    0.5024: real time    0.5036
    MIXING:  cpu time    0.0014: real time    0.0014
    --------------------------------------------
      LOOP:  cpu time   33.2465: real time   33.3347

 eigenvalue-minimisations  : 13520
 total energy-change (2. order) : 0.7721789E-01  (-0.2554903E-01)
 number of electron     159.0000088 magnetization 
 augmentation part       -4.1922021 magnetization 

 Broyden mixing:
  rms(total) = 0.13255E+00    rms(broyden)= 0.13224E+00
  rms(prec ) = 0.15114E+00
  weight for this iteration     100.00

 eigenvalues of (default mixing * dielectric matrix)
  average eigenvalue GAMMA=   0.8843
  2.2475  1.7259  0.7747  0.6583  0.3080  0.2208  0.2547

 Free energy of the ion-electron system (eV)
  ---------------------------------------------------
  alpha Z        PSCENC =        81.65567618
  Ewald energy   TEWEN  =     41891.17177386
  -Hartree energ DENC   =    -47801.17891135
  -exchange      EXHF   =         0.00000000
  -V(xc)+E(xc)   XCENC  =      -231.92248522
  PAW double counting   =      4189.50119570    -3607.70223290
  entropy T*S    EENTRO =        -0.33973671
  eigenvalues    EBANDS =     -1469.48463712
  atomic energy  EATOM  =      6761.44252427
  Solvation  Ediel_sol  =         0.00000000
  ---------------------------------------------------
  free energy    TOTEN  =      -186.85683329 eV

  energy without entropy =     -186.51709658  energy(sigma->0) =     -186.68696493


--------------------------------------------------------------------------------------------------------




----------------------------------------- Iteration    1(  13)  ---------------------------------------


    POTLOK:  cpu time    0.0300: real time    0.0303
    SETDIJ:  cpu time    0.0023: real time    0.0023
     EDDAV:  cpu time   30.0094: real time   30.0817
       DOS:  cpu time    0.0003: real time    0.0011
    CHARGE:  cpu time    0.5026: real time    0.5038
    MIXING:  cpu time    0.0013: real time    0.0014
    --------------------------------------------
      LOOP:  cpu time   30.5480: real time   30.6301

 eigenvalue-minimisations  : 12200
 total energy-change (2. order) : 0.2592560E-01  (-0.7287098E-02)
 number of electron     159.0000089 magnetization 
 augmentation part       -4.1018762 magnetization 

 Broyden mixing:
  rms(total) = 0.89730E-01    rms(broyden)= 0.89613E-01
  rms(prec ) = 0.10008E+00
  weight for this iteration     100.00

 eigenvalues of (default mixing * dielectric matrix)
  average eigenvalue GAMMA=   0.8142
  2.2455  1.7538  0.8264  0.6416  0.3184  0.3099  0.2207  0.1973

 Free energy of the ion-electron system (eV)
  ---------------------------------------------------
  alpha Z        PSCENC =        81.65567618
  Ewald energy   TEWEN  =     41891.17177386
  -Hartree energ DENC   =    -47803.57277031
  -exchange      EXHF   =         0.00000000
  -V(xc)+E(xc)   XCENC  =      -231.87700594
  PAW double counting   =      4191.84854756    -3610.00448810
  entropy T*S    EENTRO =        -0.34281349
  eigenvalues    EBANDS =     -1467.15235171
  atomic energy  EATOM  =      6761.44252427
  Solvation  Ediel_sol  =         0.00000000
  ---------------------------------------------------
  free energy    TOTEN  =      -186.83090768 eV

  energy without entropy =     -186.48809419  energy(sigma->0) =     -186.65950094


--------------------------------------------------------------------------------------------------------




----------------------------------------- Iteration    1(  14)  ---------------------------------------


    POTLOK:  cpu time    0.0307: real time    0.0308
    SETDIJ:  cpu time    0.0023: real time    0.0023
     EDDAV:  cpu time   32.2132: real time   32.2903
       DOS:  cpu time    0.0002: real time    0.0011
    CHARGE:  cpu time    0.5020: real time    0.5032
    MIXING:  cpu time    0.0015: real time    0.0015
    --------------------------------------------
      LOOP:  cpu time   32.7517: real time   32.8384

 eigenvalue-minimisations  : 13280
 total energy-change (2. order) : 0.1675133E-02  (-0.2199929E-02)
 number of electron     159.0000089 magnetization 
 augmentation part       -4.1290752 magnetization 

 Broyden mixing:
  rms(total) = 0.77481E-01    rms(broyden)= 0.77450E-01
  rms(prec ) = 0.86555E-01
  weight for this iteration     100.00

 eigenvalues of (default mixing * dielectric matrix)
  average eigenvalue GAMMA=   0.8317
  2.2080  1.9591  1.1200  0.6465  0.6465  0.3080  0.2209  0.2538  0.1221

 Free energy of the ion-electron system (eV)
  ---------------------------------------------------
  alpha Z        PSCENC =        81.65567618
  Ewald energy   TEWEN  =     41891.17177386
  -Hartree energ DENC   =    -47805.00305881
  -exchange      EXHF   =         0.00000000
  -V(xc)+E(xc)   XCENC  =      -231.85822748
  PAW double counting   =      4192.28543717    -3610.42057720
  entropy T*S    EENTRO =        -0.34210751
  eigenvalues    EBANDS =     -1465.76067304
  atomic energy  EATOM  =      6761.44252427
  Solvation  Ediel_sol  =         0.00000000
  ---------------------------------------------------
  free energy    TOTEN  =      -186.82923255 eV

  energy without entropy =     -186.48712504  energy(sigma->0) =     -186.65817879


--------------------------------------------------------------------------------------------------------




----------------------------------------- Iteration    1(  15)  ---------------------------------------


    POTLOK:  cpu time    0.0305: real time    0.0309
    SETDIJ:  cpu time    0.0025: real time    0.0025
     EDDAV:  cpu time   32.1798: real time   32.2575
       DOS:  cpu time    0.0012: real time    0.0012
    CHARGE:  cpu time    0.5062: real time    0.5075
    MIXING:  cpu time    0.0016: real time    0.0016
    --------------------------------------------
      LOOP:  cpu time   32.7232: real time   32.8104

 eigenvalue-minimisations  : 13280
 total energy-change (2. order) : 0.5953416E-02  (-0.1241898E-02)
 number of electron     159.0000089 magnetization 
 augmentation part       -4.2098895 magnetization 

 Broyden mixing:
  rms(total) = 0.17198E-01    rms(broyden)= 0.17108E-01
  rms(prec ) = 0.20893E-01
  weight for this iteration     100.00

 eigenvalues of (default mixing * dielectric matrix)
  average eigenvalue GAMMA=   0.8962
  2.2755  2.2755  1.3639  0.9021  0.6233  0.6233  0.3083  0.2209  0.2500  0.1198

 Free energy of the ion-electron system (eV)
  ---------------------------------------------------
  alpha Z        PSCENC =        81.65567618
  Ewald energy   TEWEN  =     41891.17177386
  -Hartree energ DENC   =    -47809.19635050
  -exchange      EXHF   =         0.00000000
  -V(xc)+E(xc)   XCENC  =      -231.80382471
  PAW double counting   =      4193.35316116    -3611.43333377
  entropy T*S    EENTRO =        -0.33971174
  eigenvalues    EBANDS =     -1461.67319389
  atomic energy  EATOM  =      6761.44252427
  Solvation  Ediel_sol  =         0.00000000
  ---------------------------------------------------
  free energy    TOTEN  =      -186.82327913 eV

  energy without entropy =     -186.48356739  energy(sigma->0) =     -186.65342326


--------------------------------------------------------------------------------------------------------




----------------------------------------- Iteration    1(  16)  ---------------------------------------


    POTLOK:  cpu time    0.0299: real time    0.0300
    SETDIJ:  cpu time    0.0024: real time    0.0024
     EDDAV:  cpu time   28.7518: real time   28.8211
       DOS:  cpu time    0.0003: real time    0.0011
    CHARGE:  cpu time    0.5005: real time    0.5017
    MIXING:  cpu time    0.0007: real time    0.0016
    --------------------------------------------
      LOOP:  cpu time   29.2882: real time   29.3674

 eigenvalue-minimisations  : 11640
 total energy-change (2. order) : 0.3232680E-03  (-0.2758820E-03)
 number of electron     159.0000089 magnetization 
 augmentation part       -4.2061267 magnetization 

 Broyden mixing:
  rms(total) = 0.15974E-01    rms(broyden)= 0.15959E-01
  rms(prec ) = 0.19501E-01
  weight for this iteration     100.00

 eigenvalues of (default mixing * dielectric matrix)
  average eigenvalue GAMMA=   0.8787
  2.3334  2.3334  1.4086  1.0369  0.6395  0.6395  0.3761  0.3081  0.2209  0.2493
  0.1198

 Free energy of the ion-electron system (eV)
  ---------------------------------------------------
  alpha Z        PSCENC =        81.65567618
  Ewald energy   TEWEN  =     41891.17177386
  -Hartree energ DENC   =    -47814.30479051
  -exchange      EXHF   =         0.00000000
  -V(xc)+E(xc)   XCENC  =      -231.73988158
  PAW double counting   =      4194.41921647    -3612.45134063
  entropy T*S    EENTRO =        -0.33972647
  eigenvalues    EBANDS =     -1456.67640745
  atomic energy  EATOM  =      6761.44252427
  Solvation  Ediel_sol  =         0.00000000
  ---------------------------------------------------
  free energy    TOTEN  =      -186.82295587 eV

  energy without entropy =     -186.48322940  energy(sigma->0) =     -186.65309263


--------------------------------------------------------------------------------------------------------




----------------------------------------- Iteration    1(  17)  ---------------------------------------


    POTLOK:  cpu time    0.0304: real time    0.0307
    SETDIJ:  cpu time    0.0025: real time    0.0025
     EDDAV:  cpu time   29.5831: real time   29.6544
       DOS:  cpu time    0.0011: real time    0.0011
    CHARGE:  cpu time    0.5060: real time    0.5072
    MIXING:  cpu time    0.0017: real time    0.0017
    --------------------------------------------
      LOOP:  cpu time   30.1259: real time   30.2073

 eigenvalue-minimisations  : 12000
 total energy-change (2. order) : 0.4316054E-03  (-0.1435672E-03)
 number of electron     159.0000089 magnetization 
 augmentation part       -4.1913471 magnetization 

 Broyden mixing:
  rms(total) = 0.14077E-01    rms(broyden)= 0.14066E-01
  rms(prec ) = 0.16736E-01
  weight for this iteration     100.00

 eigenvalues of (default mixing * dielectric matrix)
  average eigenvalue GAMMA=   0.8312
  2.3489  2.3489  1.4154  1.0677  0.6450  0.6450  0.4227  0.3080  0.2209  0.2495
  0.1198  0.1823

 Free energy of the ion-electron system (eV)
  ---------------------------------------------------
  alpha Z        PSCENC =        81.65567618
  Ewald energy   TEWEN  =     41891.17177386
  -Hartree energ DENC   =    -47816.77082435
  -exchange      EXHF   =         0.00000000
  -V(xc)+E(xc)   XCENC  =      -231.71457035
  PAW double counting   =      4194.45361669    -3612.47083791
  entropy T*S    EENTRO =        -0.34011567
  eigenvalues    EBANDS =     -1454.24976698
  atomic energy  EATOM  =      6761.44252427
  Solvation  Ediel_sol  =         0.00000000
  ---------------------------------------------------
  free energy    TOTEN  =      -186.82252426 eV

  energy without entropy =     -186.48240859  energy(sigma->0) =     -186.65246643


--------------------------------------------------------------------------------------------------------




----------------------------------------- Iteration    1(  18)  ---------------------------------------


    POTLOK:  cpu time    0.0312: real time    0.0315
    SETDIJ:  cpu time    0.0024: real time    0.0024
     EDDAV:  cpu time   26.0850: real time   26.1480
       DOS:  cpu time    0.0010: real time    0.0010
    --------------------------------------------
      LOOP:  cpu time   26.1209: real time   26.1927

 eigenvalue-minimisations  : 10280
 total energy-change (2. order) :-0.2254070E-04  (-0.9555049E-04)
 number of electron     159.0000089 magnetization 
 augmentation part       -4.1913471 magnetization 

 Free energy of the ion-electron system (eV)
  ---------------------------------------------------
  alpha Z        PSCENC =        81.65567618
  Ewald energy   TEWEN  =     41891.17177386
  -Hartree energ DENC   =    -47817.71475537
  -exchange      EXHF   =         0.00000000
  -V(xc)+E(xc)   XCENC  =      -231.70654182
  PAW double counting   =      4194.32555552    -3612.33899072
  entropy T*S    EENTRO =        -0.34009193
  eigenvalues    EBANDS =     -1453.31769678
  atomic energy  EATOM  =      6761.44252427
  Solvation  Ediel_sol  =         0.00000000
  ---------------------------------------------------
  free energy    TOTEN  =      -186.82254680 eV

  energy without entropy =     -186.48245487  energy(sigma->0) =     -186.65250083


--------------------------------------------------------------------------------------------------------




 average (electrostatic) potential at core
  the test charge radii are     1.2064  1.2296  1.1823  0.9698
  (the norm of the test charge is              1.0000)
       1 -50.0896       2 -50.0979       3 -50.1036       4 -47.5664       5 -47.5637
       6 -47.5692       7 -49.9941       8 -49.9898       9 -49.9940      10 -95.4967
      11 -95.4663      12 -95.2486      13 -95.4681      14 -95.2530      15 -95.1662
      16 -95.2543      17 -95.1679      18 -95.2531      19 -95.1196      20 -95.3254
      21 -95.1622      22 -95.2488      23 -95.4682      24 -94.9259      25 -95.1242
      26 -95.2522      27 -95.1181
 
 
 
 E-fermi :  -3.4262     XC(G=0):  -2.4982     alpha+bet : -2.1596


 k-point     1 :       0.0000    0.0000    0.0000
  band No.  band energies     occupation 
      1     -18.3536      2.00000
      2     -17.2283      2.00000
      3     -17.2086      2.00000
      4     -17.1666      2.00000
      5     -16.9481      2.00000
      6     -16.8571      2.00000
      7     -16.8431      2.00000
      8     -16.6253      2.00000
      9     -16.5369      2.00000
     10     -16.5335      2.00000
     11     -16.3737      2.00000
     12     -16.3195      2.00000
     13     -16.3003      2.00000
     14     -16.3000      2.00000
     15     -16.2439      2.00000
     16     -16.0540      2.00000
     17     -16.0515      2.00000
     18     -15.8256      2.00000
     19      -9.6287      2.00000
     20      -9.6196      2.00000
     21      -9.5787      2.00000
     22      -9.5191      2.00000
     23      -9.2354      2.00000
     24      -9.2212      2.00000
     25      -9.1595      2.00000
     26      -8.9595      2.00000
     27      -8.8322      2.00000
     28      -8.8268      2.00000
     29      -8.7568      2.00000
     30      -8.7540      2.00000
     31      -8.7122      2.00000
     32      -8.4389      2.00000
     33      -8.4378      2.00000
     34      -8.3818      2.00000
     35      -8.3511      2.00000
     36      -8.3506      2.00000
     37      -8.2194      2.00000
     38      -8.1782      2.00000
     39      -8.1696      2.00000
     40      -8.0274      2.00000
     41      -7.9919      2.00000
     42      -7.9799      2.00000
     43      -7.9172      2.00000
     44      -7.7042      2.00000
     45      -7.6919      2.00000
     46      -7.4438      2.00000
     47      -7.4274      2.00000
     48      -7.4181      2.00000
     49      -7.3260      2.00000
     50      -7.1241      2.00000
     51      -7.1132      2.00000
     52      -6.7024      2.00000
     53      -6.6457      2.00000
     54      -6.6329      2.00000
     55      -6.6025      2.00000
     56      -6.6016      2.00000
     57      -6.5643      2.00000
     58      -5.8849      2.00000
     59      -5.7607      2.00000
     60      -5.7343      2.00000
     61      -5.7063      2.00000
     62      -5.6917      2.00000
     63      -5.5527      2.00000
     64      -5.5478      2.00000
     65      -5.4183      2.00000
     66      -5.4173      2.00000
     67      -5.3774      2.00000
     68      -5.3644      2.00000
     69      -5.3634      2.00000
     70      -5.2199      2.00000
     71      -4.4288      2.00000
     72      -4.4171      2.00000
     73      -4.2383      2.00000
     74      -4.1741      2.00000
     75      -4.1621      2.00000
     76      -4.0799      2.00000
     77      -3.9867      1.99993
     78      -3.9825      1.99992
     79      -3.9783      1.99991
     80      -3.9480      1.99978
     81      -3.3384      0.53486
     82      -3.3340      0.51454
     83      -2.9022      0.00021
     84      -2.8044      0.00001
     85      -2.7433      0.00000
     86      -2.7417      0.00000
     87      -2.6638      0.00000
     88      -2.6595      0.00000
     89      -2.6295      0.00000
     90      -2.4698      0.00000
     91      -2.3421      0.00000
     92      -2.3394      0.00000
     93      -2.2448      0.00000
     94      -2.2435      0.00000
     95      -2.2272      0.00000
     96      -2.1874      0.00000
     97      -1.9511      0.00000
     98      -1.9155      0.00000
     99      -1.9050      0.00000
    100      -0.7596      0.00000
    101      -0.7403      0.00000
    102      -0.7169      0.00000
    103      -0.6684      0.00000
    104      -0.4440      0.00000
    105      -0.4025      0.00000
    106       0.1580      0.00000
    107       0.3036      0.00000
    108       0.3174      0.00000
    109       0.4644      0.00000
    110       0.5090      0.00000
    111       0.5577      0.00000
    112       0.8128      0.00000
    113       0.8505      0.00000
    114       0.8797      0.00000
    115       0.9402      0.00000
    116       0.9669      0.00000
    117       1.0064      0.00000
    118       1.2814      0.00000
    119       1.3553      0.00000
    120       1.9163      0.00000

 k-point     2 :       0.1250    0.0000    0.0000
  band No.  band energies     occupation 
      1     -18.3331      2.00000
      2     -17.3467      2.00000
      3     -17.2261      2.00000
      4     -17.1104      2.00000
      5     -16.9426      2.00000
      6     -16.8638      2.00000
      7     -16.8251      2.00000
      8     -16.6121      2.00000
      9     -16.5306      2.00000
     10     -16.5009      2.00000
     11     -16.3829      2.00000
     12     -16.3129      2.00000
     13     -16.3064      2.00000
     14     -16.2730      2.00000
     15     -16.2440      2.00000
     16     -16.0618      2.00000
     17     -16.0565      2.00000
     18     -15.8308      2.00000
     19      -9.7721      2.00000
     20      -9.6647      2.00000
     21      -9.6099      2.00000
     22      -9.4706      2.00000
     23      -9.2393      2.00000
     24      -9.2002      2.00000
     25      -9.1397      2.00000
     26      -9.0539      2.00000
     27      -8.9112      2.00000
     28      -8.8562      2.00000
     29      -8.7892      2.00000
     30      -8.6303      2.00000
     31      -8.5512      2.00000
     32      -8.4872      2.00000
     33      -8.4526      2.00000
     34      -8.3412      2.00000
     35      -8.2992      2.00000
     36      -8.2866      2.00000
     37      -8.2462      2.00000
     38      -8.1626      2.00000
     39      -8.1472      2.00000
     40      -8.0353      2.00000
     41      -7.9550      2.00000
     42      -7.9368      2.00000
     43      -7.8398      2.00000
     44      -7.7182      2.00000
     45      -7.6809      2.00000
     46      -7.4531      2.00000
     47      -7.4196      2.00000
     48      -7.3487      2.00000
     49      -7.3292      2.00000
     50      -7.1385      2.00000
     51      -7.1231      2.00000
     52      -6.7967      2.00000
     53      -6.7304      2.00000
     54      -6.6862      2.00000
     55      -6.6211      2.00000
     56      -6.4546      2.00000
     57      -6.4221      2.00000
     58      -5.9815      2.00000
     59      -5.8808      2.00000
     60      -5.8315      2.00000
     61      -5.7865      2.00000
     62      -5.6946      2.00000
     63      -5.6712      2.00000
     64      -5.5854      2.00000
     65      -5.5290      2.00000
     66      -5.5077      2.00000
     67      -5.3622      2.00000
     68      -5.2327      2.00000
     69      -5.1855      2.00000
     70      -5.0665      2.00000
     71      -4.5754      2.00000
     72      -4.4919      2.00000
     73      -4.2788      2.00000
     74      -4.1776      2.00000
     75      -4.1513      2.00000
     76      -4.0586      1.99999
     77      -3.9867      1.99993
     78      -3.9691      1.99988
[...]
    104      -0.4831      0.00000
    105      -0.4085      0.00000
    106      -0.2843      0.00000
    107      -0.2206      0.00000
    108      -0.1679      0.00000
    109       0.0099      0.00000
    110       0.2686      0.00000
    111       0.3442      0.00000
    112       0.5548      0.00000
    113       0.6346      0.00000
    114       0.8504      0.00000
    115       1.1190      0.00000
    116       1.2927      0.00000
    117       1.3515      0.00000
    118       2.1358      0.00000
    119       2.2995      0.00000
    120       2.3925      0.00000

 k-point    34 :       0.5000    0.5000    0.0000
  band No.  band energies     occupation 
      1     -17.4862      2.00000
      2     -17.2804      2.00000
      3     -16.7073      2.00000
      4     -16.6507      2.00000
      5     -16.5019      2.00000
      6     -16.4053      2.00000
      7     -16.1703      2.00000
      8     -16.1684      2.00000
      9     -16.1652      2.00000
     10     -16.0269      2.00000
     11     -15.9346      2.00000
     12     -15.7414      2.00000
     13     -15.7277      2.00000
     14     -15.6774      2.00000
     15     -15.6636      2.00000
     16     -15.5443      2.00000
     17     -15.5265      2.00000
     18     -15.4905      2.00000
     19      -9.7615      2.00000
     20      -9.2750      2.00000
     21      -9.2636      2.00000
     22      -9.0354      2.00000
     23      -8.8956      2.00000
     24      -8.8593      2.00000
     25      -8.5825      2.00000
     26      -8.5083      2.00000
     27      -8.3864      2.00000
     28      -8.2838      2.00000
     29      -8.2390      2.00000
     30      -8.1468      2.00000
     31      -8.0831      2.00000
     32      -7.9628      2.00000
     33      -7.9614      2.00000
     34      -7.8052      2.00000
     35      -7.7386      2.00000
     36      -7.6708      2.00000
     37      -7.6021      2.00000
     38      -7.3339      2.00000
     39      -7.3229      2.00000
     40      -7.2724      2.00000
     41      -7.0399      2.00000
     42      -7.0159      2.00000
     43      -6.9146      2.00000
     44      -6.9005      2.00000
     45      -6.8781      2.00000
     46      -6.7486      2.00000
     47      -6.6851      2.00000
     48      -6.6352      2.00000
     49      -6.6158      2.00000
     50      -6.5756      2.00000
     51      -6.3493      2.00000
     52      -6.3243      2.00000
     53      -6.2311      2.00000
     54      -6.1684      2.00000
     55      -6.1398      2.00000
     56      -6.0940      2.00000
     57      -6.0650      2.00000
     58      -5.9445      2.00000
     59      -5.9306      2.00000
     60      -5.8255      2.00000
     61      -5.7979      2.00000
     62      -5.6507      2.00000
     63      -5.5630      2.00000
     64      -5.5079      2.00000
     65      -5.4943      2.00000
     66      -5.0324      2.00000
     67      -4.9637      2.00000
     68      -4.8136      2.00000
     69      -4.7463      2.00000
     70      -4.7141      2.00000
     71      -4.6161      2.00000
     72      -4.5591      2.00000
     73      -4.3293      2.00000
     74      -4.2375      2.00000
     75      -3.9613      2.00000
     76      -3.8930      2.00000
     77      -3.8194      1.99999
     78      -3.6021      1.99710
     79      -3.5550      1.99184
     80      -3.0737      0.44854
     81      -3.0652      0.41314
     82      -2.9338      0.08061
     83      -2.7494      0.00228
     84      -2.7307      0.00146
     85      -2.5927      0.00003
     86      -2.5694      0.00002
     87      -2.4945      0.00000
     88      -2.4090      0.00000
     89      -2.1492      0.00000
     90      -2.1395      0.00000
     91      -1.9040      0.00000
     92      -1.8996      0.00000
     93      -1.8148      0.00000
     94      -1.3399      0.00000
     95      -1.1608      0.00000
     96      -1.1033      0.00000
     97      -0.9914      0.00000
     98      -0.9647      0.00000
     99      -0.8379      0.00000
    100      -0.7740      0.00000
    101      -0.7718      0.00000
    102      -0.7124      0.00000
    103      -0.5410      0.00000
    104      -0.4841      0.00000
    105      -0.4700      0.00000
    106      -0.2898      0.00000
    107      -0.2639      0.00000
    108      -0.1456      0.00000
    109       0.0162      0.00000
    110       0.3179      0.00000
    111       0.3820      0.00000
    112       0.5420      0.00000
    113       0.6020      0.00000
    114       0.8766      0.00000
    115       1.0943      0.00000
    116       1.3390      0.00000
    117       1.3544      0.00000
    118       2.2248      0.00000
    119       2.2386      0.00000
    120       2.3654      0.00000


--------------------------------------------------------------------------------------------------------


 soft charge-density along one line, spin component           1
         0         1         2         3         4         5         6         7         8         9
 total charge-density along one line
 
 pseudopotential strength for first ion, spin component:           1
 -7.346  -0.035  -0.000   0.000  -0.000   0.713   0.009   0.000
 -0.035  -7.296   0.000   0.000  -0.000   0.009   0.697  -0.000
 -0.000   0.000  -7.246  -0.018  -0.029   0.000  -0.000   0.684
  0.000   0.000  -0.018  -7.254  -0.017  -0.000  -0.000   0.005
 -0.000  -0.000  -0.029  -0.017  -7.348   0.000  -0.000   0.009
  0.713   0.009   0.000  -0.000   0.000   0.321  -0.002  -0.000
  0.009   0.697  -0.000  -0.000  -0.000  -0.002   0.326   0.000
  0.000  -0.000   0.684   0.005   0.009  -0.000   0.000   0.329
 -0.000  -0.000   0.005   0.685   0.006   0.000   0.000  -0.002
  0.000  -0.000   0.009   0.006   0.713  -0.000   0.000  -0.003
 -0.000  -0.000  -0.016   0.009  -0.008   0.000  -0.000   0.003
 -0.000  -0.000  -0.006   0.003  -0.002   0.000   0.000   0.001
 -0.004  -0.002   0.000   0.000   0.000   0.000   0.000  -0.000
  0.000  -0.000  -0.001  -0.004   0.000  -0.000   0.000   0.000
 -0.000   0.000   0.001  -0.001  -0.002   0.000  -0.000  -0.000
 -0.003  -0.001   0.000   0.000   0.000   0.001   0.000  -0.000
  0.000  -0.000   0.000  -0.003   0.000  -0.000   0.000  -0.000
 -0.000   0.000   0.001  -0.000  -0.001   0.000  -0.000  -0.000
 total augmentation occupancy for first ion, spin component:           1
  0.831   0.154  -0.000   0.000  -0.001   0.413   0.255   0.000   0.000  -0.000  -0.000   0.000  -0.009   0.002   0.001   0.001
  0.154   1.133  -0.000  -0.000   0.000   0.252   0.616  -0.001   0.000   0.000   0.000  -0.000  -0.023   0.002   0.001  -0.001
 -0.000  -0.000   0.701  -0.069  -0.080   0.000  -0.001   0.265   0.003  -0.002   0.173   0.000   0.002   0.004  -0.013   0.000
  0.000  -0.000  -0.069   1.072  -0.176   0.000   0.000   0.001   0.610  -0.233   0.021  -0.000   0.002  -0.008  -0.012   0.000
 -0.001   0.000  -0.080  -0.176   0.774  -0.000   0.000  -0.006  -0.235   0.401  -0.046   0.002   0.001   0.003   0.012   0.000
  0.413   0.252   0.000   0.000  -0.000   0.355   0.228  -0.000   0.000   0.000   0.000   0.000  -0.008   0.002   0.001  -0.000
  0.255   0.616  -0.001   0.000   0.000   0.228   0.549  -0.000   0.000   0.000  -0.000  -0.000  -0.028   0.002   0.002  -0.002
  0.000  -0.001   0.265   0.001  -0.006  -0.000  -0.000   0.234  -0.005  -0.000   0.019   0.005  -0.000  -0.001  -0.005   0.000
  0.000   0.000   0.003   0.610  -0.235   0.000   0.000  -0.005   0.536  -0.215   0.027   0.001   0.001  -0.019  -0.004   0.000
 -0.000   0.000  -0.002  -0.233   0.401   0.000   0.000  -0.000  -0.215   0.355   0.001  -0.001  -0.001   0.012   0.002  -0.000
 -0.000   0.000   0.173   0.021  -0.046   0.000  -0.000   0.019   0.027   0.001   1.386   0.127   0.001  -0.023   0.004   0.000
  0.000  -0.000   0.000  -0.000   0.002   0.000  -0.000   0.005   0.001  -0.001   0.127   0.024   0.000  -0.001  -0.002   0.000
 -0.009  -0.023   0.002   0.002   0.001  -0.008  -0.028  -0.000   0.001  -0.001   0.001   0.000   0.368  -0.000  -0.000   0.025
  0.002   0.002   0.004  -0.008   0.003   0.002   0.002  -0.001  -0.019   0.012  -0.023  -0.001  -0.000   0.411   0.011  -0.000
  0.001   0.001  -0.013  -0.012   0.012   0.001   0.002  -0.005  -0.004   0.002   0.004  -0.002  -0.000   0.011   0.338   0.000
  0.001  -0.001   0.000   0.000   0.000  -0.000  -0.002   0.000   0.000  -0.000   0.000   0.000   0.025  -0.000   0.000   0.003
  0.000  -0.000  -0.000   0.001   0.000   0.000   0.000  -0.000  -0.001   0.001  -0.001  -0.000  -0.000   0.028   0.000  -0.000
 -0.000   0.000  -0.001  -0.000   0.001   0.000   0.000  -0.001  -0.000   0.001  -0.000  -0.000   0.000   0.000   0.026   0.000


------------------------ aborting loop because EDIFF is reached ----------------------------------------


    CHARGE:  cpu time    0.4697: real time    0.4708
    FORLOC:  cpu time    0.0063: real time    0.0063
    FORNL :  cpu time    5.2266: real time    5.2391
    STRESS:  cpu time   32.5010: real time   32.5787
    FORCOR:  cpu time    0.0337: real time    0.0337
    FORHAR:  cpu time    0.0123: real time    0.0123
    MIXING:  cpu time    0.0011: real time    0.0011
    OFIELD:  cpu time    0.0000: real time    0.0000

  FORCE on cell =-STRESS in cart. coord.  units (eV):
  Direction    XX          YY          ZZ          XY          YZ          ZX
  --------------------------------------------------------------------------------------
  Alpha Z    88.65687    88.65687    88.65687
  Ewald   48909.48607 48909.40610-53856.29451     0.33218    -0.01024    -0.14645
  Hartree 49628.62818 49628.60499-49285.59801     0.19278    -0.02436    -0.02986
  E(xc)    -609.74231  -609.74205  -616.79808    -0.00045     0.00203     0.00227
  Local  ************************100585.26801    -0.50385     0.07215     0.18097
  n-local  1214.20964  1214.16622  1251.47197    -0.04227     0.01469    -0.01780
  augment  -212.53495  -212.52706  -215.31668     0.01285     0.00238     0.00206
  Kinetic  2014.66363  2014.68414  2046.89975     0.01606    -0.06205     0.00495
  Fock        0.00000     0.00000     0.00000     0.00000     0.00000     0.00000
  -------------------------------------------------------------------------------------
  Total       0.34706     0.34716    -1.71067     0.00730    -0.00541    -0.00387
  in kB       0.23027     0.23034    -1.13502     0.00484    -0.00359    -0.00257
  external pressure =       -0.22 kB  Pullay stress =        0.00 kB


 VOLUME and BASIS-vectors are now :
 -----------------------------------------------------------------------------
  energy-cutoff  :      280.00
  volume of cell :     2414.76
      direct lattice vectors                 reciprocal lattice vectors
     8.348415625  4.820403662  0.000000000     0.059894090  0.103721447  0.000000000
    -8.348763914  4.821004995  0.000000000    -0.059886619  0.103717120  0.000000000
     0.000000000  0.000000000 30.000000000     0.000000000  0.000000000  0.033333333

  length of vectors
     9.640141852  9.640744165 30.000000000     0.119772454  0.119764971  0.033333333


 FORCES acting on ions
    electron-ion (+dipol)            ewald-force                    non-local-force                 convergence-correction
 -----------------------------------------------------------------------------------------------
   -.116E+02 0.409E+00 0.195E+00   0.121E+02 -.464E+00 -.299E+00   -.439E+00 0.375E-01 0.107E+00   -.245E-01 0.355E-01 -.339E-03
   0.570E+01 0.101E+02 0.343E+00   -.591E+01 -.105E+02 -.454E+00   0.206E+00 0.375E+00 0.112E+00   -.536E-02 0.183E-01 -.249E-02
   0.606E+01 -.991E+01 0.113E-01   -.632E+01 0.103E+02 -.110E+00   0.248E+00 -.373E+00 0.103E+00   0.182E-01 0.117E-01 -.161E-02
   -.144E+02 0.248E+02 0.190E+01   0.139E+02 -.239E+02 -.215E+01   0.515E+00 -.891E+00 0.248E+00   0.142E-01 -.837E-02 -.357E-02
   0.286E+02 -.108E+00 0.190E+01   -.275E+02 0.139E+00 -.214E+01   -.103E+01 0.582E-02 0.247E+00   -.642E-02 -.262E-01 -.502E-02
   -.142E+02 -.246E+02 0.195E+01   0.136E+02 0.237E+02 -.219E+01   0.517E+00 0.906E+00 0.242E+00   0.470E-01 0.122E-01 -.580E-02
   -.147E+02 0.252E+02 -.438E+00   0.143E+02 -.246E+02 0.438E+00   0.374E+00 -.674E+00 0.121E-01   -.324E-01 0.181E-01 -.476E-02
   0.292E+02 -.218E+00 -.393E+00   -.285E+02 0.232E+00 0.392E+00   -.758E+00 -.195E-01 0.104E-01   0.568E-01 -.395E-02 -.454E-02
   -.146E+02 -.255E+02 -.263E+00   0.142E+02 0.249E+02 0.260E+00   0.369E+00 0.627E+00 0.112E-01   -.471E-01 -.517E-01 -.541E-02
   -.127E-01 -.196E+00 0.635E+03   0.230E-01 0.217E+00 -.639E+03   -.603E-02 -.168E-01 0.390E+01   -.468E-02 -.652E-02 -.602E-03
   -.138E+02 -.116E+00 -.579E+03   0.128E+02 0.149E+00 0.583E+03   0.111E+01 -.194E-01 -.378E+01   -.490E-01 -.166E-01 0.234E-01
   0.480E+01 0.101E+02 0.547E+03   -.563E+01 -.102E+02 -.551E+03   0.799E+00 0.113E+00 0.420E+01   0.377E-01 -.156E-01 -.559E-01
   0.688E+01 -.121E+02 -.579E+03   -.633E+01 0.112E+02 0.583E+03   -.566E+00 0.956E+00 -.378E+01   0.130E-01 -.295E-01 0.192E-01
   0.632E+01 0.927E+01 0.547E+03   -.597E+01 -.100E+02 -.551E+03   -.304E+00 0.758E+00 0.419E+01   -.440E-01 0.634E-02 -.556E-01
   0.108E+02 0.189E+02 -.589E+03   -.107E+02 -.188E+02 0.593E+03   -.499E-01 -.800E-01 -.385E+01   0.289E-02 -.101E-01 0.681E-01
   0.637E+01 -.958E+01 0.547E+03   -.602E+01 0.104E+02 -.551E+03   -.285E+00 -.729E+00 0.423E+01   -.628E-01 -.602E-01 -.995E-01
   0.110E+02 -.188E+02 -.589E+03   -.110E+02 0.187E+02 0.593E+03   -.438E-01 0.781E-01 -.385E+01   0.534E-01 -.380E-01 0.907E-01
   -.114E+02 0.820E+00 0.546E+03   0.119E+02 -.168E+00 -.550E+03   -.487E+00 -.617E+00 0.422E+01   -.162E-01 -.366E-01 -.618E-01
   -.421E+01 -.749E+01 -.525E+03   0.482E+01 0.844E+01 0.529E+03   -.542E+00 -.938E+00 -.416E+01   -.712E-01 -.231E-01 0.103E+00
   -.139E-01 0.818E-01 0.635E+03   -.102E-01 -.988E-01 -.639E+03   -.150E-02 0.584E-02 0.351E+01   0.250E-01 0.941E-02 -.485E-01
   -.218E+02 0.228E+00 -.589E+03   0.217E+02 -.253E+00 0.593E+03   0.912E-01 0.375E-02 -.385E+01   -.101E-01 0.198E-01 0.497E-01
   0.502E+01 -.102E+02 0.548E+03   -.593E+01 0.103E+02 -.552E+03   0.805E+00 -.121E+00 0.420E+01   0.104E+00 0.858E-02 -.741E-01
   0.690E+01 0.119E+02 -.580E+03   -.638E+01 -.109E+02 0.584E+03   -.551E+00 -.967E+00 -.377E+01   0.228E-01 0.130E-01 -.164E-03
   0.861E-01 0.267E+00 0.522E+03   -.586E-01 -.314E+00 -.526E+03   -.250E-02 -.114E-01 0.408E+01   -.240E-01 0.534E-01 -.112E+00
   0.867E+01 -.200E+00 -.526E+03   -.983E+01 0.133E+00 0.530E+03   0.110E+01 0.128E-01 -.414E+01   0.621E-01 0.497E-01 0.907E-01
   -.112E+02 -.746E+00 0.548E+03   0.118E+02 0.481E-01 -.552E+03   -.512E+00 0.650E+00 0.419E+01   -.179E-01 0.469E-01 -.358E-01
   -.446E+01 0.751E+01 -.526E+03   0.502E+01 -.851E+01 0.530E+03   -.541E+00 0.962E+00 -.413E+01   -.252E-01 0.425E-01 0.551E-01
 -----------------------------------------------------------------------------------------------
   -.303E-01 -.541E-01 -.243E+01   0.711E-14 0.657E-13 -.455E-12   0.133E-01 0.356E-01 0.250E+01   0.160E-01 0.188E-01 -.773E-01
 
 
 POSITION                                       TOTAL-FORCE (eV/Angst)
 -----------------------------------------------------------------------------------
     -0.06192      6.43173     -0.00872         0.014155      0.018262      0.002998
     -5.53591      3.26746     -0.00953        -0.012397     -0.013200     -0.001088
      2.81658      4.76844     -0.00796         0.007505      0.014828      0.002833
     -2.88948      5.00450     -0.00347        -0.006864      0.019544     -0.000134
      2.99441      1.60611     -0.00351         0.019404      0.010507      0.000370
      5.46016      3.03021     -0.00365        -0.016446     -0.014237      0.000532
     -0.11145      0.18971      0.00628        -0.008871      0.004172      0.006476
      5.78656      6.42414      0.00615         0.010784     -0.009586      0.004881
     -0.11058      3.01921      0.00582        -0.006039     -0.018287      0.003100
     -0.92792      1.60534     28.26503        -0.000435     -0.003106     -0.012556
      0.97691      1.60550      1.56949         0.009011     -0.002203     -0.013453
     -3.72763      3.20938     28.52043         0.004846     -0.000007      0.020354
     -1.88043      3.25574      1.56800        -0.005929      0.007602     -0.014097
     -6.48823      4.80351     28.51942        -0.001483      0.003909      0.016138
     -4.65537      4.79095      1.59566         0.001508      0.002505     -0.007733
      1.86037      3.23014     28.51961         0.002351      0.004077      0.028649
      3.69366      3.24206      1.59603        -0.001499      0.000259     -0.014207
     -0.91555      4.83297     28.52085         0.000394     -0.001227      0.027391
      0.92358      4.81394      1.41849        -0.001374     -0.009302     -0.030754
     -3.71089      6.42743     28.28261        -0.000505     -0.001767     -0.012659
     -1.82173      6.42724      1.59579        -0.001734     -0.001345     -0.008596
      4.62071      4.82319     28.51726        -0.004571     -0.001598      0.018258
      6.46844      4.77646      1.57050        -0.003974     -0.008361     -0.010525
      1.85523      6.42752     28.59851         0.001091     -0.004166      0.007605
      3.71659      6.42736      1.42146         0.007153     -0.004074     -0.016829
     -0.91636      8.02065     28.51746        -0.001307     -0.000223      0.011952
      0.92450      8.03919      1.42201        -0.004772      0.007023     -0.008906
 -----------------------------------------------------------------------------------
    total drift:                               -0.000949      0.000273     -0.001453


--------------------------------------------------------------------------------------------------------



  FREE ENERGIE OF THE ION-ELECTRON SYSTEM (eV)
  ---------------------------------------------------
  free  energy   TOTEN  =      -191.74239994 eV

  energy  without entropy=     -191.53913890  energy(sigma->0) =     -191.64076942
 
 d Force = 0.2368946E-03[ 0.167E-03, 0.306E-03]  d Energy = 0.1489450E-03 0.879E-04
 d Force =-0.1742974E+01[-0.174E+01,-0.174E+01]  d Ewald  = 0.1821401E+02-0.200E+02


--------------------------------------------------------------------------------------------------------


    POTLOK:  cpu time    0.0350: real time    0.0350


--------------------------------------------------------------------------------------------------------


 Quasi-Newton relaxation of ions (Broydens 2nd method)
  g(Force)  = 0.442E-03   g(Stress)= 0.431E-03

 retain information from N=  1 steps
 eigenvalues of (default step * inverse Hessian matrix)
  average eigenvalue of G=   0.7408
 eigenvalue spectrum of G is  0.7408


--------------------------------------------------------------------------------------------------------


  
 reached required accuracy - stopping structural energy minimisation
     LOOP+:  cpu time   87.3403: real time   87.5603
    4ORBIT:  cpu time    0.0000: real time    0.0000

 total amount of memory used by VASP on root node   650782. kBytes
========================================================================

   base      :      30000. kBytes
   nonl-proj :     559647. kBytes
   fftplans  :       2414. kBytes
   grid      :      12150. kBytes
   one-center:        419. kBytes
   wavefun   :      46152. kBytes
 
  
  
 General timing and accounting informations for this job:
 ========================================================
  
                  Total CPU time used (sec):     4866.877
                            User time (sec):     4851.525
                          System time (sec):       15.352
                         Elapsed time (sec):     4880.138
  
                   Maximum memory used (kb):      735356.
                   Average memory used (kb):           0.
  
                          Minor page faults:       817727
                          Major page faults:            2
                 Voluntary context switches:         4725
