   27   27  100    1
  0.9710400E+02  0.1002848E-08  0.1002848E-08  0.3000000E-08  0.5000000E-15
  1.000000000000000E-004
  CAR 
 unknown system                          
    159     34    120
 
  0.0000000E+00  0.0000000E+00  0.0000000E+00  0.1562500E-01
    1      -17.826357   1.000000
    2      -16.776355   1.000000
    3      -16.606253   1.000000
    4      -16.599077   1.000000
    5      -16.536314   1.000000
    6      -16.526595   1.000000
    7      -16.414954   1.000000
    8      -16.255634   1.000000
    9      -16.203102   1.000000
   10      -16.156220   1.000000
   11      -16.101316   1.000000
   12      -15.938655   1.000000
   13      -15.908015   1.000000
   14      -15.646810   1.000000
   15      -15.598433   1.000000
   16      -15.492934   1.000000
   17      -15.273972   1.000000
   18      -15.219197   1.000000
   19       -9.306689   1.000000
   20       -9.048403   1.000000
   21       -8.937497   1.000000
   22       -8.855094   1.000000
   23       -8.723644   1.000000
   24       -8.707990   1.000000
   25       -8.695888   1.000000
   26       -8.673248   1.000000
   27       -8.542656   1.000000
   28       -8.479942   1.000000
   29       -8.468201   1.000000
   30       -8.416376   1.000000
   31       -8.345843   1.000000
   32       -8.167449   1.000000
   33       -8.069547   1.000000
   34       -8.003081   1.000000
   35       -7.800085   1.000000
   36       -7.743329   1.000000
   37       -7.685873   1.000000
   38       -7.515567   1.000000
   39       -7.505861   1.000000
   40       -7.381246   1.000000
   41       -7.339489   1.000000
   42       -7.211511   1.000000
   43       -7.074847   1.000000
   44       -6.941199   1.000000
   45       -6.866612   1.000000
   46       -6.794419   1.000000
   47       -6.738462   1.000000
   48       -6.665677   1.000000
   49       -6.608046   1.000000
   50       -6.532866   1.000000
   51       -6.434426   1.000000
   52       -6.259653   1.000000
   53       -6.223566   1.000000
   54       -6.175384   1.000000
   55       -6.154803   1.000000
   56       -6.071009   1.000000
   57       -5.999547   1.000000
   58       -5.904422   1.000000
   59       -5.882616   1.000000
   60       -5.633505   1.000000
   61       -5.618224   1.000000
   62       -5.356387   1.000000
   63       -5.306522   1.000000
   64       -5.076441   1.000000
   65       -5.024790   1.000000
   66       -4.924304   1.000000
   67       -4.898914   1.000000
   68       -4.819014   1.000000
   69       -4.761999   1.000000
   70       -4.709335   1.000000
   71       -4.684222   1.000000
   72       -4.667696   1.000000
   73       -4.460160   1.000000
   74       -4.375378   1.000000
   75       -4.305510   1.000000
   76       -3.977722   1.000000
   77       -3.783164   0.999966
   78       -3.609580   0.997054
   79       -3.486801   0.970323
   80       -3.192154   0.421557
   81       -3.178666   0.384653
   82       -2.849434   0.004380
   83       -2.763982   0.000629
   84       -2.631194   0.000016
   85       -2.573186   0.000002
   86       -2.494577   0.000000
   87       -2.240432   0.000000
   88       -2.217715   0.000000
   89       -2.209395   0.000000
   90       -2.056342   0.000000
   91       -1.705293   0.000000
   92       -1.636188   0.000000
   93       -1.382065   0.000000
   94       -1.210050   0.000000
   95       -1.076335   0.000000
   96       -0.994299   0.000000
   97       -0.949500   0.000000
   98       -0.904504   0.000000
   99       -0.817194   0.000000
  100       -0.635713   0.000000
  101       -0.594009   0.000000
  102       -0.528199   0.000000
  103       -0.380669   0.000000
  104       -0.279843   0.000000
  105       -0.219280   0.000000
  106       -0.151184   0.000000
  107       -0.102965   0.000000
  108       -0.050343   0.000000
  109        0.070101   0.000000
  110        0.232833   0.000000
  111        0.291901   0.000000
  112        0.400533   0.000000
  113        0.833325   0.000000
  114        0.946003   0.000000
  115        1.004673   0.000000
  116        1.144686   0.000000
  117        1.217258   0.000000
  118        1.653850   0.000000
  119        1.846283   0.000000
  120        2.168331   0.000000
 
  0.1250000E+00  0.2775558E-16  0.0000000E+00  0.3125000E-01
    1      -17.801405   1.000000
    2      -16.819117   1.000000
    3      -16.717462   1.000000
    4      -16.617555   1.000000
    5      -16.561754   1.000000
    6      -16.456401   1.000000
    7      -16.382392   1.000000
    8      -16.272718   1.000000
    9      -16.200404   1.000000
   10      -16.137448   1.000000
   11      -16.004302   1.000000
   12      -15.931096   1.000000
   13      -15.903576   1.000000
   14      -15.650943   1.000000
   15      -15.603664   1.000000
   16      -15.510127   1.000000
   17      -15.275651   1.000000
   18      -15.223270   1.000000
   19       -9.302828   1.000000
   20       -9.227029   1.000000
   21       -9.056339   1.000000
   22       -8.894928   1.000000
   23       -8.811401   1.000000
   24       -8.747863   1.000000
   25       -8.709583   1.000000
   26       -8.572637   1.000000
   27       -8.541675   1.000000
   28       -8.467424   1.000000
   29       -8.367437   1.000000
   30       -8.330949   1.000000
   31       -8.223059   1.000000
   32       -8.107569   1.000000
   33       -8.046386   1.000000
   34       -7.968459   1.000000
   35       -7.729765   1.000000
   36       -7.693135   1.000000
   37       -7.656237   1.000000
   38       -7.554555   1.000000
   39       -7.521024   1.000000
   40       -7.456662   1.000000
   41       -7.293897   1.000000
   42       -7.184839   1.000000
   43       -7.133845   1.000000
   44       -7.011099   1.000000
   45       -6.860972   1.000000
   46       -6.831356   1.000000
   47       -6.727938   1.000000
   48       -6.626662   1.000000
   49       -6.551381   1.000000
   50       -6.466591   1.000000
   51       -6.429084   1.000000
   52       -6.322624   1.000000
   53       -6.238805   1.000000
   54       -6.194971   1.000000
   55       -6.145977   1.000000
   56       -6.067453   1.000000
   57       -6.021110   1.000000
   58       -5.971326   1.000000
   59       -5.748326   1.000000
   60       -5.636289   1.000000
   61       -5.563432   1.000000
   62       -5.442787   1.000000
   63       -5.427828   1.000000
   64       -5.192235   1.000000
   65       -5.050811   1.000000
   66       -4.952151   1.000000
   67       -4.877305   1.000000
   68       -4.821341   1.000000
   69       -4.766326   1.000000
   70       -4.689559   1.000000
   71       -4.632783   1.000000
   72       -4.582688   1.000000
   73       -4.452894   1.000000
   74       -4.327303   1.000000
   75       -4.256947   1.000000
   76       -4.043202   1.000000
   77       -3.794534   0.999976
   78       -3.686484   0.999512
   79       -3.541602   0.988489
   80       -3.153725   0.319304
   81       -3.136427   0.276938
   82       -2.824230   0.002559
   83       -2.729081   0.000258
   84       -2.621994   0.000012
   85       -2.558880   0.000001
   86       -2.487731   0.000000
   87       -2.206817   0.000000
   88       -2.192977   0.000000
   89       -2.181068   0.000000
   90       -2.056371   0.000000
   91       -1.717278   0.000000
   92       -1.622043   0.000000
   93       -1.380811   0.000000
   94       -1.230479   0.000000
   95       -1.080907   0.000000
   96       -1.021431   0.000000
   97       -0.947851   0.000000
   98       -0.893239   0.000000
   99       -0.803677   0.000000
  100       -0.733188   0.000000
  101       -0.667813   0.000000
  102       -0.598868   0.000000
  103       -0.503703   0.000000
  104       -0.371012   0.000000
  105       -0.247808   0.000000
  106       -0.155054   0.000000
  107       -0.073352   0.000000
  108       -0.008204   0.000000
  109        0.097104   0.000000
  110        0.212128   0.000000
  111        0.330570   0.000000
  112        0.494282   0.000000
  113        0.878351   0.000000
  114        0.921687   0.000000
  115        1.004352   0.000000
  116        1.130091   0.000000
  117        1.184183   0.000000
  118        1.696457   0.000000
  119        1.886721   0.000000
  120        2.203257   0.000000
 
  0.2500000E+00  0.5551115E-16  0.0000000E+00  0.3125000E-01
    1      -17.727908   1.000000
    2      -17.009556   1.000000
    3      -16.742547   1.000000
    4      -16.659332   1.000000
    5      -16.615877   1.000000
    6      -16.428057   1.000000
    7      -16.344597   1.000000
    8      -16.246706   1.000000
    9      -16.184487   1.000000
   10      -16.073645   1.000000
   11      -15.924348   1.000000
   12      -15.898530   1.000000
   13      -15.838354   1.000000
   14      -15.670038   1.000000
   15      -15.613553   1.000000
   16      -15.549877   1.000000
   17      -15.280673   1.000000
   18      -15.234631   1.000000
   19       -9.551047   1.000000
   20       -9.266861   1.000000
   21       -9.184680   1.000000
   22       -8.993703   1.000000
   23       -8.934673   1.000000
   24       -8.783094   1.000000
   25       -8.657571   1.000000
   26       -8.552957   1.000000
   27       -8.460769   1.000000
   28       -8.427407   1.000000
   29       -8.269727   1.000000
   30       -8.219213   1.000000
   31       -8.124120   1.000000
   32       -8.093968   1.000000
   33       -7.984100   1.000000
   34       -7.773869   1.000000
   35       -7.725684   1.000000
   36       -7.665202   1.000000
   37       -7.606062   1.000000
   38       -7.554724   1.000000
   39       -7.504044   1.000000
   40       -7.386004   1.000000
   41       -7.306329   1.000000
   42       -7.168155   1.000000
   43       -7.112601   1.000000
   44       -7.031257   1.000000
   45       -6.899248   1.000000
   46       -6.827484   1.000000
   47       -6.717302   1.000000
   48       -6.647144   1.000000
   49       -6.497850   1.000000
   50       -6.440299   1.000000
   51       -6.352048   1.000000
   52       -6.315782   1.000000
   53       -6.290652   1.000000
   54       -6.230721   1.000000
   55       -6.174241   1.000000
   56       -6.089787   1.000000
   57       -6.030211   1.000000
   58       -5.901683   1.000000
   59       -5.727788   1.000000
   60       -5.658271   1.000000
   61       -5.614781   1.000000
   62       -5.565081   1.000000
   63       -5.446068   1.000000
   64       -5.409713   1.000000
   65       -5.255438   1.000000
   66       -4.988053   1.000000
   67       -4.856212   1.000000
   68       -4.823200   1.000000
   69       -4.707225   1.000000
   70       -4.649804   1.000000
   71       -4.512731   1.000000
   72       -4.470660   1.000000
   73       -4.412593   1.000000
   74       -4.307606   1.000000
   75       -4.242517   1.000000
   76       -4.144031   1.000000
   77       -3.842975   0.999995
   78       -3.779520   0.999962
   79       -3.580532   0.994588
   80       -3.108391   0.214705
   81       -3.065562   0.137185
   82       -2.792220   0.001240
   83       -2.656022   0.000033
   84       -2.602655   0.000006
   85       -2.510851   0.000000
   86       -2.461637   0.000000
   87       -2.155337   0.000000
   88       -2.129689   0.000000
   89       -2.097287   0.000000
   90       -2.001844   0.000000
   91       -1.731038   0.000000
   92       -1.596572   0.000000
   93       -1.390642   0.000000
   94       -1.316271   0.000000
   95       -1.143277   0.000000
   96       -1.073707   0.000000
   97       -0.964132   0.000000
   98       -0.911063   0.000000
   99       -0.879495   0.000000
  100       -0.824853   0.000000
  101       -0.754158   0.000000
  102       -0.711371   0.000000
  103       -0.682328   0.000000
  104       -0.508415   0.000000
  105       -0.330540   0.000000
  106       -0.189819   0.000000
  107       -0.054531   0.000000
  108        0.045887   0.000000
  109        0.093725   0.000000
  110        0.142467   0.000000
  111        0.391497   0.000000
  112        0.650965   0.000000
  113        0.867126   0.000000
  114        0.922436   0.000000
  115        1.057849   0.000000
  116        1.115005   0.000000
  117        1.161693   0.000000
  118        1.815732   0.000000
  119        2.002348   0.000000
  120        2.306704   0.000000
 
  0.3750000E+00  0.0000000E+00  0.0000000E+00  0.3125000E-01
    1      -17.611832   1.000000
    2      -17.220372   1.000000
    3      -16.751990   1.000000
    4      -16.680199   1.000000
    5      -16.655648   1.000000
    6      -16.432237   1.000000
    7      -16.332372   1.000000
    8      -16.243016   1.000000
    9      -16.106373   1.000000
   10      -15.999785   1.000000
   11      -15.929409   1.000000
   12      -15.877102   1.000000
   13      -15.736394   1.000000
   14      -15.680359   1.000000
   15      -15.659834   1.000000
   16      -15.562999   1.000000
   17      -15.286998   1.000000
   18      -15.248641   1.000000
   19       -9.762154   1.000000
   20       -9.374910   1.000000
   21       -9.161008   1.000000
   22       -9.082308   1.000000
   23       -8.974299   1.000000
   24       -8.814427   1.000000
   25       -8.572470   1.000000
   26       -8.493537   1.000000
   27       -8.438838   1.000000
   28       -8.314047   1.000000
   29       -8.277514   1.000000
   30       -8.213357   1.000000
   31       -8.165273   1.000000
   32       -8.110034   1.000000
   33       -7.893971   1.000000
   34       -7.819290   1.000000
   35       -7.757601   1.000000
   36       -7.706366   1.000000
   37       -7.579635   1.000000
   38       -7.406562   1.000000
   39       -7.376093   1.000000
   40       -7.311839   1.000000
   41       -7.213723   1.000000
   42       -7.146499   1.000000
   43       -7.060757   1.000000
   44       -6.982614   1.000000
   45       -6.824856   1.000000
   46       -6.791384   1.000000
   47       -6.703319   1.000000
   48       -6.624413   1.000000
   49       -6.539800   1.000000
   50       -6.447707   1.000000
   51       -6.406326   1.000000
   52       -6.358677   1.000000
   53       -6.284927   1.000000
   54       -6.226609   1.000000
   55       -6.137485   1.000000
   56       -6.052135   1.000000
   57       -6.031477   1.000000
   58       -5.876472   1.000000
   59       -5.846162   1.000000
   60       -5.734503   1.000000
   61       -5.694679   1.000000
   62       -5.592559   1.000000
   63       -5.561174   1.000000
   64       -5.457719   1.000000
   65       -5.310026   1.000000
   66       -5.029380   1.000000
   67       -4.870193   1.000000
   68       -4.823114   1.000000
   69       -4.754856   1.000000
   70       -4.661667   1.000000
   71       -4.569457   1.000000
   72       -4.448049   1.000000
   73       -4.394706   1.000000
   74       -4.263068   1.000000
   75       -4.181305   1.000000
   76       -4.073327   1.000000
   77       -3.973267   1.000000
   78       -3.740091   0.999882
   79       -3.564719   0.992585
   80       -3.092227   0.182864
   81       -3.012506   0.071023
   82       -2.772792   0.000780
   83       -2.652180   0.000030
   84       -2.557887   0.000001
   85       -2.462909   0.000000
   86       -2.402594   0.000000
   87       -2.082437   0.000000
   88       -2.064789   0.000000
   89       -2.020137   0.000000
   90       -1.875239   0.000000
   91       -1.720355   0.000000
   92       -1.580107   0.000000
   93       -1.480896   0.000000
   94       -1.423065   0.000000
   95       -1.258106   0.000000
   96       -1.154613   0.000000
   97       -1.033259   0.000000
   98       -0.996729   0.000000
   99       -0.962558   0.000000
  100       -0.890020   0.000000
  101       -0.836056   0.000000
  102       -0.703255   0.000000
  103       -0.666391   0.000000
  104       -0.604642   0.000000
  105       -0.383564   0.000000
  106       -0.248250   0.000000
  107       -0.114106   0.000000
  108        0.035939   0.000000
  109        0.053638   0.000000
  110        0.101631   0.000000
  111        0.425004   0.000000
  112        0.738529   0.000000
  113        0.839246   0.000000
  114        0.906793   0.000000
  115        1.070093   0.000000
  116        1.167360   0.000000
  117        1.229749   0.000000
  118        1.995111   0.000000
  119        2.181873   0.000000
  120        2.427700   0.000000
 
  0.5000000E+00  0.1110223E-15  0.0000000E+00  0.1562500E-01
    1      -17.505997   1.000000
    2      -17.359906   1.000000
    3      -16.758315   1.000000
    4      -16.680206   1.000000
    5      -16.672907   1.000000
    6      -16.436285   1.000000
    7      -16.329475   1.000000
    8      -16.246404   1.000000
    9      -16.042685   1.000000
   10      -15.994586   1.000000
   11      -15.936792   1.000000
   12      -15.847419   1.000000
   13      -15.724668   1.000000
   14      -15.707707   1.000000
   15      -15.657607   1.000000
   16      -15.557698   1.000000
   17      -15.290022   1.000000
   18      -15.255475   1.000000
   19       -9.837857   1.000000
   20       -9.417549   1.000000
   21       -9.167580   1.000000
   22       -9.107309   1.000000
   23       -8.956625   1.000000
   24       -8.827055   1.000000
   25       -8.538985   1.000000
   26       -8.463085   1.000000
   27       -8.421755   1.000000
   28       -8.307862   1.000000
   29       -8.277713   1.000000
   30       -8.198088   1.000000
   31       -8.150305   1.000000
   32       -8.108984   1.000000
   33       -7.966920   1.000000
   34       -7.879937   1.000000
   35       -7.776939   1.000000
   36       -7.734517   1.000000
   37       -7.517266   1.000000
   38       -7.356512   1.000000
   39       -7.315150   1.000000
   40       -7.238394   1.000000
   41       -7.129378   1.000000
   42       -7.084165   1.000000
   43       -7.048615   1.000000
   44       -7.044426   1.000000
   45       -6.817708   1.000000
   46       -6.747252   1.000000
   47       -6.616447   1.000000
   48       -6.582397   1.000000
   49       -6.563042   1.000000
   50       -6.538501   1.000000
   51       -6.445532   1.000000
   52       -6.347976   1.000000
   53       -6.259364   1.000000
   54       -6.228255   1.000000
   55       -6.164191   1.000000
   56       -6.070315   1.000000
   57       -6.045526   1.000000
   58       -5.877016   1.000000
   59       -5.846367   1.000000
   60       -5.810763   1.000000
   61       -5.714407   1.000000
   62       -5.606024   1.000000
   63       -5.533938   1.000000
   64       -5.401654   1.000000
   65       -5.271444   1.000000
   66       -5.210541   1.000000
   67       -4.951146   1.000000
   68       -4.867755   1.000000
   69       -4.792041   1.000000
   70       -4.649724   1.000000
   71       -4.527490   1.000000
   72       -4.446271   1.000000
   73       -4.357632   1.000000
   74       -4.234131   1.000000
   75       -4.159640   1.000000
   76       -4.042319   1.000000
   77       -4.024589   1.000000
   78       -3.720000   0.999796
   79       -3.542899   0.988762
   80       -3.092148   0.182717
   81       -2.993123   0.054217
   82       -2.766286   0.000665
   83       -2.653825   0.000031
   84       -2.549314   0.000001
   85       -2.450483   0.000000
   86       -2.360437   0.000000
   87       -2.049072   0.000000
   88       -2.020127   0.000000
   89       -1.972862   0.000000
   90       -1.813846   0.000000
   91       -1.702986   0.000000
   92       -1.630348   0.000000
   93       -1.519317   0.000000
   94       -1.440745   0.000000
   95       -1.335556   0.000000
   96       -1.211205   0.000000
   97       -1.065052   0.000000
   98       -1.058106   0.000000
   99       -0.974067   0.000000
  100       -0.906715   0.000000
  101       -0.856743   0.000000
  102       -0.688285   0.000000
  103       -0.649497   0.000000
  104       -0.622968   0.000000
  105       -0.398878   0.000000
  106       -0.277064   0.000000
  107       -0.161763   0.000000
  108        0.015288   0.000000
  109        0.028649   0.000000
  110        0.099155   0.000000
  111        0.435252   0.000000
  112        0.757671   0.000000
  113        0.825283   0.000000
  114        0.909804   0.000000
  115        1.062942   0.000000
  116        1.201118   0.000000
  117        1.270533   0.000000
  118        2.189376   0.000000
  119        2.258471   0.000000
  120        2.408428   0.000000
 
  0.0000000E+00  0.1250000E+00  0.0000000E+00  0.3125000E-01
    1      -17.800533   1.000000
    2      -16.786503   1.000000
    3      -16.757646   1.000000
    4      -16.626513   1.000000
    5      -16.546650   1.000000
    6      -16.436729   1.000000
    7      -16.379917   1.000000
    8      -16.329063   1.000000
    9      -16.208100   1.000000
   10      -16.083858   1.000000
   11      -16.022233   1.000000
   12      -15.968451   1.000000
   13      -15.863377   1.000000
   14      -15.642038   1.000000
   15      -15.596191   1.000000
   16      -15.503153   1.000000
   17      -15.292695   1.000000
   18      -15.224916   1.000000
   19       -9.291650   1.000000
   20       -9.184076   1.000000
   21       -9.085265   1.000000
   22       -8.961672   1.000000
   23       -8.778899   1.000000
   24       -8.719819   1.000000
   25       -8.672851   1.000000
   26       -8.626889   1.000000
   27       -8.545681   1.000000
   28       -8.463348   1.000000
   29       -8.397215   1.000000
   30       -8.377846   1.000000
   31       -8.270631   1.000000
   32       -8.009349   1.000000
   33       -7.973384   1.000000
   34       -7.951097   1.000000
   35       -7.809803   1.000000
   36       -7.730933   1.000000
   37       -7.693661   1.000000
   38       -7.553958   1.000000
   39       -7.444841   1.000000
   40       -7.382716   1.000000
   41       -7.298298   1.000000
   42       -7.256690   1.000000
   43       -7.100201   1.000000
   44       -6.977209   1.000000
   45       -6.910005   1.000000
   46       -6.801343   1.000000
   47       -6.728913   1.000000
   48       -6.660754   1.000000
   49       -6.615687   1.000000
   50       -6.504325   1.000000
   51       -6.433607   1.000000
   52       -6.300129   1.000000
   53       -6.237077   1.000000
   54       -6.198562   1.000000
   55       -6.140834   1.000000
   56       -6.049413   1.000000
   57       -5.993213   1.000000
   58       -5.902554   1.000000
   59       -5.795772   1.000000
   60       -5.613482   1.000000
   61       -5.556855   1.000000
   62       -5.371014   1.000000
   63       -5.344004   1.000000
   64       -5.204323   1.000000
   65       -5.081619   1.000000
   66       -5.038184   1.000000
   67       -4.915544   1.000000
   68       -4.877630   1.000000
   69       -4.815862   1.000000
   70       -4.679937   1.000000
   71       -4.600657   1.000000
   72       -4.541819   1.000000
   73       -4.449892   1.000000
   74       -4.343436   1.000000
   75       -4.234642   1.000000
   76       -3.914675   1.000000
   77       -3.817601   0.999988
   78       -3.712131   0.999748
   79       -3.479689   0.966767
   80       -3.411592   0.912092
   81       -2.967217   0.036851
   82       -2.875453   0.007398
   83       -2.758419   0.000548
   84       -2.609632   0.000008
   85       -2.563510   0.000002
   86       -2.483910   0.000000
   87       -2.249524   0.000000
   88       -2.189205   0.000000
   89       -2.171424   0.000000
   90       -2.049281   0.000000
   91       -1.705278   0.000000
   92       -1.617313   0.000000
   93       -1.382380   0.000000
   94       -1.218256   0.000000
   95       -1.081241   0.000000
   96       -1.012169   0.000000
   97       -0.956843   0.000000
   98       -0.895719   0.000000
   99       -0.818371   0.000000
  100       -0.690296   0.000000
  101       -0.627457   0.000000
  102       -0.564047   0.000000
  103       -0.456039   0.000000
  104       -0.362027   0.000000
  105       -0.319825   0.000000
  106       -0.251835   0.000000
  107       -0.112100   0.000000
  108        0.018737   0.000000
  109        0.061387   0.000000
  110        0.262354   0.000000
  111        0.379322   0.000000
  112        0.469230   0.000000
  113        0.757740   0.000000
  114        0.920925   0.000000
  115        1.018504   0.000000
  116        1.155980   0.000000
  117        1.286867   0.000000
  118        1.699139   0.000000
  119        1.884299   0.000000
  120        2.203878   0.000000
 
  0.1250000E+00  0.1250000E+00  0.0000000E+00  0.3125000E-01
    1      -17.750144   1.000000
    2      -16.929173   1.000000
    3      -16.799418   1.000000
    4      -16.679495   1.000000
    5      -16.515580   1.000000
    6      -16.420116   1.000000
    7      -16.350312   1.000000
    8      -16.311803   1.000000
    9      -16.204765   1.000000
   10      -16.054541   1.000000
   11      -15.965228   1.000000
   12      -15.906087   1.000000
   13      -15.850617   1.000000
   14      -15.646918   1.000000
   15      -15.601271   1.000000
   16      -15.537835   1.000000
   17      -15.298163   1.000000
   18      -15.227894   1.000000
   19       -9.446098   1.000000
   20       -9.298586   1.000000
   21       -9.186944   1.000000
   22       -9.033500   1.000000
   23       -8.802986   1.000000
   24       -8.746261   1.000000
   25       -8.688340   1.000000
   26       -8.551352   1.000000
   27       -8.510909   1.000000
   28       -8.373372   1.000000
   29       -8.325706   1.000000
   30       -8.283277   1.000000
   31       -8.140421   1.000000
   32       -8.065612   1.000000
   33       -7.995602   1.000000
   34       -7.830066   1.000000
   35       -7.771336   1.000000
   36       -7.704541   1.000000
   37       -7.644597   1.000000
   38       -7.558116   1.000000
   39       -7.440550   1.000000
   40       -7.392770   1.000000
   41       -7.264654   1.000000
   42       -7.209361   1.000000
   43       -7.135315   1.000000
   44       -7.045730   1.000000
   45       -6.896869   1.000000
   46       -6.792792   1.000000
   47       -6.740473   1.000000
   48       -6.655631   1.000000
   49       -6.541047   1.000000
   50       -6.438060   1.000000
   51       -6.354733   1.000000
   52       -6.338163   1.000000
   53       -6.302139   1.000000
   54       -6.226936   1.000000
   55       -6.151329   1.000000
   56       -6.054456   1.000000
   57       -6.008416   1.000000
   58       -5.921211   1.000000
   59       -5.727669   1.000000
   60       -5.602688   1.000000
   61       -5.572869   1.000000
   62       -5.534078   1.000000
   63       -5.435728   1.000000
   64       -5.276223   1.000000
   65       -5.208749   1.000000
   66       -5.065188   1.000000
   67       -4.906173   1.000000
   68       -4.860697   1.000000
   69       -4.740933   1.000000
   70       -4.637399   1.000000
   71       -4.525041   1.000000
   72       -4.503942   1.000000
   73       -4.436247   1.000000
   74       -4.291554   1.000000
   75       -4.151538   1.000000
   76       -4.108338   1.000000
   77       -3.922445   1.000000
   78       -3.721766   0.999805
   79       -3.522494   0.983739
   80       -3.304338   0.724196
   81       -2.942869   0.024962
   82       -2.849338   0.004371
   83       -2.695494   0.000104
   84       -2.613719   0.000009
   85       -2.542572   0.000001
   86       -2.451798   0.000000
   87       -2.183992   0.000000
   88       -2.147525   0.000000
   89       -2.126889   0.000000
   90       -2.021888   0.000000
   91       -1.726575   0.000000
   92       -1.590621   0.000000
   93       -1.388781   0.000000
   94       -1.264780   0.000000
   95       -1.104627   0.000000
   96       -1.055063   0.000000
   97       -0.984205   0.000000
   98       -0.878845   0.000000
   99       -0.841332   0.000000
  100       -0.766452   0.000000
  101       -0.725312   0.000000
  102       -0.649996   0.000000
  103       -0.638322   0.000000
  104       -0.487152   0.000000
  105       -0.351836   0.000000
  106       -0.217903   0.000000
  107       -0.144980   0.000000
  108        0.061371   0.000000
  109        0.086817   0.000000
  110        0.210285   0.000000
  111        0.423382   0.000000
  112        0.641638   0.000000
  113        0.815204   0.000000
  114        0.933851   0.000000
  115        0.988979   0.000000
  116        1.096991   0.000000
  117        1.249532   0.000000
  118        1.780653   0.000000
  119        1.962085   0.000000
  120        2.273388   0.000000
 
  0.2500000E+00  0.1250000E+00  0.0000000E+00  0.3125000E-01
    1      -17.653608   1.000000
    2      -17.120477   1.000000
    3      -16.866084   1.000000
    4      -16.701961   1.000000
    5      -16.497606   1.000000
    6      -16.429373   1.000000
    7      -16.321417   1.000000
    8      -16.281328   1.000000
    9      -16.150335   1.000000
   10      -16.024956   1.000000
   11      -15.947805   1.000000
   12      -15.863540   1.000000
   13      -15.780774   1.000000
   14      -15.669025   1.000000
   15      -15.605153   1.000000
   16      -15.566556   1.000000
   17      -15.308004   1.000000
   18      -15.234102   1.000000
   19       -9.673230   1.000000
   20       -9.437632   1.000000
   21       -9.194932   1.000000
   22       -9.090376   1.000000
   23       -8.866038   1.000000
   24       -8.721261   1.000000
   25       -8.604380   1.000000
   26       -8.499962   1.000000
   27       -8.395949   1.000000
   28       -8.385569   1.000000
   29       -8.291177   1.000000
   30       -8.229044   1.000000
   31       -8.131605   1.000000
   32       -8.113659   1.000000
   33       -7.970364   1.000000
   34       -7.836378   1.000000
   35       -7.723641   1.000000
   36       -7.711247   1.000000
   37       -7.591733   1.000000
   38       -7.518829   1.000000
   39       -7.390467   1.000000
   40       -7.354375   1.000000
   41       -7.195774   1.000000
   42       -7.131045   1.000000
   43       -7.114257   1.000000
   44       -6.972191   1.000000
   45       -6.857686   1.000000
   46       -6.785078   1.000000
   47       -6.713468   1.000000