       N       E                     dE             d eps       ncg     rms          rms(c)
DAV:   1     0.112623901049E+04    0.11262E+04   -0.35977E+04  8160   0.577E+02
DAV:   2    -0.111459117668E+01   -0.11274E+04   -0.10839E+04 11280   0.173E+02
DAV:   3    -0.199675675875E+03   -0.19856E+03   -0.19038E+03 10880   0.822E+01
DAV:   4    -0.208909046892E+03   -0.92334E+01   -0.89576E+01 11880   0.264E+01
DAV:   5    -0.209277832142E+03   -0.36879E+00   -0.36787E+00 11560   0.389E+00    0.275E+01
DAV:   6    -0.237208745748E+03   -0.27931E+02   -0.10776E+02 12760   0.605E+01    0.594E+01
DAV:   7    -0.196638376917E+03    0.40570E+02   -0.17732E+02 13120   0.152E+02    0.204E+01
DAV:   8    -0.190085291833E+03    0.65531E+01   -0.20339E+01 11840   0.134E+01    0.137E+01
DAV:   9    -0.188311193097E+03    0.17741E+01   -0.35002E+00 12080   0.623E+00    0.938E+00
DAV:  10    -0.187124737525E+03    0.11865E+01   -0.17692E+00 13360   0.759E+00    0.336E+00
DAV:  11    -0.187014795525E+03    0.10994E+00   -0.65575E-01 12600   0.249E+00    0.238E+00
DAV:  12    -0.187034666411E+03   -0.19871E-01   -0.48597E-01 12800   0.332E+00    0.352E+00
DAV:  13    -0.186932956920E+03    0.10171E+00   -0.28524E-01 13160   0.316E+00    0.189E+00
DAV:  14    -0.186904070419E+03    0.28887E-01   -0.10546E-01 12920   0.173E+00    0.996E-01
DAV:  15    -0.186898830378E+03    0.52400E-02   -0.43379E-02 12240   0.108E+00    0.989E-01
DAV:  16    -0.186892667964E+03    0.61624E-02   -0.16071E-02 13040   0.676E-01    0.481E-01
DAV:  17    -0.186890028599E+03    0.26394E-02   -0.73297E-03 12840   0.385E-01    0.176E-01
DAV:  18    -0.186889495775E+03    0.53282E-03   -0.19115E-03 11720   0.141E-01    0.166E-01
DAV:  19    -0.186889288000E+03    0.20777E-03   -0.77078E-04 11160   0.134E-01    0.465E-02
DAV:  20    -0.186890170081E+03   -0.88208E-03   -0.82568E-04  9120   0.581E-02    0.446E-02
DAV:  21    -0.186891041875E+03   -0.87179E-03   -0.22912E-04  8200   0.525E-02    0.353E-02
DAV:  22    -0.186891849775E+03   -0.80790E-03   -0.10589E-04  6760   0.298E-02    0.339E-02
DAV:  23    -0.186893006811E+03   -0.11570E-02   -0.13799E-04  7440   0.409E-02    0.168E-02
DAV:  24    -0.186893589897E+03   -0.58309E-03   -0.26676E-05  6800   0.181E-02    0.436E-03
DAV:  25    -0.186893956330E+03   -0.36643E-03   -0.16595E-05  5480   0.889E-03    0.467E-03
DAV:  26    -0.186894195208E+03   -0.23888E-03   -0.91100E-06  6760   0.708E-03    0.151E-03
DAV:  27    -0.186894286285E+03   -0.91077E-04   -0.32084E-06  7240   0.386E-03
   1 F= -.18689429E+03 E0= -.18672351E+03  d E =-.186894E+03
       N       E                     dE             d eps       ncg     rms          rms(c)
DAV:   1    -0.187531714400E+03   -0.63752E+00   -0.27010E+02  8160   0.349E+01    0.466E+00
DAV:   2    -0.189592739505E+03   -0.20610E+01   -0.20359E+01 12280   0.159E+01    0.101E+01
DAV:   3    -0.189330215063E+03    0.26252E+00   -0.43073E+00 12400   0.125E+01    0.629E+00
DAV:   4    -0.188789815519E+03    0.54040E+00   -0.56421E-01 12640   0.425E+00    0.178E+00
DAV:   5    -0.188887150074E+03   -0.97335E-01   -0.43253E-01 12200   0.314E+00    0.484E+00
DAV:   6    -0.188779200233E+03    0.10795E+00   -0.72730E-01 12680   0.430E+00    0.259E+00
DAV:   7    -0.188719927646E+03    0.59273E-01   -0.18621E-01 12120   0.189E+00    0.105E+00
DAV:   8    -0.188709828237E+03    0.10099E-01   -0.61349E-02 12920   0.122E+00    0.119E+00
DAV:   9    -0.188699796854E+03    0.10031E-01   -0.23671E-02 12000   0.882E-01    0.387E-01
DAV:  10    -0.188698884325E+03    0.91253E-03   -0.40536E-03 12080   0.258E-01    0.221E-01
DAV:  11    -0.188698244052E+03    0.64027E-03   -0.24903E-03 12400   0.169E-01    0.101E-01
DAV:  12    -0.188698338682E+03   -0.94631E-04   -0.92524E-04 11880   0.894E-02
   2 F= -.18869834E+03 E0= -.18856017E+03  d E =-.180405E+01
       N       E                     dE             d eps       ncg     rms          rms(c)
DAV:   1    -0.190618466846E+03   -0.19202E+01   -0.30962E+01  9120   0.142E+01    0.443E+00
DAV:   2    -0.190568766483E+03    0.49700E-01   -0.27325E+00 11240   0.942E+00    0.722E+00
DAV:   3    -0.190106454883E+03    0.46231E+00   -0.13078E+00 12360   0.858E+00    0.424E+00
DAV:   4    -0.189894017464E+03    0.21244E+00   -0.70204E-01 12560   0.420E+00    0.250E+00
DAV:   5    -0.189846493596E+03    0.47524E-01   -0.33553E-01 12320   0.268E+00    0.229E+00
DAV:   6    -0.189797100841E+03    0.49393E-01   -0.11507E-01 12720   0.212E+00    0.780E-01
DAV:   7    -0.189790340869E+03    0.67600E-02   -0.14157E-02 11640   0.574E-01    0.203E-01
DAV:   8    -0.189790676635E+03   -0.33577E-03   -0.32820E-03 12040   0.248E-01    0.248E-01
DAV:   9    -0.189790503942E+03    0.17269E-03   -0.17471E-03 10880   0.272E-01    0.181E-01
DAV:  10    -0.189790705331E+03   -0.20139E-03   -0.10390E-03  9880   0.164E-01    0.131E-01
DAV:  11    -0.189790426997E+03    0.27833E-03   -0.47168E-04  8880   0.800E-02    0.218E-02
DAV:  12    -0.189790450493E+03   -0.23496E-04   -0.73765E-05  7120   0.290E-02
   3 F= -.18979045E+03 E0= -.18967393E+03  d E =-.109211E+01
       N       E                     dE             d eps       ncg     rms          rms(c)
DAV:   1    -0.191366190852E+03   -0.15758E+01   -0.74519E+01  8160   0.197E+01    0.457E+00
DAV:   2    -0.191184636173E+03    0.18155E+00   -0.53247E+00 13360   0.764E+00    0.453E+00
DAV:   3    -0.191332736500E+03   -0.14810E+00   -0.15067E+00 12200   0.906E+00    0.670E+00
DAV:   4    -0.190934946384E+03    0.39779E+00   -0.13345E+00 12520   0.758E+00    0.292E+00
DAV:   5    -0.190890969168E+03    0.43977E-01   -0.40913E-01 12280   0.384E+00    0.282E+00
DAV:   6    -0.190807164403E+03    0.83805E-01   -0.19588E-01 12320   0.310E+00    0.121E+00
DAV:   7    -0.190794934052E+03    0.12230E-01   -0.43128E-02 12600   0.112E+00    0.459E-01
DAV:   8    -0.190792344075E+03    0.25900E-02   -0.81384E-03 11320   0.467E-01    0.342E-01
DAV:   9    -0.190791588276E+03    0.75580E-03   -0.27566E-03 11320   0.356E-01    0.177E-01
DAV:  10    -0.190791724249E+03   -0.13597E-03   -0.13006E-03 11440   0.158E-01    0.827E-02
DAV:  11    -0.190791638104E+03    0.86145E-04   -0.46125E-04  9400   0.791E-02
   4 F= -.19079164E+03 E0= -.19069371E+03  d E =-.100119E+01
       N       E                     dE             d eps       ncg     rms          rms(c)
DAV:   1    -0.192267238185E+03   -0.14755E+01   -0.17049E+02  8160   0.291E+01    0.578E+00
DAV:   2    -0.191994866122E+03    0.27237E+00   -0.99829E+00 11000   0.798E+00    0.361E+00
DAV:   3    -0.192046981133E+03   -0.52115E-01   -0.18440E+00 12200   0.782E+00    0.600E+00
DAV:   4    -0.191879032033E+03    0.16795E+00   -0.15320E+00 12000   0.956E+00    0.481E+00
DAV:   5    -0.191611943581E+03    0.26709E+00   -0.66254E-01 12360   0.491E+00    0.175E+00
DAV:   6    -0.191589184864E+03    0.22759E-01   -0.16001E-01 12560   0.287E+00    0.150E+00
DAV:   7    -0.191571558474E+03    0.17626E-01   -0.80351E-02 12360   0.199E+00    0.695E-01
DAV:   8    -0.191565101526E+03    0.64569E-02   -0.13759E-02 12000   0.719E-01    0.390E-01
DAV:   9    -0.191564051326E+03    0.10502E-02   -0.46709E-03 11760   0.477E-01    0.216E-01
DAV:  10    -0.191564037587E+03    0.13739E-04   -0.22927E-03 11520   0.206E-01    0.841E-02
DAV:  11    -0.191563977249E+03    0.60337E-04   -0.56255E-04 10800   0.881E-02
   5 F= -.19156398E+03 E0= -.19147800E+03  d E =-.772339E+00
       N       E                     dE             d eps       ncg     rms          rms(c)
DAV:   1    -0.191683126418E+03   -0.11909E+00   -0.90007E+00  8160   0.638E+00    0.748E-01
DAV:   2    -0.191746762563E+03   -0.63636E-01   -0.35998E-01 12760   0.295E+00    0.204E+00
DAV:   3    -0.191701952406E+03    0.44810E-01   -0.98822E-02 12560   0.238E+00    0.501E-01
DAV:   4    -0.191701840559E+03    0.11185E-03   -0.12757E-02 11640   0.762E-01    0.597E-01
DAV:   5    -0.191698507140E+03    0.33334E-02   -0.86520E-03 11760   0.708E-01    0.279E-01
DAV:   6    -0.191698362624E+03    0.14452E-03   -0.38552E-03 11480   0.323E-01    0.197E-01
DAV:   7    -0.191697853069E+03    0.50955E-03   -0.20627E-03 11560   0.255E-01    0.170E-01
DAV:   8    -0.191697601643E+03    0.25143E-03   -0.71595E-04  9160   0.189E-01    0.526E-02
DAV:   9    -0.191697605499E+03   -0.38559E-05   -0.10779E-04  6200   0.564E-02
   6 F= -.19169761E+03 E0= -.19161321E+03  d E =-.133628E+00
       N       E                     dE             d eps       ncg     rms          rms(c)
DAV:   1    -0.191819048531E+03   -0.12145E+00   -0.97322E+00  8160   0.665E+00    0.705E-01
DAV:   2    -0.191859912000E+03   -0.40863E-01   -0.32142E-01 12680   0.240E+00    0.147E+00
DAV:   3    -0.191838026997E+03    0.21885E-01   -0.64400E-02 12520   0.197E+00    0.571E-01
DAV:   4    -0.191834924985E+03    0.31020E-02   -0.96173E-03 11720   0.661E-01    0.426E-01
DAV:   5    -0.191834103993E+03    0.82099E-03   -0.72486E-03 12160   0.661E-01    0.367E-01
DAV:   6    -0.191833440844E+03    0.66315E-03   -0.48776E-03 11720   0.421E-01    0.195E-01
DAV:   7    -0.191832625843E+03    0.81500E-03   -0.15642E-03 10440   0.159E-01    0.382E-02
DAV:   8    -0.191832678172E+03   -0.52329E-04   -0.21525E-04  7880   0.804E-02
   7 F= -.19183268E+03 E0= -.19175063E+03  d E =-.135073E+00
       N       E                     dE             d eps       ncg     rms          rms(c)
DAV:   1    -0.191990940916E+03   -0.15832E+00   -0.23864E+01  8160   0.105E+01    0.108E+00
DAV:   2    -0.192060690489E+03   -0.69750E-01   -0.81040E-01 12320   0.308E+00    0.141E+00
DAV:   3    -0.192052001753E+03    0.86887E-02   -0.99493E-02 12440   0.258E+00    0.115E+00
DAV:   4    -0.192032580585E+03    0.19421E-01   -0.22386E-02 12520   0.117E+00    0.328E-01
DAV:   5    -0.192036346606E+03   -0.37660E-02   -0.15441E-02 12680   0.746E-01    0.670E-01
DAV:   6    -0.192033088180E+03    0.32584E-02   -0.13783E-02 12280   0.939E-01    0.418E-01
DAV:   7    -0.192030776913E+03    0.23113E-02   -0.37266E-03 11360   0.395E-01    0.633E-02
DAV:   8    -0.192030777475E+03   -0.56173E-06   -0.50322E-04  9400   0.737E-02
   8 F= -.19203078E+03 E0= -.19195038E+03  d E =-.198099E+00
       N       E                     dE             d eps       ncg     rms          rms(c)
DAV:   1    -0.192145516759E+03   -0.11474E+00   -0.59697E+01  8160   0.166E+01    0.171E+00
DAV:   2    -0.192314288239E+03   -0.16877E+00   -0.21788E+00 11360   0.435E+00    0.178E+00
DAV:   3    -0.192347470519E+03   -0.33182E-01   -0.25103E-01 12160   0.423E+00    0.242E+00
DAV:   4    -0.192274973311E+03    0.72497E-01   -0.80676E-02 11880   0.258E+00    0.756E-01
DAV:   5    -0.192277748424E+03   -0.27751E-02   -0.32733E-02 12360   0.157E+00    0.979E-01
DAV:   6    -0.192269130811E+03    0.86176E-02   -0.29725E-02 12560   0.124E+00    0.470E-01
DAV:   7    -0.192267143977E+03    0.19868E-02   -0.98147E-03 11920   0.765E-01    0.365E-01
DAV:   8    -0.192265640485E+03    0.15035E-02   -0.26044E-03 11400   0.403E-01    0.946E-02
DAV:   9    -0.192265498793E+03    0.14169E-03   -0.72423E-04 10280   0.101E-01    0.524E-02
DAV:  10    -0.192265453209E+03    0.45584E-04   -0.22582E-04  7960   0.485E-02
   9 F= -.19226545E+03 E0= -.19219080E+03  d E =-.234676E+00
       N       E                     dE             d eps       ncg     rms          rms(c)
DAV:   1    -0.192294912509E+03   -0.29414E-01   -0.15872E+00  8160   0.272E+00    0.405E-01
DAV:   2    -0.192301506096E+03   -0.65936E-02   -0.77556E-02 12200   0.112E+00    0.673E-01
DAV:   3    -0.192298252997E+03    0.32531E-02   -0.15078E-02 12400   0.106E+00    0.426E-01
DAV:   4    -0.192296136252E+03    0.21167E-02   -0.39563E-03 12640   0.511E-01    0.208E-01
DAV:   5    -0.192296249335E+03   -0.11308E-03   -0.25729E-03 11600   0.432E-01    0.254E-01
DAV:   6    -0.192295495826E+03    0.75351E-03   -0.18385E-03 12200   0.318E-01    0.716E-02
DAV:   7    -0.192295456047E+03    0.39779E-04   -0.32330E-04  8200   0.112E-01
  10 F= -.19229546E+03 E0= -.19222177E+03  d E =-.300028E-01
       N       E                     dE             d eps       ncg     rms          rms(c)
DAV:   1    -0.192337010350E+03   -0.41515E-01   -0.13227E+01  8160   0.770E+00    0.840E-01
DAV:   2    -0.192384018959E+03   -0.47009E-01   -0.50119E-01 11880   0.238E+00    0.124E+00
DAV:   3    -0.192377278151E+03    0.67408E-02   -0.64041E-02 12120   0.218E+00    0.102E+00
DAV:   4    -0.192364685026E+03    0.12593E-01   -0.15568E-02 12480   0.105E+00    0.260E-01
DAV:   5    -0.192365293846E+03   -0.60882E-03   -0.62010E-03 12360   0.510E-01    0.352E-01
DAV:   6    -0.192364693915E+03    0.59993E-03   -0.50411E-03 11920   0.614E-01    0.292E-01
DAV:   7    -0.192363590361E+03    0.11036E-02   -0.19514E-03 11280   0.331E-01    0.902E-02
DAV:   8    -0.192363559036E+03    0.31325E-04   -0.38196E-04  8720   0.151E-01
  11 F= -.19236356E+03 E0= -.19229349E+03  d E =-.681030E-01
       N       E                     dE             d eps       ncg     rms          rms(c)
DAV:   1    -0.192376498529E+03   -0.12908E-01   -0.79346E-01  8160   0.192E+00    0.256E-01
DAV:   2    -0.192379728994E+03   -0.32305E-02   -0.33043E-02 12240   0.761E-01    0.459E-01
DAV:   3    -0.192377942039E+03    0.17870E-02   -0.63278E-03 12400   0.687E-01    0.244E-01
DAV:   4    -0.192377246254E+03    0.69578E-03   -0.13530E-03 11520   0.298E-01    0.131E-01
DAV:   5    -0.192377266375E+03   -0.20120E-04   -0.95720E-04 10640   0.266E-01
  12 F= -.19237727E+03 E0= -.19230769E+03  d E =-.137073E-01
       N       E                     dE             d eps       ncg     rms          rms(c)
DAV:   1    -0.192395834716E+03   -0.18588E-01   -0.17395E+00  8160   0.281E+00    0.370E-01
DAV:   2    -0.192403296158E+03   -0.74614E-02   -0.66508E-02 12200   0.112E+00    0.707E-01
DAV:   3    -0.192398687766E+03    0.46084E-02   -0.12906E-02 12520   0.999E-01    0.323E-01
DAV:   4    -0.192397395429E+03    0.12923E-02   -0.23975E-03 12480   0.366E-01    0.161E-01
DAV:   5    -0.192397495752E+03   -0.10032E-03   -0.17203E-03 12040   0.339E-01    0.198E-01
DAV:   6    -0.192397092788E+03    0.40296E-03   -0.11840E-03 10920   0.274E-01    0.709E-02
DAV:   7    -0.192397002549E+03    0.90238E-04   -0.19318E-04  7160   0.923E-02
  13 F= -.19239700E+03 E0= -.19232827E+03  d E =-.197362E-01
       N       E                     dE             d eps       ncg     rms          rms(c)
DAV:   1    -0.192404204823E+03   -0.71120E-02   -0.24673E-01  8160   0.112E+00    0.229E-01
DAV:   2    -0.192404960811E+03   -0.75599E-03   -0.15161E-02 11400   0.603E-01    0.355E-01
DAV:   3    -0.192403842840E+03    0.11180E-02   -0.41601E-03 11600   0.560E-01    0.199E-01
DAV:   4    -0.192403445841E+03    0.39700E-03   -0.13905E-03 10400   0.301E-01    0.151E-01
DAV:   5    -0.192403419613E+03    0.26227E-04   -0.10486E-03 10040   0.281E-01    0.152E-01
DAV:   6    -0.192403128677E+03    0.29094E-03   -0.55282E-04  9960   0.179E-01    0.302E-02
DAV:   7    -0.192403126826E+03    0.18506E-05   -0.74864E-05  6000   0.421E-02
  14 F= -.19240313E+03 E0= -.19233517E+03  d E =-.612428E-02
       N       E                     dE             d eps       ncg     rms          rms(c)
DAV:   1    -0.192413712961E+03   -0.10584E-01   -0.72841E-01  8160   0.182E+00    0.225E-01
DAV:   2    -0.192417726283E+03   -0.40133E-02   -0.30317E-02 12360   0.769E-01    0.488E-01
DAV:   3    -0.192415323097E+03    0.24032E-02   -0.57514E-03 12640   0.661E-01    0.186E-01
DAV:   4    -0.192414908490E+03    0.41461E-03   -0.82868E-04 10400   0.199E-01    0.894E-02
DAV:   5    -0.192414916043E+03   -0.75531E-05   -0.54729E-04 10200   0.171E-01
  15 F= -.19241492E+03 E0= -.19234761E+03  d E =-.117892E-01
       N       E                     dE             d eps       ncg     rms          rms(c)
DAV:   1    -0.192433179597E+03   -0.18271E-01   -0.68238E+00  8160   0.559E+00    0.726E-01
DAV:   2    -0.192464749757E+03   -0.31570E-01   -0.28944E-01 12400   0.226E+00    0.137E+00
DAV:   3    -0.192447768019E+03    0.16982E-01   -0.51344E-02 12400   0.197E+00    0.635E-01
DAV:   4    -0.192442414176E+03    0.53538E-02   -0.93117E-03 12360   0.740E-01    0.326E-01
DAV:   5    -0.192442833952E+03   -0.41978E-03   -0.69477E-03 12280   0.701E-01    0.409E-01
DAV:   6    -0.192440957523E+03    0.18764E-02   -0.52061E-03 11960   0.543E-01    0.130E-01
DAV:   7    -0.192440725369E+03    0.23215E-03   -0.94545E-04 10600   0.192E-01    0.955E-02
DAV:   8    -0.192440644714E+03    0.80654E-04   -0.27382E-04 10040   0.138E-01
  16 F= -.19244064E+03 E0= -.19237448E+03  d E =-.257287E-01
       N       E                     dE             d eps       ncg     rms          rms(c)
DAV:   1    -0.192446630467E+03   -0.59051E-02   -0.91580E-01  8160   0.202E+00    0.241E-01
DAV:   2    -0.192451177767E+03   -0.45473E-02   -0.40781E-02 11000   0.844E-01    0.444E-01
DAV:   3    -0.192449344120E+03    0.18336E-02   -0.58419E-03 11920   0.654E-01    0.222E-01
DAV:   4    -0.192448834511E+03    0.50961E-03   -0.11755E-03 10240   0.285E-01    0.125E-01
DAV:   5    -0.192448799228E+03    0.35283E-04   -0.66639E-04 10880   0.232E-01
  17 F= -.19244880E+03 E0= -.19238344E+03  d E =-.815451E-02
       N       E                     dE             d eps       ncg     rms          rms(c)
DAV:   1    -0.192451550002E+03   -0.27155E-02   -0.28722E+00  8160   0.359E+00    0.439E-01
DAV:   2    -0.192462985133E+03   -0.11435E-01   -0.13380E-01 11320   0.130E+00    0.593E-01
DAV:   3    -0.192461615498E+03    0.13696E-02   -0.15636E-02 11840   0.107E+00    0.511E-01
DAV:   4    -0.192458345662E+03    0.32698E-02   -0.47547E-03 12120   0.596E-01    0.186E-01
DAV:   5    -0.192458748201E+03   -0.40254E-03   -0.25503E-03 11600   0.426E-01    0.267E-01
DAV:   6    -0.192457901260E+03    0.84694E-03   -0.19243E-03 12120   0.347E-01    0.680E-02
DAV:   7    -0.192457881776E+03    0.19484E-04   -0.26610E-04  7200   0.111E-01
  18 F= -.19245788E+03 E0= -.19239393E+03  d E =-.908255E-02
       N       E                     dE             d eps       ncg     rms          rms(c)
DAV:   1    -0.192457614491E+03    0.28677E-03   -0.22473E-01  8160   0.103E+00    0.151E-01
DAV:   2    -0.192458991033E+03   -0.13765E-02   -0.96837E-03 11480   0.513E-01    0.344E-01
DAV:   3    -0.192457747591E+03    0.12434E-02   -0.26702E-03 11880   0.440E-01    0.113E-01
DAV:   4    -0.192457556318E+03    0.19127E-03   -0.41131E-04  8840   0.147E-01    0.661E-02
DAV:   5    -0.192457588981E+03   -0.32663E-04   -0.34528E-04  9520   0.157E-01
  19 F= -.19245759E+03 E0= -.19239318E+03  d E =0.292795E-03
       N       E                     dE             d eps       ncg     rms          rms(c)
DAV:   1    -0.192458315738E+03   -0.75942E-03   -0.71299E-02  8160   0.583E-01    0.108E-01
DAV:   2    -0.192458718662E+03   -0.40292E-03   -0.41882E-03 11560   0.306E-01    0.198E-01
DAV:   3    -0.192458342754E+03    0.37591E-03   -0.11164E-03 11000   0.281E-01    0.926E-02
DAV:   4    -0.192458249460E+03    0.93295E-04   -0.28518E-04  8800   0.130E-01
  20 F= -.19245825E+03 E0= -.19239383E+03  d E =-.660479E-03
       N       E                     dE             d eps       ncg     rms          rms(c)
DAV:   1    -0.192459269043E+03   -0.92629E-03   -0.54481E-02  8160   0.499E-01    0.817E-02
DAV:   2    -0.192460019737E+03   -0.75069E-03   -0.36341E-03 11800   0.357E-01    0.222E-01
DAV:   3    -0.192459373685E+03    0.64605E-03   -0.96100E-04 10280   0.270E-01    0.357E-02
DAV:   4    -0.192459379845E+03   -0.61602E-05   -0.62620E-05  5680   0.648E-02
  21 F= -.19245938E+03 E0= -.19239513E+03  d E =-.113039E-02
       N       E                     dE             d eps       ncg     rms          rms(c)
DAV:   1    -0.192460084299E+03   -0.71061E-03   -0.21572E-02  8160   0.348E-01    0.765E-02
DAV:   2    -0.192460111849E+03   -0.27551E-04   -0.14691E-03 10360   0.172E-01    0.104E-01
DAV:   3    -0.192460059632E+03    0.52217E-04   -0.43736E-04  8960   0.182E-01
  22 F= -.19246006E+03 E0= -.19239608E+03  d E =-.679787E-03
       N       E                     dE             d eps       ncg     rms          rms(c)
DAV:   1    -0.192461144825E+03   -0.10330E-02   -0.10152E-01  8160   0.687E-01    0.108E-01
DAV:   2    -0.192461659633E+03   -0.51481E-03   -0.51930E-03 11760   0.321E-01    0.184E-01
DAV:   3    -0.192461280761E+03    0.37887E-03   -0.10032E-03 10720   0.270E-01    0.753E-02
DAV:   4    -0.192461215699E+03    0.65062E-04   -0.18394E-04  6160   0.102E-01
  23 F= -.19246122E+03 E0= -.19239747E+03  d E =-.115607E-02
       N       E                     dE             d eps       ncg     rms          rms(c)
DAV:   1    -0.192461980191E+03   -0.69943E-03   -0.46586E-02  8160   0.469E-01    0.811E-02
DAV:   2    -0.192462699604E+03   -0.71941E-03   -0.30044E-03 12520   0.311E-01    0.231E-01
DAV:   3    -0.192462076407E+03    0.62320E-03   -0.90956E-04 10240   0.277E-01    0.478E-02
DAV:   4    -0.192462085111E+03   -0.87039E-05   -0.75622E-05  5680   0.778E-02
  24 F= -.19246209E+03 E0= -.19239849E+03  d E =-.869412E-03
