   27   27  100    1
  0.9710400E+02  0.1002848E-08  0.1002848E-08  0.3000000E-08  0.5000000E-15
  1.000000000000000E-004
  CAR 
 unknown system                          
    159     34    120
 
  0.0000000E+00  0.0000000E+00  0.0000000E+00  0.1562500E-01
    1      -17.860810   1.000000
    2      -16.800094   1.000000
    3      -16.689251   1.000000
    4      -16.604950   1.000000
    5      -16.579418   1.000000
    6      -16.431507   1.000000
    7      -16.354187   1.000000
    8      -16.339471   1.000000
    9      -16.243267   1.000000
   10      -16.139450   1.000000
   11      -16.076914   1.000000
   12      -15.982785   1.000000
   13      -15.869312   1.000000
   14      -15.633838   1.000000
   15      -15.583419   1.000000
   16      -15.460998   1.000000
   17      -15.222323   1.000000
   18      -15.190530   1.000000
   19       -9.475359   1.000000
   20       -9.059857   1.000000
   21       -9.031638   1.000000
   22       -8.925800   1.000000
   23       -8.756417   1.000000
   24       -8.709132   1.000000
   25       -8.643575   1.000000
   26       -8.570352   1.000000
   27       -8.487260   1.000000
   28       -8.452332   1.000000
   29       -8.409635   1.000000
   30       -8.362750   1.000000
   31       -8.234654   1.000000
   32       -8.198486   1.000000
   33       -8.153291   1.000000
   34       -8.052851   1.000000
   35       -7.810062   1.000000
   36       -7.771887   1.000000
   37       -7.632130   1.000000
   38       -7.613924   1.000000
   39       -7.500597   1.000000
   40       -7.374065   1.000000
   41       -7.306399   1.000000
   42       -7.212647   1.000000
   43       -7.085781   1.000000
   44       -6.959527   1.000000
   45       -6.830168   1.000000
   46       -6.825938   1.000000
   47       -6.752580   1.000000
   48       -6.717961   1.000000
   49       -6.643484   1.000000
   50       -6.510528   1.000000
   51       -6.399230   1.000000
   52       -6.251900   1.000000
   53       -6.209828   1.000000
   54       -6.180558   1.000000
   55       -6.117840   1.000000
   56       -6.038870   1.000000
   57       -5.981908   1.000000
   58       -5.876346   1.000000
   59       -5.852150   1.000000
   60       -5.728299   1.000000
   61       -5.607101   1.000000
   62       -5.343114   1.000000
   63       -5.293216   1.000000
   64       -5.046872   1.000000
   65       -4.985860   1.000000
   66       -4.896875   1.000000
   67       -4.852686   1.000000
   68       -4.781668   1.000000
   69       -4.746195   1.000000
   70       -4.720510   1.000000
   71       -4.656856   1.000000
   72       -4.619903   1.000000
   73       -4.412016   1.000000
   74       -4.360786   1.000000
   75       -4.283685   1.000000
   76       -3.989822   1.000000
   77       -3.749266   0.999910
   78       -3.577808   0.994350
   79       -3.502361   0.977239
   80       -3.187698   0.410910
   81       -3.145386   0.300001
   82       -2.847627   0.004271
   83       -2.692332   0.000097
   84       -2.666718   0.000046
   85       -2.517195   0.000000
   86       -2.509206   0.000000
   87       -2.290153   0.000000
   88       -2.227914   0.000000
   89       -2.185155   0.000000
   90       -1.932716   0.000000
   91       -1.733717   0.000000
   92       -1.612213   0.000000
   93       -1.493530   0.000000
   94       -1.188703   0.000000
   95       -1.130929   0.000000
   96       -1.020122   0.000000
   97       -0.956378   0.000000
   98       -0.876745   0.000000
   99       -0.811839   0.000000
  100       -0.630311   0.000000
  101       -0.547161   0.000000
  102       -0.495388   0.000000
  103       -0.376743   0.000000
  104       -0.229923   0.000000
  105       -0.130247   0.000000
  106       -0.063043   0.000000
  107       -0.027619   0.000000
  108        0.019877   0.000000
  109        0.126591   0.000000
  110        0.183259   0.000000
  111        0.438209   0.000000
  112        0.540375   0.000000
  113        0.611670   0.000000
  114        0.893258   0.000000
  115        0.976714   0.000000
  116        1.024531   0.000000
  117        1.137360   0.000000
  118        1.648884   0.000000
  119        1.842828   0.000000
  120        2.170937   0.000000
 
  0.1250000E+00  0.2775558E-16  0.0000000E+00  0.3125000E-01
    1      -17.836569   1.000000
    2      -16.830703   1.000000
    3      -16.780814   1.000000
    4      -16.611487   1.000000
    5      -16.541741   1.000000
    6      -16.443861   1.000000
    7      -16.383760   1.000000
    8      -16.324393   1.000000
    9      -16.268490   1.000000
   10      -16.053137   1.000000
   11      -16.022354   1.000000
   12      -16.001902   1.000000
   13      -15.835551   1.000000
   14      -15.633217   1.000000
   15      -15.578197   1.000000
   16      -15.466870   1.000000
   17      -15.248883   1.000000
   18      -15.188968   1.000000
   19       -9.484455   1.000000
   20       -9.152819   1.000000
   21       -9.110625   1.000000
   22       -9.041749   1.000000
   23       -8.783581   1.000000
   24       -8.699584   1.000000
   25       -8.634129   1.000000
   26       -8.574327   1.000000
   27       -8.507760   1.000000
   28       -8.491152   1.000000
   29       -8.394125   1.000000
   30       -8.311069   1.000000
   31       -8.204079   1.000000
   32       -8.076359   1.000000
   33       -8.010796   1.000000
   34       -7.912683   1.000000
   35       -7.839814   1.000000
   36       -7.759476   1.000000
   37       -7.698052   1.000000
   38       -7.496571   1.000000
   39       -7.437265   1.000000
   40       -7.406320   1.000000
   41       -7.339211   1.000000
   42       -7.202250   1.000000
   43       -7.136979   1.000000
   44       -7.001146   1.000000
   45       -6.886542   1.000000
   46       -6.853141   1.000000
   47       -6.741357   1.000000
   48       -6.680034   1.000000
   49       -6.617780   1.000000
   50       -6.540714   1.000000
   51       -6.385034   1.000000
   52       -6.273856   1.000000
   53       -6.240811   1.000000
   54       -6.171585   1.000000
   55       -6.128635   1.000000
   56       -6.034197   1.000000
   57       -5.977496   1.000000
   58       -5.852391   1.000000
   59       -5.777941   1.000000
   60       -5.663783   1.000000
   61       -5.562205   1.000000
   62       -5.366032   1.000000
   63       -5.313080   1.000000
   64       -5.214200   1.000000
   65       -5.057348   1.000000
   66       -5.011550   1.000000
   67       -4.887628   1.000000
   68       -4.864698   1.000000
   69       -4.772268   1.000000
   70       -4.649085   1.000000
   71       -4.582062   1.000000
   72       -4.478174   1.000000
   73       -4.377811   1.000000
   74       -4.299104   1.000000
   75       -4.274916   1.000000
   76       -3.907708   0.999999
   77       -3.810238   0.999985
   78       -3.672288   0.999316
   79       -3.478855   0.966643
   80       -3.395810   0.893686
   81       -2.956845   0.031614
   82       -2.858516   0.005342
   83       -2.709603   0.000156
   84       -2.640577   0.000021
   85       -2.512904   0.000000
   86       -2.502809   0.000000
   87       -2.287855   0.000000
   88       -2.196923   0.000000
   89       -2.156060   0.000000
   90       -1.937796   0.000000
   91       -1.738245   0.000000
   92       -1.592900   0.000000
   93       -1.477202   0.000000
   94       -1.188995   0.000000
   95       -1.132555   0.000000
   96       -1.010437   0.000000
   97       -0.965352   0.000000
   98       -0.880048   0.000000
   99       -0.819538   0.000000
  100       -0.667997   0.000000
  101       -0.602980   0.000000
  102       -0.559529   0.000000
  103       -0.461207   0.000000
  104       -0.317766   0.000000
  105       -0.198943   0.000000
  106       -0.132992   0.000000
  107       -0.055398   0.000000
  108        0.069167   0.000000
  109        0.164860   0.000000
  110        0.218298   0.000000
  111        0.431592   0.000000
  112        0.540403   0.000000
  113        0.623937   0.000000
  114        0.813750   0.000000
  115        0.995331   0.000000
  116        1.090157   0.000000
  117        1.231058   0.000000
  118        1.694131   0.000000
  119        1.882052   0.000000
  120        2.206439   0.000000
 
  0.2500000E+00  0.5551115E-16  0.0000000E+00  0.3125000E-01
    1      -17.766148   1.000000
    2      -17.017929   1.000000
    3      -16.779589   1.000000
    4      -16.641949   1.000000
    5      -16.594901   1.000000
    6      -16.480986   1.000000
    7      -16.367871   1.000000
    8      -16.279457   1.000000
    9      -16.219921   1.000000
   10      -16.050771   1.000000
   11      -15.973034   1.000000
   12      -15.916349   1.000000
   13      -15.776712   1.000000
   14      -15.614739   1.000000
   15      -15.562230   1.000000
   16      -15.474568   1.000000
   17      -15.302541   1.000000
   18      -15.202731   1.000000
   19       -9.599143   1.000000
   20       -9.334751   1.000000
   21       -9.203829   1.000000
   22       -9.107602   1.000000
   23       -8.888486   1.000000
   24       -8.721466   1.000000
   25       -8.630958   1.000000
   26       -8.552020   1.000000
   27       -8.488455   1.000000
   28       -8.454585   1.000000
   29       -8.355564   1.000000
   30       -8.257404   1.000000
   31       -8.087010   1.000000
   32       -8.045875   1.000000
   33       -7.951311   1.000000
   34       -7.818237   1.000000
   35       -7.739471   1.000000
   36       -7.613782   1.000000
   37       -7.577278   1.000000
   38       -7.543290   1.000000
   39       -7.430202   1.000000
   40       -7.390705   1.000000
   41       -7.305831   1.000000
   42       -7.206688   1.000000
   43       -7.132609   1.000000
   44       -7.028784   1.000000
   45       -6.951510   1.000000
   46       -6.841436   1.000000
   47       -6.761402   1.000000
   48       -6.680593   1.000000
   49       -6.543274   1.000000
   50       -6.508982   1.000000
   51       -6.367585   1.000000
   52       -6.306235   1.000000
   53       -6.270399   1.000000
   54       -6.192710   1.000000
   55       -6.100160   1.000000
   56       -6.078140   1.000000
   57       -5.864271   1.000000
   58       -5.816537   1.000000
   59       -5.763504   1.000000
   60       -5.685017   1.000000
   61       -5.525640   1.000000
   62       -5.498756   1.000000
   63       -5.441501   1.000000
   64       -5.260700   1.000000
   65       -5.183713   1.000000
   66       -5.121327   1.000000
   67       -5.013904   1.000000
   68       -4.854680   1.000000
   69       -4.764774   1.000000
   70       -4.598532   1.000000
   71       -4.447356   1.000000
   72       -4.419778   1.000000
   73       -4.276940   1.000000
   74       -4.254977   1.000000
   75       -4.134904   1.000000
   76       -4.058377   1.000000
   77       -3.920086   1.000000
   78       -3.722535   0.999812
   79       -3.484167   0.969338
   80       -3.407399   0.907963
   81       -2.931810   0.020945
   82       -2.844139   0.003971
   83       -2.696980   0.000110
   84       -2.592265   0.000005
   85       -2.518310   0.000000
   86       -2.470165   0.000000
   87       -2.283846   0.000000
   88       -2.137746   0.000000
   89       -2.074199   0.000000
   90       -1.946636   0.000000
   91       -1.750087   0.000000
   92       -1.528745   0.000000
   93       -1.432074   0.000000
   94       -1.217845   0.000000
   95       -1.141259   0.000000
   96       -1.013872   0.000000
   97       -0.989901   0.000000
   98       -0.878459   0.000000
   99       -0.862855   0.000000
  100       -0.788991   0.000000
  101       -0.703217   0.000000
  102       -0.679887   0.000000
  103       -0.588213   0.000000
  104       -0.466110   0.000000
  105       -0.339880   0.000000
  106       -0.198655   0.000000
  107       -0.089312   0.000000
  108        0.020109   0.000000
  109        0.142317   0.000000
  110        0.215003   0.000000
  111        0.407548   0.000000
  112        0.557169   0.000000
  113        0.686423   0.000000
  114        0.773177   0.000000
  115        1.088661   0.000000
  116        1.164204   0.000000
  117        1.401023   0.000000
  118        1.819259   0.000000
  119        1.994841   0.000000
  120        2.311371   0.000000
 
  0.3750000E+00  0.0000000E+00  0.0000000E+00  0.3125000E-01
    1      -17.660779   1.000000
    2      -17.212209   1.000000
    3      -16.766181   1.000000
    4      -16.670613   1.000000
    5      -16.654525   1.000000
    6      -16.516368   1.000000
    7      -16.340276   1.000000
    8      -16.229198   1.000000
    9      -16.182586   1.000000
   10      -16.056405   1.000000
   11      -15.893722   1.000000
   12      -15.880582   1.000000
   13      -15.764055   1.000000
   14      -15.589167   1.000000
   15      -15.544891   1.000000
   16      -15.446678   1.000000
   17      -15.350689   1.000000
   18      -15.234165   1.000000
   19       -9.778344   1.000000
   20       -9.443537   1.000000
   21       -9.219428   1.000000
   22       -9.119443   1.000000
   23       -8.956560   1.000000
   24       -8.771319   1.000000
   25       -8.615796   1.000000
   26       -8.537966   1.000000
   27       -8.457481   1.000000
   28       -8.360775   1.000000
   29       -8.289349   1.000000
   30       -8.255364   1.000000
   31       -8.102664   1.000000
   32       -8.007566   1.000000
   33       -7.938559   1.000000
   34       -7.802625   1.000000
   35       -7.739288   1.000000
   36       -7.616020   1.000000
   37       -7.588117   1.000000
   38       -7.551046   1.000000
   39       -7.414905   1.000000
   40       -7.315453   1.000000
   41       -7.212352   1.000000
   42       -7.139515   1.000000
   43       -7.033757   1.000000
   44       -6.998500   1.000000
   45       -6.912460   1.000000
   46       -6.807386   1.000000
   47       -6.733662   1.000000
   48       -6.583159   1.000000
   49       -6.511326   1.000000
   50       -6.473186   1.000000
   51       -6.353227   1.000000
   52       -6.268708   1.000000
   53       -6.221329   1.000000
   54       -6.183766   1.000000
   55       -6.116120   1.000000
   56       -6.078372   1.000000
   57       -6.026057   1.000000
   58       -5.953662   1.000000
   59       -5.815356   1.000000
   60       -5.716722   1.000000
   61       -5.657604   1.000000
   62       -5.515178   1.000000
   63       -5.459967   1.000000
   64       -5.317094   1.000000
   65       -5.175734   1.000000
   66       -5.107965   1.000000
   67       -5.016562   1.000000
   68       -4.823999   1.000000
   69       -4.777092   1.000000
   70       -4.678973   1.000000
   71       -4.491499   1.000000
   72       -4.419149   1.000000
   73       -4.261339   1.000000
   74       -4.224056   1.000000
   75       -4.141607   1.000000
   76       -4.025423   1.000000
   77       -3.915509   1.000000
   78       -3.729558   0.999845
   79       -3.553254   0.990854
   80       -3.227541   0.522539
   81       -2.989722   0.052070
   82       -2.864780   0.006061
   83       -2.664066   0.000043
   84       -2.580805   0.000003
   85       -2.523074   0.000000
   86       -2.416705   0.000000
   87       -2.255392   0.000000
   88       -2.097476   0.000000
   89       -2.019222   0.000000
   90       -1.897906   0.000000
   91       -1.765796   0.000000
   92       -1.479741   0.000000
   93       -1.358111   0.000000
   94       -1.279329   0.000000
   95       -1.154343   0.000000
   96       -1.064853   0.000000
   97       -1.041402   0.000000
   98       -0.962520   0.000000
   99       -0.889851   0.000000
  100       -0.839153   0.000000
  101       -0.773362   0.000000
  102       -0.743035   0.000000
  103       -0.703189   0.000000
  104       -0.553102   0.000000
  105       -0.489300   0.000000
  106       -0.235342   0.000000
  107       -0.136097   0.000000
  108       -0.035689   0.000000
  109        0.049287   0.000000
  110        0.161221   0.000000
  111        0.419040   0.000000
  112        0.558812   0.000000
  113        0.697779   0.000000
  114        0.854559   0.000000
  115        1.171796   0.000000
  116        1.236715   0.000000
  117        1.537368   0.000000
  118        2.005347   0.000000
  119        2.171716   0.000000
  120        2.471532   0.000000
 
  0.5000000E+00  0.1110223E-15  0.0000000E+00  0.1562500E-01
    1      -17.584033   1.000000
    2      -17.320895   1.000000
    3      -16.756095   1.000000
    4      -16.696895   1.000000
    5      -16.663764   1.000000
    6      -16.530366   1.000000
    7      -16.327912   1.000000
    8      -16.218094   1.000000
    9      -16.171441   1.000000
   10      -16.041431   1.000000
   11      -15.885175   1.000000
   12      -15.848904   1.000000
   13      -15.763500   1.000000
   14      -15.603604   1.000000
   15      -15.522319   1.000000
   16      -15.438734   1.000000
   17      -15.346827   1.000000
   18      -15.260728   1.000000
   19       -9.851128   1.000000
   20       -9.482972   1.000000
   21       -9.233472   1.000000
   22       -9.109310   1.000000
   23       -8.952509   1.000000
   24       -8.794302   1.000000
   25       -8.611785   1.000000
   26       -8.581599   1.000000
   27       -8.422696   1.000000
   28       -8.329576   1.000000
   29       -8.253797   1.000000
   30       -8.189705   1.000000
   31       -8.105413   1.000000
   32       -8.032293   1.000000
   33       -7.965993   1.000000
   34       -7.781641   1.000000
   35       -7.734956   1.000000
   36       -7.723778   1.000000
   37       -7.579886   1.000000
   38       -7.547369   1.000000
   39       -7.474002   1.000000
   40       -7.302982   1.000000
   41       -7.202648   1.000000
   42       -7.029289   1.000000
   43       -6.967709   1.000000
   44       -6.927695   1.000000
   45       -6.802068   1.000000
   46       -6.678462   1.000000
   47       -6.640126   1.000000
   48       -6.581846   1.000000
   49       -6.552233   1.000000
   50       -6.522999   1.000000
   51       -6.393088   1.000000
   52       -6.345070   1.000000
   53       -6.338489   1.000000
   54       -6.223225   1.000000
   55       -6.143571   1.000000
   56       -6.055867   1.000000
   57       -5.984918   1.000000
   58       -5.887084   1.000000
   59       -5.773918   1.000000
   60       -5.750697   1.000000
   61       -5.635136   1.000000
   62       -5.575332   1.000000
   63       -5.512698   1.000000
   64       -5.376360   1.000000
   65       -5.181560   1.000000
   66       -5.055968   1.000000
   67       -5.011078   1.000000
   68       -4.971553   1.000000
   69       -4.786559   1.000000
   70       -4.613519   1.000000
   71       -4.517904   1.000000
   72       -4.455324   1.000000
   73       -4.287178   1.000000
   74       -4.206482   1.000000
   75       -4.159635   1.000000
   76       -3.954542   1.000000
   77       -3.851977   0.999996
   78       -3.734792   0.999865
   79       -3.608886   0.997048
   80       -3.105392   0.209776
   81       -3.004687   0.064345
   82       -2.934616   0.021965
   83       -2.656948   0.000035
   84       -2.574030   0.000003
   85       -2.522730   0.000000
   86       -2.391240   0.000000
   87       -2.237093   0.000000
   88       -2.077383   0.000000
   89       -2.013297   0.000000
   90       -1.859981   0.000000
   91       -1.772271   0.000000
   92       -1.462710   0.000000
   93       -1.322733   0.000000
   94       -1.308086   0.000000
   95       -1.146228   0.000000
   96       -1.103433   0.000000
   97       -1.097671   0.000000
   98       -0.989817   0.000000
   99       -0.926832   0.000000
  100       -0.816534   0.000000
  101       -0.809786   0.000000
  102       -0.761688   0.000000
  103       -0.732887   0.000000
  104       -0.592593   0.000000
  105       -0.552668   0.000000
  106       -0.234010   0.000000
  107       -0.168887   0.000000
  108       -0.067045   0.000000
  109        0.020586   0.000000
  110        0.130128   0.000000
  111        0.432772   0.000000
  112        0.553554   0.000000
  113        0.707128   0.000000
  114        0.886733   0.000000
  115        1.196773   0.000000
  116        1.271561   0.000000
  117        1.589001   0.000000
  118        2.234244   0.000000
  119        2.244154   0.000000
  120        2.399854   0.000000
 
  0.0000000E+00  0.1250000E+00  0.0000000E+00  0.3125000E-01
    1      -17.838114   1.000000
    2      -16.838071   1.000000
    3      -16.720915   1.000000
    4      -16.657451   1.000000
    5      -16.595590   1.000000
    6      -16.431527   1.000000
    7      -16.349196   1.000000
    8      -16.310077   1.000000
    9      -16.242969   1.000000
   10      -16.113441   1.000000
   11      -16.000749   1.000000
   12      -15.966028   1.000000
   13      -15.864125   1.000000
   14      -15.645102   1.000000
   15      -15.581982   1.000000
   16      -15.478643   1.000000
   17      -15.223523   1.000000
   18      -15.194091   1.000000
   19       -9.468819   1.000000
   20       -9.204836   1.000000
   21       -9.062507   1.000000
   22       -9.013655   1.000000
   23       -8.831538   1.000000
   24       -8.748765   1.000000
   25       -8.668723   1.000000
   26       -8.575575   1.000000
   27       -8.491394   1.000000
   28       -8.448784   1.000000
   29       -8.358092   1.000000
   30       -8.243501   1.000000
   31       -8.149724   1.000000
   32       -8.109232   1.000000
   33       -8.049963   1.000000
   34       -8.023676   1.000000
   35       -7.747596   1.000000
   36       -7.727531   1.000000
   37       -7.656313   1.000000
   38       -7.582534   1.000000
   39       -7.488552   1.000000
   40       -7.479374   1.000000
   41       -7.265035   1.000000
   42       -7.222290   1.000000
   43       -7.120672   1.000000
   44       -7.012070   1.000000
   45       -6.902957   1.000000
   46       -6.798265   1.000000
   47       -6.731700   1.000000
   48       -6.669862   1.000000
   49       -6.568495   1.000000
   50       -6.458696   1.000000
   51       -6.420486   1.000000
   52       -6.305417   1.000000
   53       -6.212740   1.000000
   54       -6.158844   1.000000
   55       -6.127087   1.000000
   56       -6.066265   1.000000
   57       -5.993736   1.000000
   58       -5.934217   1.000000
   59       -5.768732   1.000000
   60       -5.683120   1.000000
   61       -5.575969   1.000000
   62       -5.455335   1.000000
   63       -5.375882   1.000000
   64       -5.135981   1.000000
   65       -5.060306   1.000000
   66       -4.927257   1.000000
   67       -4.843634   1.000000
   68       -4.795837   1.000000
   69       -4.747260   1.000000
   70       -4.651099   1.000000
   71       -4.605151   1.000000
   72       -4.537925   1.000000
   73       -4.421868   1.000000
   74       -4.296244   1.000000
   75       -4.253384   1.000000
   76       -4.054141   1.000000
   77       -3.756157   0.999926
   78       -3.651786   0.998880
   79       -3.567828   0.993106
   80       -3.147982   0.306416
   81       -3.107732   0.214574
   82       -2.809259   0.001859
   83       -2.673237   0.000056
   84       -2.642074   0.000022
   85       -2.512085   0.000000
   86       -2.496322   0.000000
   87       -2.270805   0.000000
   88       -2.203441   0.000000
   89       -2.135155   0.000000
   90       -1.937349   0.000000
   91       -1.749691   0.000000
   92       -1.604074   0.000000
   93       -1.473033   0.000000
   94       -1.198148   0.000000
   95       -1.144693   0.000000
   96       -1.036808   0.000000
   97       -0.947666   0.000000
   98       -0.884434   0.000000
   99       -0.818024   0.000000
  100       -0.708751   0.000000
  101       -0.644646   0.000000
  102       -0.545795   0.000000
  103       -0.476697   0.000000
  104       -0.311351   0.000000
  105       -0.178368   0.000000
  106       -0.073403   0.000000
  107        0.003846   0.000000
  108        0.042441   0.000000
  109        0.137214   0.000000
  110        0.237500   0.000000
  111        0.482880   0.000000
  112        0.547368   0.000000
  113        0.590565   0.000000
  114        0.933810   0.000000
  115        0.971772   0.000000
  116        1.044016   0.000000
  117        1.100424   0.000000
  118        1.690738   0.000000
  119        1.883683   0.000000
  120        2.205521   0.000000
 
  0.1250000E+00  0.1250000E+00  0.0000000E+00  0.3125000E-01
    1      -17.792729   1.000000
    2      -16.918157   1.000000
    3      -16.819688   1.000000
    4      -16.708061   1.000000
    5      -16.525506   1.000000
    6      -16.422788   1.000000
    7      -16.347482   1.000000
    8      -16.330964   1.000000
    9      -16.249860   1.000000
   10      -16.020544   1.000000
   11      -15.997252   1.000000
   12      -15.913628   1.000000
   13      -15.813985   1.000000
   14      -15.655503   1.000000
   15      -15.576231   1.000000
   16      -15.492658   1.000000
   17      -15.256712   1.000000
   18      -15.190505   1.000000
   19       -9.500610   1.000000
   20       -9.322012   1.000000
   21       -9.239921   1.000000
   22       -9.109079   1.000000
   23       -8.855636   1.000000
   24       -8.687097   1.000000
   25       -8.650176   1.000000
   26       -8.550423   1.000000
   27       -8.484733   1.000000
   28       -8.441369   1.000000
   29       -8.333043   1.000000
   30       -8.252666   1.000000
   31       -8.116286   1.000000
   32       -8.054517   1.000000
   33       -7.980383   1.000000
   34       -7.867373   1.000000
   35       -7.742913   1.000000
   36       -7.710000   1.000000
   37       -7.603555   1.000000
   38       -7.539031   1.000000
   39       -7.466823   1.000000
   40       -7.371899   1.000000
   41       -7.254642   1.000000
   42       -7.222269   1.000000
   43       -7.184006   1.000000
   44       -7.021141   1.000000
   45       -6.925590   1.000000
   46       -6.810339   1.000000
   47       -6.775852   1.000000
   48       -6.667647   1.000000
   49       -6.501774   1.000000
   50       -6.470661   1.000000
   51       -6.390525   1.000000
   52       -6.295456   1.000000
   53       -6.266678   1.000000
   54       -6.203276   1.000000
   55       -6.116906   1.000000
   56       -6.042684   1.000000
   57       -5.970160   1.000000
   58       -5.906504   1.000000
   59       -5.762759   1.000000
   60       -5.607267   1.000000
   61       -5.558440   1.000000
   62       -5.490998   1.000000
   63       -5.450902   1.000000
   64       -5.273622   1.000000
   65       -5.207528   1.000000
   66       -5.053185   1.000000
   67       -4.887426   1.000000
   68       -4.805918   1.000000
   69       -4.747298   1.000000
   70       -4.622292   1.000000
   71       -4.489677   1.000000
   72       -4.403015   1.000000
   73       -4.367112   1.000000
   74       -4.245766   1.000000
   75       -4.214499   1.000000
   76       -4.097245   1.000000
   77       -3.913862   1.000000
   78       -3.666967   0.999221
   79       -3.541844   0.988666
   80       -3.293457   0.699382
   81       -2.934069   0.021763
   82       -2.808247   0.001817
   83       -2.669017   0.000050
   84       -2.613309   0.000009
   85       -2.502577   0.000000
   86       -2.471378   0.000000
   87       -2.239594   0.000000
   88       -2.150394   0.000000
   89       -2.082660   0.000000
   90       -1.945277   0.000000
   91       -1.744592   0.000000
   92       -1.584604   0.000000
   93       -1.451792   0.000000
   94       -1.205612   0.000000
   95       -1.172359   0.000000
   96       -1.058789   0.000000
   97       -0.951155   0.000000
   98       -0.893221   0.000000
   99       -0.853939   0.000000
  100       -0.775656   0.000000
  101       -0.740466   0.000000
  102       -0.663713   0.000000
  103       -0.568731   0.000000
  104       -0.432548   0.000000
  105       -0.218755   0.000000
  106       -0.114410   0.000000
  107       -0.085042   0.000000
  108        0.053452   0.000000
  109        0.192303   0.000000
  110        0.276491   0.000000
  111        0.418065   0.000000
  112        0.531087   0.000000
  113        0.622822   0.000000
  114        0.866847   0.000000
  115        1.039398   0.000000
  116        1.081070   0.000000
  117        1.235525   0.000000
  118        1.773815   0.000000
  119        1.961489   0.000000
  120        2.275075   0.000000
 
  0.2500000E+00  0.1250000E+00  0.0000000E+00  0.3125000E-01
    1      -17.705644   1.000000
    2      -17.091700   1.000000
    3      -16.898871   1.000000
    4      -16.707859   1.000000
    5      -16.506424   1.000000
    6      -16.439197   1.000000
    7      -16.365555   1.000000
    8      -16.277172   1.000000
    9      -16.211449   1.000000
   10      -16.041631   1.000000
   11      -15.945977   1.000000
   12      -15.840134   1.000000
   13      -15.776976   1.000000
   14      -15.633713   1.000000
   15      -15.567937   1.000000
   16      -15.478844   1.000000
   17      -15.315112   1.000000
   18      -15.198824   1.000000
   19       -9.661434   1.000000
   20       -9.440531   1.000000
   21       -9.367509   1.000000
   22       -9.134793   1.000000
   23       -8.859297   1.000000
   24       -8.653662   1.000000
   25       -8.582642   1.000000
   26       -8.483283   1.000000
   27       -8.463122   1.000000
   28       -8.424294   1.000000
   29       -8.320261   1.000000
   30       -8.264204   1.000000
   31       -8.104581   1.000000
   32       -8.026895   1.000000
   33       -7.974986   1.000000
   34       -7.909376   1.000000
   35       -7.747465   1.000000
   36       -7.640959   1.000000
   37       -7.573093   1.000000
   38       -7.466384   1.000000
   39       -7.351861   1.000000
   40       -7.340212   1.000000
   41       -7.266519   1.000000
   42       -7.198465   1.000000
   43       -7.105216   1.000000
   44       -7.022112   1.000000
   45       -6.882116   1.000000
   46       -6.811323   1.000000
   47       -6.724906   1.000000