<?xml version="1.0" encoding="ISO-8859-1"?>
<modeling>
 <generator>
  <i name="program" type="string">vasp </i>
  <i name="version" type="string">5.4.1  </i>
  <i name="subversion" type="string">05Feb16 (build Jul 05 2020 17:13:04) complex                          parallel </i>
  <i name="platform" type="string">IFC91_ompi </i>
  <i name="date" type="string">2024 05 09 </i>
  <i name="time" type="string">00:32:42 </i>
 </generator>
 <incar>
  <i type="int" name="ISTART">     0</i>
  <i type="string" name="PREC">normal</i>
  <i type="string" name="ALGO"> Normal</i>
  <i type="int" name="ISPIN">     1</i>
  <i type="int" name="ICHARG">     2</i>
  <i type="int" name="IBRION">     1</i>
  <i type="int" name="NSW">   100</i>
  <i type="int" name="ISIF">     3</i>
  <i type="int" name="ISYM">     0</i>
  <i name="SYMPREC">      0.00000001</i>
  <i name="POTIM">      0.50000000</i>
  <i type="logical" name="LREAL"> F  </i>
  <i type="logical" name="LPLANE"> F  </i>
  <i type="int" name="ISMEAR">     0</i>
  <i type="logical" name="LWAVE"> F  </i>
  <i type="logical" name="LCHARG"> F  </i>
  <v type="int" name="KPOINT_BSE">    -1     0     0     0</v>
 </incar>
 <kpoints>
  <generation param="Gamma">
   <v type="int" name="divisions">       8        8        1 </v>
   <v name="usershift">      0.00000000       0.00000000       0.00000000 </v>
   <v name="genvec1">      0.12500000       0.00000000       0.00000000 </v>
   <v name="genvec2">     -0.00000000       0.12500000       0.00000000 </v>
   <v name="genvec3">      0.00000000       0.00000000       1.00000000 </v>
   <v name="shift">      0.00000000       0.00000000       0.00000000 </v>
  </generation>
  <varray name="kpointlist" >
   <v>       0.00000000       0.00000000       0.00000000 </v>
   <v>       0.12500000       0.00000000       0.00000000 </v>
   <v>       0.25000000       0.00000000       0.00000000 </v>
   <v>       0.37500000       0.00000000       0.00000000 </v>
   <v>       0.50000000       0.00000000       0.00000000 </v>
   <v>       0.00000000       0.12500000       0.00000000 </v>
   <v>       0.12500000       0.12500000       0.00000000 </v>
   <v>       0.25000000       0.12500000       0.00000000 </v>
   <v>       0.37500000       0.12500000       0.00000000 </v>
   <v>       0.50000000       0.12500000       0.00000000 </v>
   <v>      -0.37500000       0.12500000       0.00000000 </v>
   <v>      -0.25000000       0.12500000       0.00000000 </v>
   <v>      -0.12500000       0.12500000       0.00000000 </v>
   <v>       0.00000000       0.25000000       0.00000000 </v>
   <v>       0.12500000       0.25000000       0.00000000 </v>
   <v>       0.25000000       0.25000000       0.00000000 </v>
   <v>       0.37500000       0.25000000       0.00000000 </v>
   <v>       0.50000000       0.25000000       0.00000000 </v>
   <v>      -0.37500000       0.25000000       0.00000000 </v>
   <v>      -0.25000000       0.25000000       0.00000000 </v>
   <v>      -0.12500000       0.25000000       0.00000000 </v>
   <v>      -0.00000000       0.37500000       0.00000000 </v>
   <v>       0.12500000       0.37500000       0.00000000 </v>
   <v>       0.25000000       0.37500000       0.00000000 </v>
   <v>       0.37500000       0.37500000       0.00000000 </v>
   <v>       0.50000000       0.37500000       0.00000000 </v>
   <v>      -0.37500000       0.37500000       0.00000000 </v>
   <v>      -0.25000000       0.37500000       0.00000000 </v>
   <v>      -0.12500000       0.37500000       0.00000000 </v>
   <v>       0.00000000       0.50000000       0.00000000 </v>
   <v>       0.12500000       0.50000000       0.00000000 </v>
   <v>       0.25000000       0.50000000       0.00000000 </v>
   <v>       0.37500000       0.50000000       0.00000000 </v>
   <v>       0.50000000       0.50000000       0.00000000 </v>
  </varray>
  <varray name="weights" >
   <v>       0.01562500 </v>
   <v>       0.03125000 </v>
   <v>       0.03125000 </v>
   <v>       0.03125000 </v>
   <v>       0.01562500 </v>
   <v>       0.03125000 </v>
   <v>       0.03125000 </v>
   <v>       0.03125000 </v>
   <v>       0.03125000 </v>
   <v>       0.03125000 </v>
   <v>       0.03125000 </v>
   <v>       0.03125000 </v>
   <v>       0.03125000 </v>
   <v>       0.03125000 </v>
   <v>       0.03125000 </v>
   <v>       0.03125000 </v>
   <v>       0.03125000 </v>
   <v>       0.03125000 </v>
   <v>       0.03125000 </v>
   <v>       0.03125000 </v>
   <v>       0.03125000 </v>
   <v>       0.03125000 </v>
   <v>       0.03125000 </v>
   <v>       0.03125000 </v>
   <v>       0.03125000 </v>
   <v>       0.03125000 </v>
   <v>       0.03125000 </v>
   <v>       0.03125000 </v>
   <v>       0.03125000 </v>
   <v>       0.01562500 </v>
   <v>       0.03125000 </v>
   <v>       0.03125000 </v>
   <v>       0.03125000 </v>
   <v>       0.01562500 </v>
  </varray>
 </kpoints>
 <parameters>
  <separator name="general" >
   <i type="string" name="SYSTEM">unknown system</i>
   <i type="logical" name="LCOMPAT"> F  </i>
  </separator>
  <separator name="electronic" >
   <i type="string" name="PREC">normal</i>
   <i name="ENMAX">    280.00000000</i>
   <i name="ENAUG">    373.43800000</i>
   <i name="EDIFF">      0.00010000</i>
   <i type="int" name="IALGO">    38</i>
   <i type="int" name="IWAVPR">    11</i>
   <i type="int" name="NBANDS">   120</i>
   <i name="NELECT">    159.00000000</i>
   <i type="int" name="TURBO">     0</i>
   <i type="int" name="IRESTART">     0</i>
   <i type="int" name="NREBOOT">     0</i>
   <i type="int" name="NMIN">     0</i>
   <i name="EREF">      0.00000000</i>
   <separator name="electronic smearing" >
    <i type="int" name="ISMEAR">     0</i>
    <i name="SIGMA">      0.20000000</i>
    <i name="KSPACING">      0.50000000</i>
    <i type="logical" name="KGAMMA"> T  </i>
   </separator>
   <separator name="electronic projectors" >
    <i type="logical" name="LREAL"> F  </i>
    <v name="ROPT">      0.00000000      0.00000000      0.00000000      0.00000000</v>
    <i type="int" name="LMAXPAW">  -100</i>
    <i type="int" name="LMAXMIX">     2</i>
    <i type="logical" name="NLSPLINE"> F  </i>
   </separator>
   <separator name="electronic startup" >
    <i type="int" name="ISTART">     0</i>
    <i type="int" name="ICHARG">     2</i>
    <i type="int" name="INIWAV">     1</i>
   </separator>
   <separator name="electronic spin" >
    <i type="int" name="ISPIN">     1</i>
    <i type="logical" name="LNONCOLLINEAR"> F  </i>
    <v name="MAGMOM">      1.00000000      1.00000000      1.00000000      1.00000000      1.00000000      1.00000000      1.00000000      1.00000000      1.00000000      1.00000000      1.00000000      1.00000000      1.00000000      1.00000000      1.00000000      1.00000000      1.00000000      1.00000000      1.00000000      1.00000000
      1.00000000      1.00000000      1.00000000      1.00000000      1.00000000      1.00000000      1.00000000</v>
    <i name="NUPDOWN">     -1.00000000</i>
    <i type="logical" name="LSORBIT"> F  </i>
    <v name="SAXIS">      0.00000000      0.00000000      1.00000000</v>
    <i type="logical" name="LSPIRAL"> F  </i>
    <v name="QSPIRAL">      0.00000000      0.00000000      0.00000000</v>
    <i type="logical" name="LZEROZ"> F  </i>
   </separator>
   <separator name="electronic exchange-correlation" >
    <i type="logical" name="LASPH"> F  </i>
    <i type="logical" name="LMETAGGA"> F  </i>
   </separator>
   <separator name="electronic convergence" >
    <i type="int" name="NELM">    60</i>
    <i type="int" name="NELMDL">    -5</i>
    <i type="int" name="NELMIN">     2</i>
    <i name="ENINI">    280.00000000</i>
    <separator name="electronic convergence detail" >
     <i type="logical" name="LDIAG"> T  </i>
     <i type="logical" name="LSUBROT"> F  </i>
     <i name="WEIMIN">      0.00100000</i>
     <i name="EBREAK">      0.00000021</i>
     <i name="DEPER">      0.30000000</i>
     <i type="int" name="NRMM">     4</i>
     <i name="TIME">      0.40000000</i>
    </separator>
   </separator>
   <separator name="electronic mixer" >
    <i name="AMIX">      0.40000000</i>
    <i name="BMIX">      1.00000000</i>
    <i name="AMIN">      0.10000000</i>
    <i name="AMIX_MAG">      1.60000000</i>
    <i name="BMIX_MAG">      1.00000000</i>
    <separator name="electronic mixer details" >
     <i type="int" name="IMIX">     4</i>
     <i type="logical" name="MIXFIRST"> F  </i>
     <i type="int" name="MAXMIX">   -45</i>
     <i name="WC">    100.00000000</i>
     <i type="int" name="INIMIX">     1</i>
     <i type="int" name="MIXPRE">     1</i>
     <i type="int" name="MREMOVE">     5</i>
    </separator>
   </separator>
   <separator name="electronic dipolcorrection" >
    <i type="logical" name="LDIPOL"> F  </i>
    <i type="logical" name="LMONO"> F  </i>
    <i type="int" name="IDIPOL">     0</i>
    <i name="EPSILON">      1.00000000</i>
    <v name="DIPOL">   -100.00000000   -100.00000000   -100.00000000</v>
    <i name="EFIELD">      0.00000000</i>
   </separator>
  </separator>
  <separator name="grids" >
   <i type="int" name="NGX">    42</i>
   <i type="int" name="NGY">    42</i>
   <i type="int" name="NGZ">   126</i>
   <i type="int" name="NGXF">    84</i>
   <i type="int" name="NGYF">    84</i>
   <i type="int" name="NGZF">   252</i>
   <i type="logical" name="ADDGRID"> F  </i>
  </separator>
  <separator name="ionic" >
   <i type="int" name="NSW">   100</i>
   <i type="int" name="IBRION">     1</i>
   <i type="int" name="ISIF">     3</i>
   <i name="PSTRESS">      0.00000000</i>
   <i name="EDIFFG">      0.00100000</i>
   <i type="int" name="NFREE">     0</i>
   <i name="POTIM">      0.50000000</i>
   <i name="SMASS">     -3.00000000</i>
   <i name="SCALEE">      1.00000000</i>
  </separator>
  <separator name="ionic md" >
   <i name="TEBEG">      0.00010000</i>
   <i name="TEEND">      0.00010000</i>
   <i type="int" name="NBLOCK">     1</i>
   <i type="int" name="KBLOCK">   100</i>
   <i type="int" name="NPACO">   256</i>
   <i name="APACO">     16.00000000</i>
  </separator>
  <separator name="symmetry" >
   <i type="int" name="ISYM">     0</i>
   <i name="SYMPREC">      0.00000001</i>
  </separator>
  <separator name="dos" >
   <i type="logical" name="LORBIT"> F  </i>
   <v name="RWIGS">     -1.00000000     -1.00000000     -1.00000000     -1.00000000</v>
   <i type="int" name="NEDOS">   301</i>
   <i name="EMIN">     10.00000000</i>
   <i name="EMAX">    -10.00000000</i>
   <i name="EFERMI">      0.00000000</i>
  </separator>
  <separator name="writing" >
   <i type="int" name="NWRITE">     2</i>
   <i type="logical" name="LWAVE"> F  </i>
   <i type="logical" name="LCHARG"> F  </i>
   <i type="logical" name="LPARD"> F  </i>
   <i type="logical" name="LVTOT"> F  </i>
   <i type="logical" name="LVHAR"> F  </i>
   <i type="logical" name="LELF"> F  </i>
   <i type="logical" name="LOPTICS"> F  </i>
   <v name="STM">      0.00000000      0.00000000      0.00000000      0.00000000      0.00000000      0.00000000      0.00000000</v>
  </separator>
  <separator name="performance" >
   <i type="int" name="NPAR">    40</i>
   <i type="int" name="NSIM">     4</i>
   <i type="int" name="NBLK">    -1</i>
   <i type="logical" name="LPLANE"> F  </i>
   <i type="logical" name="LSCALAPACK"> T  </i>
   <i type="logical" name="LSCAAWARE"> F  </i>
   <i type="logical" name="LSCALU"> F  </i>
   <i type="logical" name="LASYNC"> F  </i>
   <i type="logical" name="LORBITALREAL"> F  </i>
  </separator>
  <separator name="miscellaneous" >
   <i type="int" name="IDIOT">     3</i>
   <i type="logical" name="LMUSIC"> F  </i>
   <v name="POMASS">     50.94100000     95.94000000    183.85000000     32.06600000</v>
   <v name="DARWINR">      0.00000000      0.00000000      0.00000000      0.00000000</v>
   <v name="DARWINV">      1.00000000      1.00000000      1.00000000      1.00000000</v>
   <i type="logical" name="LCORR"> T  </i>
  </separator>
  <i type="logical" name="GGA_COMPAT"> T  </i>
  <i type="logical" name="LBERRY"> F  </i>
  <i type="int" name="ICORELEVEL">     0</i>
  <i type="logical" name="LDAU"> F  </i>
  <i type="int" name="I_CONSTRAINED_M">     0</i>
  <separator name="electronic exchange-correlation" >
   <i type="string" name="GGA">--</i>
   <i type="int" name="VOSKOWN">     0</i>
   <i type="logical" name="LHFCALC"> F  </i>
   <i type="string" name="PRECFOCK"></i>
   <i type="logical" name="LSYMGRAD"> F  </i>
   <i type="logical" name="LHFONE"> F  </i>
   <i type="logical" name="LRHFCALC"> F  </i>
   <i type="logical" name="LTHOMAS"> F  </i>
   <i type="logical" name="LMODELHF"> F  </i>
   <i name="ENCUT4O">     -1.00000000</i>
   <i type="int" name="EXXOEP">     0</i>
   <i type="int" name="FOURORBIT">     0</i>
   <i name="AEXX">      0.00000000</i>
   <i name="HFALPHA">      0.00000000</i>
   <i name="MCALPHA">      0.00000000</i>
   <i name="ALDAX">      1.00000000</i>
   <i name="AGGAX">      1.00000000</i>
   <i name="ALDAC">      1.00000000</i>
   <i name="AGGAC">      1.00000000</i>
   <i type="int" name="NKREDX">     1</i>
   <i type="int" name="NKREDY">     1</i>
   <i type="int" name="NKREDZ">     1</i>
   <i type="logical" name="SHIFTRED"> F  </i>
   <i type="logical" name="ODDONLY"> F  </i>
   <i type="logical" name="EVENONLY"> F  </i>
   <i type="int" name="LMAXFOCK">     0</i>
   <i type="int" name="NMAXFOCKAE">     0</i>
   <i type="logical" name="LFOCKAEDFT"> F  </i>
   <i name="HFSCREEN">      0.00000000</i>
   <i name="HFSCREENC">      0.00000000</i>
   <i type="int" name="NBANDSGWLOW">     0</i>
  </separator>
  <separator name="vdW DFT" >
   <i type="logical" name="LUSE_VDW"> F  </i>
   <i name="Zab_VDW">     -0.84910000</i>
   <i name="PARAM1">      0.12340000</i>
   <i name="PARAM2">      1.00000000</i>
   <i name="PARAM3">      0.00000000</i>
  </separator>
  <separator name="model GW" >
   <i type="int" name="MODEL_GW">     0</i>
   <i name="MODEL_EPS0">     58.26239943</i>
   <i name="MODEL_ALPHA">      1.00000000</i>
  </separator>
  <separator name="linear response parameters" >
   <i type="logical" name="LEPSILON"> F  </i>
   <i type="logical" name="LRPA"> F  </i>
   <i type="logical" name="LNABLA"> F  </i>
   <i type="logical" name="LVEL"> F  </i>
   <i type="int" name="KINTER">     0</i>
   <i name="CSHIFT">      0.10000000</i>
   <i name="OMEGAMAX">     -1.00000000</i>
   <i name="DEG_THRESHOLD">      0.00200000</i>
  </separator>
  <separator name="orbital magnetization" >
   <i type="logical" name="NUCIND"> F  </i>
   <v name="MAGPOS">      0.00000000      0.00000000      0.00000000</v>
   <i type="logical" name="LNICSALL"> T  </i>
   <i type="logical" name="ORBITALMAG"> F  </i>
   <i type="logical" name="LMAGBLOCH"> F  </i>
   <i type="logical" name="LCHIMAG"> F  </i>
   <i type="logical" name="LGAUGE"> T  </i>
   <i type="int" name="MAGATOM">     0</i>
   <v name="MAGDIPOL">      0.00000000      0.00000000      0.00000000</v>
   <v name="AVECCONST">      0.00000000      0.00000000      0.00000000</v>
  </separator>
  <separator name="response functions" >
   <i type="logical" name="LADDER"> F  </i>
   <i type="logical" name="LFXC"> F  </i>
   <i type="logical" name="LHARTREE"> T  </i>
   <i type="int" name="IBSE">     0</i>
   <v type="int" name="KPOINT">    -1     0     0     0</v>
   <i type="logical" name="LTCTE"> F  </i>
   <i type="logical" name="LTETE"> F  </i>
   <i type="logical" name="LTRIPLET"> F  </i>
   <i type="logical" name="LFXCEPS"> F  </i>
   <i type="logical" name="LFXHEG"> F  </i>
   <i type="int" name="NATURALO">     0</i>
   <i type="logical" name="L2ORDER"> F  </i>
   <i type="logical" name="LUSEW"> F  </i>
   <i name="ENCUTGW">     -2.00000000</i>
   <i name="ENCUTGWSOFT">     -2.00000000</i>
   <i name="ENCUTLF">     -1.00000000</i>
   <i type="int" name="LMAXMP2">    -1</i>
   <i name="SCISSOR">      0.00000000</i>
   <i type="int" name="NOMEGA">     0</i>
   <i type="int" name="NOMEGAR">     0</i>
   <i type="int" name="NBANDSGW">    -1</i>
   <i type="int" name="NBANDSO">    -1</i>
   <i type="int" name="NBANDSV">    -1</i>
   <i type="int" name="NELM">     1</i>
   <i type="int" name="NELMHF">     1</i>
   <i type="int" name="DIM">     3</i>
   <i type="int" name="ANTIRES">     0</i>
   <i name="OMEGAMAX">    -30.00000000</i>
   <i name="OMEGAMIN">    -30.00000000</i>
   <i name="OMEGATL">   -200.00000000</i>
   <i type="int" name="OMEGAGRID">     0</i>
   <i name="CSHIFT">     -0.10000000</i>
   <i type="logical" name="SELFENERGY"> F  </i>
   <i type="logical" name="LSPECTRAL"> F  </i>
   <i type="logical" name="LSPECTRALGW"> F  </i>
   <i type="logical" name="LSINGLES"> F  </i>
   <i type="logical" name="LFERMIGW"> F  </i>
   <i type="logical" name="ODDONLYGW"> F  </i>
   <i type="logical" name="EVENONLYGW"> F  </i>
   <i type="int" name="NKREDLFX">     1</i>
   <i type="int" name="NKREDLFY">     1</i>
   <i type="int" name="NKREDLFZ">     1</i>
   <i type="int" name="MAXMEM">  1800</i>
   <i type="int" name="TELESCOPE">     0</i>
   <i type="int" name="TAUPAR">     1</i>
   <i type="int" name="OMEGAPAR">    -1</i>
   <i name="LAMBDA">      1.00000000</i>
  </separator>
  <separator name="External order field" >
   <i name="OFIELD_KAPPA">      0.00000000</i>
   <v name="OFIELD_K">      0.00000000      0.00000000      0.00000000</v>
   <i name="OFIELD_Q6_NEAR">      0.00000000</i>
   <i name="OFIELD_Q6_FAR">      0.00000000</i>
   <i name="OFIELD_A">      0.00000000</i>
  </separator>
 </parameters>
 <atominfo>
  <atoms>      27 </atoms>
  <types>       4 </types>
  <array name="atoms" >
   <dimension dim="1">ion</dimension>
   <field type="string">element</field>
   <field type="int">atomtype</field>
   <set>
    <rc><c>V </c><c>   1</c></rc>
    <rc><c>V </c><c>   1</c></rc>
    <rc><c>V </c><c>   1</c></rc>
    <rc><c>Mo</c><c>   2</c></rc>
    <rc><c>Mo</c><c>   2</c></rc>
    <rc><c>Mo</c><c>   2</c></rc>
    <rc><c>W </c><c>   3</c></rc>
    <rc><c>W </c><c>   3</c></rc>
    <rc><c>W </c><c>   3</c></rc>
    <rc><c>S </c><c>   4</c></rc>
    <rc><c>S </c><c>   4</c></rc>
    <rc><c>S </c><c>   4</c></rc>
    <rc><c>S </c><c>   4</c></rc>
    <rc><c>S </c><c>   4</c></rc>
    <rc><c>S </c><c>   4</c></rc>
    <rc><c>S </c><c>   4</c></rc>
    <rc><c>S </c><c>   4</c></rc>
    <rc><c>S </c><c>   4</c></rc>
    <rc><c>S </c><c>   4</c></rc>
    <rc><c>S </c><c>   4</c></rc>
    <rc><c>S </c><c>   4</c></rc>
    <rc><c>S </c><c>   4</c></rc>
    <rc><c>S </c><c>   4</c></rc>
    <rc><c>S </c><c>   4</c></rc>
    <rc><c>S </c><c>   4</c></rc>
    <rc><c>S </c><c>   4</c></rc>
    <rc><c>S </c><c>   4</c></rc>
   </set>
  </array>
  <array name="atomtypes" >
   <dimension dim="1">type</dimension>
   <field type="int">atomspertype</field>
   <field type="string">element</field>
   <field>mass</field>
   <field>valence</field>
   <field type="string">pseudopotential</field>
   <set>
    <rc><c>   3</c><c>V </c><c>     50.94100000</c><c>      5.00000000</c><c> PAW_PBE V 08Apr2002                    </c></rc>
    <rc><c>   3</c><c>Mo</c><c>     95.94000000</c><c>      6.00000000</c><c> PAW_PBE Mo 08Apr2002                   </c></rc>
    <rc><c>   3</c><c>W </c><c>    183.85000000</c><c>      6.00000000</c><c> PAW_PBE W 08Apr2002                    </c></rc>
    <rc><c>  18</c><c>S </c><c>     32.06600000</c><c>      6.00000000</c><c>  PAW_PBE S 17Jan2003                   </c></rc>
   </set>
  </array>
 </atominfo>
 <structure name="initialpos" >
  <crystal>
   <varray name="basis" >
    <v>       8.66999996       5.03999989       0.00000000 </v>
    <v>      -8.66999982       5.04000013       0.00000000 </v>
    <v>       0.00000000       0.00000000      30.00000000 </v>
   </varray>
   <i name="volume">   2621.80797419 </i>
   <varray name="rec_basis" >
    <v>       0.05767013       0.09920635       0.00000000 </v>
    <v>      -0.05767013       0.09920635       0.00000000 </v>
    <v>       0.00000000       0.00000000       0.03333333 </v>
   </varray>
  </crystal>
  <varray name="positions" >
   <v>       0.33333334       0.66666669       0.00000000 </v>
   <v>       0.00000000       0.00000000       0.00000000 </v>
   <v>       0.33333334       0.00000000       0.00000000 </v>
   <v>       0.33333334       0.33333334       0.00000000 </v>
   <v>       0.66666669       0.00000000       0.00000000 </v>
   <v>       1.00000000       0.33333334       0.00000000 </v>
   <v>       0.00000000       0.66666669       0.00000000 </v>
   <v>       0.66666669       0.33333334       0.00000000 </v>
   <v>       0.66666669       0.66666669       0.00000000 </v>
   <v>       0.11068511       0.22244981       0.95539999 </v>
   <v>       0.22244981       0.11068511       0.04460000 </v>
   <v>       0.11068511       0.55578315       0.95539999 </v>
   <v>       0.22244981       0.44401845       0.04460000 </v>
   <v>       0.11068511       0.88911647       0.95539999 </v>
   <v>       0.22244981       0.77735180       0.04460000 </v>
   <v>       0.44401845       0.22244981       0.95539999 </v>
   <v>       0.55578315       0.11068511       0.04460000 </v>
   <v>       0.44401845       0.55578315       0.95539999 </v>
   <v>       0.55578315       0.44401845       0.04460000 </v>
   <v>       0.44401845       0.88911647       0.95539999 </v>
   <v>       0.55578315       0.77735180       0.04460000 </v>
   <v>       0.77735180       0.22244981       0.95539999 </v>
   <v>       0.88911647       0.11068511       0.04460000 </v>
   <v>       0.77735180       0.55578315       0.95539999 </v>
   <v>       0.88911647       0.44401845       0.04460000 </v>
   <v>       0.77735180       0.88911647       0.95539999 </v>
   <v>       0.88911647       0.77735180       0.04460000 </v>
  </varray>
 </structure>
 <calculation>
  <scstep>
   <time name="dav">   21.82   21.87</time>
   <time name="total">   21.86   21.92</time>
   <energy>
    <i name="alphaZ">     81.65567618 </i>
    <i name="ewald">  41890.25210248 </i>
    <i name="hartreedc"> -47722.89524517 </i>
    <i name="XCdc">   -242.92705557 </i>
    <i name="pawpsdc">   3467.42045192 </i>
    <i name="pawaedc">  -2871.19716117 </i>
    <i name="eentropy">     -0.52581998 </i>
    <i name="bandstr">   -236.80868796 </i>
    <i name="atom">   6761.44252427 </i>
    <i name="e_fr_energy">   1126.41678499 </i>
    <i name="e_wo_entrp">   1126.94260496 </i>
    <i name="e_0_energy">   1126.67969497 </i>
   </energy>
  </scstep>
  <scstep>
   <time name="dav">   27.91   27.98</time>
   <time name="total">   27.91   27.99</time>
   <energy>
    <i name="e_fr_energy">      2.22744201 </i>
    <i name="e_wo_entrp">      2.40797181 </i>
    <i name="e_0_energy">      2.31770691 </i>
   </energy>
  </scstep>
  <scstep>
   <time name="dav">   27.67   27.73</time>
   <time name="total">   27.67   27.74</time>
   <energy>
    <i name="e_fr_energy">   -199.70205928 </i>
    <i name="e_wo_entrp">   -199.44128034 </i>
    <i name="e_0_energy">   -199.57166981 </i>
   </energy>
  </scstep>
  <scstep>
   <time name="dav">   29.73   29.80</time>
   <time name="total">   29.73   29.81</time>
   <energy>
    <i name="e_fr_energy">   -208.98278670 </i>
    <i name="e_wo_entrp">   -208.68256095 </i>
    <i name="e_0_energy">   -208.83267383 </i>
   </energy>
  </scstep>
  <scstep>
   <time name="dav">   29.07   29.14</time>
   <time name="total">   29.54   29.62</time>
   <energy>
    <i name="e_fr_energy">   -209.32222670 </i>
    <i name="e_wo_entrp">   -209.02495954 </i>
    <i name="e_0_energy">   -209.17359312 </i>
   </energy>
  </scstep>
  <scstep>
   <time name="dav">   30.72   30.79</time>
   <time name="total">   31.22   31.30</time>
   <energy>
    <i name="e_fr_energy">   -236.71718296 </i>
    <i name="e_wo_entrp">   -236.43958004 </i>
    <i name="e_0_energy">   -236.57838150 </i>
   </energy>
  </scstep>
  <scstep>
   <time name="dav">   32.14   32.22</time>
   <time name="total">   32.65   32.74</time>
   <energy>
    <i name="e_fr_energy">   -196.52788009 </i>
    <i name="e_wo_entrp">   -196.21345065 </i>
    <i name="e_0_energy">   -196.37066537 </i>
   </energy>
  </scstep>
  <scstep>
   <time name="dav">   29.56   29.63</time>
   <time name="total">   30.08   30.17</time>
   <energy>
    <i name="e_fr_energy">   -189.39321465 </i>
    <i name="e_wo_entrp">   -189.09690296 </i>
    <i name="e_0_energy">   -189.24505880 </i>
   </energy>
  </scstep>
  <scstep>
   <time name="dav">   32.26   32.33</time>
   <time name="total">   32.78   32.87</time>
   <energy>
    <i name="e_fr_energy">   -188.13310871 </i>
    <i name="e_wo_entrp">   -187.80034478 </i>
    <i name="e_0_energy">   -187.96672675 </i>
   </energy>
  </scstep>
  <scstep>
   <time name="dav">   32.36   32.44</time>
   <time name="total">   32.89   32.98</time>
   <energy>
    <i name="e_fr_energy">   -187.00905059 </i>
    <i name="e_wo_entrp">   -186.66377777 </i>
    <i name="e_0_energy">   -186.83641418 </i>
   </energy>
  </scstep>
  <scstep>
   <time name="dav">   32.60   32.67</time>
   <time name="total">   33.14   33.23</time>
   <energy>
    <i name="e_fr_energy">   -186.97184930 </i>
    <i name="e_wo_entrp">   -186.62093962 </i>
    <i name="e_0_energy">   -186.79639446 </i>
   </energy>
  </scstep>
  <scstep>
   <time name="dav">   30.14   30.21</time>
   <time name="total">   30.67   30.75</time>
   <energy>
    <i name="e_fr_energy">   -187.10353587 </i>
    <i name="e_wo_entrp">   -186.76395753 </i>
    <i name="e_0_energy">   -186.93374670 </i>
   </energy>
  </scstep>
  <scstep>
   <time name="dav">   31.29   31.37</time>
   <time name="total">   31.84   31.92</time>
   <energy>
    <i name="e_fr_energy">   -186.88744870 </i>
    <i name="e_wo_entrp">   -186.55223847 </i>
    <i name="e_0_energy">   -186.71984359 </i>
   </energy>
  </scstep>
  <scstep>
   <time name="dav">   32.26   32.34</time>
   <time name="total">   32.79   32.88</time>
   <energy>
    <i name="e_fr_energy">   -186.86266771 </i>
    <i name="e_wo_entrp">   -186.51952032 </i>
    <i name="e_0_energy">   -186.69109402 </i>
   </energy>
  </scstep>
  <scstep>
   <time name="dav">   30.43   30.50</time>
   <time name="total">   30.97   31.05</time>
   <energy>
    <i name="e_fr_energy">   -186.83960293 </i>
    <i name="e_wo_entrp">   -186.49326893 </i>
    <i name="e_0_energy">   -186.66643593 </i>
   </energy>
  </scstep>
  <scstep>
   <time name="dav">   29.66   29.73</time>
   <time name="total">   30.20   30.28</time>
   <energy>
    <i name="e_fr_energy">   -186.83273611 </i>
    <i name="e_wo_entrp">   -186.48654894 </i>
    <i name="e_0_energy">   -186.65964253 </i>
   </energy>
  </scstep>
  <scstep>
   <time name="dav">   31.06   31.14</time>
   <time name="total">   31.60   31.69</time>
   <energy>
    <i name="e_fr_energy">   -186.83088316 </i>
    <i name="e_wo_entrp">   -186.48673821 </i>
    <i name="e_0_energy">   -186.65881068 </i>
   </energy>
  </scstep>
  <scstep>
   <time name="dav">   29.59   29.66</time>
   <time name="total">   30.13   30.21</time>
   <energy>
    <i name="e_fr_energy">   -186.83021170 </i>
    <i name="e_wo_entrp">   -186.48619242 </i>
    <i name="e_0_energy">   -186.65820206 </i>
   </energy>
  </scstep>
  <scstep>
   <time name="dav">   27.96   28.03</time>
   <time name="total">   28.51   28.59</time>
   <energy>
    <i name="e_fr_energy">   -186.82979515 </i>
    <i name="e_wo_entrp">   -186.48524775 </i>
    <i name="e_0_energy">   -186.65752145 </i>
   </energy>
  </scstep>
  <scstep>
   <time name="dav">   23.79   23.85</time>
   <time name="total">   24.33   24.40</time>
   <energy>
    <i name="e_fr_energy">   -186.83054232 </i>
    <i name="e_wo_entrp">   -186.48622864 </i>
    <i name="e_0_energy">   -186.65838548 </i>
   </energy>
  </scstep>
  <scstep>
   <time name="dav">   21.66   21.71</time>
   <time name="total">   22.20   22.26</time>
   <energy>
    <i name="e_fr_energy">   -186.83112525 </i>
    <i name="e_wo_entrp">   -186.48690352 </i>
    <i name="e_0_energy">   -186.65901438 </i>
   </energy>
  </scstep>
  <scstep>
   <time name="dav">   20.43   20.48</time>
   <time name="total">   20.97   21.03</time>
   <energy>
    <i name="e_fr_energy">   -186.83229722 </i>
    <i name="e_wo_entrp">   -186.48795267 </i>
    <i name="e_0_energy">   -186.66012495 </i>
   </energy>
  </scstep>
  <scstep>
   <time name="dav">   20.30   20.35</time>
   <time name="total">   20.84   20.90</time>
   <energy>
    <i name="e_fr_energy">   -186.83352426 </i>
    <i name="e_wo_entrp">   -186.48927297 </i>
    <i name="e_0_energy">   -186.66139861 </i>
   </energy>
  </scstep>
  <scstep>
   <time name="dav">   18.64   18.69</time>
   <time name="total">   19.18   19.23</time>
   <energy>
    <i name="e_fr_energy">   -186.83412631 </i>
    <i name="e_wo_entrp">   -186.48985974 </i>
    <i name="e_0_energy">   -186.66199303 </i>
   </energy>
  </scstep>
  <scstep>
   <time name="dav">   16.58   16.62</time>
   <time name="total">   17.13   17.18</time>
   <energy>
    <i name="e_fr_energy">   -186.83448282 </i>
    <i name="e_wo_entrp">   -186.49017777 </i>
    <i name="e_0_energy">   -186.66233029 </i>
   </energy>
  </scstep>
  <scstep>
   <time name="dav">   18.94   18.98</time>
   <time name="total">   19.47   19.53</time>
   <energy>
    <i name="e_fr_energy">   -186.83471308 </i>
    <i name="e_wo_entrp">   -186.49042305 </i>
    <i name="e_0_energy">   -186.66256807 </i>
   </energy>
  </scstep>
  <scstep>
   <time name="dav">   19.74   19.78</time>
   <time name="total">   20.28   20.34</time>
   <energy>
    <i name="e_fr_energy">   -186.83481351 </i>
    <i name="e_wo_entrp">   -186.49052330 </i>
    <i name="e_0_energy">   -186.66266840 </i>
   </energy>
  </scstep>
  <scstep>
   <time name="dav">   20.24   20.29</time>
   <time name="total">   20.28   20.33</time>
   <energy>
    <i name="alphaZ">     81.65567618 </i>
    <i name="ewald">  41890.25210248 </i>
    <i name="hartreedc"> -47832.90861850 </i>
    <i name="XCdc">   -231.61206951 </i>
    <i name="pawpsdc">   4192.02559208 </i>
    <i name="pawaedc">  -3610.02671250 </i>
    <i name="eentropy">     -0.34428851 </i>
    <i name="bandstr">  -1437.31906236 </i>
    <i name="atom">   6761.44252427 </i>
    <i name="e_fr_energy">   -186.83485639 </i>
    <i name="e_wo_entrp">   -186.49056788 </i>
    <i name="e_0_energy">   -186.66271213 </i>
   </energy>
  </scstep>
  <structure>
   <crystal>
    <varray name="basis" >
     <v>       8.66999996       5.03999989       0.00000000 </v>
     <v>      -8.66999982       5.04000013       0.00000000 </v>
     <v>       0.00000000       0.00000000      30.00000000 </v>
    </varray>
    <i name="volume">   2621.80797419 </i>
    <varray name="rec_basis" >
     <v>       0.05767013       0.09920635       0.00000000 </v>
     <v>      -0.05767013       0.09920635       0.00000000 </v>
     <v>       0.00000000       0.00000000       0.03333333 </v>
    </varray>
   </crystal>
   <varray name="positions" >
    <v>       0.33333334       0.66666669       0.00000000 </v>
    <v>       0.00000000       0.00000000       0.00000000 </v>
    <v>       0.33333334       0.00000000       0.00000000 </v>
    <v>       0.33333334       0.33333334       0.00000000 </v>
    <v>       0.66666669       0.00000000       0.00000000 </v>
    <v>       1.00000000       0.33333334       0.00000000 </v>
    <v>       0.00000000       0.66666669       0.00000000 </v>
    <v>       0.66666669       0.33333334       0.00000000 </v>
    <v>       0.66666669       0.66666669       0.00000000 </v>
    <v>       0.11068511       0.22244981       0.95539999 </v>
    <v>       0.22244981       0.11068511       0.04460000 </v>
    <v>       0.11068511       0.55578315       0.95539999 </v>
    <v>       0.22244981       0.44401845       0.04460000 </v>
    <v>       0.11068511       0.88911647       0.95539999 </v>
    <v>       0.22244981       0.77735180       0.04460000 </v>
    <v>       0.44401845       0.22244981       0.95539999 </v>
    <v>       0.55578315       0.11068511       0.04460000 </v>
    <v>       0.44401845       0.55578315       0.95539999 </v>
    <v>       0.55578315       0.44401845       0.04460000 </v>
    <v>       0.44401845       0.88911647       0.95539999 </v>
    <v>       0.55578315       0.77735180       0.04460000 </v>
    <v>       0.77735180       0.22244981       0.95539999 </v>
    <v>       0.88911647       0.11068511       0.04460000 </v>
    <v>       0.77735180       0.55578315       0.95539999 </v>
    <v>       0.88911647       0.44401845       0.04460000 </v>
    <v>       0.77735180       0.88911647       0.95539999 </v>
    <v>       0.88911647       0.77735180       0.04460000 </v>
   </varray>
  </structure>
  <varray name="forces" >
   <v>       0.14917745      -0.07619023      -0.12032763 </v>
   <v>      -0.36357500       0.28819709       0.11336031 </v>
   <v>       0.00908200       0.15088969      -0.02630685 </v>
   <v>      -0.25854496      -0.19528884       0.07958248 </v>
   <v>      -0.01354391       0.22233041      -0.06502541 </v>
   <v>       0.26960061      -0.13401862       0.13268634 </v>
   <v>       0.27335761      -0.02085446      -0.02480657 </v>
   <v>       0.29708538      -0.20248020      -0.00127420 </v>
   <v>      -0.33294179      -0.12389413      -0.11078278 </v>
   <v>       0.53824160      -0.68702174      -2.17680520 </v>
   <v>       0.30703687      -0.68267331       1.42602301 </v>
   <v>       0.36427024       0.73531535      -2.16065300 </v>
   <v>      -0.52198867       0.67901436       2.14857763 </v>
   <v>      -0.23362524       0.51940734      -1.38885563 </v>
   <v>       0.23098937       0.52170821       1.41717105 </v>
   <v>       0.61067272      -0.53075885      -2.14412870 </v>
   <v>      -0.62263626      -0.53409045       2.17583490 </v>
   <v>      -0.68795860       0.17126183      -2.16527897 </v>
   <v>      -0.03290236       0.13270550       2.85810243 </v>
   <v>      -0.31401725      -0.67665594      -1.39992112 </v>
   <v>      -0.37869658      -0.68934248       2.15733058 </v>
   <v>      -0.06025738       0.00098899      -2.89301269 </v>
   <v>       0.77066560       0.01864221       2.16294351 </v>
   <v>       0.11125943      -0.01643263      -2.92724705 </v>
   <v>      -0.26340551      -0.00915193       2.91495175 </v>
   <v>       0.62169079       0.53671242      -2.13898266 </v>
   <v>      -0.46903617       0.60168041       2.15684447 </v>
  </varray>
  <varray name="stress" >
   <v>       7.30349539      -0.03681874      -1.57522215 </v>
   <v>      -0.03681877       4.43304503      -0.01169831 </v>
   <v>      -1.57522210      -0.01169824      30.31879668 </v>
  </varray>
  <energy>
   <i name="e_fr_energy">   -186.83485639 </i>
   <i name="e_wo_entrp">   -186.66271213 </i>
   <i name="e_0_energy">     -0.34428851 </i>
  </energy>
  <time name="totalsc">  802.82  804.98</time>
 </calculation>
 <calculation>
  <scstep>
   <time name="dav">   21.66   21.71</time>
   <time name="total">   22.21   22.26</time>
   <energy>
    <i name="alphaZ">     78.92541941 </i>
    <i name="ewald">  39381.54302212 </i>
    <i name="hartreedc"> -45338.99997383 </i>
    <i name="XCdc">   -239.06828437 </i>
    <i name="pawpsdc">   4192.02470130 </i>
    <i name="pawaedc">  -3610.02580576 </i>
    <i name="eentropy">     -0.28739764 </i>
    <i name="bandstr">  -1413.00580945 </i>
    <i name="atom">   6761.44252427 </i>
    <i name="e_fr_energy">   -187.45160395 </i>
    <i name="e_wo_entrp">   -187.16420631 </i>
    <i name="e_0_energy">   -187.30790513 </i>
   </energy>
  </scstep>
  <scstep>
   <time name="dav">   30.19   30.26</time>
   <time name="total">   30.73   30.81</time>
   <energy>
    <i name="e_fr_energy">   -189.14911441 </i>
    <i name="e_wo_entrp">   -188.84140364 </i>
    <i name="e_0_energy">   -188.99525902 </i>
   </energy>
  </scstep>
  <scstep>
   <time name="dav">   30.51   30.58</time>
   <time name="total">   31.06   31.14</time>
   <energy>
    <i name="e_fr_energy">   -189.40211776 </i>
    <i name="e_wo_entrp">   -189.12279433 </i>
    <i name="e_0_energy">   -189.26245604 </i>
   </energy>
  </scstep>
  <scstep>
   <time name="dav">   31.04   31.11</time>
   <time name="total">   31.58   31.67</time>
   <energy>
    <i name="e_fr_energy">   -188.71918131 </i>
    <i name="e_wo_entrp">   -188.43264743 </i>
    <i name="e_0_energy">   -188.57591437 </i>
   </energy>
  </scstep>
  <scstep>
   <time name="dav">   27.12   27.19</time>
   <time name="total">   27.67   27.75</time>
   <energy>
    <i name="e_fr_energy">   -188.72585888 </i>
    <i name="e_wo_entrp">   -188.43970680 </i>
    <i name="e_0_energy">   -188.58278284 </i>
   </energy>
  </scstep>
  <scstep>
   <time name="dav">   31.42   31.49</time>
   <time name="total">   31.96   32.04</time>
   <energy>
    <i name="e_fr_energy">   -188.69600902 </i>
    <i name="e_wo_entrp">   -188.40574182 </i>
    <i name="e_0_energy">   -188.55087542 </i>
   </energy>
  </scstep>
  <scstep>
   <time name="dav">   30.20   30.28</time>
   <time name="total">   30.76   30.84</time>
   <energy>
    <i name="e_fr_energy">   -188.66542280 </i>
    <i name="e_wo_entrp">   -188.38106714 </i>
    <i name="e_0_energy">   -188.52324497 </i>
   </energy>
  </scstep>
  <scstep>
   <time name="dav">   31.10   31.18</time>
   <time name="total">   31.64   31.73</time>
   <energy>
    <i name="e_fr_energy">   -188.63035587 </i>
    <i name="e_wo_entrp">   -188.34511841 </i>
    <i name="e_0_energy">   -188.48773714 </i>
   </energy>
  </scstep>
  <scstep>
   <time name="dav">   30.34   30.41</time>
   <time name="total">   30.89   30.97</time>
   <energy>
    <i name="e_fr_energy">   -188.62982314 </i>
    <i name="e_wo_entrp">   -188.34551023 </i>
    <i name="e_0_energy">   -188.48766668 </i>
   </energy>
  </scstep>
  <scstep>
   <time name="dav">   32.97   33.05</time>
   <time name="total">   33.52   33.61</time>
   <energy>
    <i name="e_fr_energy">   -188.62891452 </i>
    <i name="e_wo_entrp">   -188.34433341 </i>
    <i name="e_0_energy">   -188.48662396 </i>
   </energy>
  </scstep>
  <scstep>
   <time name="dav">   31.53   31.60</time>
   <time name="total">   32.07   32.16</time>
   <energy>
    <i name="e_fr_energy">   -188.62817514 </i>
    <i name="e_wo_entrp">   -188.34380886 </i>
    <i name="e_0_energy">   -188.48599200 </i>
   </energy>
  </scstep>
  <scstep>
   <time name="dav">   27.73   27.80</time>
   <time name="total">   27.77   27.84</time>
   <energy>
    <i name="alphaZ">     78.92541941 </i>
    <i name="ewald">  39381.54302212 </i>
    <i name="hartreedc"> -45350.01041013 </i>
    <i name="XCdc">   -237.97506487 </i>
    <i name="pawpsdc">   3952.11664625 </i>
    <i name="pawaedc">  -3366.63842801 </i>
    <i name="eentropy">     -0.28396743 </i>
    <i name="bandstr">  -1407.74800202 </i>
    <i name="atom">   6761.44252427 </i>
    <i name="e_fr_energy">   -188.62826040 </i>
    <i name="e_wo_entrp">   -188.34429297 </i>
    <i name="e_0_energy">   -188.48627669 </i>
   </energy>
  </scstep>
  <structure>
   <crystal>
    <varray name="basis" >
     <v>       8.85460052       5.10439319       0.00000000 </v>
     <v>      -8.85568552       5.10626014       0.00000000 </v>
     <v>       0.00000000       0.00000000      30.00000000 </v>
    </varray>
    <i name="volume">   2712.50383620 </i>
    <varray name="rec_basis" >
     <v>       0.05647469       0.09794293       0.00000000 </v>
     <v>      -0.05645404       0.09793093       0.00000000 </v>
     <v>       0.00000000       0.00000000       0.03333333 </v>
    </varray>
   </crystal>
   <varray name="positions" >
    <v>       0.33338373       0.66588701      -0.00019350 </v>
    <v>       0.00036778       0.00239083       0.00018229 </v>
    <v>       0.33408077       0.00069689      -0.00004230 </v>
    <v>       0.33167938       0.33311801       0.00012798 </v>
    <v>       0.66769307       0.00110175      -0.00010457 </v>
    <v>       1.00010866       0.33194186       0.00021337 </v>
    <v>       0.00066072       0.66580635      -0.00003989 </v>
    <v>       0.66652416       0.33153774      -0.00000205 </v>
    <v>       0.66514743       0.66700003      -0.00017815 </v>
    <v>       0.10889451       0.21766426       0.95189949 </v>
    <v>       0.22003678       0.10656363       0.04689317 </v>
    <v>       0.11521777       0.55828890       0.95192547 </v>
    <v>       0.22424730       0.44872046       0.04805510 </v>
    <v>       0.11252100       0.89225232       0.95316659 </v>
    <v>       0.22558934       0.77920603       0.04687894 </v>
    <v>       0.44317724       0.21821062       0.95195204 </v>
    <v>       0.55149473       0.10986124       0.04809893 </v>
    <v>       0.44292410       0.55851682       0.95191803 </v>
    <v>       0.55632674       0.44474512       0.04919608 </v>
    <v>       0.43990635       0.88675165       0.95314879 </v>
    <v>       0.55143038       0.77510621       0.04806918 </v>
    <v>       0.77718888       0.22262219       0.95074777 </v>
    <v>       0.89134980       0.10863022       0.04807820 </v>
    <v>       0.77758269       0.55539496       0.95069272 </v>
    <v>       0.88833983       0.44470749       0.04928750 </v>
    <v>       0.78165013       0.88995552       0.95196032 </v>
    <v>       0.89069116       0.78153636       0.04806840 </v>
   </varray>
  </structure>
  <varray name="forces" >
   <v>       0.20450017      -0.06931818      -0.03689125 </v>
   <v>      -0.35635643       0.25065635       0.04240771 </v>
   <v>       0.00791738       0.20240538      -0.09004598 </v>
   <v>      -0.23818817      -0.01522480       0.08822184 </v>
   <v>      -0.05433453       0.36628583      -0.07559004 </v>
   <v>       0.08648674      -0.22531190       0.04456013 </v>
   <v>       0.18270581      -0.28740085      -0.01406892 </v>
   <v>       0.29190197      -0.01340405      -0.01236065 </v>
   <v>      -0.16400128      -0.18099151       0.05343761 </v>
   <v>       0.03952578      -0.07058232      -0.11650016 </v>
   <v>       0.00274936      -0.05486714      -0.03257299 </v>
   <v>      -0.08825030       0.05839494       0.01598135 </v>
   <v>      -0.03901989       0.07177772       0.08369829 </v>
   <v>       0.06057804      -0.07318716       0.23162954 </v>
   <v>      -0.05434684      -0.06686638      -0.14073564 </v>
   <v>       0.07064626       0.03732629       0.05245428 </v>
   <v>      -0.07211915       0.03448554       0.05832386 </v>
   <v>      -0.01268256       0.09692474      -0.12474173 </v>
   <v>       0.07648686       0.12138111      -0.11059088 </v>
   <v>      -0.01423171      -0.03643337       0.10882147 </v>
   <v>       0.08800794      -0.05053372      -0.06626863 </v>
   <v>      -0.12547148       0.02055381      -0.13681864 </v>
   <v>       0.07657265       0.00458986       0.21898824 </v>
   <v>      -0.02206400      -0.02342457       0.10298649 </v>
   <v>      -0.09272345      -0.00641007       0.05359978 </v>
   <v>       0.09594614      -0.03852573       0.02493350 </v>
   <v>       0.04976465      -0.05229978      -0.22285857 </v>
  </varray>
  <varray name="stress" >
   <v>     -19.93327819       0.01328189       0.02891015 </v>
   <v>       0.01328190     -19.52870841       0.03034823 </v>
   <v>       0.02891032       0.03034824      -1.77446397 </v>
  </varray>
  <energy>
   <i name="e_fr_energy">   -188.62826040 </i>
   <i name="e_wo_entrp">   -188.48627669 </i>
   <i name="e_0_energy">     -0.28396743 </i>
  </energy>
  <time name="totalsc">  403.71  404.77</time>
 </calculation>
 <calculation>
  <scstep>
   <time name="dav">   24.00   24.06</time>
   <time name="total">   24.54   24.60</time>
   <energy>
    <i name="alphaZ">     82.35466701 </i>
    <i name="ewald">  41307.27103348 </i>
    <i name="hartreedc"> -47306.31706230 </i>
    <i name="XCdc">   -233.85094346 </i>
    <i name="pawpsdc">   3950.31245194 </i>
    <i name="pawaedc">  -3364.81422035 </i>
    <i name="eentropy">     -0.23597019 </i>
    <i name="bandstr">  -1386.70420927 </i>
    <i name="atom">   6761.44252427 </i>
    <i name="e_fr_energy">   -190.54172886 </i>
    <i name="e_wo_entrp">   -190.30575868 </i>
    <i name="e_0_energy">   -190.42374377 </i>
   </energy>
  </scstep>
  <scstep>
   <time name="dav">   28.21   28.27</time>
   <time name="total">   28.73   28.80</time>
   <energy>
    <i name="e_fr_energy">   -190.56461163 </i>
    <i name="e_wo_entrp">   -190.32668515 </i>
    <i name="e_0_energy">   -190.44564839 </i>
   </energy>
  </scstep>
  <scstep>
   <time name="dav">   30.11   30.18</time>
   <time name="total">   30.64   30.72</time>
   <energy>
    <i name="e_fr_energy">   -190.00766925 </i>
    <i name="e_wo_entrp">   -189.76025522 </i>
    <i name="e_0_energy">   -189.88396223 </i>
   </energy>
  </scstep>
  <scstep>
   <time name="dav">   31.06   31.14</time>
   <time name="total">   31.60   31.68</time>
   <energy>
    <i name="e_fr_energy">   -189.80848023 </i>
    <i name="e_wo_entrp">   -189.57218345 </i>
    <i name="e_0_energy">   -189.69033184 </i>
   </energy>
  </scstep>
  <scstep>
   <time name="dav">   28.30   28.37</time>
   <time name="total">   28.84   28.92</time>
   <energy>
    <i name="e_fr_energy">   -189.73307737 </i>
    <i name="e_wo_entrp">   -189.49057055 </i>
    <i name="e_0_energy">   -189.61182396 </i>
   </energy>
  </scstep>
  <scstep>
   <time name="dav">   29.47   29.54</time>
   <time name="total">   30.00   30.08</time>
   <energy>
    <i name="e_fr_energy">   -189.71220620 </i>
    <i name="e_wo_entrp">   -189.47379569 </i>
    <i name="e_0_energy">   -189.59300094 </i>
   </energy>
  </scstep>
  <scstep>
   <time name="dav">   30.98   31.06</time>
   <time name="total">   31.52   31.61</time>
   <energy>
    <i name="e_fr_energy">   -189.70479198 </i>
    <i name="e_wo_entrp">   -189.46580981 </i>
    <i name="e_0_energy">   -189.58530090 </i>
   </energy>
  </scstep>
  <scstep>
   <time name="dav">   27.41   27.47</time>
   <time name="total">   27.94   28.23</time>
   <energy>
    <i name="e_fr_energy">   -189.70487192 </i>
    <i name="e_wo_entrp">   -189.46619339 </i>
    <i name="e_0_energy">   -189.58553265 </i>
   </energy>
  </scstep>
  <scstep>
   <time name="dav">   27.97   28.04</time>
   <time name="total">   28.51   28.58</time>
   <energy>
    <i name="e_fr_energy">   -189.70507229 </i>
    <i name="e_wo_entrp">   -189.46609720 </i>
    <i name="e_0_energy">   -189.58558475 </i>
   </energy>
  </scstep>
  <scstep>
   <time name="dav">   26.00   26.06</time>
   <time name="total">   26.54   26.60</time>
   <energy>
    <i name="e_fr_energy">   -189.70533817 </i>
    <i name="e_wo_entrp">   -189.46646863 </i>
    <i name="e_0_energy">   -189.58590340 </i>
   </energy>
  </scstep>
  <scstep>
   <time name="dav">   24.46   24.52</time>
   <time name="total">   25.00   25.07</time>
   <energy>
    <i name="e_fr_energy">   -189.70485513 </i>
    <i name="e_wo_entrp">   -189.46593506 </i>
    <i name="e_0_energy">   -189.58539509 </i>
   </energy>
  </scstep>
  <scstep>
   <time name="dav">   18.51   18.56</time>
   <time name="total">   18.55   18.60</time>
   <energy>
    <i name="alphaZ">     82.35466701 </i>
    <i name="ewald">  41307.27103348 </i>
    <i name="hartreedc"> -47279.64996587 </i>
    <i name="XCdc">   -235.24725534 </i>
    <i name="pawpsdc">   4038.78951312 </i>
    <i name="pawaedc">  -3454.48772793 </i>
    <i name="eentropy">     -0.23884041 </i>
    <i name="bandstr">  -1409.93883334 </i>
    <i name="atom">   6761.44252427 </i>
    <i name="e_fr_energy">   -189.70488502 </i>
    <i name="e_wo_entrp">   -189.46604461 </i>
    <i name="e_0_energy">   -189.58546482 </i>
   </energy>
  </scstep>
  <structure>
   <crystal>
    <varray name="basis" >
     <v>       8.66645004       4.99821644       0.00000000 </v>
     <v>      -8.66736736       4.99979366       0.00000000 </v>
     <v>       0.00000000       0.00000000      30.00000000 </v>
    </varray>
    <i name="volume">   2599.55520091 </i>
    <varray name="rec_basis" >
     <v>       0.05769980       0.10002520       0.00000000 </v>
     <v>      -0.05768160       0.10001461       0.00000000 </v>
     <v>       0.00000000       0.00000000       0.03333333 </v>
    </varray>
   </crystal>
   <varray name="positions" >
    <v>       0.33346469       0.66557521      -0.00021441 </v>
    <v>       0.00044304       0.00315044       0.00020633 </v>
    <v>       0.33442552       0.00102639      -0.00009335 </v>
    <v>       0.33142525       0.33332134       0.00017799 </v>
    <v>       0.66825102       0.00176397      -0.00014742 </v>
    <v>       0.99981642       0.33148356       0.00023863 </v>
    <v>       0.00035747       0.66515226      -0.00004787 </v>
    <v>       0.66678219       0.33123515      -0.00000906 </v>
    <v>       0.66468844       0.66685605      -0.00014785 </v>
    <v>       0.10881491       0.21750876       0.95183345 </v>
    <v>       0.21994802       0.10646960       0.04687470 </v>
    <v>       0.11523028       0.55847089       0.95193453 </v>
    <v>       0.22432939       0.44887747       0.04810255 </v>
    <v>       0.11245727       0.89207226       0.95329790 </v>
    <v>       0.22542576       0.77914684       0.04679915 </v>
    <v>       0.44330727       0.21820496       0.95198178 </v>
    <v>       0.55148291       0.10998792       0.04813200 </v>
    <v>       0.44307337       0.55869043       0.95184731 </v>
    <v>       0.55660239       0.44487384       0.04913339 </v>
    <v>       0.43983199       0.88670464       0.95321048 </v>
    <v>       0.55143073       0.77493755       0.04803161 </v>
    <v>       0.77710261       0.22277689       0.95067021 </v>
    <v>       0.89143099       0.10856434       0.04820235 </v>
    <v>       0.77752248       0.55537713       0.95075110 </v>
    <v>       0.88824009       0.44478584       0.04931788 </v>
    <v>       0.78167811       0.88979923       0.95197445 </v>
    <v>       0.89065184       0.78140147       0.04794206 </v>
   </varray>
  </structure>
  <varray name="forces" >
   <v>       0.24495376      -0.08222019      -0.01016807 </v>
   <v>      -0.36640647       0.21864928       0.01103426 </v>
   <v>       0.01192367       0.22403283      -0.08492285 </v>
   <v>      -0.23457584       0.05413999       0.05968675 </v>
   <v>      -0.06230331       0.40023208      -0.05322662 </v>
   <v>       0.01210694      -0.25033931       0.01117067 </v>
   <v>       0.15694500      -0.38089102      -0.00926696 </v>
   <v>       0.28458204       0.07009976      -0.00903322 </v>
   <v>      -0.09740138      -0.20863917       0.07644404 </v>
   <v>       0.07511553      -0.12795951      -0.60191566 </v>
   <v>       0.04632033      -0.11672772       0.41873115 </v>
   <v>       0.04555255       0.10690161      -0.48395849 </v>
   <v>      -0.09291161       0.13774129       0.57647478 </v>
   <v>      -0.02128401       0.05168867      -0.20939379 </v>
   <v>       0.02670432       0.06747154       0.30749940 </v>
   <v>       0.05256966      -0.08972120      -0.43351703 </v>
   <v>      -0.06013936      -0.10484280       0.56637345 </v>
   <v>      -0.12572219       0.01330359      -0.64398901 </v>
   <v>       0.04646027       0.05376894       0.42866085 </v>
   <v>      -0.04516850      -0.09695661      -0.32964569 </v>
   <v>      -0.05001867      -0.10127676       0.42023755 </v>
   <v>      -0.03549604       0.03372733      -0.70357633 </v>
   <v>       0.14577306      -0.00033512       0.73434255 </v>
   <v>      -0.02350149      -0.03237713      -0.45962371 </v>
   <v>      -0.01085356      -0.01116530       0.62516911 </v>
   <v>       0.09777215       0.09897161      -0.47083426 </v>
   <v>      -0.02099686       0.07272332       0.26724713 </v>
  </varray>
  <varray name="stress" >
   <v>     -10.12957280       0.01379852       0.00535766 </v>
   <v>       0.01379840      -9.81227629       0.03625277 </v>
   <v>       0.00535759       0.03625285       6.51284065 </v>
  </varray>
  <energy>
   <i name="e_fr_energy">   -189.70488502 </i>
   <i name="e_wo_entrp">   -189.58546482 </i>
   <i name="e_0_energy">     -0.23884041 </i>
  </energy>
  <time name="totalsc">  373.88  375.07</time>
 </calculation>
 <calculation>
  <scstep>
   <time name="dav">   21.62   21.67</time>
   <time name="total">   22.15   22.20</time>
   <energy>
    <i name="alphaZ">     85.81027141 </i>
    <i name="ewald">  42826.35072847 </i>
    <i name="hartreedc"> -48843.06005887 </i>
    <i name="XCdc">   -232.98267238 </i>
    <i name="pawpsdc">   4038.82182716 </i>
    <i name="pawaedc">  -3454.51753175 </i>
    <i name="eentropy">     -0.19388200 </i>
    <i name="bandstr">  -1372.88910400 </i>
    <i name="atom">   6761.44252427 </i>
    <i name="e_fr_energy">   -191.21789768 </i>
    <i name="e_wo_entrp">   -191.02401569 </i>
    <i name="e_0_energy">   -191.12095668 </i>
   </energy>
  </scstep>
  <scstep>
   <time name="dav">   32.67   32.75</time>
   <time name="total">   33.18   33.27</time>
   <energy>
    <i name="e_fr_energy">   -191.16333644 </i>
    <i name="e_wo_entrp">   -190.96224570 </i>
    <i name="e_0_energy">   -191.06279107 </i>
   </energy>
  </scstep>
  <scstep>
   <time name="dav">   29.37   29.44</time>
   <time name="total">   29.89   29.97</time>
   <energy>
    <i name="e_fr_energy">   -191.08476719 </i>
    <i name="e_wo_entrp">   -190.87340576 </i>
    <i name="e_0_energy">   -190.97908648 </i>
   </energy>
  </scstep>
  <scstep>
   <time name="dav">   31.58   31.65</time>
   <time name="total">   32.09   32.18</time>
   <energy>
    <i name="e_fr_energy">   -190.76584259 </i>
    <i name="e_wo_entrp">   -190.56596484 </i>
    <i name="e_0_energy">   -190.66590372 </i>
   </energy>
  </scstep>
  <scstep>
   <time name="dav">   29.81   29.88</time>
   <time name="total">   30.33   30.41</time>
   <energy>
    <i name="e_fr_energy">   -190.75573838 </i>
    <i name="e_wo_entrp">   -190.55863939 </i>
    <i name="e_0_energy">   -190.65718888 </i>
   </energy>
  </scstep>
  <scstep>
   <time name="dav">   29.87   29.94</time>
   <time name="total">   30.39   30.47</time>
   <energy>
    <i name="e_fr_energy">   -190.64239904 </i>
    <i name="e_wo_entrp">   -190.44099315 </i>
    <i name="e_0_energy">   -190.54169610 </i>
   </energy>
  </scstep>
  <scstep>
   <time name="dav">   30.45   30.52</time>
   <time name="total">   30.98   31.06</time>
   <energy>
    <i name="e_fr_energy">   -190.63682566 </i>
    <i name="e_wo_entrp">   -190.43734188 </i>
    <i name="e_0_energy">   -190.53708377 </i>
   </energy>
  </scstep>
  <scstep>
   <time name="dav">   28.28   28.35</time>
   <time name="total">   28.79   28.87</time>
   <energy>
    <i name="e_fr_energy">   -190.63566456 </i>
    <i name="e_wo_entrp">   -190.43600724 </i>
    <i name="e_0_energy">   -190.53583590 </i>
   </energy>
  </scstep>
  <scstep>
   <time name="dav">   28.76   28.83</time>
   <time name="total">   29.29   29.37</time>
   <energy>
    <i name="e_fr_energy">   -190.63239782 </i>
    <i name="e_wo_entrp">   -190.43270823 </i>
    <i name="e_0_energy">   -190.53255302 </i>
   </energy>
  </scstep>
  <scstep>
   <time name="dav">   25.55   25.62</time>
   <time name="total">   26.07   26.14</time>
   <energy>
    <i name="e_fr_energy">   -190.63276107 </i>
    <i name="e_wo_entrp">   -190.43289438 </i>
    <i name="e_0_energy">   -190.53282772 </i>
   </energy>
  </scstep>
  <scstep>
   <time name="dav">   26.88   26.95</time>
   <time name="total">   27.41   27.48</time>
   <energy>
    <i name="e_fr_energy">   -190.63256621 </i>
    <i name="e_wo_entrp">   -190.43283314 </i>
    <i name="e_0_energy">   -190.53269967 </i>
   </energy>
  </scstep>
  <scstep>
   <time name="dav">   19.54   19.59</time>
   <time name="total">   19.58   19.63</time>
   <energy>
    <i name="alphaZ">     85.81027141 </i>
    <i name="ewald">  42826.35072847 </i>
    <i name="hartreedc"> -48814.62012315 </i>
    <i name="XCdc">   -234.31501973 </i>
    <i name="pawpsdc">   4062.39341043 </i>
    <i name="pawaedc">  -3478.24796022 </i>
    <i name="eentropy">     -0.19969109 </i>
    <i name="bandstr">  -1399.24671128 </i>
    <i name="atom">   6761.44252427 </i>
    <i name="e_fr_energy">   -190.63257089 </i>
    <i name="e_wo_entrp">   -190.43287980 </i>
    <i name="e_0_energy">   -190.53272535 </i>
   </energy>
  </scstep>
  <structure>
   <crystal>
    <varray name="basis" >
     <v>       8.48609724       4.89946734       0.00000000 </v>
     <v>      -8.48649133       4.90013927       0.00000000 </v>
     <v>       0.00000000       0.00000000      30.00000000 </v>
    </varray>
    <i name="volume">   2494.87036251 </i>
    <varray name="rec_basis" >
     <v>       0.05892257       0.10204728       0.00000000 </v>
     <v>      -0.05891449       0.10204254       0.00000000 </v>
     <v>       0.00000000       0.00000000       0.03333333 </v>
    </varray>
   </crystal>
   <varray name="positions" >
    <v>       0.33386032       0.66408711      -0.00021289 </v>
    <v>       0.00039470       0.00577556       0.00020268 </v>
    <v>       0.33592957       0.00243278      -0.00026460 </v>
    <v>       0.33109434       0.33467330       0.00027731 </v>
    <v>       0.67060295       0.00458815      -0.00023859 </v>
    <v>       0.99812551       0.32991801       0.00023356 </v>
    <v>      -0.00172764       0.66200816      -0.00006297 </v>
    <v>       0.66844457       0.33086417      -0.00002492 </v>
    <v>       0.66305814       0.66573861       0.00002960 </v>
    <v>       0.10819411       0.21624412       0.95017951 </v>
    <v>       0.21929385       0.10535663       0.04812114 </v>
    <v>       0.11637504       0.55890432       0.95051220 </v>
    <v>       0.22494227       0.45031495       0.04971010 </v>
    <v>       0.11289638       0.89289891       0.95249292 </v>
    <v>       0.22639316       0.77968973       0.04781304 </v>
    <v>       0.44259491       0.21716489       0.95067552 </v>
    <v>       0.55028161       0.10918660       0.04973155 </v>
    <v>       0.44233392       0.55918159       0.95007785 </v>
    <v>       0.55689599       0.44491788       0.05047455 </v>
    <v>       0.43886808       0.88615527       0.95215905 </v>
    <v>       0.55029346       0.77455591       0.04931086 </v>
    <v>       0.77734676       0.22302007       0.94873747 </v>
    <v>       0.89204180       0.10792512       0.05015533 </v>
    <v>       0.77721083       0.55523926       0.94932622 </v>
    <v>       0.88823629       0.44462639       0.05109258 </v>
    <v>       0.78299371       0.89040375       0.95058278 </v>
    <v>       0.89123982       0.78234318       0.04890805 </v>
   </varray>
  </structure>
  <varray name="forces" >
   <v>       0.28523789      -0.08884290       0.04507371 </v>
   <v>      -0.35725214       0.20240781      -0.04733100 </v>
   <v>       0.01379845       0.22263627      -0.04684366 </v>
   <v>      -0.24780415       0.11268151       0.00764877 </v>
   <v>      -0.09421251       0.44182627       0.00566101 </v>
   <v>      -0.09721493      -0.28544322      -0.02399293 </v>
   <v>       0.16326701      -0.41311830      -0.01041073 </v>
   <v>       0.32738241       0.16728348      -0.00108324 </v>
   <v>      -0.04729571      -0.25835725       0.05165009 </v>
   <v>       0.01463290      -0.02440116      -0.39498876 </v>
   <v>      -0.01151406      -0.01556792       0.32382422 </v>
   <v>       0.06559523      -0.00588543      -0.32570055 </v>
   <v>      -0.06280743       0.01325531       0.40376600 </v>
   <v>      -0.00670849      -0.01217546      -0.08303318 </v>
   <v>       0.01181904      -0.00018691       0.15596564 </v>
   <v>      -0.00694809      -0.01137954      -0.26086676 </v>
   <v>       0.00509772      -0.03179640       0.37955240 </v>
   <v>      -0.05534952      -0.02000541      -0.48555380 </v>
   <v>       0.03437749      -0.03670402       0.27712165 </v>
   <v>       0.02412041       0.01353151      -0.24638746 </v>
   <v>      -0.08097871       0.01125027       0.23001729 </v>
   <v>       0.03263519       0.02675155      -0.54698991 </v>
   <v>       0.03183708       0.01608536       0.56868720 </v>
   <v>      -0.01573738      -0.06529286      -0.34144560 </v>
   <v>       0.06826675      -0.04382649       0.50235951 </v>
   <v>       0.02363406       0.04597992      -0.26987755 </v>
   <v>      -0.01787851       0.03929401       0.13317763 </v>
  </varray>
  <varray name="stress" >
   <v>      -5.85658601      -0.01304903      -0.09217712 </v>
   <v>      -0.01304906      -5.87686645       0.00114154 </v>
   <v>      -0.09217725       0.00114152       4.47414589 </v>
  </varray>
  <energy>
   <i name="e_fr_energy">   -190.63257089 </i>
   <i name="e_wo_entrp">   -190.53272535 </i>
   <i name="e_0_energy">     -0.19969109 </i>
  </energy>
  <time name="totalsc">  381.82  382.83</time>
 </calculation>
 <calculation>
  <scstep>
   <time name="dav">   21.64   21.69</time>
   <time name="total">   22.16   22.22</time>
   <energy>
    <i name="alphaZ">     90.35885782 </i>
    <i name="ewald">  44748.26020713 </i>
    <i name="hartreedc"> -50794.15167768 </i>
    <i name="XCdc">   -231.71071106 </i>
    <i name="pawpsdc">   4062.34856437 </i>
    <i name="pawaedc">  -3478.19898418 </i>
    <i name="eentropy">     -0.17645195 </i>
    <i name="bandstr">  -1350.23573273 </i>
    <i name="atom">   6761.44252427 </i>
    <i name="e_fr_energy">   -192.06340401 </i>
    <i name="e_wo_entrp">   -191.88695206 </i>
    <i name="e_0_energy">   -191.97517803 </i>
   </energy>
  </scstep>
  <scstep>
   <time name="dav">   30.62   30.69</time>
   <time name="total">   31.12   31.21</time>
   <energy>
    <i name="e_fr_energy">   -191.87537999 </i>
    <i name="e_wo_entrp">   -191.68866671 </i>
    <i name="e_0_energy">   -191.78202335 </i>
   </energy>
  </scstep>
  <scstep>
   <time name="dav">   27.19   27.25</time>
   <time name="total">   27.70   27.77</time>
   <energy>
    <i name="e_fr_energy">   -192.15532101 </i>
    <i name="e_wo_entrp">   -191.95457541 </i>
    <i name="e_0_energy">   -192.05494821 </i>
   </energy>
  </scstep>
  <scstep>
   <time name="dav">   29.61   29.68</time>
   <time name="total">   30.12   30.20</time>
   <energy>
    <i name="e_fr_energy">   -191.52747811 </i>
    <i name="e_wo_entrp">   -191.34405425 </i>
    <i name="e_0_energy">   -191.43576618 </i>
   </energy>
  </scstep>
  <scstep>
   <time name="dav">   29.85   29.92</time>
   <time name="total">   30.37   30.45</time>
   <energy>
    <i name="e_fr_energy">   -191.45398131 </i>
    <i name="e_wo_entrp">   -191.27430843 </i>
    <i name="e_0_energy">   -191.36414487 </i>
   </energy>
  </scstep>
  <scstep>
   <time name="dav">   29.91   29.98</time>
   <time name="total">   30.42   30.50</time>
   <energy>
    <i name="e_fr_energy">   -191.26498500 </i>
    <i name="e_wo_entrp">   -191.07926269 </i>
    <i name="e_0_energy">   -191.17212384 </i>
   </energy>
  </scstep>
  <scstep>
   <time name="dav">   29.71   29.79</time>
   <time name="total">   30.23   30.31</time>
   <energy>
    <i name="e_fr_energy">   -191.25847774 </i>
    <i name="e_wo_entrp">   -191.07372075 </i>
    <i name="e_0_energy">   -191.16609925 </i>
   </energy>
  </scstep>
  <scstep>
   <time name="dav">   26.53   26.59</time>
   <time name="total">   27.03   27.10</time>
   <energy>
    <i name="e_fr_energy">   -191.25361230 </i>
    <i name="e_wo_entrp">   -191.06881349 </i>
    <i name="e_0_energy">   -191.16121289 </i>
   </energy>
  </scstep>
  <scstep>
   <time name="dav">   30.74   30.82</time>
   <time name="total">   31.26   31.34</time>
   <energy>
    <i name="e_fr_energy">   -191.25441037 </i>
    <i name="e_wo_entrp">   -191.06960843 </i>
    <i name="e_0_energy">   -191.16200940 </i>
   </energy>
  </scstep>
  <scstep>
   <time name="dav">   27.84   27.91</time>
   <time name="total">   28.35   28.42</time>
   <energy>
    <i name="e_fr_energy">   -191.25359432 </i>
    <i name="e_wo_entrp">   -191.06877275 </i>
    <i name="e_0_energy">   -191.16118354 </i>
   </energy>
  </scstep>
  <scstep>
   <time name="dav">   26.61   26.68</time>
   <time name="total">   26.65   26.72</time>
   <energy>
    <i name="alphaZ">     90.35885782 </i>
    <i name="ewald">  44748.26020713 </i>
    <i name="hartreedc"> -50758.10001643 </i>
    <i name="XCdc">   -233.33781210 </i>
    <i name="pawpsdc">   4083.27406095 </i>
    <i name="pawaedc">  -3499.19094869 </i>
    <i name="eentropy">     -0.18493906 </i>
    <i name="bandstr">  -1383.77544302 </i>
    <i name="atom">   6761.44252427 </i>
    <i name="e_fr_energy">   -191.25350912 </i>
    <i name="e_wo_entrp">   -191.06857006 </i>
    <i name="e_0_energy">   -191.16103959 </i>
   </energy>
  </scstep>
  <structure>
   <crystal>
    <varray name="basis" >
     <v>       8.26959491       4.77387768       0.00000000 </v>
     <v>      -8.27064449       4.77568497       0.00000000 </v>
     <v>       0.00000000       0.00000000      30.00000000 </v>
    </varray>
    <i name="volume">   2369.28075562 </i>
    <varray name="rec_basis" >
     <v>       0.06047006       0.10472348       0.00000000 </v>
     <v>      -0.06044718       0.10471019       0.00000000 </v>
     <v>       0.00000000       0.00000000       0.03333333 </v>
    </varray>
   </crystal>
   <varray name="positions" >
    <v>       0.33481928       0.66083341      -0.00003109 </v>
    <v>       0.00025156       0.01088731       0.00000859 </v>
    <v>       0.33890990       0.00520193      -0.00047303 </v>
    <v>       0.33083715       0.33798538       0.00030854 </v>
    <v>       0.67553648       0.01085700      -0.00022523 </v>
    <v>       0.99378450       0.32703143       0.00012043 </v>
    <v>      -0.00602390       0.65543657      -0.00010022 </v>
    <v>       0.67296450       0.33072780      -0.00003040 </v>
    <v>       0.65952405       0.66276322       0.00027910 </v>
    <v>       0.10776357       0.21535661       0.94794594 </v>
    <v>       0.21878618       0.10475041       0.04996521 </v>
    <v>       0.11733051       0.55848202       0.94857559 </v>
    <v>       0.22494220       0.45147588       0.05196824 </v>
    <v>       0.11302294       0.89343531       0.95163136 </v>
    <v>       0.22715191       0.77996631       0.04899565 </v>
    <v>       0.44191240       0.21652717       0.94901158 </v>
    <v>       0.54932897       0.10824877       0.05191361 </v>
    <v>       0.44121972       0.55940491       0.94746454 </v>
    <v>       0.55659746       0.44419850       0.05224794 </v>
    <v>       0.43871879       0.88590025       0.95065278 </v>
    <v>       0.54929098       0.77514799       0.05085834 </v>
    <v>       0.77806080       0.22308394       0.94582423 </v>
    <v>       0.89266679       0.10761951       0.05311030 </v>
    <v>       0.77629277       0.55457088       0.94728320 </v>
    <v>       0.88828546       0.44355660       0.05380856 </v>
    <v>       0.78432697       0.89123830       0.94885608 </v>
    <v>       0.89191250       0.78352703       0.05003005 </v>
   </varray>
  </structure>
  <varray name="forces" >
   <v>       0.26173376      -0.08272052       0.02248958 </v>
   <v>      -0.25161173       0.23222924       0.01508175 </v>
   <v>      -0.00792691       0.17677617      -0.03184826 </v>
   <v>      -0.18365363       0.12084475       0.01865347 </v>
   <v>      -0.12316504       0.28070229       0.02837183 </v>
   <v>      -0.19532002      -0.15618854       0.00641223 </v>
   <v>       0.16903323      -0.33052899      -0.01514583 </v>
   <v>       0.26768006       0.21448467      -0.03035750 </v>
   <v>       0.05513653      -0.30799255      -0.01275089 </v>
   <v>      -0.09077648       0.08131973      -0.10067554 </v>
   <v>      -0.08100171       0.07890414       0.01952950 </v>
   <v>       0.02998790      -0.11084265      -0.03307440 </v>
   <v>      -0.03081538      -0.13094330       0.07087909 </v>
   <v>       0.00537163      -0.11583486       0.18402563 </v>
   <v>       0.00950544      -0.09099305      -0.10861064 </v>
   <v>      -0.04510171       0.14827978       0.05070044 </v>
   <v>       0.04508889       0.09785455       0.08469066 </v>
   <v>       0.01293249      -0.01598168      -0.16995835 </v>
   <v>       0.08334481      -0.12096132       0.01881715 </v>
   <v>       0.11218851       0.12340498       0.06066208 </v>
   <v>      -0.05311754       0.13720699      -0.06506882 </v>
   <v>       0.03171011       0.00839274      -0.25198630 </v>
   <v>      -0.07141432       0.04198891       0.15923385 </v>
   <v>      -0.01089241      -0.11381611      -0.12273855 </v>
   <v>       0.11464715      -0.07402876       0.26935166 </v>
   <v>      -0.06253557      -0.04813934       0.09322973 </v>
   <v>       0.00897193      -0.04341729      -0.15991354 </v>
  </varray>
  <varray name="stress" >
   <v>      -0.27249649       0.00933309       0.05180232 </v>
   <v>       0.00933320       0.01883225      -0.06888594 </v>
   <v>       0.05180236      -0.06888590      -0.41850367 </v>
  </varray>
  <energy>
   <i name="e_fr_energy">   -191.25350912 </i>
   <i name="e_wo_entrp">   -191.16103959 </i>
   <i name="e_0_energy">     -0.18493906 </i>
  </energy>
  <time name="totalsc">  357.22  358.16</time>
 </calculation>
 <calculation>
  <scstep>
   <time name="dav">   21.57   21.62</time>
   <time name="total">   22.08   22.13</time>
   <energy>
    <i name="alphaZ">     90.47249161 </i>
    <i name="ewald">  44780.17750732 </i>
    <i name="hartreedc"> -50792.12511780 </i>
    <i name="XCdc">   -233.34182581 </i>
    <i name="pawpsdc">   4083.72448490 </i>
    <i name="pawaedc">  -3499.63914530 </i>
    <i name="eentropy">     -0.19037092 </i>
    <i name="bandstr">  -1381.83729505 </i>
    <i name="atom">   6761.44252427 </i>
    <i name="e_fr_energy">   -191.31674678 </i>
    <i name="e_wo_entrp">   -191.12637586 </i>
    <i name="e_0_energy">   -191.22156132 </i>
   </energy>
  </scstep>
  <scstep>
   <time name="dav">   32.27   32.35</time>
   <time name="total">   32.79   32.87</time>
   <energy>
    <i name="e_fr_energy">   -191.37496138 </i>
    <i name="e_wo_entrp">   -191.17684741 </i>
    <i name="e_0_energy">   -191.27590440 </i>
   </energy>
  </scstep>
  <scstep>
   <time name="dav">   29.02   29.09</time>
   <time name="total">   29.53   29.61</time>
   <energy>
    <i name="e_fr_energy">   -191.32746179 </i>
    <i name="e_wo_entrp">   -191.13634589 </i>
    <i name="e_0_energy">   -191.23190384 </i>
   </energy>
  </scstep>
  <scstep>
   <time name="dav">   28.19   28.25</time>
   <time name="total">   28.70   28.78</time>
   <energy>
    <i name="e_fr_energy">   -191.32680516 </i>
    <i name="e_wo_entrp">   -191.13582179 </i>
    <i name="e_0_energy">   -191.23131348 </i>
   </energy>
  </scstep>
  <scstep>
   <time name="dav">   27.95   28.02</time>
   <time name="total">   28.46   28.53</time>
   <energy>
    <i name="e_fr_energy">   -191.32359012 </i>
    <i name="e_wo_entrp">   -191.13185172 </i>
    <i name="e_0_energy">   -191.22772092 </i>
   </energy>
  </scstep>
  <scstep>
   <time name="dav">   27.66   27.73</time>
   <time name="total">   28.17   28.25</time>
   <energy>
    <i name="e_fr_energy">   -191.32297675 </i>
    <i name="e_wo_entrp">   -191.13127267 </i>
    <i name="e_0_energy">   -191.22712471 </i>
   </energy>
  </scstep>
  <scstep>
   <time name="dav">   28.77   28.84</time>
   <time name="total">   29.28   29.36</time>
   <energy>
    <i name="e_fr_energy">   -191.32334977 </i>
    <i name="e_wo_entrp">   -191.13157061 </i>
    <i name="e_0_energy">   -191.22746019 </i>
   </energy>
  </scstep>
  <scstep>
   <time name="dav">   25.44   25.50</time>
   <time name="total">   25.96   26.03</time>
   <energy>
    <i name="e_fr_energy">   -191.32280856 </i>
    <i name="e_wo_entrp">   -191.13100880 </i>
    <i name="e_0_energy">   -191.22690868 </i>
   </energy>
  </scstep>
  <scstep>
   <time name="dav">   17.69   17.73</time>
   <time name="total">   17.73   17.78</time>
   <energy>
    <i name="alphaZ">     90.47249161 </i>
    <i name="ewald">  44780.17750732 </i>
    <i name="hartreedc"> -50792.18005739 </i>
    <i name="XCdc">   -233.36333513 </i>
    <i name="pawpsdc">   4082.24702832 </i>
    <i name="pawaedc">  -3498.12888254 </i>
    <i name="eentropy">     -0.19174783 </i>
    <i name="bandstr">  -1381.79828909 </i>
    <i name="atom">   6761.44252427 </i>
    <i name="e_fr_energy">   -191.32276046 </i>
    <i name="e_wo_entrp">   -191.13101263 </i>
    <i name="e_0_energy">   -191.22688654 </i>
   </energy>
  </scstep>
  <structure>
   <crystal>
    <varray name="basis" >
     <v>       8.26123689       4.77297456       0.00000000 </v>
     <v>      -8.26205231       4.77437773       0.00000000 </v>
     <v>       0.00000000       0.00000000      30.00000000 </v>
    </varray>
    <i name="volume">   2366.30493003 </i>
    <varray name="rec_basis" >
     <v>       0.06052953       0.10474625       0.00000000 </v>
     <v>      -0.06051174       0.10473591       0.00000000 </v>
     <v>       0.00000000       0.00000000       0.03333333 </v>
    </varray>
   </crystal>
   <varray name="positions" >
    <v>       0.33519290       0.65955650       0.00000945 </v>
    <v>       0.00070028       0.01294466       0.00003003 </v>
    <v>       0.33986149       0.00619705      -0.00052978 </v>
    <v>       0.33091093       0.33922755       0.00034001 </v>
    <v>       0.67671813       0.01280257      -0.00017811 </v>
    <v>       0.99230483       0.32675259       0.00012881 </v>
    <v>      -0.00731801       0.65308650      -0.00012592 </v>
    <v>       0.67496819       0.33103890      -0.00008080 </v>
    <v>       0.65802297       0.66093976       0.00026299 </v>
    <v>       0.10790340       0.21603060       0.94773113 </v>
    <v>       0.21894142       0.10538738       0.05003734 </v>
    <v>       0.11686779       0.55780897       0.94847833 </v>
    <v>       0.22417157       0.45091467       0.05213401 </v>
    <v>       0.11244246       0.89283380       0.95191430 </v>
    <v>       0.22672877       0.77947365       0.04884376 </v>
    <v>       0.44253028       0.21741611       0.94905816 </v>
    <v>       0.54994932       0.10859945       0.05210115 </v>
    <v>       0.44114961       0.55928785       0.94712793 </v>
    <v>       0.55621195       0.44330549       0.05231902 </v>
    <v>       0.43968956       0.88619777       0.95071989 </v>
    <v>       0.54982052       0.77603069       0.05078596 </v>
    <v>       0.77821448       0.22303311       0.94534570 </v>
    <v>       0.89268439       0.10804366       0.05343540 </v>
    <v>       0.77565115       0.55399960       0.94703499 </v>
    <v>       0.88824685       0.44280718       0.05431208 </v>
    <v>       0.78391980       0.89119596       0.94897165 </v>
    <v>       0.89172945       0.78330241       0.04979246 </v>
   </varray>
  </structure>
  <varray name="forces" >
   <v>       0.25362172      -0.07356396       0.03396199 </v>
   <v>      -0.23763369       0.29678342      -0.00976262 </v>
   <v>      -0.01655831       0.18625491      -0.05381469 </v>
   <v>      -0.20365535       0.09647999      -0.00065657 </v>
   <v>      -0.16130815       0.28703396       0.00333199 </v>
   <v>      -0.17579908      -0.14038503      -0.02273206 </v>
   <v>       0.18782675      -0.35164662       0.00729571 </v>
   <v>       0.26955140       0.21076745      -0.01968263 </v>
   <v>       0.06912210      -0.35768615       0.02408680 </v>
   <v>      -0.07503954       0.05858512      -0.05097588 </v>
   <v>      -0.06372375       0.04990620       0.00333995 </v>
   <v>       0.02364823      -0.07135739      -0.03428602 </v>
   <v>      -0.03929095      -0.08760701       0.05452130 </v>
   <v>       0.00263157      -0.09860418       0.22402826 </v>
   <v>       0.00824704      -0.07674977      -0.14154910 </v>
   <v>      -0.03105248       0.12166239       0.07689502 </v>
   <v>       0.01697758       0.07719014       0.06419636 </v>
   <v>       0.00382705      -0.01989451      -0.15903224 </v>
   <v>       0.07975452      -0.09596743      -0.00418766 </v>
   <v>       0.08498852       0.07516869       0.10538990 </v>
   <v>      -0.02059437       0.08618513      -0.10492396 </v>
   <v>       0.02184270       0.01312650      -0.19895724 </v>
   <v>      -0.05029856       0.03805060       0.13122484 </v>
   <v>       0.00080277      -0.08112129      -0.10258958 </v>
   <v>       0.06926860      -0.05378435       0.22830435 </v>
   <v>      -0.02147483      -0.04194470       0.15048510 </v>
   <v>       0.00431851      -0.04688211      -0.20391134 </v>
  </varray>
  <varray name="stress" >
   <v>       0.02051048      -0.00488317      -0.00210658 </v>
   <v>      -0.00488309       0.07562638      -0.07276529 </v>
   <v>      -0.00210667      -0.07276508      -1.13638294 </v>
  </varray>
  <energy>
   <i name="e_fr_energy">   -191.32276046 </i>
   <i name="e_wo_entrp">   -191.22688654 </i>
   <i name="e_0_energy">     -0.19174783 </i>
  </energy>
  <time name="totalsc">  284.67  285.42</time>
 </calculation>
 <calculation>
  <scstep>
   <time name="dav">   21.63   21.68</time>
   <time name="total">   22.14   22.20</time>
   <energy>
    <i name="alphaZ">     90.44293573 </i>
    <i name="ewald">  44766.41374277 </i>
    <i name="hartreedc"> -50778.13271493 </i>
    <i name="XCdc">   -233.38598706 </i>
    <i name="pawpsdc">   4082.29226230 </i>
    <i name="pawaedc">  -3498.17491013 </i>
    <i name="eentropy">     -0.19499917 </i>
    <i name="bandstr">  -1382.07131035 </i>
    <i name="atom">   6761.44252427 </i>
    <i name="e_fr_energy">   -191.36845656 </i>
    <i name="e_wo_entrp">   -191.17345739 </i>
    <i name="e_0_energy">   -191.27095698 </i>
   </energy>
  </scstep>
  <scstep>
   <time name="dav">   32.83   32.91</time>
   <time name="total">   33.34   33.44</time>
   <energy>
    <i name="e_fr_energy">   -191.39678408 </i>
    <i name="e_wo_entrp">   -191.19456257 </i>
    <i name="e_0_energy">   -191.29567332 </i>
   </energy>
  </scstep>
  <scstep>
   <time name="dav">   29.54   29.61</time>
   <time name="total">   30.06   30.14</time>
   <energy>
    <i name="e_fr_energy">   -191.37264462 </i>
    <i name="e_wo_entrp">   -191.17708794 </i>
    <i name="e_0_energy">   -191.27486628 </i>
   </energy>
  </scstep>
  <scstep>
   <time name="dav">   28.05   28.12</time>
   <time name="total">   28.56   28.63</time>
   <energy>
    <i name="e_fr_energy">   -191.37276848 </i>
    <i name="e_wo_entrp">   -191.17720015 </i>
    <i name="e_0_energy">   -191.27498431 </i>
   </energy>
  </scstep>
  <scstep>
   <time name="dav">   27.88   27.95</time>
   <time name="total">   28.40   28.47</time>
   <energy>
    <i name="e_fr_energy">   -191.37113864 </i>
    <i name="e_wo_entrp">   -191.17494263 </i>
    <i name="e_0_energy">   -191.27304064 </i>
   </energy>
  </scstep>
  <scstep>
   <time name="dav">   26.43   26.49</time>
   <time name="total">   26.93   27.01</time>
   <energy>
    <i name="e_fr_energy">   -191.37090122 </i>
    <i name="e_wo_entrp">   -191.17476911 </i>
    <i name="e_0_energy">   -191.27283517 </i>
   </energy>
  </scstep>
  <scstep>
   <time name="dav">   26.27   26.33</time>
   <time name="total">   26.78   26.85</time>
   <energy>
    <i name="e_fr_energy">   -191.37106323 </i>
    <i name="e_wo_entrp">   -191.17495232 </i>
    <i name="e_0_energy">   -191.27300777 </i>
   </energy>
  </scstep>
  <scstep>
   <time name="dav">   22.66   22.71</time>
   <time name="total">   23.16   23.22</time>
   <energy>
    <i name="e_fr_energy">   -191.37082456 </i>
    <i name="e_wo_entrp">   -191.17469513 </i>
    <i name="e_0_energy">   -191.27275985 </i>
   </energy>
  </scstep>
  <scstep>
[...]
      <set comment="kpoint 31">
       <r>  -17.6237    1.0000 </r>
       <r>  -17.2207    1.0000 </r>
       <r>  -16.9349    1.0000 </r>
       <r>  -16.7174    1.0000 </r>
       <r>  -16.5373    1.0000 </r>
       <r>  -16.4313    1.0000 </r>
       <r>  -16.3432    1.0000 </r>
       <r>  -16.2899    1.0000 </r>
       <r>  -16.0986    1.0000 </r>
       <r>  -16.0036    1.0000 </r>
       <r>  -15.9403    1.0000 </r>
       <r>  -15.8415    1.0000 </r>
       <r>  -15.7615    1.0000 </r>
       <r>  -15.6496    1.0000 </r>
       <r>  -15.5734    1.0000 </r>
       <r>  -15.5484    1.0000 </r>
       <r>  -15.2748    1.0000 </r>
       <r>  -15.1945    1.0000 </r>
       <r>   -9.7628    1.0000 </r>
       <r>   -9.4928    1.0000 </r>
       <r>   -9.4147    1.0000 </r>
       <r>   -9.1494    1.0000 </r>
       <r>   -8.9352    1.0000 </r>
       <r>   -8.7337    1.0000 </r>
       <r>   -8.5029    1.0000 </r>
       <r>   -8.4407    1.0000 </r>
       <r>   -8.3823    1.0000 </r>
       <r>   -8.2981    1.0000 </r>
       <r>   -8.2812    1.0000 </r>
       <r>   -8.2159    1.0000 </r>
       <r>   -8.1810    1.0000 </r>
       <r>   -8.1006    1.0000 </r>
       <r>   -8.0406    1.0000 </r>
       <r>   -7.8474    1.0000 </r>
       <r>   -7.7785    1.0000 </r>
       <r>   -7.6985    1.0000 </r>
       <r>   -7.6495    1.0000 </r>
       <r>   -7.3950    1.0000 </r>
       <r>   -7.3380    1.0000 </r>
       <r>   -7.2726    1.0000 </r>
       <r>   -7.1643    1.0000 </r>
       <r>   -7.1087    1.0000 </r>
       <r>   -7.0872    1.0000 </r>
       <r>   -6.8894    1.0000 </r>
       <r>   -6.8420    1.0000 </r>
       <r>   -6.7313    1.0000 </r>
       <r>   -6.6073    1.0000 </r>
       <r>   -6.5407    1.0000 </r>
       <r>   -6.5023    1.0000 </r>
       <r>   -6.4504    1.0000 </r>
       <r>   -6.3920    1.0000 </r>
       <r>   -6.3307    1.0000 </r>
       <r>   -6.2301    1.0000 </r>
       <r>   -6.1797    1.0000 </r>
       <r>   -6.1515    1.0000 </r>
       <r>   -6.0628    1.0000 </r>
       <r>   -6.0252    1.0000 </r>
       <r>   -5.9238    1.0000 </r>
       <r>   -5.8602    1.0000 </r>
       <r>   -5.7698    1.0000 </r>
       <r>   -5.6940    1.0000 </r>
       <r>   -5.6014    1.0000 </r>
       <r>   -5.4827    1.0000 </r>
       <r>   -5.4066    1.0000 </r>
       <r>   -5.3322    1.0000 </r>
       <r>   -5.2142    1.0000 </r>
       <r>   -5.0866    1.0000 </r>
       <r>   -4.8013    1.0000 </r>
       <r>   -4.7528    1.0000 </r>
       <r>   -4.5599    1.0000 </r>
       <r>   -4.5129    1.0000 </r>
       <r>   -4.3987    1.0000 </r>
       <r>   -4.2951    1.0000 </r>
       <r>   -4.2565    1.0000 </r>
       <r>   -4.1507    1.0000 </r>
       <r>   -4.0717    1.0000 </r>
       <r>   -4.0111    1.0000 </r>
       <r>   -3.6650    0.9992 </r>
       <r>   -3.5695    0.9933 </r>
       <r>   -3.0785    0.1593 </r>
       <r>   -2.9494    0.0280 </r>
       <r>   -2.7127    0.0002 </r>
       <r>   -2.6868    0.0001 </r>
       <r>   -2.5540    0.0000 </r>
       <r>   -2.4028    0.0000 </r>
       <r>   -2.3773    0.0000 </r>
       <r>   -2.1432    0.0000 </r>
       <r>   -1.9838    0.0000 </r>
       <r>   -1.8796    0.0000 </r>
       <r>   -1.8650    0.0000 </r>
       <r>   -1.7015    0.0000 </r>
       <r>   -1.5721    0.0000 </r>
       <r>   -1.5271    0.0000 </r>
       <r>   -1.3632    0.0000 </r>
       <r>   -1.2818    0.0000 </r>
       <r>   -1.2403    0.0000 </r>
       <r>   -1.0754    0.0000 </r>
       <r>   -0.9896    0.0000 </r>
       <r>   -0.9650    0.0000 </r>
       <r>   -0.9112    0.0000 </r>
       <r>   -0.8611    0.0000 </r>
       <r>   -0.7503    0.0000 </r>
       <r>   -0.6417    0.0000 </r>
       <r>   -0.5277    0.0000 </r>
       <r>   -0.3530    0.0000 </r>
       <r>   -0.2681    0.0000 </r>
       <r>   -0.1122    0.0000 </r>
       <r>   -0.0136    0.0000 </r>
       <r>    0.1320    0.0000 </r>
       <r>    0.2738    0.0000 </r>
       <r>    0.4137    0.0000 </r>
       <r>    0.5575    0.0000 </r>
       <r>    0.7108    0.0000 </r>
       <r>    0.8488    0.0000 </r>
       <r>    1.0005    0.0000 </r>
       <r>    1.1861    0.0000 </r>
       <r>    1.3537    0.0000 </r>
       <r>    2.1137    0.0000 </r>
       <r>    2.3097    0.0000 </r>
       <r>    2.3769    0.0000 </r>
      </set>
      <set comment="kpoint 32">
       <r>  -17.6170    1.0000 </r>
       <r>  -17.1662    1.0000 </r>
       <r>  -17.0551    1.0000 </r>
       <r>  -16.7075    1.0000 </r>
       <r>  -16.4959    1.0000 </r>
       <r>  -16.3801    1.0000 </r>
       <r>  -16.3268    1.0000 </r>
       <r>  -16.2709    1.0000 </r>
       <r>  -16.1688    1.0000 </r>
       <r>  -16.0630    1.0000 </r>
       <r>  -15.9398    1.0000 </r>
       <r>  -15.8332    1.0000 </r>
       <r>  -15.7538    1.0000 </r>
       <r>  -15.6495    1.0000 </r>
       <r>  -15.5520    1.0000 </r>
       <r>  -15.4915    1.0000 </r>
       <r>  -15.3170    1.0000 </r>
       <r>  -15.1936    1.0000 </r>
       <r>   -9.7332    1.0000 </r>
       <r>   -9.5851    1.0000 </r>
       <r>   -9.4864    1.0000 </r>
       <r>   -9.1190    1.0000 </r>
       <r>   -8.7471    1.0000 </r>
       <r>   -8.6303    1.0000 </r>
       <r>   -8.4817    1.0000 </r>
       <r>   -8.4488    1.0000 </r>
       <r>   -8.4102    1.0000 </r>
       <r>   -8.3989    1.0000 </r>
       <r>   -8.3167    1.0000 </r>
       <r>   -8.2389    1.0000 </r>
       <r>   -8.1443    1.0000 </r>
       <r>   -8.0832    1.0000 </r>
       <r>   -8.0473    1.0000 </r>
       <r>   -7.9147    1.0000 </r>
       <r>   -7.7967    1.0000 </r>
       <r>   -7.7295    1.0000 </r>
       <r>   -7.6057    1.0000 </r>
       <r>   -7.4334    1.0000 </r>
       <r>   -7.3866    1.0000 </r>
       <r>   -7.2796    1.0000 </r>
       <r>   -7.1719    1.0000 </r>
       <r>   -7.1195    1.0000 </r>
       <r>   -7.0742    1.0000 </r>
       <r>   -6.9329    1.0000 </r>
       <r>   -6.8202    1.0000 </r>
       <r>   -6.7309    1.0000 </r>
       <r>   -6.6315    1.0000 </r>
       <r>   -6.5463    1.0000 </r>
       <r>   -6.4680    1.0000 </r>
       <r>   -6.4338    1.0000 </r>
       <r>   -6.3414    1.0000 </r>
       <r>   -6.3278    1.0000 </r>
       <r>   -6.2490    1.0000 </r>
       <r>   -6.1937    1.0000 </r>
       <r>   -6.1382    1.0000 </r>
       <r>   -6.0683    1.0000 </r>
       <r>   -5.9760    1.0000 </r>
       <r>   -5.8821    1.0000 </r>
       <r>   -5.8378    1.0000 </r>
       <r>   -5.6813    1.0000 </r>
       <r>   -5.6503    1.0000 </r>
       <r>   -5.6079    1.0000 </r>
       <r>   -5.5208    1.0000 </r>
       <r>   -5.3849    1.0000 </r>
       <r>   -5.3490    1.0000 </r>
       <r>   -5.2282    1.0000 </r>
       <r>   -5.1279    1.0000 </r>
       <r>   -4.8250    1.0000 </r>
       <r>   -4.7148    1.0000 </r>
       <r>   -4.6212    1.0000 </r>
       <r>   -4.4600    1.0000 </r>
       <r>   -4.4146    1.0000 </r>
       <r>   -4.3740    1.0000 </r>
       <r>   -4.2284    1.0000 </r>
       <r>   -4.1834    1.0000 </r>
       <r>   -4.0591    1.0000 </r>
       <r>   -3.9460    1.0000 </r>
       <r>   -3.6568    0.9990 </r>
       <r>   -3.5223    0.9839 </r>
       <r>   -3.1618    0.3415 </r>
       <r>   -2.8713    0.0069 </r>
       <r>   -2.7972    0.0014 </r>
       <r>   -2.7067    0.0001 </r>
       <r>   -2.5645    0.0000 </r>
       <r>   -2.4662    0.0000 </r>
       <r>   -2.3896    0.0000 </r>
       <r>   -2.1842    0.0000 </r>
       <r>   -1.9827    0.0000 </r>
       <r>   -1.9656    0.0000 </r>
       <r>   -1.8877    0.0000 </r>
       <r>   -1.7282    0.0000 </r>
       <r>   -1.5666    0.0000 </r>
       <r>   -1.4077    0.0000 </r>
       <r>   -1.3221    0.0000 </r>
       <r>   -1.2507    0.0000 </r>
       <r>   -1.2086    0.0000 </r>
       <r>   -1.0565    0.0000 </r>
       <r>   -0.9730    0.0000 </r>
       <r>   -0.9213    0.0000 </r>
       <r>   -0.8730    0.0000 </r>
       <r>   -0.8382    0.0000 </r>
       <r>   -0.7582    0.0000 </r>
       <r>   -0.6484    0.0000 </r>
       <r>   -0.5316    0.0000 </r>
       <r>   -0.4017    0.0000 </r>
       <r>   -0.3007    0.0000 </r>
       <r>   -0.1800    0.0000 </r>
       <r>   -0.0255    0.0000 </r>
       <r>    0.1729    0.0000 </r>
       <r>    0.2680    0.0000 </r>
       <r>    0.4020    0.0000 </r>
       <r>    0.5252    0.0000 </r>
       <r>    0.7335    0.0000 </r>
       <r>    0.7975    0.0000 </r>
       <r>    1.0727    0.0000 </r>
       <r>    1.2052    0.0000 </r>
       <r>    1.3787    0.0000 </r>
       <r>    2.0964    0.0000 </r>
       <r>    2.2789    0.0000 </r>
       <r>    2.5642    0.0000 </r>
      </set>
      <set comment="kpoint 33">
       <r>  -17.5919    1.0000 </r>
       <r>  -17.2800    1.0000 </r>
       <r>  -16.9181    1.0000 </r>
       <r>  -16.6955    1.0000 </r>
       <r>  -16.5339    1.0000 </r>
       <r>  -16.4682    1.0000 </r>
       <r>  -16.3353    1.0000 </r>
       <r>  -16.2282    1.0000 </r>
       <r>  -16.1894    1.0000 </r>
       <r>  -16.0794    1.0000 </r>
       <r>  -15.8932    1.0000 </r>
       <r>  -15.8002    1.0000 </r>
       <r>  -15.7544    1.0000 </r>
       <r>  -15.6568    1.0000 </r>
       <r>  -15.5391    1.0000 </r>
       <r>  -15.4520    1.0000 </r>
       <r>  -15.3371    1.0000 </r>
       <r>  -15.2270    1.0000 </r>
       <r>   -9.8285    1.0000 </r>
       <r>   -9.4932    1.0000 </r>
       <r>   -9.4224    1.0000 </r>
       <r>   -9.0671    1.0000 </r>
       <r>   -8.8162    1.0000 </r>
       <r>   -8.6921    1.0000 </r>
       <r>   -8.6004    1.0000 </r>
       <r>   -8.5809    1.0000 </r>
       <r>   -8.4337    1.0000 </r>
       <r>   -8.3304    1.0000 </r>
       <r>   -8.2562    1.0000 </r>
       <r>   -8.1871    1.0000 </r>
       <r>   -8.1244    1.0000 </r>
       <r>   -8.0531    1.0000 </r>
       <r>   -7.9628    1.0000 </r>
       <r>   -7.9145    1.0000 </r>
       <r>   -7.7961    1.0000 </r>
       <r>   -7.7006    1.0000 </r>
       <r>   -7.5935    1.0000 </r>
       <r>   -7.5192    1.0000 </r>
       <r>   -7.4185    1.0000 </r>
       <r>   -7.3024    1.0000 </r>
       <r>   -7.1254    1.0000 </r>
       <r>   -7.0731    1.0000 </r>
       <r>   -6.9563    1.0000 </r>
       <r>   -6.9197    1.0000 </r>
       <r>   -6.8409    1.0000 </r>
       <r>   -6.7914    1.0000 </r>
       <r>   -6.6577    1.0000 </r>
       <r>   -6.5629    1.0000 </r>
       <r>   -6.4949    1.0000 </r>
       <r>   -6.4531    1.0000 </r>
       <r>   -6.3880    1.0000 </r>
       <r>   -6.2822    1.0000 </r>
       <r>   -6.2532    1.0000 </r>
       <r>   -6.2394    1.0000 </r>
       <r>   -6.0999    1.0000 </r>
       <r>   -6.0541    1.0000 </r>
       <r>   -6.0156    1.0000 </r>
       <r>   -5.9476    1.0000 </r>
       <r>   -5.8594    1.0000 </r>
       <r>   -5.7000    1.0000 </r>
       <r>   -5.6433    1.0000 </r>
       <r>   -5.5748    1.0000 </r>
       <r>   -5.4752    1.0000 </r>
       <r>   -5.4016    1.0000 </r>
       <r>   -5.2535    1.0000 </r>
       <r>   -5.2224    1.0000 </r>
       <r>   -4.9461    1.0000 </r>
       <r>   -4.8641    1.0000 </r>
       <r>   -4.7678    1.0000 </r>
       <r>   -4.6801    1.0000 </r>
       <r>   -4.5021    1.0000 </r>
       <r>   -4.4422    1.0000 </r>
       <r>   -4.3284    1.0000 </r>
       <r>   -4.2161    1.0000 </r>
       <r>   -4.1361    1.0000 </r>
       <r>   -4.0331    1.0000 </r>
       <r>   -3.8654    1.0000 </r>
       <r>   -3.7205    0.9998 </r>
       <r>   -3.5257    0.9848 </r>
       <r>   -3.1950    0.4312 </r>
       <r>   -2.9411    0.0245 </r>
       <r>   -2.8115    0.0020 </r>
       <r>   -2.7073    0.0001 </r>
       <r>   -2.5953    0.0000 </r>
       <r>   -2.5208    0.0000 </r>
       <r>   -2.3810    0.0000 </r>
       <r>   -2.2359    0.0000 </r>
       <r>   -2.0449    0.0000 </r>
       <r>   -1.9575    0.0000 </r>
       <r>   -1.8670    0.0000 </r>
       <r>   -1.7539    0.0000 </r>
       <r>   -1.5596    0.0000 </r>
       <r>   -1.3156    0.0000 </r>
       <r>   -1.2715    0.0000 </r>
       <r>   -1.2092    0.0000 </r>
       <r>   -1.1859    0.0000 </r>
       <r>   -1.0570    0.0000 </r>
       <r>   -0.9286    0.0000 </r>
       <r>   -0.8879    0.0000 </r>
       <r>   -0.8436    0.0000 </r>
       <r>   -0.8183    0.0000 </r>
       <r>   -0.7564    0.0000 </r>
       <r>   -0.6537    0.0000 </r>
       <r>   -0.5723    0.0000 </r>
       <r>   -0.4848    0.0000 </r>
       <r>   -0.3196    0.0000 </r>
       <r>   -0.2655    0.0000 </r>
       <r>   -0.0607    0.0000 </r>
       <r>    0.1552    0.0000 </r>
       <r>    0.2524    0.0000 </r>
       <r>    0.4056    0.0000 </r>
       <r>    0.5750    0.0000 </r>
       <r>    0.7520    0.0000 </r>
       <r>    0.7824    0.0000 </r>
       <r>    1.1372    0.0000 </r>
       <r>    1.2329    0.0000 </r>
       <r>    1.4727    0.0000 </r>
       <r>    2.1380    0.0000 </r>
       <r>    2.3082    0.0000 </r>
       <r>    2.4072    0.0000 </r>
      </set>
      <set comment="kpoint 34">
       <r>  -17.5712    1.0000 </r>
       <r>  -17.3390    1.0000 </r>
       <r>  -16.7752    1.0000 </r>
       <r>  -16.6987    1.0000 </r>
       <r>  -16.6322    1.0000 </r>
       <r>  -16.5276    1.0000 </r>
       <r>  -16.3176    1.0000 </r>
       <r>  -16.2259    1.0000 </r>
       <r>  -16.1903    1.0000 </r>
       <r>  -16.0756    1.0000 </r>
       <r>  -15.8625    1.0000 </r>
       <r>  -15.7745    1.0000 </r>
       <r>  -15.7625    1.0000 </r>
       <r>  -15.6605    1.0000 </r>
       <r>  -15.5344    1.0000 </r>
       <r>  -15.4413    1.0000 </r>
       <r>  -15.3338    1.0000 </r>
       <r>  -15.2561    1.0000 </r>
       <r>   -9.8703    1.0000 </r>
       <r>   -9.4477    1.0000 </r>
       <r>   -9.3174    1.0000 </r>
       <r>   -9.0486    1.0000 </r>
       <r>   -8.9110    1.0000 </r>
       <r>   -8.8041    1.0000 </r>
       <r>   -8.6465    1.0000 </r>
       <r>   -8.6241    1.0000 </r>
       <r>   -8.4214    1.0000 </r>
       <r>   -8.3327    1.0000 </r>
       <r>   -8.2058    1.0000 </r>
       <r>   -8.1608    1.0000 </r>
       <r>   -8.1253    1.0000 </r>
       <r>   -8.0221    1.0000 </r>
       <r>   -7.9423    1.0000 </r>
       <r>   -7.8390    1.0000 </r>
       <r>   -7.7782    1.0000 </r>
       <r>   -7.6783    1.0000 </r>
       <r>   -7.6026    1.0000 </r>
       <r>   -7.5645    1.0000 </r>
       <r>   -7.4760    1.0000 </r>
       <r>   -7.3131    1.0000 </r>
       <r>   -7.0868    1.0000 </r>
       <r>   -7.0258    1.0000 </r>
       <r>   -6.9402    1.0000 </r>
       <r>   -6.9022    1.0000 </r>
       <r>   -6.8471    1.0000 </r>
       <r>   -6.6869    1.0000 </r>
       <r>   -6.6340    1.0000 </r>
       <r>   -6.5658    1.0000 </r>
       <r>   -6.5340    1.0000 </r>
       <r>   -6.4787    1.0000 </r>
       <r>   -6.4548    1.0000 </r>
       <r>   -6.3968    1.0000 </r>
       <r>   -6.2668    1.0000 </r>
       <r>   -6.2527    1.0000 </r>
       <r>   -6.1762    1.0000 </r>
       <r>   -6.0708    1.0000 </r>
       <r>   -5.9888    1.0000 </r>
       <r>   -5.8745    1.0000 </r>
       <r>   -5.8403    1.0000 </r>
       <r>   -5.7344    1.0000 </r>
       <r>   -5.6582    1.0000 </r>
       <r>   -5.5571    1.0000 </r>
       <r>   -5.5134    1.0000 </r>
       <r>   -5.3905    1.0000 </r>
       <r>   -5.1863    1.0000 </r>
       <r>   -5.0537    1.0000 </r>
       <r>   -5.0271    1.0000 </r>
       <r>   -4.9184    1.0000 </r>
       <r>   -4.7891    1.0000 </r>
       <r>   -4.6002    1.0000 </r>
       <r>   -4.5159    1.0000 </r>
       <r>   -4.4643    1.0000 </r>
       <r>   -4.2819    1.0000 </r>
       <r>   -4.2203    1.0000 </r>
       <r>   -4.1644    1.0000 </r>
       <r>   -3.9937    1.0000 </r>
       <r>   -3.8313    1.0000 </r>
       <r>   -3.7660    0.9999 </r>
       <r>   -3.5450    0.9893 </r>
       <r>   -3.1838    0.4002 </r>
       <r>   -2.9946    0.0559 </r>
       <r>   -2.8299    0.0029 </r>
       <r>   -2.6915    0.0001 </r>
       <r>   -2.6202    0.0000 </r>
       <r>   -2.5301    0.0000 </r>
       <r>   -2.3767    0.0000 </r>
       <r>   -2.2609    0.0000 </r>
       <r>   -2.0711    0.0000 </r>
       <r>   -1.9422    0.0000 </r>
       <r>   -1.8493    0.0000 </r>
       <r>   -1.7678    0.0000 </r>
       <r>   -1.5553    0.0000 </r>
       <r>   -1.2971    0.0000 </r>
       <r>   -1.2356    0.0000 </r>
       <r>   -1.1885    0.0000 </r>
       <r>   -1.1743    0.0000 </r>
       <r>   -1.0566    0.0000 </r>
       <r>   -0.9296    0.0000 </r>
       <r>   -0.8802    0.0000 </r>
       <r>   -0.8214    0.0000 </r>
       <r>   -0.7827    0.0000 </r>
       <r>   -0.7649    0.0000 </r>
       <r>   -0.6279    0.0000 </r>
       <r>   -0.5941    0.0000 </r>
       <r>   -0.5749    0.0000 </r>
       <r>   -0.3434    0.0000 </r>
       <r>   -0.2684    0.0000 </r>
       <r>   -0.0910    0.0000 </r>
       <r>    0.1325    0.0000 </r>
       <r>    0.2448    0.0000 </r>
       <r>    0.4083    0.0000 </r>
       <r>    0.6139    0.0000 </r>
       <r>    0.7705    0.0000 </r>
       <r>    0.7806    0.0000 </r>
       <r>    1.1502    0.0000 </r>
       <r>    1.2605    0.0000 </r>
       <r>    1.5266    0.0000 </r>
       <r>    2.2261    0.0000 </r>
       <r>    2.2598    0.0000 </r>
       <r>    2.3912    0.0000 </r>
      </set>
     </set>
    </set>
   </array>
  </eigenvalues>
  <separator name="orbital magnetization" >
   <v name="MAGDIPOLOUT">      0.00000000      0.00000000      0.00000000</v>
  </separator>
 </calculation>
 <structure name="finalpos" >
  <crystal>
   <varray name="basis" >
    <v>       8.29596713       4.78559488       0.00000000 </v>
    <v>      -8.32295144       4.83225472       0.00000000 </v>
    <v>       0.00000000       0.00000000      30.00000000 </v>
   </varray>
   <i name="volume">   2397.55500207 </i>
   <varray name="rec_basis" >
    <v>       0.06046478       0.10414299       0.00000000 </v>
    <v>      -0.05988094       0.10380534       0.00000000 </v>
    <v>       0.00000000       0.00000000       0.03333333 </v>
   </varray>
  </crystal>
  <varray name="positions" >
   <v>       0.31632970       0.63347157      -0.00189816 </v>
   <v>       0.01207219       0.03507791       0.00192153 </v>
   <v>       0.35572560       0.03549868       0.00137202 </v>
   <v>       0.31852653       0.33998080       0.00046006 </v>
   <v>       0.68766315       0.03813713       0.00170243 </v>
   <v>       0.99672771       0.33125378       0.00020007 </v>
   <v>      -0.01442776       0.63231502      -0.00107105 </v>
   <v>       0.68611183       0.33466577      -0.00003904 </v>
   <v>       0.64359076       0.62567261      -0.00262148 </v>
   <v>       0.10728445       0.21856463       0.94626613 </v>
   <v>       0.21861976       0.10909208       0.05261862 </v>
   <v>       0.11576331       0.55611686       0.94504739 </v>
   <v>       0.22123584       0.44950683       0.05451606 </v>
   <v>       0.11293804       0.89125452       0.95805486 </v>
   <v>       0.22664200       0.77958440       0.04384190 </v>
   <v>       0.44713817       0.22699944       0.94974797 </v>
   <v>       0.55566373       0.11511920       0.05504184 </v>
   <v>       0.43557960       0.55289308       0.94398282 </v>
   <v>       0.54858547       0.43173864       0.05243609 </v>
   <v>       0.44199259       0.88787831       0.95687302 </v>
   <v>       0.55340384       0.77630791       0.04289890 </v>
   <v>       0.78348262       0.22797955       0.94377641 </v>
   <v>       0.89494936       0.11346773       0.05582944 </v>
   <v>       0.77739195       0.55032942       0.94348825 </v>
   <v>       0.88875846       0.43926439       0.05669568 </v>
   <v>       0.77957189       0.88711391       0.95563082 </v>
   <v>       0.88689367       0.77893027       0.04322733 </v>
  </varray>
 </structure>
</modeling>
