unknown system                          
           1
     8.854601    5.104393    0.000000
    -8.855686    5.106260    0.000000
     0.000000    0.000000   30.000000
   V    Mo   W    S 
   3   3   3  18
Direct configuration=     1
   0.33333334  0.66666669  0.00000000
   0.00000000  0.00000000  0.00000000
   0.33333334  0.00000000  0.00000000
   0.33333334  0.33333334  0.00000000
   0.66666669  0.00000000  0.00000000
   1.00000000  0.33333334  0.00000000
   0.00000000  0.66666669  0.00000000
   0.66666669  0.33333334  0.00000000
   0.66666669  0.66666669  0.00000000
   0.11068511  0.22244981  0.95539999
   0.22244981  0.11068511  0.04460000
   0.11068511  0.55578315  0.95539999
   0.22244981  0.44401845  0.04460000
   0.11068511  0.88911647  0.95539999
   0.22244981  0.77735180  0.04460000
   0.44401845  0.22244981  0.95539999
   0.55578315  0.11068511  0.04460000
   0.44401845  0.55578315  0.95539999
   0.55578315  0.44401845  0.04460000
   0.44401845  0.88911647  0.95539999
   0.55578315  0.77735180  0.04460000
   0.77735180  0.22244981  0.95539999
   0.88911647  0.11068511  0.04460000
   0.77735180  0.55578315  0.95539999
   0.88911647  0.44401845  0.04460000
   0.77735180  0.88911647  0.95539999
   0.88911647  0.77735180  0.04460000
unknown system                          
           1
     8.666450    4.998216    0.000000
    -8.667367    4.999794    0.000000
     0.000000    0.000000   30.000000
   V    Mo   W    S 
   3   3   3  18
Direct configuration=     2
   0.33338373  0.66588701 -0.00019350
   0.00036778  0.00239083  0.00018229
   0.33408077  0.00069689 -0.00004230
   0.33167938  0.33311801  0.00012798
   0.66769307  0.00110175 -0.00010457
   1.00010866  0.33194186  0.00021337
   0.00066072  0.66580635 -0.00003989
   0.66652416  0.33153774 -0.00000205
   0.66514743  0.66700003 -0.00017815
   0.10889451  0.21766426  0.95189949
   0.22003678  0.10656363  0.04689317
   0.11521777  0.55828890  0.95192547
   0.22424730  0.44872046  0.04805510
   0.11252100  0.89225232  0.95316659
   0.22558934  0.77920603  0.04687894
   0.44317724  0.21821062  0.95195204
   0.55149473  0.10986124  0.04809893
   0.44292410  0.55851682  0.95191803
   0.55632674  0.44474512  0.04919608
   0.43990635  0.88675165  0.95314879
   0.55143038  0.77510621  0.04806918
   0.77718888  0.22262219  0.95074777
   0.89134980  0.10863022  0.04807820
   0.77758269  0.55539496  0.95069272
   0.88833983  0.44470749  0.04928750
   0.78165013  0.88995552  0.95196032
   0.89069116  0.78153636  0.04806840
unknown system                          
           1
     8.486097    4.899467    0.000000
    -8.486491    4.900139    0.000000
     0.000000    0.000000   30.000000
   V    Mo   W    S 
   3   3   3  18
Direct configuration=     3
   0.33346469  0.66557521 -0.00021441
   0.00044304  0.00315044  0.00020633
   0.33442552  0.00102639 -0.00009335
   0.33142525  0.33332134  0.00017799
   0.66825102  0.00176397 -0.00014742
   0.99981642  0.33148356  0.00023863
   0.00035747  0.66515226 -0.00004787
   0.66678219  0.33123515 -0.00000906
   0.66468844  0.66685605 -0.00014785
   0.10881491  0.21750876  0.95183345
   0.21994802  0.10646960  0.04687470
   0.11523028  0.55847089  0.95193453
   0.22432939  0.44887747  0.04810255
   0.11245727  0.89207226  0.95329790
   0.22542576  0.77914684  0.04679915
   0.44330727  0.21820496  0.95198178
   0.55148291  0.10998792  0.04813200
   0.44307337  0.55869043  0.95184731
   0.55660239  0.44487384  0.04913339
   0.43983199  0.88670464  0.95321048
   0.55143073  0.77493755  0.04803161
   0.77710261  0.22277689  0.95067021
   0.89143099  0.10856434  0.04820235
   0.77752248  0.55537713  0.95075110
   0.88824009  0.44478584  0.04931788
   0.78167811  0.88979923  0.95197445
   0.89065184  0.78140147  0.04794206
unknown system                          
           1
     8.269595    4.773878    0.000000
    -8.270644    4.775685    0.000000
     0.000000    0.000000   30.000000
   V    Mo   W    S 
   3   3   3  18
Direct configuration=     4
   0.33386032  0.66408711 -0.00021289
   0.00039470  0.00577556  0.00020268
   0.33592957  0.00243278 -0.00026460
   0.33109434  0.33467330  0.00027731
   0.67060295  0.00458815 -0.00023859
   0.99812551  0.32991801  0.00023356
  -0.00172764  0.66200816 -0.00006297
   0.66844457  0.33086417 -0.00002492
   0.66305814  0.66573861  0.00002960
   0.10819411  0.21624412  0.95017951
   0.21929385  0.10535663  0.04812114
   0.11637504  0.55890432  0.95051220
   0.22494227  0.45031495  0.04971010
   0.11289638  0.89289891  0.95249292
   0.22639316  0.77968973  0.04781304
   0.44259491  0.21716489  0.95067552
   0.55028161  0.10918660  0.04973155
   0.44233392  0.55918159  0.95007785
   0.55689599  0.44491788  0.05047455
   0.43886808  0.88615527  0.95215905
   0.55029346  0.77455591  0.04931086
   0.77734676  0.22302007  0.94873747
   0.89204180  0.10792512  0.05015533
   0.77721083  0.55523926  0.94932622
   0.88823629  0.44462639  0.05109258
   0.78299371  0.89040375  0.95058278
   0.89123982  0.78234318  0.04890805
unknown system                          
           1
     8.261237    4.772975    0.000000
    -8.262052    4.774378    0.000000
     0.000000    0.000000   30.000000
   V    Mo   W    S 
   3   3   3  18
Direct configuration=     5
   0.33481928  0.66083341 -0.00003109
   0.00025156  0.01088731  0.00000859
   0.33890990  0.00520193 -0.00047303
   0.33083715  0.33798538  0.00030854
   0.67553648  0.01085700 -0.00022523
   0.99378450  0.32703143  0.00012043
  -0.00602390  0.65543657 -0.00010022
   0.67296450  0.33072780 -0.00003040
   0.65952405  0.66276322  0.00027910
   0.10776357  0.21535661  0.94794594
   0.21878618  0.10475041  0.04996521
   0.11733051  0.55848202  0.94857559
   0.22494220  0.45147588  0.05196824
   0.11302294  0.89343531  0.95163136
   0.22715191  0.77996631  0.04899565
   0.44191240  0.21652717  0.94901158
   0.54932897  0.10824877  0.05191361
   0.44121972  0.55940491  0.94746454
   0.55659746  0.44419850  0.05224794
   0.43871879  0.88590025  0.95065278
   0.54929098  0.77514799  0.05085834
   0.77806080  0.22308394  0.94582423
   0.89266679  0.10761951  0.05311030
   0.77629277  0.55457088  0.94728320
   0.88828546  0.44355660  0.05380856
   0.78432697  0.89123830  0.94885608
   0.89191250  0.78352703  0.05003005
unknown system                          
           1
     8.262104    4.773926    0.000000
    -8.263013    4.775491    0.000000
     0.000000    0.000000   30.000000
   V    Mo   W    S 
   3   3   3  18
Direct configuration=     6
   0.33519290  0.65955650  0.00000945
   0.00070028  0.01294466  0.00003003
   0.33986149  0.00619705 -0.00052978
   0.33091093  0.33922755  0.00034001
   0.67671813  0.01280257 -0.00017811
   0.99230483  0.32675259  0.00012881
  -0.00731801  0.65308650 -0.00012592
   0.67496819  0.33103890 -0.00008080
   0.65802297  0.66093976  0.00026299
   0.10790340  0.21603060  0.94773113
   0.21894142  0.10538738  0.05003734
   0.11686779  0.55780897  0.94847833
   0.22417157  0.45091467  0.05213401
   0.11244246  0.89283380  0.95191430
   0.22672877  0.77947365  0.04884376
   0.44253028  0.21741611  0.94905816
   0.54994932  0.10859945  0.05210115
   0.44114961  0.55928785  0.94712793
   0.55621195  0.44330549  0.05231902
   0.43968956  0.88619777  0.95071989
   0.54982052  0.77603069  0.05078596
   0.77821448  0.22303311  0.94534570
   0.89268439  0.10804366  0.05343540
   0.77565115  0.55399960  0.94703499
   0.88824685  0.44280718  0.05431208
   0.78391980  0.89119596  0.94897165
   0.89172945  0.78330241  0.04979246
unknown system                          
           1
     8.257817    4.770408    0.000000
    -8.257707    4.770211    0.000000
     0.000000    0.000000   30.000000
   V    Mo   W    S 
   3   3   3  18
Direct configuration=     7
   0.33546809  0.65872941  0.00005014
   0.00131318  0.01458458  0.00001869
   0.34052445  0.00693433 -0.00059458
   0.33082936  0.34003160  0.00033887
   0.67743781  0.01423075 -0.00017436
   0.99139895  0.32661638  0.00010134
  -0.00822905  0.65135437 -0.00011666
   0.67635032  0.33124928 -0.00010460
   0.65682147  0.65943052  0.00029156
   0.10796351  0.21642409  0.94768058
   0.21899349  0.10572135  0.05003219
   0.11664305  0.55748691  0.94844625
   0.22375045  0.45066199  0.05218917
   0.11207049  0.89244781  0.95219222
   0.22644911  0.77916047  0.04866485
   0.44293026  0.21795261  0.94916048
   0.55028615  0.10886208  0.05216829
   0.44108756  0.55920228  0.94694710
   0.55602354  0.44276651  0.05230461
   0.44016437  0.88629801  0.95085616
   0.55010901  0.77640109  0.05064985
   0.77830953  0.22303524  0.94511814
   0.89271591  0.10830163  0.05358079
   0.77534796  0.55369134  0.94692061
   0.88819358  0.44245475  0.05457633
   0.78370596  0.89107785  0.94916416
   0.89155595  0.78310724  0.04953773
unknown system                          
           1
     8.254464    4.769917    0.000000
    -8.252552    4.766598    0.000000
     0.000000    0.000000   30.000000
   V    Mo   W    S 
   3   3   3  18
Direct configuration=     8
   0.33517140  0.65970763  0.00001146
   0.00020373  0.01238190 -0.00000551
   0.33959551  0.00584615 -0.00050590
   0.33109941  0.33914489  0.00031129
   0.67678628  0.01250200 -0.00019694
   0.99215640  0.32666201  0.00009970
  -0.00721761  0.65340613 -0.00010583
   0.67495327  0.33108682 -0.00006988
   0.65848921  0.66163141  0.00028076
   0.10790691  0.21599930  0.94776762
   0.21897540  0.10547299  0.05005473
   0.11677500  0.55763798  0.94848459
   0.22410123  0.45081493  0.05214820
   0.11245585  0.89286509  0.95181557
   0.22669645  0.77943807  0.04891309
   0.44251319  0.21740637  0.94902014
   0.55002022  0.10860966  0.05211715
   0.44119507  0.55928776  0.94713889
   0.55628441  0.44348360  0.05232411
   0.43983527  0.88628458  0.95064946
   0.54982348  0.77612990  0.05085748
   0.77823300  0.22296571  0.94536369
   0.89270031  0.10806737  0.05348821
   0.77556083  0.55395672  0.94701488
   0.88825285  0.44279941  0.05428551
   0.78390260  0.89131134  0.94883231
   0.89174478  0.78331475  0.04990509
unknown system                          
           1
     8.250115    4.767859    0.000000
    -8.248922    4.765784    0.000000
     0.000000    0.000000   30.000000
   V    Mo   W    S 
   3   3   3  18
Direct configuration=     9
   0.33489813  0.66105950 -0.00003120
  -0.00230595  0.00849909 -0.00001258
   0.33818011  0.00402569 -0.00036179
   0.33198857  0.33818282  0.00032403
   0.67627056  0.01006175 -0.00012544
   0.99244751  0.32659281  0.00017810
  -0.00600703  0.65617450 -0.00017585
   0.67327124  0.33072159 -0.00002657
   0.66120694  0.66567532  0.00025189
   0.10786491  0.21556514  0.94787985
   0.21902833  0.10529590  0.05001956
   0.11680832  0.55757471  0.94854756
   0.22435907  0.45078884  0.05203978
   0.11287991  0.89332547  0.95124920
   0.22693061  0.77964279  0.04931940
   0.44217733  0.21673880  0.94885736
   0.54988766  0.10835970  0.05201406
   0.44149455  0.55962076  0.94737026
   0.55687511  0.44456079  0.05231180
   0.43971744  0.88637155  0.95032858
   0.54948988  0.77609607  0.05123026
   0.77800111  0.22275964  0.94554166
   0.89268604  0.10782338  0.05343327
   0.77562241  0.55422398  0.94713039
   0.88832732  0.44305564  0.05402110
   0.78404738  0.89179312  0.94810977
   0.89206699  0.78362509  0.05057546
unknown system                          
           1
     8.253781    4.770413    0.000000
    -8.252364    4.767952    0.000000
     0.000000    0.000000   30.000000
   V    Mo   W    S 
   3   3   3  18
Direct configuration=    10
   0.33531618  0.65995959  0.00001558
  -0.00177330  0.01049217 -0.00003590
   0.33909986  0.00509326 -0.00047687
   0.33192793  0.33932668  0.00031937
   0.67742450  0.01185526 -0.00016492
   0.99118177  0.32637593  0.00010655
  -0.00729194  0.65378599 -0.00017838
   0.67510467  0.33083663 -0.00006889
   0.65967149  0.66398269  0.00026795
   0.10792130  0.21604068  0.94790852
   0.21897265  0.10559484  0.04993653
   0.11652058  0.55725466  0.94855466
   0.22385827  0.45052399  0.05206114
   0.11232810  0.89273149  0.95170235
   0.22646268  0.77919090  0.04902448
   0.44270869  0.21737492  0.94903895
   0.55028185  0.10868176  0.05208088
   0.44153177  0.55963701  0.94718188
   0.55682944  0.44402427  0.05221879
   0.44024448  0.88641875  0.95058934
   0.54985152  0.77648894  0.05103030
   0.77807003  0.22274960  0.94526885
   0.89276831  0.10810771  0.05360775
   0.77525662  0.55394485  0.94705647
   0.88825620  0.44274927  0.05436382
   0.78382975  0.89162107  0.94840668
   0.89186105  0.78337156  0.05018404
unknown system                          
           1
     8.261075    4.775698    0.000000
    -8.259401    4.772790    0.000000
     0.000000    0.000000   30.000000
   V    Mo   W    S 
   3   3   3  18
Direct configuration=    11
   0.33545516  0.65963041  0.00003384
  -0.00163801  0.01106638 -0.00003316
   0.33935702  0.00539663 -0.00050021
   0.33193455  0.33968046  0.00032750
   0.67775312  0.01236283 -0.00015136
   0.99077116  0.32632654  0.00011183
  -0.00767775  0.65304755 -0.00017520
   0.67567135  0.33085820 -0.00007144
   0.65921162  0.66355213  0.00028053
   0.10793250  0.21617185  0.94789057
   0.21896269  0.10567764  0.04992078
   0.11646013  0.55715439  0.94853285
   0.22371175  0.45045267  0.05207823
   0.11216804  0.89258132  0.95181535
   0.22635811  0.77907454  0.04895508
   0.44285931  0.21755821  0.94907210
   0.55039025  0.10875676  0.05210685
   0.44152217  0.55964586  0.94710014
   0.55683327  0.44386793  0.05219995
   0.44038451  0.88641476  0.95064569
   0.54993116  0.77662022  0.05099700
   0.77808412  0.22273145  0.94514771
   0.89280201  0.10819691  0.05367055
   0.77513077  0.55384055  0.94701557
   0.88823827  0.44264304  0.05448524
   0.78378932  0.89159026  0.94844953
   0.89181786  0.78331496  0.05009439
unknown system                          
           1
     8.261451    4.775890    0.000000
    -8.259987    4.773347    0.000000
     0.000000    0.000000   30.000000
   V    Mo   W    S 
   3   3   3  18
Direct configuration=    12
   0.33599415  0.65833542  0.00009083
  -0.00068563  0.01360775 -0.00003002
   0.34046660  0.00671186 -0.00061237
   0.33182221  0.34102291  0.00034988
   0.67877282  0.01436504 -0.00013474
   0.98943471  0.32623287  0.00010118
  -0.00904677  0.65022601 -0.00017596
   0.67772343  0.33089050 -0.00011448
   0.65715515  0.66150718  0.00031773
   0.10798228  0.21670384  0.94782580
   0.21897873  0.10601784  0.04986415
   0.11624037  0.55684237  0.94847745
   0.22322310  0.45023090  0.05213865
   0.11159175  0.89200115  0.95230085
   0.22598853  0.77866171  0.04864197
   0.44344413  0.21828153  0.94924477
   0.55079336  0.10906470  0.05217840
   0.44142416  0.55960745  0.94682492
   0.55672847  0.44313549  0.05211705
   0.44086710  0.88641347  0.95091082
   0.55022985  0.77705293  0.05081443
   0.77814317  0.22269491  0.94478223
   0.89287275  0.10854295  0.05386362
   0.77472557  0.55340988  0.94691043
   0.88813587  0.44221320  0.05490776
   0.78360267  0.89140934  0.94873102
   0.89160593  0.78303125  0.04967352
unknown system                          
           1
     8.252680    4.772724    0.000000
    -8.248368    4.765250    0.000000
     0.000000    0.000000   30.000000
   V    Mo   W    S 
   3   3   3  18
Direct configuration=    13
   0.33601657  0.65820192  0.00009753
  -0.00048623  0.01396836 -0.00002443
   0.34060589  0.00689339 -0.00062320
   0.33173728  0.34111133  0.00035564
   0.67885385  0.01459203 -0.00013172
   0.98937281  0.32622504  0.00010363
  -0.00916419  0.64994940 -0.00017198
   0.67789272  0.33089576 -0.00011500
   0.65690761  0.66119572  0.00032284
   0.10798578  0.21674524  0.94780588
   0.21897058  0.10603264  0.04987122
   0.11624286  0.55683959  0.94846358
   0.22318702  0.45022454  0.05215351
   0.11154913  0.89196000  0.95234732
   0.22597125  0.77864392  0.04861298
   0.44347867  0.21834784  0.94924995
   0.55080223  0.10907699  0.05219529
   0.44140131  0.55958628  0.94678907
   0.55668535  0.44303931  0.05211721
   0.44087904  0.88640087  0.95092876
   0.55025572  0.77707111  0.05079446
   0.77816964  0.22270618  0.94474572
   0.89287868  0.10856224  0.05387255
   0.77470915  0.55338507  0.94689653
   0.88813091  0.44217293  0.05494388
   0.78359770  0.89137439  0.94877967
   0.89158312  0.78301238  0.04961901
unknown system                          
           1
     8.264894    4.778208    0.000000
    -8.263736    4.776194    0.000000
     0.000000    0.000000   30.000000
   V    Mo   W    S 
   3   3   3  18
Direct configuration=    14
   0.33624267  0.65862057  0.00009950
  -0.00217206  0.01223856 -0.00004546
   0.33963826  0.00563003 -0.00054337
   0.33222589  0.34120925  0.00036707
   0.67924417  0.01366505 -0.00008754
   0.98888687  0.32588894  0.00014548
  -0.00886949  0.65078174 -0.00018176
   0.67787425  0.33084333 -0.00008266
   0.65796315  0.66324844  0.00032616
   0.10792535  0.21653289  0.94798716
   0.21887113  0.10597301  0.04973948
   0.11624091  0.55678220  0.94857403
   0.22329082  0.45026475  0.05199874
   0.11151452  0.89211833  0.95214773
   0.22592179  0.77847378  0.04873865
   0.44342761  0.21819831  0.94923304
   0.55091214  0.10910828  0.05214205
   0.44158637  0.55984192  0.94689032
   0.55720502  0.44370582  0.05202023
   0.44088654  0.88627007  0.95084519
   0.55007713  0.77704431  0.05091460
   0.77802264  0.22258364  0.94476875
   0.89301674  0.10851370  0.05382752
   0.77463698  0.55346534  0.94697712
   0.88817011  0.44241714  0.05485349
   0.78373064  0.89167723  0.94847074
   0.89174431  0.78311783  0.04987364
unknown system                          
           1
     8.268568    4.780381    0.000000
    -8.267747    4.778947    0.000000
     0.000000    0.000000   30.000000
   V    Mo   W    S 
   3   3   3  18
Direct configuration=    15
   0.33643017  0.65729061  0.00012939
   0.00026677  0.01588075 -0.00002258
   0.34140391  0.00785849 -0.00071688
   0.33158482  0.34206609  0.00037099
   0.67954737  0.01598410 -0.00013655
   0.98845670  0.32616650  0.00007936
  -0.01006816  0.64794120 -0.00018378
   0.67933582  0.33081339 -0.00015824
   0.65534124  0.65977688  0.00034504
   0.10801574  0.21712634  0.94775881
   0.21896763  0.10625037  0.04983455
   0.11611733  0.55664932  0.94842944
   0.22284664  0.45009618  0.05221114
   0.11113603  0.89155199  0.95270708
   0.22572856  0.77836202  0.04838911
   0.44389057  0.21886296  0.94938240
   0.55106068  0.10927121  0.05225196
   0.44133246  0.55956376  0.94657989
   0.55661778  0.44250338  0.05204281
   0.44117402  0.88637108  0.95112250
   0.55044442  0.77736224  0.05068235
   0.77822893  0.22266904  0.94449916
   0.89293033  0.10878906  0.05400917
   0.77444581  0.55309542  0.94684972
   0.88805641  0.44186461  0.05525161
   0.78349281  0.89123848  0.94899654
   0.89142967  0.78280900  0.04929491
unknown system                          
           1
     8.266309    4.779082    0.000000
    -8.265658    4.777946    0.000000
     0.000000    0.000000   30.000000
   V    Mo   W    S 
   3   3   3  18
Direct configuration=    16
   0.33669590  0.65661239  0.00015676
   0.00083821  0.01726090 -0.00000518
   0.34202456  0.00860523 -0.00077699
   0.33141235  0.34274537  0.00039459
   0.67996386  0.01685891 -0.00013036
   0.98797159  0.32613720  0.00007436
  -0.01059665  0.64661845 -0.00018597
   0.68020187  0.33065691 -0.00017754
   0.65415076  0.65878452  0.00036564
   0.10804911  0.21739521  0.94771036
   0.21895686  0.10638997  0.04981151
   0.11607065  0.55654410  0.94840023
   0.22263103  0.45004160  0.05224888
   0.11085300  0.89127318  0.95295498
   0.22557923  0.77817955  0.04823201
   0.44417099  0.21922864  0.94946175
   0.55123080  0.10939346  0.05229615
   0.44126136  0.55954392  0.94642869
   0.55656229  0.44211671  0.05198335
   0.44134256  0.88632600  0.95125062
   0.55055269  0.77754523  0.05060922
   0.77828067  0.22264319  0.94432263
   0.89295517  0.10893381  0.05408977
   0.77427043  0.55289386  0.94682468
   0.88799751  0.44164327  0.05545151
   0.78345414  0.89114951  0.94915082
   0.89133351  0.78269337  0.04905741
unknown system                          
           1
     8.266310    4.779082    0.000000
    -8.265661    4.777948    0.000000
     0.000000    0.000000   30.000000
   V    Mo   W    S 
   3   3   3  18
Direct configuration=    17
   0.33650435  0.65690155  0.00015220
   0.00083736  0.01667552 -0.00001756
   0.34174844  0.00827572 -0.00073693
   0.33144260  0.34234953  0.00038400
   0.67959939  0.01654400 -0.00011670
   0.98836636  0.32627857  0.00009754
  -0.01032911  0.64728339 -0.00016429
   0.67970308  0.33087321 -0.00015197
   0.65468764  0.65892817  0.00036272
   0.10802455  0.21724915  0.94771611
   0.21900900  0.10629671  0.04985174
   0.11612284  0.55662652  0.94840802
   0.22279991  0.45009987  0.05220464
   0.11107060  0.89145921  0.95279921
   0.22570542  0.77831728  0.04831108
   0.44397849  0.21898226  0.94940471
   0.55109605  0.10934089  0.05226834
   0.44124531  0.55951546  0.94653356
   0.55650773  0.44225678  0.05205559
   0.44119621  0.88633552  0.95117211
   0.55047648  0.77738502  0.05060296
   0.77825608  0.22271280  0.94442162
   0.89291976  0.10885817  0.05401767
   0.77440839  0.55301386  0.94679862
   0.88803413  0.44176465  0.05532469
   0.78342280  0.89116086  0.94910349
   0.89138060  0.78272978  0.04919674
unknown system                          
           1
     8.260005    4.777351    0.000000
    -8.258795    4.775246    0.000000
     0.000000    0.000000   30.000000
   V    Mo   W    S 
   3   3   3  18
Direct configuration=    18
   0.33650418  0.65690151  0.00015218
   0.00083804  0.01667574 -0.00001758
   0.34174855  0.00827580 -0.00073693
   0.33144244  0.34234929  0.00038397
   0.67959909  0.01654451 -0.00011674
   0.98836657  0.32627873  0.00009750
  -0.01032906  0.64728354 -0.00016429
   0.67970291  0.33087347 -0.00015202
   0.65468761  0.65892721  0.00036270
   0.10802454  0.21724916  0.94771608
   0.21900911  0.10629664  0.04985181
   0.11612295  0.55662664  0.94840802
   0.22279999  0.45009996  0.05220464
   0.11107079  0.89145929  0.95279915
   0.22570555  0.77831737  0.04831108
   0.44397837  0.21898209  0.94940469
   0.55109588  0.10934093  0.05226837
   0.44124518  0.55951536  0.94653360
   0.55650747  0.44225659  0.05205574
   0.44119605  0.88633547  0.95117211
   0.55047646  0.77738490  0.05060286
   0.77825612  0.22271300  0.94442170
   0.89291972  0.10885815  0.05401760
   0.77440856  0.55301396  0.94679855
   0.88803416  0.44176467  0.05532470
   0.78342265  0.89116076  0.94910364
   0.89138058  0.78272971  0.04919677
unknown system                          
           1
     8.267824    4.779327    0.000000
    -8.268394    4.780301    0.000000
     0.000000    0.000000   30.000000
   V    Mo   W    S 
   3   3   3  18
Direct configuration=    19
   0.33658194  0.65639580  0.00017328
   0.00187988  0.01921312  0.00000339
   0.34304893  0.00962615 -0.00081132
   0.33058153  0.34251847  0.00041484
   0.68051897  0.01852853 -0.00012607
   0.98720322  0.32551372  0.00007085
  -0.01091242  0.64544515 -0.00016804
   0.68082099  0.33012588 -0.00020855
   0.65324005  0.65731347  0.00037089
   0.10811277  0.21753416  0.94761317
   0.21908825  0.10633259  0.04985456
   0.11630236  0.55668023  0.94837619
   0.22251799  0.45006785  0.05226144
   0.11094988  0.89131621  0.95313130
   0.22566603  0.77828803  0.04812825
   0.44415395  0.21931514  0.94947013
   0.55097681  0.10937443  0.05233275
   0.44110436  0.55935442  0.94635567
   0.55627633  0.44167528  0.05204933
   0.44124612  0.88628895  0.95132115
   0.55065807  0.77757428  0.05045652
   0.77839995  0.22280990  0.94425340
   0.89294503  0.10896562  0.05405874
   0.77423243  0.55288265  0.94677479
   0.88801101  0.44152721  0.05554771
   0.78335557  0.89095077  0.94942468
   0.89125444  0.78259645  0.04887088
unknown system                          
           1
     8.272602    4.781363    0.000000
    -8.275517    4.786394    0.000000
     0.000000    0.000000   30.000000
   V    Mo   W    S 
   3   3   3  18
Direct configuration=    20
   0.33673709  0.65589858  0.00018337
   0.00201985  0.01890603  0.00001012
   0.34278342  0.00957601 -0.00083427
   0.33111029  0.34316535  0.00040067
   0.68009915  0.01794952 -0.00015163
   0.98789249  0.32627625  0.00005573
  -0.01113049  0.64543045 -0.00016908
   0.68081176  0.33077011 -0.00021609
   0.65295669  0.65702434  0.00037554
   0.10809133  0.21764274  0.94763828
   0.21901141  0.10653042  0.04984429
   0.11603254  0.55653694  0.94835634
   0.22251317  0.45000757  0.05230725
   0.11069698  0.89101257  0.95319040
   0.22548439  0.77809454  0.04804830
   0.44435612  0.21952522  0.94951952
   0.55130568  0.10951894  0.05234005
   0.44111639  0.55940027  0.94631669
   0.55625375  0.44157921  0.05201108
   0.44141622  0.88632237  0.95138014
   0.55069330  0.77760124  0.05045277
   0.77836998  0.22274194  0.94426003
   0.89291670  0.10905988  0.05408771
   0.77422852  0.55274411  0.94677065
   0.88794409  0.44143147  0.05558700
   0.78332329  0.89094147  0.94945076
   0.89118034  0.78252689  0.04878432
unknown system                          
           1
     8.272243    4.781278    0.000000
    -8.274802    4.785695    0.000000
     0.000000    0.000000   30.000000
   V    Mo   W    S 
   3   3   3  18
Direct configuration=    21
   0.33682364  0.65454394  0.00022963
   0.00349631  0.02156480  0.00008116
   0.34413049  0.01130394 -0.00090809
   0.33065025  0.34412275  0.00043961
   0.68061660  0.01957453 -0.00013846
   0.98765191  0.32636457  0.00005417
  -0.01203211  0.64329802 -0.00014385
   0.68189166  0.33065793 -0.00022115
   0.65086382  0.65453628  0.00038782
   0.10821719  0.21812417  0.94749615
   0.21900827  0.10683198  0.04986551
   0.11597585  0.55647715  0.94825695
   0.22222101  0.44991816  0.05244006
   0.11027610  0.89049990  0.95363290
   0.22525535  0.77787087  0.04773212
   0.44478024  0.22022048  0.94958446
   0.55156530  0.10970495  0.05243168
   0.44091194  0.55923643  0.94604410
   0.55586826  0.44071716  0.05199429
   0.44163667  0.88628857  0.95160357
   0.55094380  0.77780406  0.05026468
   0.77856049  0.22281980  0.94403133
   0.89288506  0.10928602  0.05415783
   0.77400446  0.55243210  0.94667740
   0.88780280  0.44098314  0.05584963
   0.78326053  0.89065799  0.94986209
   0.89094855  0.78237476  0.04829431
unknown system                          
           1
     8.277512    4.784676    0.000000
    -8.278457    4.786300    0.000000
     0.000000    0.000000   30.000000
   V    Mo   W    S 
   3   3   3  18
Direct configuration=    22
   0.33683847  0.65469151  0.00022721
   0.00334019  0.02130626  0.00007395
   0.34396269  0.01109375 -0.00089944
   0.33070599  0.34403725  0.00043722
   0.68058051  0.01940208 -0.00013619
   0.98765116  0.32634469  0.00005914
  -0.01195758  0.64349740 -0.00014281
   0.68181518  0.33068771 -0.00021562
   0.65107196  0.65480647  0.00038953
   0.10819815  0.21807038  0.94751225
   0.21900153  0.10680213  0.04986132
   0.11597606  0.55647855  0.94826526
   0.22225014  0.44992340  0.05242500
   0.11030643  0.89054687  0.95358516
   0.22527383  0.77788451  0.04776718
   0.44474560  0.22015856  0.94957842
   0.55154924  0.10969300  0.05241927
   0.44093833  0.55925564  0.94606869
   0.55591668  0.44081031  0.05199240
   0.44162127  0.88628881  0.95157730
   0.55091826  0.77779165  0.05028822
   0.77853467  0.22280437  0.94404853
   0.89289114  0.10926371  0.05414873
   0.77402477  0.55246345  0.94668433
   0.88781790  0.44103342  0.05582387
   0.78326701  0.89069049  0.94981469
   0.89097486  0.78238809  0.04834628
unknown system                          
           1
     8.276354    4.782902    0.000000
    -8.281299    4.791444    0.000000
     0.000000    0.000000   30.000000
   V    Mo   W    S 
   3   3   3  18
Direct configuration=    23
   0.33689770  0.65544082  0.00021230
   0.00294507  0.02062172  0.00002596
   0.34354218  0.01051472 -0.00090447
   0.33069097  0.34343876  0.00043425
   0.68039319  0.01882704 -0.00013864
   0.98764290  0.32616042  0.00005929
  -0.01158744  0.64421602 -0.00017110
   0.68140185  0.33057687 -0.00021086
   0.65179003  0.65578317  0.00040799
   0.10807461  0.21788601  0.94755089
   0.21896230  0.10661503  0.04983854
   0.11597137  0.55643707  0.94829895
   0.22224968  0.44991593  0.05237386
   0.11046703  0.89078245  0.95346849
   0.22538655  0.77800090  0.04788980
   0.44463455  0.21985899  0.94959153
   0.55139938  0.10962237  0.05238674
   0.44100511  0.55930504  0.94613958
   0.55607174  0.44104117  0.05198049
   0.44155242  0.88634968  0.95150044
   0.55085374  0.77782167  0.05038406
   0.77847440  0.22277416  0.94405645
   0.89295260  0.10919622  0.05415332
   0.77409825  0.55253149  0.94671240
   0.88788785  0.44115902  0.05578416
   0.78334940  0.89085022  0.94966044
   0.89110703  0.78248750  0.04851504
unknown system                          
           1
     8.276889    4.782913    0.000000
    -8.282606    4.792791    0.000000
     0.000000    0.000000   30.000000
   V    Mo   W    S 
   3   3   3  18
Direct configuration=    24
   0.33681978  0.65394277  0.00023970
   0.00452258  0.02337429  0.00011335
   0.34522559  0.01257316 -0.00098649
   0.33004444  0.34439574  0.00046682
   0.68088021  0.02065172 -0.00015992
   0.98753873  0.32629454  0.00002098
  -0.01237069  0.64206360 -0.00016880
   0.68238898  0.33032152 -0.00025729
   0.64955898  0.65303742  0.00039621
   0.10827415  0.21843044  0.94738112
   0.21899016  0.10688906  0.04987601
   0.11597354  0.55642073  0.94823294
   0.22197143  0.44986100  0.05248709
   0.11011233  0.89028986  0.95395805
   0.22516417  0.77783908  0.04753640
   0.44500613  0.22054938  0.94964575
   0.55157256  0.10973624  0.05251194
   0.44075198  0.55909981  0.94594046
   0.55558782  0.44012439  0.05196184
   0.44174508  0.88634030  0.95175624