   27   27  100    1
  0.9710400E+02  0.1002848E-08  0.1002848E-08  0.3000000E-08  0.5000000E-15
  1.000000000000000E-004
  CAR 
 unknown system                          
    159     34    120
 
  0.0000000E+00  0.0000000E+00  0.0000000E+00  0.1562500E-01
    1      -17.834932   1.000000
    2      -16.639677   1.000000
    3      -16.591534   1.000000
    4      -16.533446   1.000000
    5      -16.474982   1.000000
    6      -16.469221   1.000000
    7      -16.348266   1.000000
    8      -16.306178   1.000000
    9      -16.114473   1.000000
   10      -16.087371   1.000000
   11      -16.030018   1.000000
   12      -15.979722   1.000000
   13      -15.873754   1.000000
   14      -15.844502   1.000000
   15      -15.600679   1.000000
   16      -15.500085   1.000000
   17      -15.477666   1.000000
   18      -15.367039   1.000000
   19       -9.386635   1.000000
   20       -8.945521   1.000000
   21       -8.834445   1.000000
   22       -8.774379   1.000000
   23       -8.702986   1.000000
   24       -8.653295   1.000000
   25       -8.634568   1.000000
   26       -8.495543   1.000000
   27       -8.472207   1.000000
   28       -8.415758   1.000000
   29       -8.379029   1.000000
   30       -8.285639   1.000000
   31       -8.238477   1.000000
   32       -8.184332   1.000000
   33       -8.096324   1.000000
   34       -8.069293   1.000000
   35       -7.887673   1.000000
   36       -7.876685   1.000000
   37       -7.718700   1.000000
   38       -7.567115   1.000000
   39       -7.533870   1.000000
   40       -7.448426   1.000000
   41       -7.358250   1.000000
   42       -7.214382   1.000000
   43       -7.187987   1.000000
   44       -6.872727   1.000000
   45       -6.799356   1.000000
   46       -6.774593   1.000000
   47       -6.699080   1.000000
   48       -6.650697   1.000000
   49       -6.578367   1.000000
   50       -6.529579   1.000000
   51       -6.478910   1.000000
   52       -6.401549   1.000000
   53       -6.318224   1.000000
   54       -6.252620   1.000000
   55       -6.224192   1.000000
   56       -6.073519   1.000000
   57       -5.999917   1.000000
   58       -5.887248   1.000000
   59       -5.663406   1.000000
   60       -5.568785   1.000000
   61       -5.472732   1.000000
   62       -5.428335   1.000000
   63       -5.356409   1.000000
   64       -5.152696   1.000000
   65       -4.981957   1.000000
   66       -4.915555   1.000000
   67       -4.750422   1.000000
   68       -4.735323   1.000000
   69       -4.670477   1.000000
   70       -4.619822   1.000000
   71       -4.494245   1.000000
   72       -4.489673   1.000000
   73       -4.429032   1.000000
   74       -4.311111   1.000000
   75       -4.212268   1.000000
   76       -4.060312   1.000000
   77       -3.540141   0.999704
   78       -3.513310   0.999413
   79       -3.414098   0.994513
   80       -3.115682   0.667648
   81       -3.031822   0.436618
   82       -2.754055   0.016849
   83       -2.584345   0.000444
   84       -2.486955   0.000030
   85       -2.448627   0.000009
   86       -2.425109   0.000004
   87       -2.290308   0.000000
   88       -2.249504   0.000000
   89       -2.178890   0.000000
   90       -2.059935   0.000000
   91       -1.830573   0.000000
   92       -1.669206   0.000000
   93       -1.586258   0.000000
   94       -1.552549   0.000000
   95       -1.424344   0.000000
   96       -1.256312   0.000000
   97       -1.199381   0.000000
   98       -0.989451   0.000000
   99       -0.787073   0.000000
  100       -0.448937   0.000000
  101       -0.375625   0.000000
  102       -0.326984   0.000000
  103       -0.309023   0.000000
  104       -0.230429   0.000000
  105       -0.028920   0.000000
  106        0.244176   0.000000
  107        0.291551   0.000000
  108        0.307598   0.000000
  109        0.357684   0.000000
  110        0.400443   0.000000
  111        0.438318   0.000000
  112        0.655951   0.000000
  113        0.727435   0.000000
  114        0.796113   0.000000
  115        0.882597   0.000000
  116        0.968550   0.000000
  117        1.018772   0.000000
  118        1.679103   0.000000
  119        1.837848   0.000000
  120        2.187993   0.000000
 
  0.1250000E+00  0.2775558E-16  0.0000000E+00  0.3125000E-01
    1      -17.810813   1.000000
    2      -16.699451   1.000000
    3      -16.639059   1.000000
    4      -16.595750   1.000000
    5      -16.533354   1.000000
    6      -16.390586   1.000000
    7      -16.326126   1.000000
    8      -16.260068   1.000000
    9      -16.135392   1.000000
   10      -16.095369   1.000000
   11      -15.974933   1.000000
   12      -15.945194   1.000000
   13      -15.880016   1.000000
   14      -15.777584   1.000000
   15      -15.628100   1.000000
   16      -15.513235   1.000000
   17      -15.474973   1.000000
   18      -15.379633   1.000000
   19       -9.399433   1.000000
   20       -9.032913   1.000000
   21       -8.971827   1.000000
   22       -8.875842   1.000000
   23       -8.779031   1.000000
   24       -8.695871   1.000000
   25       -8.629644   1.000000
   26       -8.541819   1.000000
   27       -8.499781   1.000000
   28       -8.422102   1.000000
   29       -8.348984   1.000000
   30       -8.228079   1.000000
   31       -8.168301   1.000000
   32       -8.091464   1.000000
   33       -8.011648   1.000000
   34       -7.890974   1.000000
   35       -7.820178   1.000000
   36       -7.724952   1.000000
   37       -7.662729   1.000000
   38       -7.592163   1.000000
   39       -7.539266   1.000000
   40       -7.524538   1.000000
   41       -7.281713   1.000000
   42       -7.195406   1.000000
   43       -7.159390   1.000000
   44       -6.961881   1.000000
   45       -6.858373   1.000000
   46       -6.777115   1.000000
   47       -6.728690   1.000000
   48       -6.672831   1.000000
   49       -6.571695   1.000000
   50       -6.529124   1.000000
   51       -6.478181   1.000000
   52       -6.356714   1.000000
   53       -6.328118   1.000000
   54       -6.281194   1.000000
   55       -6.232448   1.000000
   56       -6.114492   1.000000
   57       -5.987072   1.000000
   58       -5.806920   1.000000
   59       -5.706372   1.000000
   60       -5.550360   1.000000
   61       -5.438912   1.000000
   62       -5.393881   1.000000
   63       -5.268082   1.000000
   64       -5.140762   1.000000
   65       -5.072196   1.000000
   66       -5.026342   1.000000
   67       -4.954566   1.000000
   68       -4.859510   1.000000
   69       -4.754394   1.000000
   70       -4.707990   1.000000
   71       -4.607458   1.000000
   72       -4.298078   1.000000
   73       -4.247680   1.000000
   74       -4.177038   1.000000
   75       -4.061477   1.000000
   76       -3.910314   1.000000
   77       -3.742725   0.999999
   78       -3.620865   0.999969
   79       -3.486070   0.998865
   80       -3.008557   0.372946
   81       -2.907462   0.149423
   82       -2.782999   0.027492
   83       -2.599251   0.000645
   84       -2.566382   0.000280
   85       -2.456551   0.000012
   86       -2.412495   0.000003
   87       -2.317461   0.000000
   88       -2.241503   0.000000
   89       -2.189747   0.000000
   90       -2.078636   0.000000
   91       -1.816760   0.000000
   92       -1.683419   0.000000
   93       -1.553795   0.000000
   94       -1.485575   0.000000
   95       -1.394778   0.000000
   96       -1.225822   0.000000
   97       -1.183277   0.000000
   98       -0.978768   0.000000
   99       -0.774103   0.000000
  100       -0.517034   0.000000
  101       -0.464786   0.000000
  102       -0.423150   0.000000
  103       -0.384683   0.000000
  104       -0.206497   0.000000
  105       -0.042663   0.000000
  106        0.121218   0.000000
  107        0.150955   0.000000
  108        0.237912   0.000000
  109        0.282727   0.000000
  110        0.406260   0.000000
  111        0.438815   0.000000
  112        0.685957   0.000000
  113        0.817967   0.000000
  114        0.880234   0.000000
  115        0.958119   0.000000
  116        1.029206   0.000000
  117        1.064131   0.000000
  118        1.721511   0.000000
  119        1.877097   0.000000
  120        2.223223   0.000000
 
  0.2500000E+00  0.5551115E-16  0.0000000E+00  0.3125000E-01
    1      -17.741344   1.000000
    2      -16.914572   1.000000
    3      -16.683872   1.000000
    4      -16.623456   1.000000
    5      -16.568264   1.000000
    6      -16.330839   1.000000
    7      -16.315062   1.000000
    8      -16.220073   1.000000
    9      -16.143480   1.000000
   10      -16.052438   1.000000
   11      -15.954321   1.000000
   12      -15.854610   1.000000
   13      -15.839585   1.000000
   14      -15.698978   1.000000
   15      -15.646734   1.000000
   16      -15.538864   1.000000
   17      -15.486187   1.000000
   18      -15.412902   1.000000
   19       -9.535649   1.000000
   20       -9.166834   1.000000
   21       -9.120818   1.000000
   22       -8.992216   1.000000
   23       -8.901064   1.000000
   24       -8.852879   1.000000
   25       -8.578148   1.000000
   26       -8.507569   1.000000
   27       -8.458228   1.000000
   28       -8.390835   1.000000
   29       -8.281097   1.000000
   30       -8.230543   1.000000
   31       -8.114209   1.000000
   32       -8.014244   1.000000
   33       -7.871134   1.000000
   34       -7.788683   1.000000
   35       -7.713720   1.000000
   36       -7.678981   1.000000
   37       -7.644596   1.000000
   38       -7.514380   1.000000
   39       -7.398369   1.000000
   40       -7.330958   1.000000
   41       -7.226918   1.000000
   42       -7.121759   1.000000
   43       -7.053325   1.000000
   44       -6.974104   1.000000
   45       -6.934060   1.000000
   46       -6.831101   1.000000
   47       -6.788222   1.000000
   48       -6.707928   1.000000
   49       -6.609235   1.000000
   50       -6.590649   1.000000
   51       -6.471467   1.000000
   52       -6.379369   1.000000
   53       -6.300579   1.000000
   54       -6.235198   1.000000
   55       -6.143967   1.000000
   56       -6.110040   1.000000
   57       -5.963151   1.000000
   58       -5.782041   1.000000
   59       -5.690982   1.000000
   60       -5.563222   1.000000
   61       -5.512106   1.000000
   62       -5.456565   1.000000
   63       -5.416440   1.000000
   64       -5.283279   1.000000
   65       -5.224465   1.000000
   66       -5.171026   1.000000
   67       -5.044346   1.000000
   68       -4.862113   1.000000
   69       -4.732198   1.000000
   70       -4.700326   1.000000
   71       -4.633530   1.000000
   72       -4.246571   1.000000
   73       -4.140524   1.000000
   74       -4.037068   1.000000
   75       -3.956555   1.000000
   76       -3.905411   1.000000
   77       -3.765147   1.000000
   78       -3.664635   0.999992
   79       -3.448973   0.997366
   80       -2.937785   0.204829
   81       -2.839082   0.063951
   82       -2.804106   0.038385
   83       -2.690529   0.005043
   84       -2.582654   0.000426
   85       -2.483566   0.000027
   86       -2.381730   0.000001
   87       -2.344848   0.000000
   88       -2.287554   0.000000
   89       -2.224271   0.000000
   90       -2.087038   0.000000
   91       -1.788346   0.000000
   92       -1.669708   0.000000
   93       -1.520558   0.000000
   94       -1.384404   0.000000
   95       -1.313237   0.000000
   96       -1.178988   0.000000
   97       -1.114081   0.000000
   98       -0.955657   0.000000
   99       -0.763721   0.000000
  100       -0.689311   0.000000
  101       -0.630915   0.000000
  102       -0.553391   0.000000
  103       -0.467200   0.000000
  104       -0.298347   0.000000
  105       -0.176618   0.000000
  106       -0.088951   0.000000
  107       -0.042033   0.000000
  108        0.101803   0.000000
  109        0.196134   0.000000
  110        0.351077   0.000000
  111        0.440467   0.000000
  112        0.728481   0.000000
  113        0.906722   0.000000
  114        1.008962   0.000000
  115        1.068737   0.000000
  116        1.177643   0.000000
  117        1.243097   0.000000
  118        1.841352   0.000000
  119        1.990915   0.000000
  120        2.327885   0.000000
 
  0.3750000E+00  0.0000000E+00  0.0000000E+00  0.3125000E-01
    1      -17.640760   1.000000
    2      -17.119871   1.000000
    3      -16.721154   1.000000
    4      -16.661960   1.000000
    5      -16.544878   1.000000
    6      -16.379076   1.000000
    7      -16.287612   1.000000
    8      -16.185648   1.000000
    9      -16.094415   1.000000
   10      -16.017225   1.000000
   11      -15.918180   1.000000
   12      -15.827604   1.000000
   13      -15.780136   1.000000
   14      -15.728761   1.000000
   15      -15.602367   1.000000
   16      -15.530346   1.000000
   17      -15.503999   1.000000
   18      -15.446534   1.000000
   19       -9.732826   1.000000
   20       -9.265802   1.000000
   21       -9.155235   1.000000
   22       -9.029287   1.000000
   23       -8.986109   1.000000
   24       -8.954603   1.000000
   25       -8.514497   1.000000
   26       -8.442708   1.000000
   27       -8.406196   1.000000
   28       -8.363036   1.000000
   29       -8.268752   1.000000
   30       -8.220674   1.000000
   31       -8.140156   1.000000
   32       -7.951535   1.000000
   33       -7.887858   1.000000
   34       -7.803810   1.000000
   35       -7.778628   1.000000
   36       -7.625400   1.000000
   37       -7.571135   1.000000
   38       -7.426989   1.000000
   39       -7.280421   1.000000
   40       -7.224707   1.000000
   41       -7.175209   1.000000
   42       -7.103573   1.000000
   43       -7.001702   1.000000
   44       -6.908396   1.000000
   45       -6.842211   1.000000
   46       -6.803645   1.000000
   47       -6.718624   1.000000
   48       -6.639364   1.000000
   49       -6.604030   1.000000
   50       -6.548070   1.000000
   51       -6.405625   1.000000
   52       -6.306585   1.000000
   53       -6.268776   1.000000
   54       -6.194020   1.000000
   55       -6.088217   1.000000
   56       -5.974146   1.000000
   57       -5.939785   1.000000
   58       -5.902181   1.000000
   59       -5.831392   1.000000
   60       -5.731288   1.000000
   61       -5.720122   1.000000
   62       -5.672551   1.000000
   63       -5.653701   1.000000
   64       -5.518459   1.000000
   65       -5.196613   1.000000
   66       -5.060298   1.000000
   67       -4.957587   1.000000
   68       -4.817381   1.000000
   69       -4.733091   1.000000
   70       -4.675245   1.000000
   71       -4.651316   1.000000
   72       -4.574625   1.000000
   73       -4.184928   1.000000
   74       -4.037679   1.000000
   75       -3.860046   1.000000
   76       -3.759967   1.000000
   77       -3.616595   0.999965
   78       -3.468484   0.998295
   79       -3.363967   0.985704
   80       -2.995589   0.338794
   81       -2.953907   0.238699
   82       -2.848265   0.072490
   83       -2.637595   0.001604
   84       -2.556972   0.000218
   85       -2.511109   0.000061
   86       -2.419982   0.000004
   87       -2.361246   0.000000
   88       -2.279343   0.000000
   89       -2.230302   0.000000
   90       -2.075662   0.000000
   91       -1.773685   0.000000
   92       -1.642111   0.000000
   93       -1.494183   0.000000
   94       -1.362886   0.000000
   95       -1.230987   0.000000
   96       -1.152262   0.000000
   97       -1.024290   0.000000
   98       -0.958056   0.000000
   99       -0.827642   0.000000
  100       -0.787631   0.000000
  101       -0.710732   0.000000
  102       -0.619821   0.000000
  103       -0.543932   0.000000
  104       -0.422901   0.000000
  105       -0.357397   0.000000
  106       -0.262531   0.000000
  107       -0.220557   0.000000
  108        0.035066   0.000000
  109        0.113275   0.000000
  110        0.310553   0.000000
  111        0.439529   0.000000
  112        0.754306   0.000000
  113        0.960780   0.000000
  114        1.100989   0.000000
  115        1.162365   0.000000
  116        1.312045   0.000000
  117        1.394957   0.000000
  118        2.024943   0.000000
  119        2.169620   0.000000
  120        2.497427   0.000000
 
  0.5000000E+00  0.1110223E-15  0.0000000E+00  0.1562500E-01
    1      -17.574229   1.000000
    2      -17.223180   1.000000
    3      -16.734450   1.000000
    4      -16.676894   1.000000
    5      -16.525517   1.000000
    6      -16.407228   1.000000
    7      -16.284606   1.000000
    8      -16.180499   1.000000
    9      -16.032487   1.000000
   10      -16.014820   1.000000
   11      -15.917521   1.000000
   12      -15.840641   1.000000
   13      -15.746910   1.000000
   14      -15.711270   1.000000
   15      -15.624325   1.000000
   16      -15.537586   1.000000
   17      -15.502277   1.000000
   18      -15.441278   1.000000
   19       -9.811585   1.000000
   20       -9.305177   1.000000
   21       -9.175303   1.000000
   22       -9.045177   1.000000
   23       -9.017730   1.000000
   24       -8.943913   1.000000
   25       -8.490252   1.000000
   26       -8.440500   1.000000
   27       -8.390205   1.000000
   28       -8.360217   1.000000
   29       -8.266364   1.000000
   30       -8.206423   1.000000
   31       -8.116844   1.000000
   32       -7.927069   1.000000
   33       -7.869701   1.000000
   34       -7.837959   1.000000
   35       -7.824046   1.000000
   36       -7.659180   1.000000
   37       -7.560831   1.000000
   38       -7.416464   1.000000
   39       -7.294304   1.000000
   40       -7.247547   1.000000
   41       -7.112076   1.000000
   42       -7.043965   1.000000
   43       -6.944626   1.000000
   44       -6.847922   1.000000
   45       -6.803421   1.000000
   46       -6.754558   1.000000
   47       -6.689297   1.000000
   48       -6.591168   1.000000
   49       -6.535874   1.000000
   50       -6.417739   1.000000
   51       -6.397988   1.000000
   52       -6.346326   1.000000
   53       -6.268927   1.000000
   54       -6.146413   1.000000
   55       -6.139472   1.000000
   56       -6.033874   1.000000
   57       -5.990020   1.000000
   58       -5.847621   1.000000
   59       -5.804964   1.000000
   60       -5.792546   1.000000
   61       -5.738760   1.000000
   62       -5.707423   1.000000
   63       -5.690293   1.000000
   64       -5.578377   1.000000
   65       -5.464890   1.000000
   66       -5.040276   1.000000
   67       -5.002611   1.000000
   68       -4.855681   1.000000
   69       -4.705382   1.000000
   70       -4.676746   1.000000
   71       -4.649585   1.000000
   72       -4.496363   1.000000
   73       -4.329106   1.000000
   74       -4.008459   1.000000
   75       -3.771061   1.000000
   76       -3.718227   0.999999
   77       -3.549802   0.999770
   78       -3.407671   0.993757
   79       -3.245604   0.911830
   80       -3.135884   0.717788
   81       -2.981787   0.303853
   82       -2.842808   0.067316
   83       -2.637749   0.001609
   84       -2.583473   0.000434
   85       -2.496163   0.000040
   86       -2.416991   0.000003
   87       -2.381834   0.000001
   88       -2.266105   0.000000
   89       -2.217198   0.000000
   90       -2.068374   0.000000
   91       -1.770195   0.000000
   92       -1.628505   0.000000
   93       -1.486134   0.000000
   94       -1.364693   0.000000
   95       -1.213159   0.000000
   96       -1.150571   0.000000
   97       -0.996000   0.000000
   98       -0.958886   0.000000
   99       -0.875643   0.000000
  100       -0.785906   0.000000
  101       -0.718702   0.000000
  102       -0.642735   0.000000
  103       -0.566311   0.000000
  104       -0.472058   0.000000
  105       -0.444135   0.000000
  106       -0.333930   0.000000
  107       -0.300292   0.000000
  108        0.013279   0.000000
  109        0.086719   0.000000
  110        0.298247   0.000000
  111        0.436458   0.000000
  112        0.761841   0.000000
  113        0.981228   0.000000
  114        1.134753   0.000000
  115        1.199017   0.000000
  116        1.364195   0.000000
  117        1.444273   0.000000
  118        2.250842   0.000000
  119        2.271124   0.000000
  120        2.384058   0.000000
 
  0.0000000E+00  0.1250000E+00  0.0000000E+00  0.3125000E-01
    1      -17.808777   1.000000
    2      -16.764265   1.000000
    3      -16.624441   1.000000
    4      -16.564874   1.000000
    5      -16.509387   1.000000
    6      -16.362107   1.000000
    7      -16.301488   1.000000
    8      -16.280791   1.000000
    9      -16.175249   1.000000
   10      -16.082503   1.000000
   11      -16.029872   1.000000
   12      -15.909634   1.000000
   13      -15.852121   1.000000
   14      -15.801539   1.000000
   15      -15.614870   1.000000
   16      -15.534406   1.000000
   17      -15.470144   1.000000
   18      -15.373513   1.000000
   19       -9.372534   1.000000
   20       -9.177037   1.000000
   21       -8.923368   1.000000
   22       -8.854920   1.000000
   23       -8.776465   1.000000
   24       -8.635622   1.000000
   25       -8.589145   1.000000
   26       -8.535177   1.000000
   27       -8.486313   1.000000
   28       -8.417364   1.000000
   29       -8.300798   1.000000
   30       -8.245607   1.000000
   31       -8.193062   1.000000
   32       -8.136210   1.000000
   33       -7.997415   1.000000
   34       -7.953856   1.000000
   35       -7.833051   1.000000
   36       -7.746654   1.000000
   37       -7.718621   1.000000
   38       -7.570529   1.000000
   39       -7.502718   1.000000
   40       -7.422417   1.000000
   41       -7.356031   1.000000
   42       -7.210407   1.000000
   43       -7.146611   1.000000
   44       -6.966581   1.000000
   45       -6.852188   1.000000
   46       -6.813056   1.000000
   47       -6.725771   1.000000
   48       -6.618095   1.000000
   49       -6.584794   1.000000
   50       -6.522953   1.000000
   51       -6.428913   1.000000
   52       -6.361173   1.000000
   53       -6.348205   1.000000
   54       -6.299942   1.000000
   55       -6.209923   1.000000
   56       -6.106734   1.000000
   57       -6.030602   1.000000
   58       -5.838209   1.000000
   59       -5.671674   1.000000
   60       -5.573503   1.000000
   61       -5.460899   1.000000
   62       -5.327407   1.000000
   63       -5.283023   1.000000
   64       -5.145286   1.000000
   65       -5.125138   1.000000
   66       -5.048984   1.000000
   67       -4.979453   1.000000
   68       -4.886331   1.000000
   69       -4.669198   1.000000
   70       -4.638737   1.000000
   71       -4.541226   1.000000
   72       -4.355635   1.000000
   73       -4.320483   1.000000
   74       -4.104413   1.000000
   75       -4.052459   1.000000
   76       -3.972529   1.000000
   77       -3.686667   0.999996
   78       -3.642713   0.999984
   79       -3.516437   0.999457
   80       -2.998791   0.347118
   81       -2.923950   0.178181
   82       -2.770617   0.022399
   83       -2.648368   0.002046
   84       -2.509106   0.000058
   85       -2.454949   0.000011
   86       -2.413503   0.000003
   87       -2.286067   0.000000
   88       -2.235515   0.000000
   89       -2.190168   0.000000
   90       -2.072414   0.000000
   91       -1.841520   0.000000
   92       -1.652745   0.000000
   93       -1.570686   0.000000
   94       -1.525490   0.000000
   95       -1.402926   0.000000
   96       -1.243614   0.000000
   97       -1.186165   0.000000
   98       -0.936834   0.000000
   99       -0.769564   0.000000
  100       -0.524077   0.000000
  101       -0.471729   0.000000
  102       -0.402678   0.000000
  103       -0.347485   0.000000
  104       -0.259962   0.000000
  105       -0.101493   0.000000
  106        0.111250   0.000000
  107        0.201389   0.000000
  108        0.280035   0.000000
  109        0.329846   0.000000
  110        0.428703   0.000000
  111        0.517150   0.000000
  112        0.548163   0.000000
  113        0.776570   0.000000
  114        0.820752   0.000000
  115        0.923580   0.000000
  116        1.063189   0.000000
  117        1.135559   0.000000
  118        1.721574   0.000000
  119        1.878253   0.000000
  120        2.223186   0.000000
 
  0.1250000E+00  0.1250000E+00  0.0000000E+00  0.3125000E-01
    1      -17.761745   1.000000
    2      -16.845330   1.000000
    3      -16.776345   1.000000
    4      -16.592184   1.000000
    5      -16.416841   1.000000
    6      -16.389236   1.000000
    7      -16.289607   1.000000
    8      -16.244453   1.000000
    9      -16.169234   1.000000
   10      -16.076344   1.000000
   11      -15.981051   1.000000
   12      -15.909500   1.000000
   13      -15.776463   1.000000
   14      -15.724364   1.000000
   15      -15.662511   1.000000
   16      -15.554086   1.000000
   17      -15.477084   1.000000
   18      -15.390280   1.000000
   19       -9.425137   1.000000
   20       -9.316763   1.000000
   21       -9.054616   1.000000
   22       -9.010907   1.000000
   23       -8.798999   1.000000
   24       -8.655173   1.000000
   25       -8.579933   1.000000
   26       -8.529476   1.000000
   27       -8.489860   1.000000
   28       -8.384536   1.000000
   29       -8.278987   1.000000
   30       -8.250725   1.000000
   31       -8.146250   1.000000
   32       -8.067151   1.000000
   33       -7.985726   1.000000
   34       -7.809203   1.000000
   35       -7.775827   1.000000
   36       -7.698530   1.000000
   37       -7.572102   1.000000
   38       -7.478514   1.000000
   39       -7.404513   1.000000
   40       -7.359007   1.000000
   41       -7.266931   1.000000
   42       -7.186432   1.000000
   43       -7.103929   1.000000
   44       -7.066644   1.000000
   45       -6.895417   1.000000
   46       -6.821337   1.000000
   47       -6.742871   1.000000
   48       -6.704289   1.000000
   49       -6.609693   1.000000
   50       -6.540667   1.000000
   51       -6.448764   1.000000
   52       -6.385362   1.000000
   53       -6.318694   1.000000
   54       -6.254160   1.000000
   55       -6.189153   1.000000
   56       -6.110050   1.000000
   57       -6.008672   1.000000
   58       -5.801445   1.000000
   59       -5.718232   1.000000
   60       -5.481655   1.000000
   61       -5.430577   1.000000
   62       -5.391685   1.000000
   63       -5.378913   1.000000
   64       -5.336765   1.000000
   65       -5.187992   1.000000
   66       -5.031159   1.000000
   67       -4.999396   1.000000
   68       -4.945275   1.000000
   69       -4.865825   1.000000
   70       -4.779054   1.000000
   71       -4.387077   1.000000
   72       -4.268955   1.000000
   73       -4.192889   1.000000
   74       -4.027822   1.000000
   75       -3.929040   1.000000
   76       -3.896254   1.000000
   77       -3.802982   1.000000
   78       -3.742079   0.999999
   79       -3.510429   0.999369
   80       -2.932386   0.194160
   81       -2.833237   0.058937
   82       -2.781081   0.026645
   83       -2.652385   0.002238
   84       -2.587649   0.000483
   85       -2.482264   0.000026
   86       -2.419366   0.000004
   87       -2.308336   0.000000
   88       -2.259009   0.000000
   89       -2.202959   0.000000
   90       -2.063507   0.000000
   91       -1.817438   0.000000
   92       -1.651696   0.000000
   93       -1.520365   0.000000
   94       -1.458779   0.000000
   95       -1.358319   0.000000
   96       -1.205534   0.000000
   97       -1.167035   0.000000
   98       -0.923120   0.000000
   99       -0.748400   0.000000
  100       -0.618775   0.000000
  101       -0.600654   0.000000
  102       -0.513730   0.000000
  103       -0.489026   0.000000
  104       -0.294572   0.000000
  105       -0.107825   0.000000
  106       -0.032071   0.000000
  107        0.021688   0.000000
  108        0.173120   0.000000
  109        0.183733   0.000000
  110        0.431185   0.000000
  111        0.503113   0.000000
  112        0.645726   0.000000
  113        0.820774   0.000000
  114        0.951242   0.000000
  115        1.044938   0.000000
  116        1.148679   0.000000
  117        1.207596   0.000000
  118        1.801902   0.000000
  119        1.955057   0.000000
  120        2.292744   0.000000
 
  0.2500000E+00  0.1250000E+00  0.0000000E+00  0.3125000E-01
    1      -17.674042   1.000000
    2      -17.005952   1.000000
    3      -16.899959   1.000000
    4      -16.563264   1.000000
    5      -16.444513   1.000000
    6      -16.348373   1.000000
    7      -16.310864   1.000000
    8      -16.190380   1.000000
    9      -16.154262   1.000000
   10      -16.030834   1.000000
   11      -15.926145   1.000000
   12      -15.896109   1.000000
   13      -15.768875   1.000000
   14      -15.692947   1.000000
   15      -15.611977   1.000000
   16      -15.571510   1.000000
   17      -15.506054   1.000000
   18      -15.405639   1.000000
   19       -9.615484   1.000000
   20       -9.432639   1.000000
   21       -9.183050   1.000000
   22       -9.049620   1.000000
   23       -8.855354   1.000000
   24       -8.705712   1.000000
   25       -8.528570   1.000000
   26       -8.451313   1.000000
   27       -8.430419   1.000000
   28       -8.344421   1.000000
   29       -8.281056   1.000000
   30       -8.221721   1.000000
   31       -8.154050   1.000000
   32       -8.066991   1.000000
   33       -7.979809   1.000000
   34       -7.879457   1.000000
   35       -7.792562   1.000000
   36       -7.580589   1.000000
   37       -7.419140   1.000000
   38       -7.395580   1.000000
   39       -7.311923   1.000000
   40       -7.267553   1.000000
   41       -7.201549   1.000000
   42       -7.121425   1.000000
   43       -7.035702   1.000000
   44       -6.937399   1.000000
   45       -6.871827   1.000000
   46       -6.810270   1.000000
   47       -6.764461   1.000000