       N       E                     dE             d eps       ncg     rms          rms(c)
DAV:   1     0.112655920595E+04    0.11266E+04   -0.35976E+04  8160   0.577E+02
DAV:   2    -0.213252054624E+01   -0.11287E+04   -0.10869E+04 11240   0.173E+02
DAV:   3    -0.199825510836E+03   -0.19769E+03   -0.19000E+03 10920   0.822E+01
DAV:   4    -0.209042101684E+03   -0.92166E+01   -0.89516E+01 12400   0.262E+01
DAV:   5    -0.209324542132E+03   -0.28244E+00   -0.28155E+00 11200   0.331E+00    0.275E+01
DAV:   6    -0.237085958722E+03   -0.27761E+02   -0.10978E+02 12640   0.604E+01    0.596E+01
DAV:   7    -0.196444863227E+03    0.40641E+02   -0.17748E+02 13440   0.152E+02    0.199E+01
DAV:   8    -0.189403875523E+03    0.70410E+01   -0.17426E+01 11920   0.127E+01    0.126E+01
DAV:   9    -0.188170231427E+03    0.12336E+01   -0.31497E+00 13000   0.637E+00    0.914E+00
DAV:  10    -0.186998962647E+03    0.11713E+01   -0.20868E+00 13440   0.737E+00    0.271E+00
DAV:  11    -0.186967318431E+03    0.31644E-01   -0.59038E-01 13200   0.251E+00    0.274E+00
DAV:  12    -0.187090063644E+03   -0.12275E+00   -0.81832E-01 12240   0.483E+00    0.496E+00
DAV:  13    -0.186881103320E+03    0.20896E+00   -0.54583E-01 12840   0.410E+00    0.211E+00
DAV:  14    -0.186856736567E+03    0.24367E-01   -0.12763E-01 13440   0.206E+00    0.169E+00
DAV:  15    -0.186837071702E+03    0.19665E-01   -0.71330E-02 11760   0.161E+00    0.864E-01
DAV:  16    -0.186829430533E+03    0.76412E-02   -0.12279E-02 11880   0.467E-01    0.449E-01
DAV:  17    -0.186827555159E+03    0.18754E-02   -0.79665E-03 12840   0.431E-01    0.234E-01
DAV:  18    -0.186827092858E+03    0.46230E-03   -0.24494E-03 11840   0.144E-01    0.180E-01
DAV:  19    -0.186826739087E+03    0.35377E-03   -0.98513E-04 10920   0.134E-01    0.479E-02
DAV:  20    -0.186827476812E+03   -0.73773E-03   -0.69430E-04  9480   0.585E-02    0.496E-02
DAV:  21    -0.186828068146E+03   -0.59133E-03   -0.26539E-04  7880   0.450E-02    0.446E-02
DAV:  22    -0.186829234535E+03   -0.11664E-02   -0.21793E-04  7640   0.618E-02    0.399E-02
DAV:  23    -0.186830459615E+03   -0.12251E-02   -0.14514E-04  7440   0.441E-02    0.112E-02
DAV:  24    -0.186831048659E+03   -0.58904E-03   -0.30882E-05  6720   0.141E-02    0.775E-03
DAV:  25    -0.186831414006E+03   -0.36535E-03   -0.15770E-05  5840   0.122E-02    0.492E-03
DAV:  26    -0.186831648433E+03   -0.23443E-03   -0.90175E-06  6760   0.728E-03    0.158E-03
DAV:  27    -0.186831751267E+03   -0.10283E-03   -0.38395E-06  7080   0.481E-03    0.161E-03
DAV:  28    -0.186831792019E+03   -0.40752E-04   -0.20028E-06  7360   0.363E-03
   1 F= -.18683179E+03 E0= -.18665924E+03  d E =-.186832E+03
       N       E                     dE             d eps       ncg     rms          rms(c)
DAV:   1    -0.187459326236E+03   -0.62757E+00   -0.27120E+02  8160   0.350E+01    0.460E+00
DAV:   2    -0.189260663028E+03   -0.18013E+01   -0.20040E+01 12280   0.149E+01    0.789E+00
DAV:   3    -0.189367167659E+03   -0.10650E+00   -0.36212E+00 12440   0.117E+01    0.697E+00
DAV:   4    -0.188724900894E+03    0.64227E+00   -0.65837E-01 12640   0.492E+00    0.178E+00
DAV:   5    -0.188721343253E+03    0.35576E-02   -0.29495E-01 10240   0.142E+00    0.214E+00
DAV:   6    -0.188660225879E+03    0.61117E-01   -0.28280E-01 10680   0.145E+00    0.116E+00
DAV:   7    -0.188642691542E+03    0.17534E-01   -0.80896E-02 11440   0.105E+00    0.819E-01
DAV:   8    -0.188638576543E+03    0.41150E-02   -0.28440E-02 12400   0.933E-01    0.780E-01
DAV:   9    -0.188634119862E+03    0.44567E-02   -0.10620E-02 13080   0.564E-01    0.238E-01
DAV:  10    -0.188633770525E+03    0.34934E-03   -0.28636E-03 12880   0.206E-01    0.151E-01
DAV:  11    -0.188633516819E+03    0.25371E-03   -0.14163E-03 12120   0.127E-01    0.109E-01
DAV:  12    -0.188633854957E+03   -0.33814E-03   -0.99027E-04 10920   0.188E-01    0.216E-01
DAV:  13    -0.188633530947E+03    0.32401E-03   -0.57039E-04  9640   0.148E-01    0.216E-02
DAV:  14    -0.188633638542E+03   -0.10759E-03   -0.68313E-05  7400   0.272E-02    0.303E-02
DAV:  15    -0.188633672580E+03   -0.34038E-04   -0.37903E-05  7600   0.210E-02
   2 F= -.18863367E+03 E0= -.18849137E+03  d E =-.180188E+01
       N       E                     dE             d eps       ncg     rms          rms(c)
DAV:   1    -0.190551987893E+03   -0.19183E+01   -0.30897E+01  9280   0.142E+01    0.446E+00
DAV:   2    -0.190545930931E+03    0.60570E-02   -0.28405E+00 11680   0.972E+00    0.748E+00
DAV:   3    -0.190024517638E+03    0.52141E+00   -0.13436E+00 12320   0.865E+00    0.413E+00
DAV:   4    -0.189819916804E+03    0.20460E+00   -0.69848E-01 12920   0.404E+00    0.247E+00
DAV:   5    -0.189737223141E+03    0.82694E-01   -0.29527E-01 11440   0.198E+00    0.118E+00
DAV:   6    -0.189723063772E+03    0.14159E-01   -0.63922E-02 11920   0.139E+00    0.855E-01
DAV:   7    -0.189717106383E+03    0.59574E-02   -0.15037E-02 12240   0.702E-01    0.215E-01
DAV:   8    -0.189716959557E+03    0.14683E-03   -0.21954E-03 10560   0.171E-01    0.143E-01
DAV:   9    -0.189717175403E+03   -0.21585E-03   -0.10443E-03 11080   0.144E-01    0.160E-01
DAV:  10    -0.189717574277E+03   -0.39887E-03   -0.14388E-03 10160   0.263E-01    0.251E-01
DAV:  11    -0.189716990865E+03    0.58341E-03   -0.83327E-04  9760   0.193E-01    0.268E-02
DAV:  12    -0.189717013391E+03   -0.22526E-04   -0.66958E-05  5720   0.320E-02
   3 F= -.18971701E+03 E0= -.18959717E+03  d E =-.108334E+01
       N       E                     dE             d eps       ncg     rms          rms(c)
DAV:   1    -0.191282132454E+03   -0.15651E+01   -0.71857E+01  8160   0.194E+01    0.464E+00
DAV:   2    -0.191157197974E+03    0.12493E+00   -0.54527E+00 13360   0.833E+00    0.521E+00
DAV:   3    -0.191196998569E+03   -0.39801E-01   -0.16174E+00 12280   0.927E+00    0.650E+00
DAV:   4    -0.190837654216E+03    0.35934E+00   -0.13703E+00 12600   0.737E+00    0.318E+00
DAV:   5    -0.190833400004E+03    0.42542E-02   -0.56378E-01 12000   0.490E+00    0.337E+00
DAV:   6    -0.190688531852E+03    0.14487E+00   -0.21611E-01 12160   0.327E+00    0.841E-01
DAV:   7    -0.190683072804E+03    0.54590E-02   -0.39142E-02 12320   0.907E-01    0.491E-01
DAV:   8    -0.190681546557E+03    0.15262E-02   -0.11063E-02 11680   0.640E-01    0.496E-01
DAV:   9    -0.190679353605E+03    0.21930E-02   -0.39983E-03 11320   0.464E-01    0.157E-01
DAV:  10    -0.190679625837E+03   -0.27223E-03   -0.11871E-03 10520   0.144E-01    0.126E-01
DAV:  11    -0.190679465884E+03    0.15995E-03   -0.87964E-04 10480   0.108E-01    0.485E-02
DAV:  12    -0.190679459782E+03    0.61014E-05   -0.14695E-04  7160   0.453E-02
   4 F= -.19067946E+03 E0= -.19057825E+03  d E =-.962446E+00
       N       E                     dE             d eps       ncg     rms          rms(c)
DAV:   1    -0.192064016271E+03   -0.13846E+01   -0.14996E+02  8160   0.274E+01    0.569E+00
DAV:   2    -0.191841803696E+03    0.22221E+00   -0.94432E+00 12040   0.869E+00    0.450E+00
DAV:   3    -0.192225380463E+03   -0.38358E+00   -0.23900E+00 12200   0.108E+01    0.914E+00
DAV:   4    -0.191561089011E+03    0.66429E+00   -0.23401E+00 12200   0.111E+01    0.353E+00
DAV:   5    -0.191387993374E+03    0.17310E+00   -0.49999E-01 12240   0.349E+00    0.176E+00
DAV:   6    -0.191371173770E+03    0.16820E-01   -0.20052E-01 12520   0.292E+00    0.180E+00
DAV:   7    -0.191347234514E+03    0.23939E-01   -0.10383E-01 12240   0.206E+00    0.675E-01
DAV:   8    -0.191339871706E+03    0.73628E-02   -0.11470E-02 11160   0.538E-01    0.201E-01
DAV:   9    -0.191341189064E+03   -0.13174E-02   -0.38555E-03 12560   0.423E-01    0.379E-01
DAV:  10    -0.191340158979E+03    0.10301E-02   -0.35235E-03 11360   0.406E-01    0.125E-01
DAV:  11    -0.191339992412E+03    0.16657E-03   -0.73880E-04 10440   0.123E-01    0.579E-02
DAV:  12    -0.191339958892E+03    0.33520E-04   -0.13263E-04  7400   0.470E-02
   5 F= -.19133996E+03 E0= -.19124564E+03  d E =-.660499E+00
       N       E                     dE             d eps       ncg     rms          rms(c)
DAV:   1    -0.191426670796E+03   -0.86678E-01   -0.77909E+00  8160   0.589E+00    0.715E-01
DAV:   2    -0.191489327105E+03   -0.62656E-01   -0.31665E-01 13200   0.271E+00    0.223E+00
DAV:   3    -0.191442465186E+03    0.46862E-01   -0.13572E-01 12240   0.241E+00    0.660E-01
DAV:   4    -0.191442894038E+03   -0.42885E-03   -0.20581E-02 11760   0.987E-01    0.724E-01
DAV:   5    -0.191437531911E+03    0.53621E-02   -0.10101E-02 11720   0.765E-01    0.240E-01
DAV:   6    -0.191437080259E+03    0.45165E-03   -0.25837E-03 11000   0.237E-01    0.141E-01
DAV:   7    -0.191436845333E+03    0.23493E-03   -0.14038E-03 10400   0.138E-01    0.824E-02
DAV:   8    -0.191436800333E+03    0.44999E-04   -0.42240E-04  9520   0.131E-01
   6 F= -.19143680E+03 E0= -.19134101E+03  d E =-.968414E-01
       N       E                     dE             d eps       ncg     rms          rms(c)
DAV:   1    -0.191459984362E+03   -0.23139E-01   -0.45492E-01  8160   0.143E+00    0.172E-01
DAV:   2    -0.191463270459E+03   -0.32861E-02   -0.16638E-02 13600   0.641E-01    0.507E-01
DAV:   3    -0.191460635965E+03    0.26345E-02   -0.62726E-03 11440   0.547E-01    0.143E-01
DAV:   4    -0.191460803242E+03   -0.16728E-03   -0.11633E-03 10040   0.235E-01    0.188E-01
DAV:   5    -0.191460460210E+03    0.34303E-03   -0.61848E-04  8720   0.193E-01    0.566E-02
DAV:   6    -0.191460465293E+03   -0.50830E-05   -0.13600E-04  6120   0.655E-02
   7 F= -.19146047E+03 E0= -.19136461E+03  d E =-.236650E-01
       N       E                     dE             d eps       ncg     rms          rms(c)
DAV:   1    -0.191364578528E+03    0.95882E-01   -0.78016E+00  8160   0.593E+00    0.731E-01
DAV:   2    -0.191421120888E+03   -0.56542E-01   -0.28974E-01 13600   0.286E+00    0.204E+00
DAV:   3    -0.191373760152E+03    0.47361E-01   -0.90879E-02 12400   0.224E+00    0.541E-01
DAV:   4    -0.191375949465E+03   -0.21893E-02   -0.18792E-02 10640   0.957E-01    0.761E-01
DAV:   5    -0.191370241398E+03    0.57081E-02   -0.12520E-02 10760   0.823E-01    0.282E-01
DAV:   6    -0.191369820734E+03    0.42066E-03   -0.39913E-03 11680   0.336E-01    0.206E-01
DAV:   7    -0.191370097960E+03   -0.27723E-03   -0.32624E-03 12200   0.393E-01    0.297E-01
DAV:   8    -0.191369180123E+03    0.91784E-03   -0.15990E-03 10080   0.280E-01    0.486E-02
DAV:   9    -0.191369175594E+03    0.45294E-05   -0.95562E-05  5960   0.448E-02
   8 F= -.19136918E+03 E0= -.19127453E+03  d E =0.912897E-01
       N       E                     dE             d eps       ncg     rms          rms(c)
DAV:   1    -0.191322050693E+03    0.47129E-01   -0.47417E+00  8160   0.462E+00    0.442E-01
DAV:   2    -0.191331833596E+03   -0.97829E-02   -0.12228E-01 12520   0.108E+00    0.538E-01
DAV:   3    -0.191332793625E+03   -0.96003E-03   -0.23282E-02 12600   0.101E+00    0.703E-01
DAV:   4    -0.191328579614E+03    0.42140E-02   -0.11059E-02 12000   0.708E-01    0.273E-01
DAV:   5    -0.191327818623E+03    0.76099E-03   -0.31523E-03 10200   0.324E-01    0.214E-01
DAV:   6    -0.191328067672E+03   -0.24905E-03   -0.29792E-03 11960   0.381E-01    0.245E-01
DAV:   7    -0.191327523545E+03    0.54413E-03   -0.15687E-03  9880   0.274E-01    0.126E-01
DAV:   8    -0.191327375865E+03    0.14768E-03   -0.44093E-04  8560   0.155E-01    0.608E-02
DAV:   9    -0.191327337232E+03    0.38633E-04   -0.88835E-05  6680   0.660E-02
   9 F= -.19132734E+03 E0= -.19123350E+03  d E =0.418384E-01
       N       E                     dE             d eps       ncg     rms          rms(c)
DAV:   1    -0.191385329536E+03   -0.57954E-01   -0.52222E+00  8160   0.483E+00    0.539E-01
DAV:   2    -0.191407894113E+03   -0.22565E-01   -0.16474E-01 13320   0.147E+00    0.122E+00
DAV:   3    -0.191395294014E+03    0.12600E-01   -0.59793E-02 12240   0.159E+00    0.659E-01
DAV:   4    -0.191392551833E+03    0.27422E-02   -0.12736E-02 11920   0.699E-01    0.461E-01
DAV:   5    -0.191390693658E+03    0.18582E-02   -0.56705E-03 11320   0.562E-01    0.258E-01
DAV:   6    -0.191390143374E+03    0.55028E-03   -0.25201E-03 12040   0.288E-01    0.142E-01
DAV:   7    -0.191390022665E+03    0.12071E-03   -0.12782E-03 11120   0.190E-01    0.118E-01
DAV:   8    -0.191389939951E+03    0.82713E-04   -0.59465E-04  8960   0.179E-01
  10 F= -.19138994E+03 E0= -.19129421E+03  d E =-.626027E-01
       N       E                     dE             d eps       ncg     rms          rms(c)
DAV:   1    -0.191409094533E+03   -0.19072E-01   -0.39160E-01  8160   0.135E+00    0.216E-01
DAV:   2    -0.191413211100E+03   -0.41166E-02   -0.20158E-02 12760   0.808E-01    0.617E-01
DAV:   3    -0.191409183038E+03    0.40281E-02   -0.87618E-03 11560   0.657E-01    0.149E-01
DAV:   4    -0.191409523082E+03   -0.34004E-03   -0.20397E-03 10120   0.297E-01    0.257E-01
DAV:   5    -0.191408905728E+03    0.61735E-03   -0.14159E-03  9760   0.269E-01    0.892E-02
DAV:   6    -0.191408817015E+03    0.88713E-04   -0.27836E-04  6040   0.858E-02
  11 F= -.19140882E+03 E0= -.19131247E+03  d E =-.188771E-01
       N       E                     dE             d eps       ncg     rms          rms(c)
DAV:   1    -0.191491463725E+03   -0.82558E-01   -0.75360E+00  8160   0.584E+00    0.723E-01
DAV:   2    -0.191552848421E+03   -0.61385E-01   -0.28855E-01 13600   0.288E+00    0.235E+00
DAV:   3    -0.191501767658E+03    0.51081E-01   -0.13751E-01 12280   0.241E+00    0.645E-01
DAV:   4    -0.191503077492E+03   -0.13098E-02   -0.23594E-02 11320   0.106E+00    0.785E-01
DAV:   5    -0.191496853315E+03    0.62242E-02   -0.12268E-02 11840   0.801E-01    0.260E-01
DAV:   6    -0.191496224868E+03    0.62845E-03   -0.35425E-03 11320   0.266E-01    0.152E-01
DAV:   7    -0.191495972557E+03    0.25231E-03   -0.15889E-03 11640   0.187E-01    0.124E-01
DAV:   8    -0.191495851268E+03    0.12129E-03   -0.64990E-04  8920   0.182E-01    0.900E-02
DAV:   9    -0.191495764390E+03    0.86878E-04   -0.16320E-04  6400   0.914E-02
  12 F= -.19149576E+03 E0= -.19139896E+03  d E =-.869474E-01
       N       E                     dE             d eps       ncg     rms          rms(c)
DAV:   1    -0.191241761811E+03    0.25409E+00   -0.57612E+01  8160   0.161E+01    0.174E+00
DAV:   2    -0.191497348571E+03   -0.25559E+00   -0.17349E+00 13160   0.554E+00    0.373E+00
DAV:   3    -0.191319492898E+03    0.17786E+00   -0.36540E-01 11640   0.453E+00    0.145E+00
DAV:   4    -0.191320142539E+03   -0.64964E-03   -0.11421E-01 12360   0.206E+00    0.159E+00
DAV:   5    -0.191297963176E+03    0.22179E-01   -0.67837E-02 11760   0.183E+00    0.794E-01
DAV:   6    -0.191293270472E+03    0.46927E-02   -0.24588E-02 12200   0.946E-01    0.468E-01
DAV:   7    -0.191292197886E+03    0.10726E-02   -0.12429E-02 12760   0.676E-01    0.501E-01
DAV:   8    -0.191289907197E+03    0.22907E-02   -0.55547E-03 11600   0.564E-01    0.181E-01
DAV:   9    -0.191289561726E+03    0.34547E-03   -0.91277E-04 10360   0.168E-01    0.586E-02
DAV:  10    -0.191289513979E+03    0.47747E-04   -0.35232E-04 10240   0.608E-02
  13 F= -.19128951E+03 E0= -.19119694E+03  d E =0.206250E+00
       N       E                     dE             d eps       ncg     rms          rms(c)
DAV:   1    -0.191260437704E+03    0.29124E-01   -0.71666E+00  8160   0.561E+00    0.555E-01
DAV:   2    -0.191275868406E+03   -0.15431E-01   -0.15436E-01 12440   0.137E+00    0.832E-01
DAV:   3    -0.191269629534E+03    0.62389E-02   -0.31565E-02 12880   0.125E+00    0.597E-01
DAV:   4    -0.191266856589E+03    0.27729E-02   -0.11125E-02 12320   0.729E-01    0.340E-01
DAV:   5    -0.191265791502E+03    0.10651E-02   -0.49927E-03 11800   0.461E-01    0.311E-01
DAV:   6    -0.191265535340E+03    0.25616E-03   -0.40321E-03 11080   0.464E-01    0.250E-01
DAV:   7    -0.191264939344E+03    0.59600E-03   -0.14317E-03 10280   0.243E-01    0.667E-02
DAV:   8    -0.191264909798E+03    0.29547E-04   -0.28579E-04  7680   0.107E-01
  14 F= -.19126491E+03 E0= -.19117291E+03  d E =0.246042E-01
       N       E                     dE             d eps       ncg     rms          rms(c)
DAV:   1    -0.191292190099E+03   -0.27251E-01   -0.21223E+00  8160   0.309E+00    0.413E-01
DAV:   2    -0.191308205163E+03   -0.16015E-01   -0.87391E-02 13400   0.154E+00    0.111E+00
DAV:   3    -0.191295065120E+03    0.13140E-01   -0.34030E-02 12240   0.130E+00    0.344E-01
DAV:   4    -0.191294823956E+03    0.24116E-03   -0.67729E-03 11240   0.491E-01    0.369E-01
DAV:   5    -0.191293869795E+03    0.95416E-03   -0.43534E-03 11480   0.462E-01    0.228E-01
DAV:   6    -0.191293239164E+03    0.63063E-03   -0.14254E-03 10080   0.221E-01    0.662E-02
DAV:   7    -0.191293332353E+03   -0.93189E-04   -0.54287E-04 10720   0.119E-01
  15 F= -.19129333E+03 E0= -.19119875E+03  d E =-.284226E-01
       N       E                     dE             d eps       ncg     rms          rms(c)
DAV:   1    -0.191339398833E+03   -0.46160E-01   -0.10997E+01  8160   0.701E+00    0.836E-01
DAV:   2    -0.191397437681E+03   -0.58039E-01   -0.37736E-01 13480   0.288E+00    0.202E+00
DAV:   3    -0.191357572827E+03    0.39865E-01   -0.13912E-01 12320   0.255E+00    0.822E-01
DAV:   4    -0.191353898322E+03    0.36745E-02   -0.29124E-02 12200   0.102E+00    0.720E-01
DAV:   5    -0.191350819633E+03    0.30787E-02   -0.18300E-02 12240   0.947E-01    0.509E-01
DAV:   6    -0.191347870622E+03    0.29490E-02   -0.64563E-03 12280   0.486E-01    0.149E-01
DAV:   7    -0.191347819636E+03    0.50986E-04   -0.18406E-03 10600   0.154E-01    0.812E-02
DAV:   8    -0.191347656050E+03    0.16359E-03   -0.39014E-04 10040   0.862E-02    0.407E-02
DAV:   9    -0.191347680059E+03   -0.24009E-04   -0.15897E-04  6840   0.886E-02
  16 F= -.19134768E+03 E0= -.19124920E+03  d E =-.543477E-01
       N       E                     dE             d eps       ncg     rms          rms(c)
DAV:   1    -0.191358543201E+03   -0.10887E-01   -0.40070E-01  8160   0.139E+00    0.214E-01
DAV:   2    -0.191360552145E+03   -0.20089E-02   -0.17881E-02 13000   0.609E-01    0.410E-01
DAV:   3    -0.191358889231E+03    0.16629E-02   -0.58160E-03 11640   0.550E-01    0.199E-01
DAV:   4    -0.191358583772E+03    0.30546E-03   -0.18650E-03 10040   0.254E-01    0.163E-01
DAV:   5    -0.191358518616E+03    0.65156E-04   -0.12976E-03  9880   0.242E-01    0.168E-01
DAV:   6    -0.191358236764E+03    0.28185E-03   -0.64859E-04  8200   0.173E-01    0.480E-02
DAV:   7    -0.191358218045E+03    0.18719E-04   -0.14532E-04  5640   0.577E-02
  17 F= -.19135822E+03 E0= -.19125963E+03  d E =-.105380E-01
       N       E                     dE             d eps       ncg     rms          rms(c)
DAV:   1    -0.191383525581E+03   -0.25289E-01   -0.21394E+00  8160   0.313E+00    0.370E-01
DAV:   2    -0.191391701500E+03   -0.81759E-02   -0.69697E-02 13600   0.108E+00    0.694E-01
DAV:   3    -0.191387248424E+03    0.44531E-02   -0.20269E-02 12280   0.992E-01    0.402E-01
DAV:   4    -0.191386126430E+03    0.11220E-02   -0.59286E-03 12120   0.464E-01    0.286E-01
DAV:   5    -0.191385794553E+03    0.33188E-03   -0.34811E-03 11160   0.413E-01    0.261E-01
DAV:   6    -0.191385108982E+03    0.68557E-03   -0.16008E-03  9720   0.265E-01    0.760E-02
DAV:   7    -0.191385168161E+03   -0.59179E-04   -0.51217E-04 10400   0.123E-01
  18 F= -.19138517E+03 E0= -.19128662E+03  d E =-.269501E-01
       N       E                     dE             d eps       ncg     rms          rms(c)
DAV:   1    -0.191370388410E+03    0.14721E-01   -0.70351E-01  8160   0.180E+00    0.231E-01
DAV:   2    -0.191373843140E+03   -0.34547E-02   -0.24778E-02 12920   0.738E-01    0.515E-01
DAV:   3    -0.191371195570E+03    0.26476E-02   -0.78166E-03 11880   0.644E-01    0.225E-01
DAV:   4    -0.191371000440E+03    0.19513E-03   -0.22974E-03  9760   0.306E-01    0.207E-01
DAV:   5    -0.191370705469E+03    0.29497E-03   -0.14393E-03  9640   0.276E-01    0.139E-01
DAV:   6    -0.191370487382E+03    0.21809E-03   -0.56732E-04  9200   0.145E-01    0.519E-02
DAV:   7    -0.191370586338E+03   -0.98956E-04   -0.36529E-04  8320   0.132E-01
  19 F= -.19137059E+03 E0= -.19127178E+03  d E =0.145818E-01
       N       E                     dE             d eps       ncg     rms          rms(c)
DAV:   1    -0.191356630646E+03    0.13857E-01   -0.60282E-01  8160   0.167E+00    0.186E-01
DAV:   2    -0.191358441319E+03   -0.18107E-02   -0.18125E-02 13520   0.483E-01    0.306E-01
DAV:   3    -0.191357864771E+03    0.57655E-03   -0.49458E-03 11880   0.461E-01    0.256E-01
DAV:   4    -0.191357420158E+03    0.44461E-03   -0.20255E-03  9960   0.274E-01    0.146E-01
DAV:   5    -0.191357293345E+03    0.12681E-03   -0.78709E-04  8720   0.200E-01    0.119E-01
DAV:   6    -0.191357158659E+03    0.13469E-03   -0.41118E-04  8440   0.144E-01    0.478E-02
DAV:   7    -0.191357166041E+03   -0.73818E-05   -0.12985E-04  6720   0.692E-02
  20 F= -.19135717E+03 E0= -.19125838E+03  d E =0.134203E-01
       N       E                     dE             d eps       ncg     rms          rms(c)
DAV:   1    -0.191367953902E+03   -0.10795E-01   -0.50576E-01  8160   0.151E+00    0.180E-01
DAV:   2    -0.191370612846E+03   -0.26589E-02   -0.16941E-02 13600   0.598E-01    0.430E-01
DAV:   3    -0.191368763843E+03    0.18490E-02   -0.60584E-03 11840   0.547E-01    0.190E-01
DAV:   4    -0.191368540884E+03    0.22296E-03   -0.14002E-03  9640   0.230E-01    0.142E-01
DAV:   5    -0.191368408231E+03    0.13265E-03   -0.65178E-04  8520   0.185E-01    0.988E-02
DAV:   6    -0.191368309322E+03    0.98909E-04   -0.29683E-04  7440   0.113E-01
  21 F= -.19136831E+03 E0= -.19126910E+03  d E =-.111433E-01
       N       E                     dE             d eps       ncg     rms          rms(c)
DAV:   1    -0.191361004441E+03    0.74038E-02   -0.13983E+00  8160   0.248E+00    0.295E-01
DAV:   2    -0.191373377877E+03   -0.12373E-01   -0.46623E-02 13280   0.117E+00    0.102E+00
DAV:   3    -0.191362331375E+03    0.11047E-01   -0.19460E-02 11760   0.105E+00    0.203E-01
DAV:   4    -0.191362275002E+03    0.56373E-04   -0.20311E-03 11120   0.274E-01    0.187E-01
DAV:   5    -0.191361959804E+03    0.31520E-03   -0.11950E-03 11360   0.257E-01    0.124E-01
DAV:   6    -0.191361847371E+03    0.11243E-03   -0.61868E-04  8920   0.153E-01    0.760E-02
DAV:   7    -0.191361938919E+03   -0.91547E-04   -0.52168E-04  8360   0.149E-01
  22 F= -.19136194E+03 E0= -.19126364E+03  d E =0.637040E-02
       N       E                     dE             d eps       ncg     rms          rms(c)
DAV:   1    -0.191359425853E+03    0.24215E-02   -0.38396E-01  8160   0.130E+00    0.122E-01
DAV:   2    -0.191360488129E+03   -0.10623E-02   -0.77766E-03 12920   0.335E-01    0.277E-01
DAV:   3    -0.191359842870E+03    0.64526E-03   -0.22178E-03 10080   0.336E-01    0.129E-01
DAV:   4    -0.191359706734E+03    0.13614E-03   -0.40814E-04  8400   0.115E-01    0.611E-02
DAV:   5    -0.191359737215E+03   -0.30481E-04   -0.29320E-04  7600   0.120E-01
  23 F= -.19135974E+03 E0= -.19126089E+03  d E =0.220170E-02
       N       E                     dE             d eps       ncg     rms          rms(c)
DAV:   1    -0.191384968853E+03   -0.25262E-01   -0.17641E+00  8160   0.288E+00    0.410E-01
DAV:   2    -0.191397412164E+03   -0.12443E-01   -0.78931E-02 13440   0.135E+00    0.101E+00
DAV:   3    -0.191387546699E+03    0.98655E-02   -0.31023E-02 12280   0.123E+00    0.393E-01
DAV:   4    -0.191386932655E+03    0.61404E-03   -0.73417E-03 11360   0.537E-01    0.358E-01
DAV:   5    -0.191385921514E+03    0.10111E-02   -0.39276E-03 10920   0.459E-01    0.233E-01
DAV:   6    -0.191385345410E+03    0.57610E-03   -0.18001E-03 11000   0.261E-01    0.111E-01
DAV:   7    -0.191385636452E+03   -0.29104E-03   -0.13156E-03 10240   0.252E-01    0.202E-01
DAV:   8    -0.191385214582E+03    0.42187E-03   -0.69246E-04  8280   0.191E-01    0.330E-02
DAV:   9    -0.191385212241E+03    0.23408E-05   -0.58364E-05  5600   0.361E-02
  24 F= -.19138521E+03 E0= -.19128624E+03  d E =-.254750E-01
       N       E                     dE             d eps       ncg     rms          rms(c)
DAV:   1    -0.191396022698E+03   -0.10808E-01   -0.50783E-01  8160   0.152E+00    0.171E-01
DAV:   2    -0.191397915456E+03   -0.18928E-02   -0.15057E-02 13400   0.464E-01    0.339E-01
DAV:   3    -0.191396976503E+03    0.93895E-03   -0.45707E-03 11680   0.479E-01    0.216E-01
DAV:   4    -0.191396608029E+03    0.36847E-03   -0.12048E-03  9520   0.225E-01    0.108E-01
DAV:   5    -0.191396536968E+03    0.71062E-04   -0.45734E-04  8320   0.153E-01
  25 F= -.19139654E+03 E0= -.19129748E+03  d E =-.113247E-01
       N       E                     dE             d eps       ncg     rms          rms(c)
DAV:   1    -0.191407722111E+03   -0.11114E-01   -0.82472E-01  8160   0.193E+00    0.205E-01
DAV:   2    -0.191411202937E+03   -0.34808E-02   -0.22324E-02 13600   0.612E-01    0.533E-01
DAV:   3    -0.191408796606E+03    0.24063E-02   -0.77246E-03 11200   0.584E-01    0.208E-01
DAV:   4    -0.191408576472E+03    0.22013E-03   -0.13274E-03  9680   0.215E-01    0.138E-01
DAV:   5    -0.191408452602E+03    0.12387E-03   -0.81062E-04 10440   0.207E-01    0.117E-01
DAV:   6    -0.191408386892E+03    0.65710E-04   -0.55128E-04  9080   0.162E-01
  26 F= -.19140839E+03 E0= -.19131051E+03  d E =-.118499E-01
       N       E                     dE             d eps       ncg     rms          rms(c)
DAV:   1    -0.191420193657E+03   -0.11741E-01   -0.13460E+00  8160   0.247E+00    0.304E-01
DAV:   2    -0.191425044620E+03   -0.48510E-02   -0.38687E-02 13600   0.917E-01    0.613E-01
DAV:   3    -0.191421115179E+03    0.39294E-02   -0.11009E-02 12120   0.794E-01    0.245E-01
DAV:   4    -0.191420547923E+03    0.56726E-03   -0.24520E-03 11200   0.289E-01    0.171E-01
DAV:   5    -0.191420588315E+03   -0.40393E-04   -0.19204E-03 10160   0.301E-01    0.227E-01
DAV:   6    -0.191420158517E+03    0.42980E-03   -0.14458E-03  9520   0.267E-01    0.958E-02
DAV:   7    -0.191420086987E+03    0.71529E-04   -0.35552E-04  7200   0.105E-01
  27 F= -.19142009E+03 E0= -.19132155E+03  d E =-.117001E-01
       N       E                     dE             d eps       ncg     rms          rms(c)
DAV:   1    -0.191432050844E+03   -0.11892E-01   -0.30941E-01  8160   0.120E+00    0.170E-01
DAV:   2    -0.191435922592E+03   -0.38717E-02   -0.14806E-02 12800   0.646E-01    0.593E-01
DAV:   3    -0.191432380123E+03    0.35425E-02   -0.72747E-03 11480   0.602E-01    0.125E-01
DAV:   4    -0.191432368770E+03    0.11354E-04   -0.82619E-04  9600   0.150E-01
  28 F= -.19143237E+03 E0= -.19133463E+03  d E =-.122818E-01
       N       E                     dE             d eps       ncg     rms          rms(c)
DAV:   1    -0.191421376432E+03    0.11004E-01   -0.38605E-01  8160   0.139E+00    0.269E-01
DAV:   2    -0.191431046062E+03   -0.96696E-02   -0.31056E-02 12520   0.116E+00    0.969E-01
DAV:   3    -0.191420877063E+03    0.10169E-01   -0.15733E-02 10880   0.958E-01    0.164E-01
DAV:   4    -0.191421072822E+03   -0.19576E-03   -0.18313E-03  9680   0.303E-01    0.215E-01
DAV:   5    -0.191420658854E+03    0.41397E-03   -0.15799E-03  9800   0.279E-01    0.128E-01
DAV:   6    -0.191420635841E+03    0.23013E-04   -0.86185E-04  9000   0.184E-01
  29 F= -.19142064E+03 E0= -.19132218E+03  d E =0.117329E-01
       N       E                     dE             d eps       ncg     rms          rms(c)
DAV:   1    -0.191331857762E+03    0.88801E-01   -0.23271E+01  8160   0.104E+01    0.137E+00
DAV:   2    -0.191514593016E+03   -0.18274E+00   -0.88567E-01 13280   0.471E+00    0.416E+00
DAV:   3    -0.191364883467E+03    0.14971E+00   -0.44980E-01 11960   0.449E+00    0.133E+00
DAV:   4    -0.191358039363E+03    0.68441E-02   -0.76946E-02 12200   0.171E+00    0.127E+00
DAV:   5    -0.191348151228E+03    0.98881E-02   -0.59173E-02 12160   0.170E+00    0.939E-01
DAV:   6    -0.191340647803E+03    0.75034E-02   -0.26262E-02 12040   0.996E-01    0.538E-01
DAV:   7    -0.191340228960E+03    0.41884E-03   -0.16003E-02 12160   0.852E-01    0.489E-01
DAV:   8    -0.191337437980E+03    0.27910E-02   -0.62620E-03 12120   0.515E-01    0.105E-01
DAV:   9    -0.191337262983E+03    0.17500E-03   -0.74227E-04 10760   0.112E-01    0.439E-02
DAV:  10    -0.191337254132E+03    0.88508E-05   -0.15576E-04  8160   0.464E-02
  30 F= -.19133725E+03 E0= -.19123734E+03  d E =0.833817E-01
       N       E                     dE             d eps       ncg     rms          rms(c)
DAV:   1    -0.191376198344E+03   -0.38935E-01   -0.42489E+00  8160   0.452E+00    0.698E-01
DAV:   2    -0.191409127847E+03   -0.32930E-01   -0.18688E-01 13160   0.222E+00    0.179E+00
DAV:   3    -0.191378578103E+03    0.30550E-01   -0.85968E-02 12240   0.209E+00    0.633E-01
DAV:   4    -0.191377282417E+03    0.12957E-02   -0.20972E-02 12000   0.926E-01    0.637E-01
DAV:   5    -0.191374069090E+03    0.32133E-02   -0.12930E-02 10760   0.800E-01    0.417E-01
DAV:   6    -0.191371976349E+03    0.20927E-02   -0.61900E-03 11680   0.470E-01    0.166E-01
DAV:   7    -0.191372337062E+03   -0.36071E-03   -0.29961E-03 11320   0.324E-01    0.270E-01
DAV:   8    -0.191371665928E+03    0.67113E-03   -0.16720E-03  9760   0.269E-01    0.791E-02
DAV:   9    -0.191371591489E+03    0.74439E-04   -0.18235E-04  6320   0.701E-02
  31 F= -.19137159E+03 E0= -.19127016E+03  d E =-.343374E-01
       N       E                     dE             d eps       ncg     rms          rms(c)
DAV:   1    -0.191353382925E+03    0.18283E-01   -0.36629E+00  8160   0.413E+00    0.515E-01
DAV:   2    -0.191369572263E+03   -0.16189E-01   -0.11360E-01 13600   0.155E+00    0.118E+00
DAV:   3    -0.191357334239E+03    0.12238E-01   -0.40055E-02 12280   0.143E+00    0.540E-01
DAV:   4    -0.191356034338E+03    0.12999E-02   -0.10705E-02 11120   0.652E-01    0.432E-01
DAV:   5    -0.191354659973E+03    0.13744E-02   -0.71636E-03 10320   0.589E-01    0.333E-01
DAV:   6    -0.191353911413E+03    0.74856E-03   -0.37909E-03 11600   0.397E-01    0.212E-01
DAV:   7    -0.191353984222E+03   -0.72809E-04   -0.27465E-03 10040   0.332E-01    0.231E-01
DAV:   8    -0.191353427753E+03    0.55647E-03   -0.12001E-03  9160   0.219E-01    0.420E-02
DAV:   9    -0.191353418201E+03    0.95519E-05   -0.97269E-05  6400   0.464E-02
  32 F= -.19135342E+03 E0= -.19125177E+03  d E =0.181733E-01
       N       E                     dE             d eps       ncg     rms          rms(c)
DAV:   1    -0.191380237891E+03   -0.26810E-01   -0.26901E+00  8160   0.354E+00    0.454E-01
DAV:   2    -0.191394171137E+03   -0.13933E-01   -0.95105E-02 13400   0.136E+00    0.102E+00
DAV:   3    -0.191384368537E+03    0.98026E-02   -0.34314E-02 12240   0.130E+00    0.490E-01
DAV:   4    -0.191383233851E+03    0.11347E-02   -0.10229E-02 11360   0.618E-01    0.404E-01
DAV:   5    -0.191382020934E+03    0.12129E-02   -0.54573E-03 10760   0.506E-01    0.280E-01
DAV:   6    -0.191381200448E+03    0.82049E-03   -0.25254E-03 11800   0.316E-01    0.131E-01
DAV:   7    -0.191381654913E+03   -0.45446E-03   -0.19622E-03 10200   0.289E-01    0.248E-01
DAV:   8    -0.191381034005E+03    0.62091E-03   -0.11208E-03  8840   0.229E-01    0.407E-02
DAV:   9    -0.191381025965E+03    0.80404E-05   -0.74860E-05  5680   0.427E-02
  33 F= -.19138103E+03 E0= -.19127880E+03  d E =-.276078E-01
       N       E                     dE             d eps       ncg     rms          rms(c)
DAV:   1    -0.191330032822E+03    0.51001E-01   -0.80927E+00  8160   0.609E+00    0.712E-01
DAV:   2    -0.191364516231E+03   -0.34483E-01   -0.25148E-01 13600   0.205E+00    0.148E+00
DAV:   3    -0.191343527244E+03    0.20989E-01   -0.75754E-02 12240   0.195E+00    0.845E-01
DAV:   4    -0.191339795612E+03    0.37316E-02   -0.25961E-02 12400   0.991E-01    0.618E-01
DAV:   5    -0.191336934623E+03    0.28610E-02   -0.12776E-02 11680   0.775E-01    0.427E-01
DAV:   6    -0.191335068504E+03    0.18661E-02   -0.55782E-03 11720   0.489E-01    0.198E-01
DAV:   7    -0.191336240068E+03   -0.11716E-02   -0.43983E-03 11720   0.446E-01    0.394E-01
DAV:   8    -0.191334682500E+03    0.15576E-02   -0.27864E-03  9760   0.366E-01    0.629E-02
DAV:   9    -0.191334657293E+03    0.25207E-04   -0.16831E-04  6400   0.632E-02
  34 F= -.19133466E+03 E0= -.19123360E+03  d E =0.463687E-01
       N       E                     dE             d eps       ncg     rms          rms(c)
DAV:   1    -0.191330613415E+03    0.40691E-02   -0.80473E-01  8160   0.191E+00    0.214E-01
DAV:   2    -0.191332611047E+03   -0.19976E-02   -0.22370E-02 13600   0.518E-01    0.332E-01
DAV:   3    -0.191332136687E+03    0.47436E-03   -0.57737E-03 12520   0.537E-01    0.318E-01
DAV:   4    -0.191331258133E+03    0.87855E-03   -0.21359E-03 10800   0.316E-01    0.120E-01
DAV:   5    -0.191331076532E+03    0.18160E-03   -0.69673E-04 10080   0.143E-01    0.912E-02
DAV:   6    -0.191331177115E+03   -0.10058E-03   -0.73040E-04  9360   0.186E-01    0.139E-01
DAV:   7    -0.191331017494E+03    0.15962E-03   -0.48678E-04  7640   0.143E-01    0.581E-02
DAV:   8    -0.191330995673E+03    0.21821E-04   -0.12230E-04  5720   0.749E-02
  35 F= -.19133100E+03 E0= -.19122923E+03  d E =0.366162E-02
       N       E                     dE             d eps       ncg     rms          rms(c)
DAV:   1    -0.191326756319E+03    0.42612E-02   -0.10770E+00  8160   0.221E+00    0.233E-01
DAV:   2    -0.191330613687E+03   -0.38574E-02   -0.27519E-02 13400   0.708E-01    0.500E-01
DAV:   3    -0.191328227364E+03    0.23863E-02   -0.74166E-03 11880   0.640E-01    0.256E-01
DAV:   4    -0.191327887891E+03    0.33947E-03   -0.20117E-03 11000   0.301E-01    0.182E-01
DAV:   5    -0.191327651465E+03    0.23643E-03   -0.11865E-03 10040   0.245E-01    0.139E-01
DAV:   6    -0.191327474840E+03    0.17662E-03   -0.54690E-04  8800   0.162E-01    0.530E-02
DAV:   7    -0.191327455735E+03    0.19105E-04   -0.14959E-04  6560   0.615E-02
  36 F= -.19132746E+03 E0= -.19122553E+03  d E =0.353994E-02
       N       E                     dE             d eps       ncg     rms          rms(c)
DAV:   1    -0.191337825769E+03   -0.10351E-01   -0.77660E-01  8160   0.190E+00    0.249E-01
DAV:   2    -0.191341478614E+03   -0.36528E-02   -0.29548E-02 13560   0.707E-01    0.473E-01
DAV:   3    -0.191339077884E+03    0.24007E-02   -0.88261E-03 12160   0.657E-01    0.254E-01
DAV:   4    -0.191338462212E+03    0.61567E-03   -0.22288E-03 11640   0.286E-01    0.134E-01
DAV:   5    -0.191338386360E+03    0.75852E-04   -0.10069E-03  9720   0.210E-01    0.160E-01
DAV:   6    -0.191338189587E+03    0.19677E-03   -0.69699E-04  8280   0.199E-01    0.789E-02
DAV:   7    -0.191338148601E+03    0.40986E-04   -0.18678E-04  5880   0.843E-02
  37 F= -.19133815E+03 E0= -.19123555E+03  d E =-.106929E-01
       N       E                     dE             d eps       ncg     rms          rms(c)
DAV:   1    -0.191349273348E+03   -0.11084E-01   -0.92158E-01  8160   0.207E+00    0.267E-01
DAV:   2    -0.191353126643E+03   -0.38533E-02   -0.35539E-02 13600   0.708E-01    0.454E-01
DAV:   3    -0.191351181641E+03    0.19450E-02   -0.93553E-03 12360   0.672E-01    0.305E-01
DAV:   4    -0.191350400339E+03    0.78130E-03   -0.28494E-03 12000   0.346E-01    0.170E-01
DAV:   5    -0.191350304936E+03    0.95403E-04   -0.13910E-03  9680   0.262E-01    0.187E-01
DAV:   6    -0.191349985032E+03    0.31990E-03   -0.89249E-04  8520   0.214E-01    0.707E-02
DAV:   7    -0.191349990851E+03   -0.58187E-05   -0.27745E-04  7280   0.918E-02
  38 F= -.19134999E+03 E0= -.19124671E+03  d E =-.118422E-01
       N       E                     dE             d eps       ncg     rms          rms(c)
DAV:   1    -0.191354037376E+03   -0.40523E-02   -0.10926E-01  8160   0.719E-01    0.106E-01
DAV:   2    -0.191355250661E+03   -0.12133E-02   -0.55471E-03 13360   0.337E-01    0.336E-01
DAV:   3    -0.191354191115E+03    0.10595E-02   -0.28787E-03  9800   0.340E-01    0.110E-01
DAV:   4    -0.191354147514E+03    0.43601E-04   -0.48039E-04  8240   0.121E-01
  39 F= -.19135415E+03 E0= -.19125090E+03  d E =-.415666E-02
       N       E                     dE             d eps       ncg     rms          rms(c)
DAV:   1    -0.191342394002E+03    0.11797E-01   -0.95451E-01  8160   0.210E+00    0.247E-01
DAV:   2    -0.191346894072E+03   -0.45001E-02   -0.28125E-02 13600   0.719E-01    0.554E-01
DAV:   3    -0.191343367307E+03    0.35268E-02   -0.90216E-03 12280   0.679E-01    0.218E-01
DAV:   4    -0.191343125994E+03    0.24131E-03   -0.20852E-03 10600   0.269E-01    0.167E-01
DAV:   5    -0.191343004958E+03    0.12104E-03   -0.12121E-03  9680   0.255E-01    0.169E-01
DAV:   6    -0.191342722702E+03    0.28226E-03   -0.66791E-04  8160   0.186E-01    0.574E-02
DAV:   7    -0.191342711729E+03    0.10974E-04   -0.15172E-04  6600   0.684E-02
  40 F= -.19134271E+03 E0= -.19123938E+03  d E =0.114358E-01
       N       E                     dE             d eps       ncg     rms          rms(c)
DAV:   1    -0.191349447420E+03   -0.67247E-02   -0.47969E-01  8160   0.147E+00    0.165E-01
DAV:   2    -0.191350881363E+03   -0.14339E-02   -0.11993E-02 13520   0.405E-01    0.287E-01
DAV:   3    -0.191350106345E+03    0.77502E-03   -0.37647E-03 11920   0.422E-01    0.217E-01
DAV:   4    -0.191349701861E+03    0.40448E-03   -0.12137E-03  9960   0.230E-01    0.106E-01
DAV:   5    -0.191349717008E+03   -0.15147E-04   -0.57568E-04  8320   0.173E-01
  41 F= -.19134972E+03 E0= -.19124611E+03  d E =-.700528E-02
       N       E                     dE             d eps       ncg     rms          rms(c)
DAV:   1    -0.191353083380E+03   -0.33815E-02   -0.81602E-02  8160   0.628E-01    0.105E-01
DAV:   2    -0.191353889974E+03   -0.80659E-03   -0.39203E-03 11960   0.339E-01    0.269E-01
DAV:   3    -0.191353084527E+03    0.80545E-03   -0.16695E-03 10000   0.306E-01    0.752E-02
DAV:   4    -0.191353132883E+03   -0.48356E-04   -0.39057E-04  7960   0.123E-01
  42 F= -.19135313E+03 E0= -.19124967E+03  d E =-.341587E-02
       N       E                     dE             d eps       ncg     rms          rms(c)
DAV:   1    -0.191364986753E+03   -0.11902E-01   -0.95194E-01  8160   0.212E+00    0.282E-01
DAV:   2    -0.191367696491E+03   -0.27097E-02   -0.32886E-02 13600   0.628E-01    0.378E-01
DAV:   3    -0.191366522367E+03    0.11741E-02   -0.82986E-03 12240   0.618E-01    0.323E-01
DAV:   4    -0.191365602314E+03    0.92005E-03   -0.31342E-03 12160   0.392E-01    0.175E-01
DAV:   5    -0.191365396559E+03    0.20575E-03   -0.15301E-03  9760   0.238E-01    0.184E-01
DAV:   6    -0.191365220883E+03    0.17568E-03   -0.13786E-03  9560   0.234E-01    0.120E-01
DAV:   7    -0.191365109447E+03    0.11144E-03   -0.40263E-04  8280   0.113E-01    0.450E-02
DAV:   8    -0.191365110308E+03   -0.86156E-06   -0.12975E-04  6760   0.833E-02
  43 F= -.19136511E+03 E0= -.19126137E+03  d E =-.119774E-01
       N       E                     dE             d eps       ncg     rms          rms(c)
DAV:   1    -0.191367991378E+03   -0.28819E-02   -0.51063E-02  8160   0.491E-01    0.587E-02
DAV:   2    -0.191368115253E+03   -0.12387E-03   -0.16902E-03 12440   0.120E-01    0.676E-02
DAV:   3    -0.191368123943E+03   -0.86904E-05   -0.39326E-04  9080   0.128E-01
  44 F= -.19136812E+03 E0= -.19126436E+03  d E =-.301363E-02
       N       E                     dE             d eps       ncg     rms          rms(c)
DAV:   1    -0.191361177932E+03    0.69373E-02   -0.34470E-01  8160   0.128E+00    0.194E-01
DAV:   2    -0.191367323640E+03   -0.61457E-02   -0.21314E-02 12560   0.818E-01    0.812E-01
DAV:   3    -0.191361376098E+03    0.59475E-02   -0.12112E-02 11360   0.712E-01    0.131E-01
DAV:   4    -0.191361488910E+03   -0.11281E-03   -0.11930E-03  9920   0.224E-01    0.161E-01
DAV:   5    -0.191361216754E+03    0.27216E-03   -0.68740E-04  8720   0.192E-01    0.749E-02
DAV:   6    -0.191361164963E+03    0.51792E-04   -0.22091E-04  6720   0.867E-02
  45 F= -.19136116E+03 E0= -.19125730E+03  d E =0.695898E-02
       N       E                     dE             d eps       ncg     rms          rms(c)
DAV:   1    -0.191350642260E+03    0.10574E-01   -0.89964E-01  8160   0.205E+00    0.256E-01
DAV:   2    -0.191356402934E+03   -0.57607E-02   -0.31973E-02 12680   0.797E-01    0.737E-01
DAV:   3    -0.191351787183E+03    0.46158E-02   -0.14495E-02 11760   0.760E-01    0.257E-01
DAV:   4    -0.191351572827E+03    0.21436E-03   -0.29521E-03 10280   0.294E-01    0.210E-01
DAV:   5    -0.191351180580E+03    0.39225E-03   -0.14352E-03 10520   0.266E-01    0.142E-01
DAV:   6    -0.191350965302E+03    0.21528E-03   -0.68791E-04  8800   0.180E-01    0.619E-02
DAV:   7    -0.191350952079E+03    0.13224E-04   -0.21993E-04  7280   0.807E-02
  46 F= -.19135095E+03 E0= -.19124666E+03  d E =0.102129E-01
       N       E                     dE             d eps       ncg     rms          rms(c)
DAV:   1    -0.191354287517E+03   -0.33222E-02   -0.20455E-01  8160   0.966E-01    0.128E-01
DAV:   2    -0.191356397610E+03   -0.21101E-02   -0.10563E-02 12840   0.470E-01    0.414E-01
DAV:   3    -0.191354778371E+03    0.16192E-02   -0.38431E-03 10880   0.425E-01    0.115E-01
DAV:   4    -0.191354695000E+03    0.83371E-04   -0.60550E-04  9000   0.136E-01
  47 F= -.19135470E+03 E0= -.19125020E+03  d E =-.374292E-02
       N       E                     dE             d eps       ncg     rms          rms(c)
DAV:   1    -0.191361338252E+03   -0.65599E-02   -0.34595E-01  8160   0.129E+00    0.188E-01
DAV:   2    -0.191363782069E+03   -0.24438E-02   -0.14948E-02 13240   0.529E-01    0.473E-01
DAV:   3    -0.191361829690E+03    0.19524E-02   -0.69769E-03 11280   0.545E-01    0.220E-01
DAV:   4    -0.191361469290E+03    0.36040E-03   -0.16246E-03  9680   0.220E-01    0.112E-01
DAV:   5    -0.191361432098E+03    0.37192E-04   -0.69958E-04  9120   0.169E-01
  48 F= -.19136143E+03 E0= -.19125649E+03  d E =-.673710E-02
       N       E                     dE             d eps       ncg     rms          rms(c)
DAV:   1    -0.191354543332E+03    0.69260E-02   -0.43866E-01  8160   0.146E+00    0.205E-01
DAV:   2    -0.191358241623E+03   -0.36983E-02   -0.19502E-02 12880   0.637E-01    0.585E-01
DAV:   3    -0.191355027653E+03    0.32140E-02   -0.90938E-03 11320   0.623E-01    0.213E-01
DAV:   4    -0.191354829427E+03    0.19823E-03   -0.19906E-03  9880   0.251E-01    0.164E-01
DAV:   5    -0.191354675550E+03    0.15388E-03   -0.11160E-03  9600   0.219E-01    0.140E-01
DAV:   6    -0.191354472608E+03    0.20294E-03   -0.54928E-04  8160   0.155E-01    0.630E-02
DAV:   7    -0.191354527528E+03   -0.54920E-04   -0.30817E-04  8320   0.128E-01
  49 F= -.19135453E+03 E0= -.19124966E+03  d E =0.690457E-02
       N       E                     dE             d eps       ncg     rms          rms(c)
DAV:   1    -0.191362253474E+03   -0.77809E-02   -0.45788E-01  8160   0.149E+00    0.242E-01
DAV:   2    -0.191364002707E+03   -0.17492E-02   -0.20985E-02 12680   0.610E-01    0.416E-01
DAV:   3    -0.191362723666E+03    0.12790E-02   -0.69873E-03 11760   0.601E-01    0.282E-01
DAV:   4    -0.191362088286E+03    0.63538E-03   -0.27899E-03 11040   0.345E-01    0.199E-01
DAV:   5    -0.191361915507E+03    0.17278E-03   -0.16332E-03  9720   0.284E-01    0.174E-01
DAV:   6    -0.191361595228E+03    0.32028E-03   -0.97878E-04  9520   0.199E-01    0.686E-02
DAV:   7    -0.191361621081E+03   -0.25853E-04   -0.38402E-04  7280   0.115E-01
  50 F= -.19136162E+03 E0= -.19125618E+03  d E =-.709355E-02
       N       E                     dE             d eps       ncg     rms          rms(c)
DAV:   1    -0.191351055828E+03    0.10539E-01   -0.45971E+00  8160   0.465E+00    0.653E-01
DAV:   2    -0.191374858837E+03   -0.23803E-01   -0.16739E-01 12720   0.186E+00    0.155E+00
DAV:   3    -0.191354679280E+03    0.20180E-01   -0.74850E-02 12400   0.179E+00    0.722E-01
DAV:   4    -0.191353808079E+03    0.87120E-03   -0.23632E-02 11200   0.944E-01    0.698E-01
DAV:   5    -0.191349633418E+03    0.41747E-02   -0.15095E-02 11800   0.828E-01    0.358E-01
DAV:   6    -0.191348094530E+03    0.15389E-02   -0.50121E-03 11600   0.397E-01    0.133E-01
DAV:   7    -0.191348088862E+03    0.56675E-05   -0.17092E-03 12600   0.221E-01    0.161E-01
DAV:   8    -0.191347913141E+03    0.17572E-03   -0.87518E-04  8920   0.217E-01    0.104E-01
DAV:   9    -0.191347796905E+03    0.11624E-03   -0.22889E-04  7400   0.102E-01    0.239E-02
DAV:  10    -0.191347808126E+03   -0.11221E-04   -0.50280E-05  6480   0.294E-02
  51 F= -.19134781E+03 E0= -.19124194E+03  d E =0.138130E-01
       N       E                     dE             d eps       ncg     rms          rms(c)
DAV:   1    -0.191365336990E+03   -0.17540E-01   -0.40746E+00  8160   0.441E+00    0.619E-01
DAV:   2    -0.191388670282E+03   -0.23333E-01   -0.15735E-01 12840   0.181E+00    0.150E+00
DAV:   3    -0.191369458898E+03    0.19211E-01   -0.70004E-02 12400   0.175E+00    0.660E-01
DAV:   4    -0.191368803905E+03    0.65499E-03   -0.21753E-02 12120   0.887E-01    0.644E-01
DAV:   5    -0.191365120526E+03    0.36834E-02   -0.12445E-02 11440   0.746E-01    0.342E-01
DAV:   6    -0.191363695942E+03    0.14246E-02   -0.48848E-03 11400   0.391E-01    0.141E-01
DAV:   7    -0.191363818503E+03   -0.12256E-03   -0.18517E-03 11880   0.255E-01    0.193E-01
DAV:   8    -0.191363504207E+03    0.31430E-03   -0.10054E-03  8920   0.237E-01    0.923E-02
DAV:   9    -0.191363403188E+03    0.10102E-03   -0.16221E-04  5840   0.821E-02    0.208E-02
DAV:  10    -0.191363404912E+03   -0.17240E-05   -0.58845E-05  6960   0.280E-02
  52 F= -.19136340E+03 E0= -.19125748E+03  d E =-.155968E-01
       N       E                     dE             d eps       ncg     rms          rms(c)
DAV:   1    -0.191368087891E+03   -0.46847E-02   -0.23008E-01  8160   0.103E+00    0.121E-01
DAV:   2    -0.191368651542E+03   -0.56365E-03   -0.71816E-03 12720   0.264E-01    0.156E-01
DAV:   3    -0.191368662109E+03   -0.10567E-04   -0.20136E-03 11000   0.274E-01    0.200E-01
DAV:   4    -0.191368338518E+03    0.32359E-03   -0.10205E-03  8640   0.192E-01    0.834E-02
DAV:   5    -0.191368291927E+03    0.46591E-04   -0.26531E-04  6160   0.109E-01
  53 F= -.19136829E+03 E0= -.19126205E+03  d E =-.488702E-02
       N       E                     dE             d eps       ncg     rms          rms(c)
DAV:   1    -0.191365928813E+03    0.24097E-02   -0.11388E-01  8160   0.767E-01    0.120E-01
DAV:   2    -0.191366635107E+03   -0.70629E-03   -0.55125E-03 12560   0.315E-01    0.277E-01
DAV:   3    -0.191366041510E+03    0.59360E-03   -0.28192E-03 10520   0.338E-01    0.158E-01
DAV:   4    -0.191365841848E+03    0.19966E-03   -0.76287E-04  8640   0.146E-01    0.697E-02
DAV:   5    -0.191365812797E+03    0.29051E-04   -0.27999E-04  7120   0.109E-01
  54 F= -.19136581E+03 E0= -.19126005E+03  d E =0.247913E-02
       N       E                     dE             d eps       ncg     rms          rms(c)
DAV:   1    -0.191376149592E+03   -0.10308E-01   -0.84253E-01  8160   0.200E+00    0.296E-01
DAV:   2    -0.191379783707E+03   -0.36341E-02   -0.34625E-02 12880   0.802E-01    0.559E-01
DAV:   3    -0.191377154243E+03    0.26295E-02   -0.12414E-02 12080   0.765E-01    0.336E-01
DAV:   4    -0.191376566285E+03    0.58796E-03   -0.51801E-03 10680   0.414E-01    0.293E-01
DAV:   5    -0.191376028786E+03    0.53750E-03   -0.30963E-03 10920   0.367E-01    0.203E-01
DAV:   6    -0.191375574437E+03    0.45435E-03   -0.12047E-03  9520   0.210E-01    0.597E-02
DAV:   7    -0.191375544654E+03    0.29782E-04   -0.29128E-04  7640   0.687E-02
  55 F= -.19137554E+03 E0= -.19126924E+03  d E =-.973186E-02
       N       E                     dE             d eps       ncg     rms          rms(c)
DAV:   1    -0.191378226894E+03   -0.26525E-02   -0.69661E-02  8160   0.580E-01    0.854E-02
DAV:   2    -0.191378599801E+03   -0.37291E-03   -0.26531E-03 12280   0.236E-01    0.201E-01
DAV:   3    -0.191378252211E+03    0.34759E-03   -0.12420E-03  9920   0.237E-01    0.941E-02
DAV:   4    -0.191378202449E+03    0.49762E-04   -0.30036E-04  7240   0.997E-02
  56 F= -.19137820E+03 E0= -.19127236E+03  d E =-.265779E-02
       N       E                     dE             d eps       ncg     rms          rms(c)
DAV:   1    -0.191359071366E+03    0.19181E-01   -0.32514E+00  8160   0.389E+00    0.419E-01
DAV:   2    -0.191364209195E+03   -0.51378E-02   -0.81486E-02 12880   0.796E-01    0.377E-01
DAV:   3    -0.191364078326E+03    0.13087E-03   -0.14177E-02 12240   0.687E-01    0.512E-01
DAV:   4    -0.191362657486E+03    0.14208E-02   -0.85466E-03 12000   0.670E-01    0.371E-01
DAV:   5    -0.191360927327E+03    0.17302E-02   -0.34696E-03 10880   0.352E-01    0.123E-01
DAV:   6    -0.191361634914E+03   -0.70759E-03   -0.25591E-03 10880   0.301E-01    0.289E-01
DAV:   7    -0.191360886395E+03    0.74852E-03   -0.18417E-03  9920   0.277E-01    0.832E-02
DAV:   8    -0.191360811560E+03    0.74835E-04   -0.19861E-04  5760   0.874E-02
  57 F= -.19136081E+03 E0= -.19125363E+03  d E =0.173909E-01
       N       E                     dE             d eps       ncg     rms          rms(c)
DAV:   1    -0.191361646428E+03   -0.76003E-03   -0.22495E-01  8160   0.103E+00    0.139E-01
DAV:   2    -0.191363012306E+03   -0.13659E-02   -0.87881E-03 12480   0.452E-01    0.346E-01
DAV:   3    -0.191361852079E+03    0.11602E-02   -0.29778E-03 11520   0.392E-01    0.134E-01
DAV:   4    -0.191361824531E+03    0.27548E-04   -0.82127E-04  8160   0.183E-01
  58 F= -.19136182E+03 E0= -.19125417E+03  d E =-.101297E-02
       N       E                     dE             d eps       ncg     rms          rms(c)
DAV:   1    -0.191361420971E+03    0.43111E-03   -0.33895E-01  8160   0.126E+00    0.179E-01
DAV:   2    -0.191365067792E+03   -0.36468E-02   -0.14053E-02 12680   0.600E-01    0.632E-01
DAV:   3    -0.191361548338E+03    0.35195E-02   -0.84515E-03 10400   0.565E-01    0.148E-01
DAV:   4    -0.191361647768E+03   -0.99430E-04   -0.12514E-03  9760   0.229E-01    0.169E-01
DAV:   5    -0.191361407223E+03    0.24054E-03   -0.85109E-04 10200   0.214E-01    0.893E-02
DAV:   6    -0.191361296811E+03    0.11041E-03   -0.23247E-04  6080   0.889E-02    0.260E-02
DAV:   7    -0.191361300881E+03   -0.40698E-05   -0.94147E-05  7080   0.355E-02
  59 F= -.19136130E+03 E0= -.19125327E+03  d E =0.523650E-03
       N       E                     dE             d eps       ncg     rms          rms(c)
DAV:   1    -0.191365996839E+03   -0.47000E-02   -0.30370E-01  8160   0.118E+00    0.134E-01
DAV:   2    -0.191366766447E+03   -0.76961E-03   -0.89463E-03 12960   0.308E-01    0.197E-01
DAV:   3    -0.191366697806E+03    0.68641E-04   -0.26618E-03 11080   0.320E-01    0.217E-01
DAV:   4    -0.191366342396E+03    0.35541E-03   -0.13044E-03  9200   0.212E-01    0.102E-01
DAV:   5    -0.191366277681E+03    0.64715E-04   -0.41258E-04  7760   0.136E-01
  60 F= -.19136628E+03 E0= -.19125785E+03  d E =-.497680E-02
       N       E                     dE             d eps       ncg     rms          rms(c)
DAV:   1    -0.191361227517E+03    0.51149E-02   -0.32477E-01  8160   0.124E+00    0.145E-01
DAV:   2    -0.191362131227E+03   -0.90371E-03   -0.10361E-02 11960   0.321E-01    0.220E-01
DAV:   3    -0.191362010946E+03    0.12028E-03   -0.34177E-03 11560   0.355E-01    0.252E-01
DAV:   4    -0.191361506224E+03    0.50472E-03   -0.16475E-03  9520   0.238E-01    0.905E-02
DAV:   5    -0.191361399631E+03    0.10659E-03   -0.29391E-04  6920   0.873E-02    0.516E-02
DAV:   6    -0.191361450090E+03   -0.50459E-04   -0.25291E-04  7640   0.121E-01
  61 F= -.19136145E+03 E0= -.19125348E+03  d E =0.482759E-02
       N       E                     dE             d eps       ncg     rms          rms(c)
DAV:   1    -0.191351156698E+03    0.10243E-01   -0.20588E+00  8160   0.310E+00    0.393E-01
DAV:   2    -0.191355765871E+03   -0.46092E-02   -0.65890E-02 12680   0.826E-01    0.512E-01
DAV:   3    -0.191355279408E+03    0.48646E-03   -0.17598E-02 11720   0.857E-01    0.589E-01
DAV:   4    -0.191352975199E+03    0.23042E-02   -0.10972E-02 12080   0.649E-01    0.346E-01
DAV:   5    -0.191352180594E+03    0.79460E-03   -0.45974E-03 10880   0.426E-01    0.273E-01
DAV:   6    -0.191351554606E+03    0.62599E-03   -0.25496E-03 10760   0.338E-01    0.136E-01
DAV:   7    -0.191351670766E+03   -0.11616E-03   -0.11705E-03 10560   0.219E-01    0.171E-01
DAV:   8    -0.191351373511E+03    0.29726E-03   -0.61941E-04  8320   0.183E-01    0.439E-02
DAV:   9    -0.191351365321E+03    0.81896E-05   -0.55323E-05  5960   0.436E-02
  62 F= -.19135137E+03 E0= -.19124431E+03  d E =0.100848E-01
       N       E                     dE             d eps       ncg     rms          rms(c)
DAV:   1    -0.191348537473E+03    0.28360E-02   -0.21610E-01  8160   0.100E+00    0.114E-01
DAV:   2    -0.191349008144E+03   -0.47067E-03   -0.62159E-03 12960   0.241E-01    0.137E-01
DAV:   3    -0.191348957090E+03    0.51054E-04   -0.13177E-03 11080   0.243E-01    0.157E-01
DAV:   4    -0.191348761277E+03    0.19581E-03   -0.65888E-04  8160   0.180E-01    0.837E-02
DAV:   5    -0.191348724135E+03    0.37142E-04   -0.31534E-04  6640   0.113E-01
  63 F= -.19134872E+03 E0= -.19124195E+03  d E =0.264119E-02
       N       E                     dE             d eps       ncg     rms          rms(c)
DAV:   1    -0.191347269436E+03    0.14918E-02   -0.16622E+00  8160   0.276E+00    0.347E-01
DAV:   2    -0.191362070442E+03   -0.14801E-01   -0.61063E-02 13400   0.132E+00    0.112E+00
DAV:   3    -0.191349141722E+03    0.12929E-01   -0.24364E-02 12200   0.116E+00    0.277E-01
DAV:   4    -0.191349415426E+03   -0.27370E-03   -0.44061E-03 10800   0.405E-01    0.333E-01
DAV:   5    -0.191348384338E+03    0.10311E-02   -0.29875E-03 10400   0.366E-01    0.159E-01
DAV:   6    -0.191348414585E+03   -0.30247E-04   -0.15991E-03 10440   0.240E-01    0.180E-01
DAV:   7    -0.191348241998E+03    0.17259E-03   -0.11605E-03  9920   0.229E-01    0.108E-01
DAV:   8    -0.191348099354E+03    0.14264E-03   -0.27787E-04  7440   0.104E-01    0.230E-02
DAV:   9    -0.191348095340E+03    0.40138E-05   -0.41162E-05  6800   0.246E-02
  64 F= -.19134810E+03 E0= -.19124184E+03  d E =0.628795E-03
       N       E                     dE             d eps       ncg     rms          rms(c)
DAV:   1    -0.191347793302E+03    0.30605E-03   -0.27793E-01  8160   0.113E+00    0.127E-01
DAV:   2    -0.191349185425E+03   -0.13921E-02   -0.82051E-03 13240   0.397E-01    0.328E-01
DAV:   3    -0.191348174284E+03    0.10111E-02   -0.28579E-03 11480   0.386E-01    0.135E-01
DAV:   4    -0.191348104397E+03    0.69887E-04   -0.64241E-04  8240   0.151E-01
  65 F= -.19134810E+03 E0= -.19124197E+03  d E =-.905702E-05
       N       E                     dE             d eps       ncg     rms          rms(c)
DAV:   1    -0.191355145890E+03   -0.69716E-02   -0.34245E+00  8160   0.400E+00    0.475E-01
DAV:   2    -0.191365450507E+03   -0.10305E-01   -0.10169E-01 13560   0.114E+00    0.775E-01
DAV:   3    -0.191361353202E+03    0.40973E-02   -0.28650E-02 11360   0.120E+00    0.624E-01
DAV:   4    -0.191358269463E+03    0.30837E-02   -0.99844E-03 12560   0.687E-01    0.341E-01
DAV:   5    -0.191357785456E+03    0.48401E-03   -0.57662E-03 10280   0.501E-01    0.356E-01
DAV:   6    -0.191356635422E+03    0.11500E-02   -0.37056E-03 11120   0.392E-01    0.153E-01
DAV:   7    -0.191357031481E+03   -0.39606E-03   -0.22227E-03 10600   0.288E-01    0.259E-01
DAV:   8    -0.191356403269E+03    0.62821E-03   -0.13808E-03  9760   0.242E-01    0.523E-02
DAV:   9    -0.191356383814E+03    0.19454E-04   -0.84164E-05  5880   0.459E-02
  66 F= -.19135638E+03 E0= -.19124882E+03  d E =-.827942E-02
       N       E                     dE             d eps       ncg     rms          rms(c)
DAV:   1    -0.191364134022E+03   -0.77308E-02   -0.75290E-01  8160   0.188E+00    0.233E-01
DAV:   2    -0.191365463408E+03   -0.13294E-02   -0.24036E-02 12360   0.447E-01    0.240E-01
DAV:   3    -0.191365923076E+03   -0.45967E-03   -0.62618E-03 12160   0.478E-01    0.381E-01
DAV:   4    -0.191364780164E+03    0.11429E-02   -0.40178E-03 10800   0.385E-01    0.175E-01
DAV:   5    -0.191364521835E+03    0.25833E-03   -0.12144E-03  9760   0.205E-01    0.127E-01
DAV:   6    -0.191364460661E+03    0.61173E-04   -0.77668E-04  9480   0.196E-01
  67 F= -.19136446E+03 E0= -.19125590E+03  d E =-.807685E-02
       N       E                     dE             d eps       ncg     rms          rms(c)
DAV:   1    -0.191364655515E+03   -0.13368E-03   -0.18616E-02  8160   0.306E-01    0.625E-02
DAV:   2    -0.191365329059E+03   -0.67354E-03   -0.18012E-03 11560   0.270E-01    0.263E-01
DAV:   3    -0.191364607699E+03    0.72136E-03   -0.11768E-03  8800   0.247E-01    0.434E-02
DAV:   4    -0.191364631630E+03   -0.23931E-04   -0.10184E-04  5680   0.568E-02
  68 F= -.19136463E+03 E0= -.19125597E+03  d E =-.170969E-03
       N       E                     dE             d eps       ncg     rms          rms(c)
DAV:   1    -0.191370308416E+03   -0.57007E-02   -0.36527E-01  8160   0.130E+00    0.151E-01
DAV:   2    -0.191371704590E+03   -0.13962E-02   -0.11295E-02 12840   0.379E-01    0.326E-01
DAV:   3    -0.191370974590E+03    0.73000E-03   -0.43054E-03 11040   0.404E-01    0.207E-01
DAV:   4    -0.191370668149E+03    0.30644E-03   -0.12024E-03  9520   0.185E-01    0.912E-02
DAV:   5    -0.191370613669E+03    0.54480E-04   -0.40859E-04  8280   0.129E-01
  69 F= -.19137061E+03 E0= -.19126159E+03  d E =-.598204E-02
       N       E                     dE             d eps       ncg     rms          rms(c)
DAV:   1    -0.191359128226E+03    0.11540E-01   -0.14573E+00  8160   0.260E+00    0.308E-01
DAV:   2    -0.191365633162E+03   -0.65049E-02   -0.46974E-02 13160   0.916E-01    0.722E-01
DAV:   3    -0.191361065049E+03    0.45681E-02   -0.16054E-02 11840   0.843E-01    0.349E-01
DAV:   4    -0.191360351890E+03    0.71316E-03   -0.47999E-03 10920   0.391E-01    0.236E-01
DAV:   5    -0.191360072557E+03    0.27933E-03   -0.26230E-03 10040   0.331E-01    0.224E-01
DAV:   6    -0.191359641266E+03    0.43129E-03   -0.15157E-03  9720   0.254E-01    0.108E-01
DAV:   7    -0.191359752114E+03   -0.11085E-03   -0.79838E-04  9080   0.195E-01    0.143E-01
DAV:   8    -0.191359521800E+03    0.23031E-03   -0.40268E-04  8320   0.148E-01    0.237E-02
DAV:   9    -0.191359527466E+03   -0.56664E-05   -0.34189E-05  6080   0.280E-02
  70 F= -.19135953E+03 E0= -.19125164E+03  d E =0.110862E-01
       N       E                     dE             d eps       ncg     rms          rms(c)
DAV:   1    -0.191349953822E+03    0.95680E-02   -0.18147E+00  8160   0.288E+00    0.299E-01
DAV:   2    -0.191353738647E+03   -0.37848E-02   -0.44650E-02 12280   0.658E-01    0.433E-01
DAV:   3    -0.191353577661E+03    0.16099E-03   -0.12991E-02 11760   0.694E-01    0.501E-01
DAV:   4    -0.191351788806E+03    0.17889E-02   -0.66552E-03 11200   0.475E-01    0.208E-01
DAV:   5    -0.191351306235E+03    0.48257E-03   -0.16090E-03  9920   0.234E-01    0.148E-01
DAV:   6    -0.191351330761E+03   -0.24526E-04   -0.12353E-03 10760   0.258E-01    0.150E-01
DAV:   7    -0.191351176971E+03    0.15379E-03   -0.59694E-04  8560   0.176E-01    0.974E-02
DAV:   8    -0.191351084192E+03    0.92780E-04   -0.22319E-04  7040   0.110E-01
  71 F= -.19135108E+03 E0= -.19124458E+03  d E =0.844327E-02
       N       E                     dE             d eps       ncg     rms          rms(c)
DAV:   1    -0.191356997994E+03   -0.58210E-02   -0.34221E-01  8160   0.131E+00    0.247E-01
DAV:   2    -0.191360482424E+03   -0.34844E-02   -0.19857E-02 12080   0.731E-01    0.671E-01
DAV:   3    -0.191356672916E+03    0.38095E-02   -0.11316E-02 11680   0.711E-01    0.242E-01
DAV:   4    -0.191356363451E+03    0.30947E-03   -0.29559E-03 11240   0.309E-01    0.211E-01
DAV:   5    -0.191356208759E+03    0.15469E-03   -0.21993E-03 10000   0.310E-01    0.201E-01
DAV:   6    -0.191355837930E+03    0.37083E-03   -0.11281E-03  9680   0.209E-01    0.904E-02
DAV:   7    -0.191355804465E+03    0.33465E-04   -0.39161E-04  8120   0.138E-01
  72 F= -.19135580E+03 E0= -.19124877E+03  d E =-.472027E-02
       N       E                     dE             d eps       ncg     rms          rms(c)
DAV:   1    -0.191361388510E+03   -0.55506E-02   -0.81534E-01  8160   0.194E+00    0.220E-01
DAV:   2    -0.191363905403E+03   -0.25169E-02   -0.24890E-02 12440   0.562E-01    0.380E-01
DAV:   3    -0.191363189524E+03    0.71588E-03   -0.78028E-03 12360   0.555E-01    0.337E-01
DAV:   4    -0.191362340804E+03    0.84872E-03   -0.31778E-03 10600   0.329E-01    0.146E-01
DAV:   5    -0.191362202821E+03    0.13798E-03   -0.10366E-03 10080   0.196E-01    0.143E-01
DAV:   6    -0.191362064944E+03    0.13788E-03   -0.63829E-04  8280   0.177E-01    0.801E-02
DAV:   7    -0.191362113943E+03   -0.48999E-04   -0.35413E-04  8480   0.135E-01
  73 F= -.19136211E+03 E0= -.19125428E+03  d E =-.630948E-02
       N       E                     dE             d eps       ncg     rms          rms(c)
DAV:   1    -0.191363010468E+03   -0.94552E-03   -0.15285E-01  8160   0.819E-01    0.787E-02
DAV:   2    -0.191363393601E+03   -0.38313E-03   -0.31375E-03 13440   0.236E-01    0.168E-01
DAV:   3    -0.191363181956E+03    0.21164E-03   -0.92908E-04  8720   0.213E-01    0.937E-02
DAV:   4    -0.191363131796E+03    0.50160E-04   -0.25805E-04  6320   0.936E-02
  74 F= -.19136313E+03 E0= -.19125541E+03  d E =-.101785E-02
       N       E                     dE             d eps       ncg     rms          rms(c)
DAV:   1    -0.191366052867E+03   -0.28709E-02   -0.55244E-01  8160   0.158E+00    0.183E-01
DAV:   2    -0.191369019556E+03   -0.29667E-02   -0.17461E-02 13200   0.590E-01    0.518E-01
DAV:   3    -0.191366684265E+03    0.23353E-02   -0.73059E-03 11160   0.539E-01    0.192E-01
DAV:   4    -0.191366603416E+03    0.80849E-04   -0.17248E-03  9680   0.245E-01    0.171E-01
DAV:   5    -0.191366348659E+03    0.25476E-03   -0.87426E-04  9240   0.210E-01    0.947E-02
DAV:   6    -0.191366275640E+03    0.73019E-04   -0.39221E-04  8880   0.121E-01
  75 F= -.19136628E+03 E0= -.19125782E+03  d E =-.314384E-02
       N       E                     dE             d eps       ncg     rms          rms(c)
DAV:   1    -0.191370378584E+03   -0.40299E-02   -0.23924E-01  8160   0.106E+00    0.134E-01
DAV:   2    -0.191371908790E+03   -0.15302E-02   -0.85521E-03 13560   0.402E-01    0.363E-01
DAV:   3    -0.191370667758E+03    0.12410E-02   -0.33329E-03 11480   0.402E-01    0.122E-01
DAV:   4    -0.191370660686E+03    0.70723E-05   -0.58701E-04  8560   0.145E-01
  76 F= -.19137066E+03 E0= -.19126213E+03  d E =-.438505E-02
       N       E                     dE             d eps       ncg     rms          rms(c)
DAV:   1    -0.191363583643E+03    0.70841E-02   -0.55655E-01  8160   0.162E+00    0.161E-01
DAV:   2    -0.191365118243E+03   -0.15346E-02   -0.15582E-02 12920   0.393E-01    0.307E-01
DAV:   3    -0.191364667724E+03    0.45052E-03   -0.44792E-03 11200   0.403E-01    0.225E-01
DAV:   4    -0.191364267202E+03    0.40052E-03   -0.12580E-03  9640   0.200E-01    0.804E-02
DAV:   5    -0.191364175917E+03    0.91285E-04   -0.31283E-04  7400   0.920E-02
  77 F= -.19136418E+03 E0= -.19125593E+03  d E =0.648477E-02
       N       E                     dE             d eps       ncg     rms          rms(c)
DAV:   1    -0.191361326183E+03    0.29410E-02   -0.37763E-01  8160   0.133E+00    0.183E-01
DAV:   2    -0.191363181392E+03   -0.18552E-02   -0.11906E-02 13000   0.515E-01    0.434E-01
DAV:   3    -0.191361490053E+03    0.16913E-02   -0.47760E-03 11560   0.503E-01    0.174E-01
DAV:   4    -0.191361323638E+03    0.16641E-03   -0.10603E-03  9640   0.199E-01    0.120E-01
DAV:   5    -0.191361335332E+03   -0.11694E-04   -0.96602E-04  9720   0.212E-01
  78 F= -.19136134E+03 E0= -.19125305E+03  d E =0.284058E-02
       N       E                     dE             d eps       ncg     rms          rms(c)
DAV:   1    -0.191365495291E+03   -0.41717E-02   -0.32415E-01  8160   0.124E+00    0.148E-01
DAV:   2    -0.191367453707E+03   -0.19584E-02   -0.12655E-02 13560   0.439E-01    0.384E-01
DAV:   3    -0.191366219174E+03    0.12345E-02   -0.50718E-03 11440   0.450E-01    0.188E-01
DAV:   4    -0.191365990716E+03    0.22846E-03   -0.10268E-03  8960   0.175E-01    0.984E-02
DAV:   5    -0.191365956898E+03    0.33818E-04   -0.49060E-04  8920   0.156E-01
  79 F= -.19136596E+03 E0= -.19125755E+03  d E =-.462157E-02
       N       E                     dE             d eps       ncg     rms          rms(c)
DAV:   1    -0.191365364103E+03    0.62661E-03   -0.30358E-02  8160   0.388E-01    0.540E-02
DAV:   2    -0.191365888804E+03   -0.52470E-03   -0.15515E-03 12720   0.230E-01    0.218E-01
DAV:   3    -0.191365377695E+03    0.51111E-03   -0.81857E-04  8760   0.212E-01    0.389E-02
DAV:   4    -0.191365389567E+03   -0.11873E-04   -0.71558E-05  5600   0.419E-02
  80 F= -.19136539E+03 E0= -.19125687E+03  d E =0.567331E-03
       N       E                     dE             d eps       ncg     rms          rms(c)
DAV:   1    -0.191369136565E+03   -0.37589E-02   -0.58801E-01  8160   0.160E+00    0.158E-01
DAV:   2    -0.191370796200E+03   -0.16596E-02   -0.13457E-02 13200   0.454E-01    0.335E-01
DAV:   3    -0.191369938961E+03    0.85724E-03   -0.38709E-03 11440   0.423E-01    0.189E-01
DAV:   4    -0.191369812000E+03    0.12696E-03   -0.11869E-03  9440   0.202E-01    0.146E-01
DAV:   5    -0.191369642420E+03    0.16958E-03   -0.70848E-04  8400   0.182E-01    0.929E-02
DAV:   6    -0.191369627097E+03    0.15323E-04   -0.40047E-04  8200   0.125E-01
  81 F= -.19136963E+03 E0= -.19126047E+03  d E =-.423753E-02
       N       E                     dE             d eps       ncg     rms          rms(c)
DAV:   1    -0.191362250067E+03    0.73924E-02   -0.12118E+00  8160   0.231E+00    0.231E-01
DAV:   2    -0.191367019433E+03   -0.47694E-02   -0.29210E-02 13040   0.704E-01    0.614E-01
DAV:   3    -0.191363711894E+03    0.33075E-02   -0.10372E-02 11440   0.695E-01    0.245E-01
DAV:   4    -0.191363314067E+03    0.39783E-03   -0.20872E-03 10480   0.242E-01    0.149E-01
DAV:   5    -0.191363304739E+03    0.93273E-05   -0.13413E-03 10560   0.232E-01    0.185E-01
DAV:   6    -0.191363039337E+03    0.26540E-03   -0.96779E-04  8360   0.198E-01    0.774E-02
DAV:   7    -0.191363001908E+03    0.37428E-04   -0.21176E-04  6080   0.753E-02
  82 F= -.19136300E+03 E0= -.19125479E+03  d E =0.662519E-02
       N       E                     dE             d eps       ncg     rms          rms(c)
DAV:   1    -0.191368976247E+03   -0.59369E-02   -0.42103E-01  8160   0.143E+00    0.229E-01
DAV:   2    -0.191371758662E+03   -0.27824E-02   -0.18484E-02 12360   0.647E-01    0.585E-01
DAV:   3    -0.191369046517E+03    0.27121E-02   -0.98085E-03 11000   0.628E-01    0.248E-01
DAV:   4    -0.191368693171E+03    0.35335E-03   -0.27000E-03 11000   0.300E-01    0.193E-01
DAV:   5    -0.191368527893E+03    0.16528E-03   -0.17399E-03  9720   0.285E-01    0.174E-01
DAV:   6    -0.191368238677E+03    0.28922E-03   -0.92558E-04  9640   0.191E-01    0.861E-02
DAV:   7    -0.191368226479E+03    0.12198E-04   -0.38106E-04  7960   0.139E-01
  83 F= -.19136823E+03 E0= -.19125951E+03  d E =-.522457E-02
       N       E                     dE             d eps       ncg     rms          rms(c)
DAV:   1    -0.191370556742E+03   -0.23181E-02   -0.90371E-02  8160   0.650E-01    0.867E-02
DAV:   2    -0.191370936550E+03   -0.37981E-03   -0.32617E-03 12560   0.243E-01    0.175E-01
DAV:   3    -0.191370669932E+03    0.26662E-03   -0.95861E-04 10200   0.220E-01    0.955E-02
DAV:   4    -0.191370613659E+03    0.56272E-04   -0.33755E-04  7600   0.119E-01
  84 F= -.19137061E+03 E0= -.19126171E+03  d E =-.238718E-02
       N       E                     dE             d eps       ncg     rms          rms(c)
DAV:   1    -0.191374411826E+03   -0.37419E-02   -0.17876E-01  8160   0.917E-01    0.124E-01
DAV:   2    -0.191375483055E+03   -0.10712E-02   -0.64362E-03 13560   0.337E-01    0.314E-01
DAV:   3    -0.191374636792E+03    0.84626E-03   -0.30654E-03 10320   0.350E-01    0.142E-01
DAV:   4    -0.191374578138E+03    0.58654E-04   -0.72117E-04  8200   0.152E-01
  85 F= -.19137458E+03 E0= -.19126552E+03  d E =-.396448E-02
       N       E                     dE             d eps       ncg     rms          rms(c)
DAV:   1    -0.191372008889E+03    0.26279E-02   -0.79086E-02  8160   0.626E-01    0.112E-01
DAV:   2    -0.191374703901E+03   -0.26950E-02   -0.70855E-03 12240   0.556E-01    0.493E-01
DAV:   3    -0.191372027044E+03    0.26769E-02   -0.39276E-03 10120   0.472E-01    0.703E-02
DAV:   4    -0.191372064797E+03   -0.37753E-04   -0.28641E-04  7680   0.110E-01
  86 F= -.19137206E+03 E0= -.19126297E+03  d E =0.251334E-02
       N       E                     dE             d eps       ncg     rms          rms(c)
DAV:   1    -0.191379509907E+03   -0.74829E-02   -0.61107E-01  8160   0.170E+00    0.217E-01
DAV:   2    -0.191382731117E+03   -0.32212E-02   -0.22556E-02 13560   0.646E-01    0.535E-01
DAV:   3    -0.191380367030E+03    0.23641E-02   -0.90894E-03 11760   0.625E-01    0.245E-01
DAV:   4    -0.191380081726E+03    0.28530E-03   -0.22999E-03 10160   0.277E-01    0.186E-01
DAV:   5    -0.191379853709E+03    0.22802E-03   -0.13636E-03  9880   0.255E-01    0.141E-01
DAV:   6    -0.191379700911E+03    0.15280E-03   -0.68365E-04  8320   0.167E-01    0.839E-02
DAV:   7    -0.191379720245E+03   -0.19333E-04   -0.45073E-04  8600   0.148E-01
  87 F= -.19137972E+03 E0= -.19127042E+03  d E =-.765545E-02
       N       E                     dE             d eps       ncg     rms          rms(c)
DAV:   1    -0.191381311638E+03   -0.16107E-02   -0.32708E-02  8160   0.398E-01    0.498E-02
DAV:   2    -0.191381513420E+03   -0.20178E-03   -0.12638E-03 12880   0.151E-01    0.129E-01
DAV:   3    -0.191381364472E+03    0.14895E-03   -0.52170E-04  8400   0.145E-01    0.592E-02
DAV:   4    -0.191381354257E+03    0.10215E-04   -0.12542E-04  5560   0.666E-02
  88 F= -.19138135E+03 E0= -.19127167E+03  d E =-.163401E-02
       N       E                     dE             d eps       ncg     rms          rms(c)
DAV:   1    -0.191387500826E+03   -0.61364E-02   -0.33395E-01  8160   0.125E+00    0.147E-01
DAV:   2    -0.191388660862E+03   -0.11600E-02   -0.97670E-03 13120   0.372E-01    0.314E-01
DAV:   3    -0.191387956729E+03    0.70413E-03   -0.36995E-03 11040   0.379E-01    0.182E-01
DAV:   4    -0.191387757202E+03    0.19953E-03   -0.96754E-04  9480   0.168E-01    0.996E-02
DAV:   5    -0.191387728840E+03    0.28363E-04   -0.53192E-04  8720   0.155E-01
  89 F= -.19138773E+03 E0= -.19127832E+03  d E =-.637458E-02
       N       E                     dE             d eps       ncg     rms          rms(c)
DAV:   1    -0.191373933770E+03    0.13823E-01   -0.15960E+00  8160   0.273E+00    0.308E-01
DAV:   2    -0.191383885959E+03   -0.99522E-02   -0.55546E-02 13560   0.103E+00    0.919E-01
DAV:   3    -0.191375929978E+03    0.79560E-02   -0.20912E-02 11520   0.928E-01    0.265E-01
DAV:   4    -0.191375649216E+03    0.28076E-03   -0.31106E-03 10240   0.272E-01    0.188E-01
DAV:   5    -0.191375377710E+03    0.27151E-03   -0.18101E-03 10680   0.269E-01    0.184E-01
DAV:   6    -0.191375204063E+03    0.17365E-03   -0.12537E-03  9720   0.251E-01    0.123E-01
DAV:   7    -0.191375144371E+03    0.59692E-04   -0.57134E-04  8320   0.155E-01
  90 F= -.19137514E+03 E0= -.19126595E+03  d E =0.125845E-01
       N       E                     dE             d eps       ncg     rms          rms(c)
DAV:   1    -0.191373872755E+03    0.13313E-02   -0.14053E-01  8160   0.803E-01    0.102E-01
DAV:   2    -0.191374422667E+03   -0.54991E-03   -0.44786E-03 12720   0.321E-01    0.217E-01
DAV:   3    -0.191374000636E+03    0.42203E-03   -0.15584E-03 10120   0.280E-01    0.111E-01
DAV:   4    -0.191373947343E+03    0.53293E-04   -0.48090E-04  8120   0.141E-01
  91 F= -.19137395E+03 E0= -.19126496E+03  d E =0.119703E-02
       N       E                     dE             d eps       ncg     rms          rms(c)
DAV:   1    -0.191379329790E+03   -0.53292E-02   -0.40373E-01  8160   0.138E+00    0.157E-01
DAV:   2    -0.191380600455E+03   -0.12707E-02   -0.12405E-02 13560   0.425E-01    0.274E-01
DAV:   3    -0.191379981946E+03    0.61851E-03   -0.30793E-03 11640   0.392E-01    0.172E-01
DAV:   4    -0.191379829427E+03    0.15252E-03   -0.12141E-03  9160   0.209E-01    0.148E-01
DAV:   5    -0.191379683017E+03    0.14641E-03   -0.76134E-04  8200   0.178E-01    0.959E-02
DAV:   6    -0.191379608110E+03    0.74907E-04   -0.33991E-04  6960   0.111E-01
  92 F= -.19137961E+03 E0= -.19127001E+03  d E =-.566077E-02
       N       E                     dE             d eps       ncg     rms          rms(c)
DAV:   1    -0.191373307819E+03    0.63752E-02   -0.45796E-01  8160   0.146E+00    0.180E-01
DAV:   2    -0.191376345842E+03   -0.30380E-02   -0.15983E-02 13520   0.578E-01    0.520E-01
DAV:   3    -0.191373800373E+03    0.25455E-02   -0.63621E-03 10800   0.561E-01    0.157E-01
DAV:   4    -0.191373673192E+03    0.12718E-03   -0.92848E-04  9560   0.158E-01    0.114E-01
DAV:   5    -0.191373645689E+03    0.27503E-04   -0.78085E-04  9120   0.172E-01
  93 F= -.19137365E+03 E0= -.19126422E+03  d E =0.596242E-02
       N       E                     dE             d eps       ncg     rms          rms(c)
DAV:   1    -0.191368346654E+03    0.53265E-02   -0.67046E-01  8160   0.176E+00    0.196E-01
DAV:   2    -0.191370636440E+03   -0.22898E-02   -0.18164E-02 13400   0.563E-01    0.455E-01
DAV:   3    -0.191369050369E+03    0.15861E-02   -0.61975E-03 11680   0.496E-01    0.194E-01
DAV:   4    -0.191368702824E+03    0.34755E-03   -0.10380E-03  9760   0.176E-01    0.926E-02
DAV:   5    -0.191368891424E+03   -0.18860E-03   -0.84481E-04  9680   0.207E-01    0.170E-01
DAV:   6    -0.191368665554E+03    0.22587E-03   -0.70016E-04  8320   0.191E-01    0.739E-02
DAV:   7    -0.191368596811E+03    0.68743E-04   -0.15748E-04  5800   0.818E-02
  94 F= -.19136860E+03 E0= -.19126003E+03  d E =0.504888E-02
       N       E                     dE             d eps       ncg     rms          rms(c)
DAV:   1    -0.191366009784E+03    0.26558E-02   -0.52184E-01  8160   0.155E+00    0.163E-01
DAV:   2    -0.191367505412E+03   -0.14956E-02   -0.12915E-02 13560   0.447E-01    0.339E-01
DAV:   3    -0.191366641639E+03    0.86377E-03   -0.39860E-03 12160   0.428E-01    0.185E-01
DAV:   4    -0.191366503686E+03    0.13795E-03   -0.11342E-03  9440   0.209E-01    0.144E-01
DAV:   5    -0.191366339552E+03    0.16413E-03   -0.67555E-04  8360   0.188E-01    0.879E-02
DAV:   6    -0.191366359369E+03   -0.19816E-04   -0.41493E-04  8680   0.130E-01
  95 F= -.19136636E+03 E0= -.19125874E+03  d E =0.223744E-02
       N       E                     dE             d eps       ncg     rms          rms(c)
DAV:   1    -0.191364254982E+03    0.20846E-02   -0.10489E-01  8160   0.698E-01    0.129E-01
DAV:   2    -0.191367770352E+03   -0.35154E-02   -0.91149E-03 12440   0.589E-01    0.587E-01
DAV:   3    -0.191364204780E+03    0.35656E-02   -0.54712E-03 10800   0.511E-01    0.689E-02
DAV:   4    -0.191364307087E+03   -0.10231E-03   -0.39648E-04  8560   0.128E-01    0.934E-02
DAV:   5    -0.191364231831E+03    0.75256E-04   -0.21871E-04  7000   0.108E-01
  96 F= -.19136423E+03 E0= -.19125636E+03  d E =0.212754E-02
       N       E                     dE             d eps       ncg     rms          rms(c)
DAV:   1    -0.191369621893E+03   -0.53148E-02   -0.69028E-01  8160   0.180E+00    0.245E-01
DAV:   2    -0.191377566144E+03   -0.79443E-02   -0.35806E-02 13320   0.910E-01    0.906E-01
DAV:   3    -0.191370638769E+03    0.69274E-02   -0.17909E-02 11040   0.821E-01    0.198E-01
DAV:   4    -0.191370465469E+03    0.17330E-03   -0.18812E-03 10480   0.233E-01    0.162E-01
DAV:   5    -0.191370267462E+03    0.19801E-03   -0.99750E-04 10920   0.229E-01    0.131E-01
DAV:   6    -0.191370142300E+03    0.12516E-03   -0.63133E-04  8880   0.172E-01    0.832E-02
DAV:   7    -0.191370182493E+03   -0.40193E-04   -0.43129E-04  8200   0.146E-01
  97 F= -.19137018E+03 E0= -.19126188E+03  d E =-.595066E-02
       N       E                     dE             d eps       ncg     rms          rms(c)
DAV:   1    -0.191369861476E+03    0.28082E-03   -0.60095E-02  8160   0.526E-01    0.523E-02
DAV:   2    -0.191369964225E+03   -0.10275E-03   -0.12149E-03 12080   0.131E-01    0.819E-02
DAV:   3    -0.191369924961E+03    0.39264E-04   -0.29290E-04  9240   0.128E-01
  98 F= -.19136992E+03 E0= -.19126170E+03  d E =0.257532E-03
       N       E                     dE             d eps       ncg     rms          rms(c)
DAV:   1    -0.191373495016E+03   -0.35308E-02   -0.24413E-01  8160   0.107E+00    0.138E-01
DAV:   2    -0.191375344206E+03   -0.18492E-02   -0.97289E-03 13040   0.438E-01    0.402E-01
DAV:   3    -0.191373848027E+03    0.14962E-02   -0.43150E-03 11400   0.428E-01    0.143E-01
DAV:   4    -0.191373775735E+03    0.72292E-04   -0.83924E-04  8840   0.157E-01
  99 F= -.19137378E+03 E0= -.19126515E+03  d E =-.385077E-02
       N       E                     dE             d eps       ncg     rms          rms(c)
DAV:   1    -0.191369997838E+03    0.38502E-02   -0.29786E-01  8160   0.120E+00    0.151E-01
DAV:   2    -0.191372912012E+03   -0.29142E-02   -0.11801E-02 13520   0.553E-01    0.515E-01
DAV:   3    -0.191370230695E+03    0.26813E-02   -0.52168E-03 11240   0.520E-01    0.106E-01
DAV:   4    -0.191370241392E+03   -0.10696E-04   -0.47826E-04  8280   0.124E-01
 100 F= -.19137024E+03 E0= -.19126241E+03  d E =0.353434E-02
