<?xml version="1.0" encoding="ISO-8859-1"?>
<modeling>
 <generator>
  <i name="program" type="string">vasp </i>
  <i name="version" type="string">5.4.1  </i>
  <i name="subversion" type="string">05Feb16 (build Jul 05 2020 17:13:04) complex                          parallel </i>
  <i name="platform" type="string">IFC91_ompi </i>
  <i name="date" type="string">2024 04 23 </i>
  <i name="time" type="string">17:47:56 </i>
 </generator>
 <incar>
  <i type="int" name="ISTART">     0</i>
  <i type="string" name="PREC">normal</i>
  <i type="string" name="ALGO"> Normal</i>
  <i type="int" name="ISPIN">     1</i>
  <i type="int" name="ICHARG">     2</i>
  <i type="int" name="IBRION">     1</i>
  <i type="int" name="NSW">   100</i>
  <i type="int" name="ISIF">     3</i>
  <i type="int" name="ISYM">     0</i>
  <i name="SYMPREC">      0.00000001</i>
  <i name="POTIM">      0.50000000</i>
  <i type="logical" name="LREAL"> F  </i>
  <i type="logical" name="LPLANE"> F  </i>
  <i type="int" name="ISMEAR">     0</i>
  <i type="logical" name="LWAVE"> F  </i>
  <i type="logical" name="LCHARG"> F  </i>
  <v type="int" name="KPOINT_BSE">    -1     0     0     0</v>
 </incar>
 <kpoints>
  <generation param="Gamma">
   <v type="int" name="divisions">       8        8        1 </v>
   <v name="usershift">      0.00000000       0.00000000       0.00000000 </v>
   <v name="genvec1">      0.12500000       0.00000000       0.00000000 </v>
   <v name="genvec2">     -0.00000000       0.12500000       0.00000000 </v>
   <v name="genvec3">      0.00000000       0.00000000       1.00000000 </v>
   <v name="shift">      0.00000000       0.00000000       0.00000000 </v>
  </generation>
  <varray name="kpointlist" >
   <v>       0.00000000       0.00000000       0.00000000 </v>
   <v>       0.12500000       0.00000000       0.00000000 </v>
   <v>       0.25000000       0.00000000       0.00000000 </v>
   <v>       0.37500000       0.00000000       0.00000000 </v>
   <v>       0.50000000       0.00000000       0.00000000 </v>
   <v>       0.00000000       0.12500000       0.00000000 </v>
   <v>       0.12500000       0.12500000       0.00000000 </v>
   <v>       0.25000000       0.12500000       0.00000000 </v>
   <v>       0.37500000       0.12500000       0.00000000 </v>
   <v>       0.50000000       0.12500000       0.00000000 </v>
   <v>      -0.37500000       0.12500000       0.00000000 </v>
   <v>      -0.25000000       0.12500000       0.00000000 </v>
   <v>      -0.12500000       0.12500000       0.00000000 </v>
   <v>       0.00000000       0.25000000       0.00000000 </v>
   <v>       0.12500000       0.25000000       0.00000000 </v>
   <v>       0.25000000       0.25000000       0.00000000 </v>
   <v>       0.37500000       0.25000000       0.00000000 </v>
   <v>       0.50000000       0.25000000       0.00000000 </v>
   <v>      -0.37500000       0.25000000       0.00000000 </v>
   <v>      -0.25000000       0.25000000       0.00000000 </v>
   <v>      -0.12500000       0.25000000       0.00000000 </v>
   <v>      -0.00000000       0.37500000       0.00000000 </v>
   <v>       0.12500000       0.37500000       0.00000000 </v>
   <v>       0.25000000       0.37500000       0.00000000 </v>
   <v>       0.37500000       0.37500000       0.00000000 </v>
   <v>       0.50000000       0.37500000       0.00000000 </v>
   <v>      -0.37500000       0.37500000       0.00000000 </v>
   <v>      -0.25000000       0.37500000       0.00000000 </v>
   <v>      -0.12500000       0.37500000       0.00000000 </v>
   <v>       0.00000000       0.50000000       0.00000000 </v>
   <v>       0.12500000       0.50000000       0.00000000 </v>
   <v>       0.25000000       0.50000000       0.00000000 </v>
   <v>       0.37500000       0.50000000       0.00000000 </v>
   <v>       0.50000000       0.50000000       0.00000000 </v>
  </varray>
  <varray name="weights" >
   <v>       0.01562500 </v>
   <v>       0.03125000 </v>
   <v>       0.03125000 </v>
   <v>       0.03125000 </v>
   <v>       0.01562500 </v>
   <v>       0.03125000 </v>
   <v>       0.03125000 </v>
   <v>       0.03125000 </v>
   <v>       0.03125000 </v>
   <v>       0.03125000 </v>
   <v>       0.03125000 </v>
   <v>       0.03125000 </v>
   <v>       0.03125000 </v>
   <v>       0.03125000 </v>
   <v>       0.03125000 </v>
   <v>       0.03125000 </v>
   <v>       0.03125000 </v>
   <v>       0.03125000 </v>
   <v>       0.03125000 </v>
   <v>       0.03125000 </v>
   <v>       0.03125000 </v>
   <v>       0.03125000 </v>
   <v>       0.03125000 </v>
   <v>       0.03125000 </v>
   <v>       0.03125000 </v>
   <v>       0.03125000 </v>
   <v>       0.03125000 </v>
   <v>       0.03125000 </v>
   <v>       0.03125000 </v>
   <v>       0.01562500 </v>
   <v>       0.03125000 </v>
   <v>       0.03125000 </v>
   <v>       0.03125000 </v>
   <v>       0.01562500 </v>
  </varray>
 </kpoints>
 <parameters>
  <separator name="general" >
   <i type="string" name="SYSTEM">unknown system</i>
   <i type="logical" name="LCOMPAT"> F  </i>
  </separator>
  <separator name="electronic" >
   <i type="string" name="PREC">normal</i>
   <i name="ENMAX">    280.00000000</i>
   <i name="ENAUG">    373.43800000</i>
   <i name="EDIFF">      0.00010000</i>
   <i type="int" name="IALGO">    38</i>
   <i type="int" name="IWAVPR">    11</i>
   <i type="int" name="NBANDS">   120</i>
   <i name="NELECT">    159.00000000</i>
   <i type="int" name="TURBO">     0</i>
   <i type="int" name="IRESTART">     0</i>
   <i type="int" name="NREBOOT">     0</i>
   <i type="int" name="NMIN">     0</i>
   <i name="EREF">      0.00000000</i>
   <separator name="electronic smearing" >
    <i type="int" name="ISMEAR">     0</i>
    <i name="SIGMA">      0.20000000</i>
    <i name="KSPACING">      0.50000000</i>
    <i type="logical" name="KGAMMA"> T  </i>
   </separator>
   <separator name="electronic projectors" >
    <i type="logical" name="LREAL"> F  </i>
    <v name="ROPT">      0.00000000      0.00000000      0.00000000      0.00000000</v>
    <i type="int" name="LMAXPAW">  -100</i>
    <i type="int" name="LMAXMIX">     2</i>
    <i type="logical" name="NLSPLINE"> F  </i>
   </separator>
   <separator name="electronic startup" >
    <i type="int" name="ISTART">     0</i>
    <i type="int" name="ICHARG">     2</i>
    <i type="int" name="INIWAV">     1</i>
   </separator>
   <separator name="electronic spin" >
    <i type="int" name="ISPIN">     1</i>
    <i type="logical" name="LNONCOLLINEAR"> F  </i>
    <v name="MAGMOM">      1.00000000      1.00000000      1.00000000      1.00000000      1.00000000      1.00000000      1.00000000      1.00000000      1.00000000      1.00000000      1.00000000      1.00000000      1.00000000      1.00000000      1.00000000      1.00000000      1.00000000      1.00000000      1.00000000      1.00000000
      1.00000000      1.00000000      1.00000000      1.00000000      1.00000000      1.00000000      1.00000000</v>
    <i name="NUPDOWN">     -1.00000000</i>
    <i type="logical" name="LSORBIT"> F  </i>
    <v name="SAXIS">      0.00000000      0.00000000      1.00000000</v>
    <i type="logical" name="LSPIRAL"> F  </i>
    <v name="QSPIRAL">      0.00000000      0.00000000      0.00000000</v>
    <i type="logical" name="LZEROZ"> F  </i>
   </separator>
   <separator name="electronic exchange-correlation" >
    <i type="logical" name="LASPH"> F  </i>
    <i type="logical" name="LMETAGGA"> F  </i>
   </separator>
   <separator name="electronic convergence" >
    <i type="int" name="NELM">    60</i>
    <i type="int" name="NELMDL">    -5</i>
    <i type="int" name="NELMIN">     2</i>
    <i name="ENINI">    280.00000000</i>
    <separator name="electronic convergence detail" >
     <i type="logical" name="LDIAG"> T  </i>
     <i type="logical" name="LSUBROT"> F  </i>
     <i name="WEIMIN">      0.00100000</i>
     <i name="EBREAK">      0.00000021</i>
     <i name="DEPER">      0.30000000</i>
     <i type="int" name="NRMM">     4</i>
     <i name="TIME">      0.40000000</i>
    </separator>
   </separator>
   <separator name="electronic mixer" >
    <i name="AMIX">      0.40000000</i>
    <i name="BMIX">      1.00000000</i>
    <i name="AMIN">      0.10000000</i>
    <i name="AMIX_MAG">      1.60000000</i>
    <i name="BMIX_MAG">      1.00000000</i>
    <separator name="electronic mixer details" >
     <i type="int" name="IMIX">     4</i>
     <i type="logical" name="MIXFIRST"> F  </i>
     <i type="int" name="MAXMIX">   -45</i>
     <i name="WC">    100.00000000</i>
     <i type="int" name="INIMIX">     1</i>
     <i type="int" name="MIXPRE">     1</i>
     <i type="int" name="MREMOVE">     5</i>
    </separator>
   </separator>
   <separator name="electronic dipolcorrection" >
    <i type="logical" name="LDIPOL"> F  </i>
    <i type="logical" name="LMONO"> F  </i>
    <i type="int" name="IDIPOL">     0</i>
    <i name="EPSILON">      1.00000000</i>
    <v name="DIPOL">   -100.00000000   -100.00000000   -100.00000000</v>
    <i name="EFIELD">      0.00000000</i>
   </separator>
  </separator>
  <separator name="grids" >
   <i type="int" name="NGX">    42</i>
   <i type="int" name="NGY">    42</i>
   <i type="int" name="NGZ">   126</i>
   <i type="int" name="NGXF">    84</i>
   <i type="int" name="NGYF">    84</i>
   <i type="int" name="NGZF">   252</i>
   <i type="logical" name="ADDGRID"> F  </i>
  </separator>
  <separator name="ionic" >
   <i type="int" name="NSW">   100</i>
   <i type="int" name="IBRION">     1</i>
   <i type="int" name="ISIF">     3</i>
   <i name="PSTRESS">      0.00000000</i>
   <i name="EDIFFG">      0.00100000</i>
   <i type="int" name="NFREE">     0</i>
   <i name="POTIM">      0.50000000</i>
   <i name="SMASS">     -3.00000000</i>
   <i name="SCALEE">      1.00000000</i>
  </separator>
  <separator name="ionic md" >
   <i name="TEBEG">      0.00010000</i>
   <i name="TEEND">      0.00010000</i>
   <i type="int" name="NBLOCK">     1</i>
   <i type="int" name="KBLOCK">   100</i>
   <i type="int" name="NPACO">   256</i>
   <i name="APACO">     16.00000000</i>
  </separator>
  <separator name="symmetry" >
   <i type="int" name="ISYM">     0</i>
   <i name="SYMPREC">      0.00000001</i>
  </separator>
  <separator name="dos" >
   <i type="logical" name="LORBIT"> F  </i>
   <v name="RWIGS">     -1.00000000     -1.00000000     -1.00000000     -1.00000000</v>
   <i type="int" name="NEDOS">   301</i>
   <i name="EMIN">     10.00000000</i>
   <i name="EMAX">    -10.00000000</i>
   <i name="EFERMI">      0.00000000</i>
  </separator>
  <separator name="writing" >
   <i type="int" name="NWRITE">     2</i>
   <i type="logical" name="LWAVE"> F  </i>
   <i type="logical" name="LCHARG"> F  </i>
   <i type="logical" name="LPARD"> F  </i>
   <i type="logical" name="LVTOT"> F  </i>
   <i type="logical" name="LVHAR"> F  </i>
   <i type="logical" name="LELF"> F  </i>
   <i type="logical" name="LOPTICS"> F  </i>
   <v name="STM">      0.00000000      0.00000000      0.00000000      0.00000000      0.00000000      0.00000000      0.00000000</v>
  </separator>
  <separator name="performance" >
   <i type="int" name="NPAR">    40</i>
   <i type="int" name="NSIM">     4</i>
   <i type="int" name="NBLK">    -1</i>
   <i type="logical" name="LPLANE"> F  </i>
   <i type="logical" name="LSCALAPACK"> T  </i>
   <i type="logical" name="LSCAAWARE"> F  </i>
   <i type="logical" name="LSCALU"> F  </i>
   <i type="logical" name="LASYNC"> F  </i>
   <i type="logical" name="LORBITALREAL"> F  </i>
  </separator>
  <separator name="miscellaneous" >
   <i type="int" name="IDIOT">     3</i>
   <i type="logical" name="LMUSIC"> F  </i>
   <v name="POMASS">     50.94100000     95.94000000    183.85000000     32.06600000</v>
   <v name="DARWINR">      0.00000000      0.00000000      0.00000000      0.00000000</v>
   <v name="DARWINV">      1.00000000      1.00000000      1.00000000      1.00000000</v>
   <i type="logical" name="LCORR"> T  </i>
  </separator>
  <i type="logical" name="GGA_COMPAT"> T  </i>
  <i type="logical" name="LBERRY"> F  </i>
  <i type="int" name="ICORELEVEL">     0</i>
  <i type="logical" name="LDAU"> F  </i>
  <i type="int" name="I_CONSTRAINED_M">     0</i>
  <separator name="electronic exchange-correlation" >
   <i type="string" name="GGA">--</i>
   <i type="int" name="VOSKOWN">     0</i>
   <i type="logical" name="LHFCALC"> F  </i>
   <i type="string" name="PRECFOCK"></i>
   <i type="logical" name="LSYMGRAD"> F  </i>
   <i type="logical" name="LHFONE"> F  </i>
   <i type="logical" name="LRHFCALC"> F  </i>
   <i type="logical" name="LTHOMAS"> F  </i>
   <i type="logical" name="LMODELHF"> F  </i>
   <i name="ENCUT4O">     -1.00000000</i>
   <i type="int" name="EXXOEP">     0</i>
   <i type="int" name="FOURORBIT">     0</i>
   <i name="AEXX">      0.00000000</i>
   <i name="HFALPHA">      0.00000000</i>
   <i name="MCALPHA">      0.00000000</i>
   <i name="ALDAX">      1.00000000</i>
   <i name="AGGAX">      1.00000000</i>
   <i name="ALDAC">      1.00000000</i>
   <i name="AGGAC">      1.00000000</i>
   <i type="int" name="NKREDX">     1</i>
   <i type="int" name="NKREDY">     1</i>
   <i type="int" name="NKREDZ">     1</i>
   <i type="logical" name="SHIFTRED"> F  </i>
   <i type="logical" name="ODDONLY"> F  </i>
   <i type="logical" name="EVENONLY"> F  </i>
   <i type="int" name="LMAXFOCK">     0</i>
   <i type="int" name="NMAXFOCKAE">     0</i>
   <i type="logical" name="LFOCKAEDFT"> F  </i>
   <i name="HFSCREEN">      0.00000000</i>
   <i name="HFSCREENC">      0.00000000</i>
   <i type="int" name="NBANDSGWLOW">     0</i>
  </separator>
  <separator name="vdW DFT" >
   <i type="logical" name="LUSE_VDW"> F  </i>
   <i name="Zab_VDW">     -0.84910000</i>
   <i name="PARAM1">      0.12340000</i>
   <i name="PARAM2">      1.00000000</i>
   <i name="PARAM3">      0.00000000</i>
  </separator>
  <separator name="model GW" >
   <i type="int" name="MODEL_GW">     0</i>
   <i name="MODEL_EPS0">     58.26239943</i>
   <i name="MODEL_ALPHA">      1.00000000</i>
  </separator>
  <separator name="linear response parameters" >
   <i type="logical" name="LEPSILON"> F  </i>
   <i type="logical" name="LRPA"> F  </i>
   <i type="logical" name="LNABLA"> F  </i>
   <i type="logical" name="LVEL"> F  </i>
   <i type="int" name="KINTER">     0</i>
   <i name="CSHIFT">      0.10000000</i>
   <i name="OMEGAMAX">     -1.00000000</i>
   <i name="DEG_THRESHOLD">      0.00200000</i>
  </separator>
  <separator name="orbital magnetization" >
   <i type="logical" name="NUCIND"> F  </i>
   <v name="MAGPOS">      0.00000000      0.00000000      0.00000000</v>
   <i type="logical" name="LNICSALL"> T  </i>
   <i type="logical" name="ORBITALMAG"> F  </i>
   <i type="logical" name="LMAGBLOCH"> F  </i>
   <i type="logical" name="LCHIMAG"> F  </i>
   <i type="logical" name="LGAUGE"> T  </i>
   <i type="int" name="MAGATOM">     0</i>
   <v name="MAGDIPOL">      0.00000000      0.00000000      0.00000000</v>
   <v name="AVECCONST">      0.00000000      0.00000000      0.00000000</v>
  </separator>
  <separator name="response functions" >
   <i type="logical" name="LADDER"> F  </i>
   <i type="logical" name="LFXC"> F  </i>
   <i type="logical" name="LHARTREE"> T  </i>
   <i type="int" name="IBSE">     0</i>
   <v type="int" name="KPOINT">    -1     0     0     0</v>
   <i type="logical" name="LTCTE"> F  </i>
   <i type="logical" name="LTETE"> F  </i>
   <i type="logical" name="LTRIPLET"> F  </i>
   <i type="logical" name="LFXCEPS"> F  </i>
   <i type="logical" name="LFXHEG"> F  </i>
   <i type="int" name="NATURALO">     0</i>
   <i type="logical" name="L2ORDER"> F  </i>
   <i type="logical" name="LUSEW"> F  </i>
   <i name="ENCUTGW">     -2.00000000</i>
   <i name="ENCUTGWSOFT">     -2.00000000</i>
   <i name="ENCUTLF">     -1.00000000</i>
   <i type="int" name="LMAXMP2">    -1</i>
   <i name="SCISSOR">      0.00000000</i>
   <i type="int" name="NOMEGA">     0</i>
   <i type="int" name="NOMEGAR">     0</i>
   <i type="int" name="NBANDSGW">    -1</i>
   <i type="int" name="NBANDSO">    -1</i>
   <i type="int" name="NBANDSV">    -1</i>
   <i type="int" name="NELM">     1</i>
   <i type="int" name="NELMHF">     1</i>
   <i type="int" name="DIM">     3</i>
   <i type="int" name="ANTIRES">     0</i>
   <i name="OMEGAMAX">    -30.00000000</i>
   <i name="OMEGAMIN">    -30.00000000</i>
   <i name="OMEGATL">   -200.00000000</i>
   <i type="int" name="OMEGAGRID">     0</i>
   <i name="CSHIFT">     -0.10000000</i>
   <i type="logical" name="SELFENERGY"> F  </i>
   <i type="logical" name="LSPECTRAL"> F  </i>
   <i type="logical" name="LSPECTRALGW"> F  </i>
   <i type="logical" name="LSINGLES"> F  </i>
   <i type="logical" name="LFERMIGW"> F  </i>
   <i type="logical" name="ODDONLYGW"> F  </i>
   <i type="logical" name="EVENONLYGW"> F  </i>
   <i type="int" name="NKREDLFX">     1</i>
   <i type="int" name="NKREDLFY">     1</i>
   <i type="int" name="NKREDLFZ">     1</i>
   <i type="int" name="MAXMEM">  1800</i>
   <i type="int" name="TELESCOPE">     0</i>
   <i type="int" name="TAUPAR">     1</i>
   <i type="int" name="OMEGAPAR">    -1</i>
   <i name="LAMBDA">      1.00000000</i>
  </separator>
  <separator name="External order field" >
   <i name="OFIELD_KAPPA">      0.00000000</i>
   <v name="OFIELD_K">      0.00000000      0.00000000      0.00000000</v>
   <i name="OFIELD_Q6_NEAR">      0.00000000</i>
   <i name="OFIELD_Q6_FAR">      0.00000000</i>
   <i name="OFIELD_A">      0.00000000</i>
  </separator>
 </parameters>
 <atominfo>
  <atoms>      27 </atoms>
  <types>       4 </types>
  <array name="atoms" >
   <dimension dim="1">ion</dimension>
   <field type="string">element</field>
   <field type="int">atomtype</field>
   <set>
    <rc><c>V </c><c>   1</c></rc>
    <rc><c>V </c><c>   1</c></rc>
    <rc><c>V </c><c>   1</c></rc>
    <rc><c>Mo</c><c>   2</c></rc>
    <rc><c>Mo</c><c>   2</c></rc>
    <rc><c>Mo</c><c>   2</c></rc>
    <rc><c>W </c><c>   3</c></rc>
    <rc><c>W </c><c>   3</c></rc>
    <rc><c>W </c><c>   3</c></rc>
    <rc><c>S </c><c>   4</c></rc>
    <rc><c>S </c><c>   4</c></rc>
    <rc><c>S </c><c>   4</c></rc>
    <rc><c>S </c><c>   4</c></rc>
    <rc><c>S </c><c>   4</c></rc>
    <rc><c>S </c><c>   4</c></rc>
    <rc><c>S </c><c>   4</c></rc>
    <rc><c>S </c><c>   4</c></rc>
    <rc><c>S </c><c>   4</c></rc>
    <rc><c>S </c><c>   4</c></rc>
    <rc><c>S </c><c>   4</c></rc>
    <rc><c>S </c><c>   4</c></rc>
    <rc><c>S </c><c>   4</c></rc>
    <rc><c>S </c><c>   4</c></rc>
    <rc><c>S </c><c>   4</c></rc>
    <rc><c>S </c><c>   4</c></rc>
    <rc><c>S </c><c>   4</c></rc>
    <rc><c>S </c><c>   4</c></rc>
   </set>
  </array>
  <array name="atomtypes" >
   <dimension dim="1">type</dimension>
   <field type="int">atomspertype</field>
   <field type="string">element</field>
   <field>mass</field>
   <field>valence</field>
   <field type="string">pseudopotential</field>
   <set>
    <rc><c>   3</c><c>V </c><c>     50.94100000</c><c>      5.00000000</c><c> PAW_PBE V 08Apr2002                    </c></rc>
    <rc><c>   3</c><c>Mo</c><c>     95.94000000</c><c>      6.00000000</c><c> PAW_PBE Mo 08Apr2002                   </c></rc>
    <rc><c>   3</c><c>W </c><c>    183.85000000</c><c>      6.00000000</c><c> PAW_PBE W 08Apr2002                    </c></rc>
    <rc><c>  18</c><c>S </c><c>     32.06600000</c><c>      6.00000000</c><c>  PAW_PBE S 17Jan2003                   </c></rc>
   </set>
  </array>
 </atominfo>
 <structure name="initialpos" >
  <crystal>
   <varray name="basis" >
    <v>       8.66999996       5.03999989       0.00000000 </v>
    <v>      -8.66999982       5.04000013       0.00000000 </v>
    <v>       0.00000000       0.00000000      30.00000000 </v>
   </varray>
   <i name="volume">   2621.80797419 </i>
   <varray name="rec_basis" >
    <v>       0.05767013       0.09920635       0.00000000 </v>
    <v>      -0.05767013       0.09920635       0.00000000 </v>
    <v>       0.00000000       0.00000000       0.03333333 </v>
   </varray>
  </crystal>
  <varray name="positions" >
   <v>       0.33333334       0.00000000       0.00000000 </v>
   <v>       1.00000000       0.33333334       0.00000000 </v>
   <v>       0.00000000       0.00000000       0.00000000 </v>
   <v>       0.33333334       0.33333334       0.00000000 </v>
   <v>       0.33333334       0.66666669       0.00000000 </v>
   <v>       0.00000000       0.66666669       0.00000000 </v>
   <v>       0.66666669       0.00000000       0.00000000 </v>
   <v>       0.66666669       0.33333334       0.00000000 </v>
   <v>       0.66666669       0.66666669       0.00000000 </v>
   <v>       0.11068511       0.22244981       0.95539999 </v>
   <v>       0.22244981       0.11068511       0.04460000 </v>
   <v>       0.11068511       0.55578315       0.95539999 </v>
   <v>       0.22244981       0.44401845       0.04460000 </v>
   <v>       0.11068511       0.88911647       0.95539999 </v>
   <v>       0.22244981       0.77735180       0.04460000 </v>
   <v>       0.44401845       0.22244981       0.95539999 </v>
   <v>       0.55578315       0.11068511       0.04460000 </v>
   <v>       0.44401845       0.55578315       0.95539999 </v>
   <v>       0.55578315       0.44401845       0.04460000 </v>
   <v>       0.44401845       0.88911647       0.95539999 </v>
   <v>       0.55578315       0.77735180       0.04460000 </v>
   <v>       0.77735180       0.22244981       0.95539999 </v>
   <v>       0.88911647       0.11068511       0.04460000 </v>
   <v>       0.77735180       0.55578315       0.95539999 </v>
   <v>       0.88911647       0.44401845       0.04460000 </v>
   <v>       0.77735180       0.88911647       0.95539999 </v>
   <v>       0.88911647       0.77735180       0.04460000 </v>
  </varray>
 </structure>
 <calculation>
  <scstep>
   <time name="dav">   21.77   21.83</time>
   <time name="total">   21.82   21.88</time>
   <energy>
    <i name="alphaZ">     81.65567618 </i>
    <i name="ewald">  41890.25210219 </i>
    <i name="hartreedc"> -47722.89515768 </i>
    <i name="XCdc">   -242.92702704 </i>
    <i name="pawpsdc">   3467.42045192 </i>
    <i name="pawaedc">  -2871.19716117 </i>
    <i name="eentropy">     -0.53998700 </i>
    <i name="bandstr">   -236.65221571 </i>
    <i name="atom">   6761.44252427 </i>
    <i name="e_fr_energy">   1126.55920595 </i>
    <i name="e_wo_entrp">   1127.09919296 </i>
    <i name="e_0_energy">   1126.82919945 </i>
   </energy>
  </scstep>
  <scstep>
   <time name="dav">   28.22   28.29</time>
   <time name="total">   28.23   28.30</time>
   <energy>
    <i name="e_fr_energy">     -2.13252055 </i>
    <i name="e_wo_entrp">     -1.92681087 </i>
    <i name="e_0_energy">     -2.02966571 </i>
   </energy>
  </scstep>
  <scstep>
   <time name="dav">   27.66   27.72</time>
   <time name="total">   27.66   27.73</time>
   <energy>
    <i name="e_fr_energy">   -199.82551084 </i>
    <i name="e_wo_entrp">   -199.55436691 </i>
    <i name="e_0_energy">   -199.68993887 </i>
   </energy>
  </scstep>
  <scstep>
   <time name="dav">   30.60   30.68</time>
   <time name="total">   30.60   30.68</time>
   <energy>
    <i name="e_fr_energy">   -209.04210168 </i>
    <i name="e_wo_entrp">   -208.73730512 </i>
    <i name="e_0_energy">   -208.88970340 </i>
   </energy>
  </scstep>
  <scstep>
   <time name="dav">   28.10   28.17</time>
   <time name="total">   28.56   28.64</time>
   <energy>
    <i name="e_fr_energy">   -209.32454213 </i>
    <i name="e_wo_entrp">   -209.02214953 </i>
    <i name="e_0_energy">   -209.17334583 </i>
   </energy>
  </scstep>
  <scstep>
   <time name="dav">   30.98   31.06</time>
   <time name="total">   31.48   31.56</time>
   <energy>
    <i name="e_fr_energy">   -237.08595872 </i>
    <i name="e_wo_entrp">   -236.80731175 </i>
    <i name="e_0_energy">   -236.94663524 </i>
   </energy>
  </scstep>
  <scstep>
   <time name="dav">   32.74   32.82</time>
   <time name="total">   33.24   33.33</time>
   <energy>
    <i name="e_fr_energy">   -196.44486323 </i>
    <i name="e_wo_entrp">   -196.12812538 </i>
    <i name="e_0_energy">   -196.28649430 </i>
   </energy>
  </scstep>
  <scstep>
   <time name="dav">   29.58   29.65</time>
   <time name="total">   30.08   30.16</time>
   <energy>
    <i name="e_fr_energy">   -189.40387552 </i>
    <i name="e_wo_entrp">   -189.11228603 </i>
    <i name="e_0_energy">   -189.25808077 </i>
   </energy>
  </scstep>
  <scstep>
   <time name="dav">   31.84   31.92</time>
   <time name="total">   32.36   32.45</time>
   <energy>
    <i name="e_fr_energy">   -188.17023143 </i>
    <i name="e_wo_entrp">   -187.83091272 </i>
    <i name="e_0_energy">   -188.00057207 </i>
   </energy>
  </scstep>
  <scstep>
   <time name="dav">   32.69   32.77</time>
   <time name="total">   33.22   33.31</time>
   <energy>
    <i name="e_fr_energy">   -186.99896265 </i>
    <i name="e_wo_entrp">   -186.65138954 </i>
    <i name="e_0_energy">   -186.82517609 </i>
   </energy>
  </scstep>
  <scstep>
   <time name="dav">   32.27   32.35</time>
   <time name="total">   32.80   32.89</time>
   <energy>
    <i name="e_fr_energy">   -186.96731843 </i>
    <i name="e_wo_entrp">   -186.61749729 </i>
    <i name="e_0_energy">   -186.79240786 </i>
   </energy>
  </scstep>
  <scstep>
   <time name="dav">   30.27   30.34</time>
   <time name="total">   30.80   30.88</time>
   <energy>
    <i name="e_fr_energy">   -187.09006364 </i>
    <i name="e_wo_entrp">   -186.75020846 </i>
    <i name="e_0_energy">   -186.92013605 </i>
   </energy>
  </scstep>
  <scstep>
   <time name="dav">   31.42   31.50</time>
   <time name="total">   31.96   32.04</time>
   <energy>
    <i name="e_fr_energy">   -186.88110332 </i>
    <i name="e_wo_entrp">   -186.54423469 </i>
    <i name="e_0_energy">   -186.71266901 </i>
   </energy>
  </scstep>
  <scstep>
   <time name="dav">   32.71   32.79</time>
   <time name="total">   33.24   33.33</time>
   <energy>
    <i name="e_fr_energy">   -186.85673657 </i>
    <i name="e_wo_entrp">   -186.51208251 </i>
    <i name="e_0_energy">   -186.68440954 </i>
   </energy>
  </scstep>
  <scstep>
   <time name="dav">   29.19   29.26</time>
   <time name="total">   29.72   29.80</time>
   <energy>
    <i name="e_fr_energy">   -186.83707170 </i>
    <i name="e_wo_entrp">   -186.49027922 </i>
    <i name="e_0_energy">   -186.66367546 </i>
   </energy>
  </scstep>
  <scstep>
   <time name="dav">   29.50   29.57</time>
   <time name="total">   30.03   30.11</time>
   <energy>
    <i name="e_fr_energy">   -186.82943053 </i>
    <i name="e_wo_entrp">   -186.48265169 </i>
    <i name="e_0_energy">   -186.65604111 </i>
   </energy>
  </scstep>
  <scstep>
   <time name="dav">   31.36   31.44</time>
   <time name="total">   31.90   31.98</time>
   <energy>
    <i name="e_fr_energy">   -186.82755516 </i>
    <i name="e_wo_entrp">   -186.48273572 </i>
    <i name="e_0_energy">   -186.65514544 </i>
   </energy>
  </scstep>
  <scstep>
   <time name="dav">   29.41   29.48</time>
   <time name="total">   29.94   30.02</time>
   <energy>
    <i name="e_fr_energy">   -186.82709286 </i>
    <i name="e_wo_entrp">   -186.48202849 </i>
    <i name="e_0_energy">   -186.65456067 </i>
   </energy>
  </scstep>
  <scstep>
   <time name="dav">   27.43   27.50</time>
   <time name="total">   27.96   28.03</time>
   <energy>
    <i name="e_fr_energy">   -186.82673909 </i>
    <i name="e_wo_entrp">   -186.48138773 </i>
    <i name="e_0_energy">   -186.65406341 </i>
   </energy>
  </scstep>
  <scstep>
   <time name="dav">   24.41   24.47</time>
   <time name="total">   24.94   25.01</time>
   <energy>
    <i name="e_fr_energy">   -186.82747681 </i>
    <i name="e_wo_entrp">   -186.48230241 </i>
    <i name="e_0_energy">   -186.65488961 </i>
   </energy>
  </scstep>
  <scstep>
   <time name="dav">   21.22   21.27</time>
   <time name="total">   21.75   21.81</time>
   <energy>
    <i name="e_fr_energy">   -186.82806815 </i>
    <i name="e_wo_entrp">   -186.48306425 </i>
    <i name="e_0_energy">   -186.65556620 </i>
   </energy>
  </scstep>
  <scstep>
   <time name="dav">   20.71   20.76</time>
   <time name="total">   21.24   21.30</time>
   <energy>
    <i name="e_fr_energy">   -186.82923454 </i>
    <i name="e_wo_entrp">   -186.48406879 </i>
    <i name="e_0_energy">   -186.65665166 </i>
   </energy>
  </scstep>
  <scstep>
   <time name="dav">   20.30   20.34</time>
   <time name="total">   20.83   20.89</time>
   <energy>
    <i name="e_fr_energy">   -186.83045961 </i>
    <i name="e_wo_entrp">   -186.48540078 </i>
    <i name="e_0_energy">   -186.65793020 </i>
   </energy>
  </scstep>
  <scstep>
   <time name="dav">   18.83   18.88</time>
   <time name="total">   19.37   19.42</time>
   <energy>
    <i name="e_fr_energy">   -186.83104866 </i>
    <i name="e_wo_entrp">   -186.48597273 </i>
    <i name="e_0_energy">   -186.65851069 </i>
   </energy>
  </scstep>
  <scstep>
   <time name="dav">   17.04   17.08</time>
   <time name="total">   17.57   17.62</time>
   <energy>
    <i name="e_fr_energy">   -186.83141401 </i>
    <i name="e_wo_entrp">   -186.48629895 </i>
    <i name="e_0_energy">   -186.65885648 </i>
   </energy>
  </scstep>
  <scstep>
   <time name="dav">   18.91   18.96</time>
   <time name="total">   19.45   19.50</time>
   <energy>
    <i name="e_fr_energy">   -186.83164843 </i>
    <i name="e_wo_entrp">   -186.48654963 </i>
    <i name="e_0_energy">   -186.65909903 </i>
   </energy>
  </scstep>
  <scstep>
   <time name="dav">   19.64   19.69</time>
   <time name="total">   20.17   20.23</time>
   <energy>
    <i name="e_fr_energy">   -186.83175127 </i>
    <i name="e_wo_entrp">   -186.48665031 </i>
    <i name="e_0_energy">   -186.65920079 </i>
   </energy>
  </scstep>
  <scstep>
   <time name="dav">   20.23   20.28</time>
   <time name="total">   20.27   20.32</time>
   <energy>
    <i name="alphaZ">     81.65567618 </i>
    <i name="ewald">  41890.25210219 </i>
    <i name="hartreedc"> -47832.89613186 </i>
    <i name="XCdc">   -231.61129408 </i>
    <i name="pawpsdc">   4192.00690424 </i>
    <i name="pawaedc">  -3610.00937020 </i>
    <i name="eentropy">     -0.34509844 </i>
    <i name="bandstr">  -1437.32710432 </i>
    <i name="atom">   6761.44252427 </i>
    <i name="e_fr_energy">   -186.83179202 </i>
    <i name="e_wo_entrp">   -186.48669358 </i>
    <i name="e_0_energy">   -186.65924280 </i>
   </energy>
  </scstep>
  <structure>
   <crystal>
    <varray name="basis" >
     <v>       8.66999996       5.03999989       0.00000000 </v>
     <v>      -8.66999982       5.04000013       0.00000000 </v>
     <v>       0.00000000       0.00000000      30.00000000 </v>
    </varray>
    <i name="volume">   2621.80797419 </i>
    <varray name="rec_basis" >
     <v>       0.05767013       0.09920635       0.00000000 </v>
     <v>      -0.05767013       0.09920635       0.00000000 </v>
     <v>       0.00000000       0.00000000       0.03333333 </v>
    </varray>
   </crystal>
   <varray name="positions" >
    <v>       0.33333334       0.00000000       0.00000000 </v>
    <v>       1.00000000       0.33333334       0.00000000 </v>
    <v>       0.00000000       0.00000000       0.00000000 </v>
    <v>       0.33333334       0.33333334       0.00000000 </v>
    <v>       0.33333334       0.66666669       0.00000000 </v>
    <v>       0.00000000       0.66666669       0.00000000 </v>
    <v>       0.66666669       0.00000000       0.00000000 </v>
    <v>       0.66666669       0.33333334       0.00000000 </v>
    <v>       0.66666669       0.66666669       0.00000000 </v>
    <v>       0.11068511       0.22244981       0.95539999 </v>
    <v>       0.22244981       0.11068511       0.04460000 </v>
    <v>       0.11068511       0.55578315       0.95539999 </v>
    <v>       0.22244981       0.44401845       0.04460000 </v>
    <v>       0.11068511       0.88911647       0.95539999 </v>
    <v>       0.22244981       0.77735180       0.04460000 </v>
    <v>       0.44401845       0.22244981       0.95539999 </v>
    <v>       0.55578315       0.11068511       0.04460000 </v>
    <v>       0.44401845       0.55578315       0.95539999 </v>
    <v>       0.55578315       0.44401845       0.04460000 </v>
    <v>       0.44401845       0.88911647       0.95539999 </v>
    <v>       0.55578315       0.77735180       0.04460000 </v>
    <v>       0.77735180       0.22244981       0.95539999 </v>
    <v>       0.88911647       0.11068511       0.04460000 </v>
    <v>       0.77735180       0.55578315       0.95539999 </v>
    <v>       0.88911647       0.44401845       0.04460000 </v>
    <v>       0.77735180       0.88911647       0.95539999 </v>
    <v>       0.88911647       0.77735180       0.04460000 </v>
   </varray>
  </structure>
  <varray name="forces" >
   <v>      -0.06559293      -0.28289829      -0.09945439 </v>
   <v>       0.07591027       0.44311178       0.08690267 </v>
   <v>       0.19866541       0.20657359       0.01066615 </v>
   <v>      -0.24615908       0.08550414      -0.01601732 </v>
   <v>      -0.01803557      -0.29167436      -0.09496313 </v>
   <v>       0.25137891       0.15488003       0.00220931 </v>
   <v>       0.01815423      -0.23787996       0.02982414 </v>
   <v>      -0.25166597       0.12454808       0.09795167 </v>
   <v>       0.00855071      -0.28775025       0.02727811 </v>
   <v>      -0.31348683      -0.66304918      -1.41510185 </v>
   <v>       0.31375148      -0.66775724       1.41289475 </v>
   <v>       0.52482935      -0.67512736      -2.17531927 </v>
   <v>      -0.52781612      -0.73117083       2.18334366 </v>
   <v>      -0.31131645       0.69723013      -1.45154552 </v>
   <v>      -0.53218653       0.69326220       2.14782170 </v>
   <v>       0.62628257      -0.57573561      -2.13731899 </v>
   <v>      -0.46627929      -0.55139290       2.14808917 </v>
   <v>       0.18555993       0.17114943      -2.91127215 </v>
   <v>      -0.03565094       0.15335039       2.95252588 </v>
   <v>      -0.68313355       0.15092215      -2.14106155 </v>
   <v>      -0.03825171       0.14618429       2.88571368 </v>
   <v>       0.47747223       0.57174045      -2.12466739 </v>
   <v>       0.22391680       0.53424955       1.41338824 </v>
   <v>       0.04067373      -0.10626765      -2.90990940 </v>
   <v>       0.69054089      -0.16329554       2.13392021 </v>
   <v>       0.46714174       0.56208673      -2.16884128 </v>
   <v>      -0.61325327       0.53920624       2.11294291 </v>
  </varray>
  <varray name="stress" >
   <v>       7.30516769      -0.13885302      -1.63158573 </v>
   <v>      -0.13885311       4.42409523      -0.14736523 </v>
   <v>      -1.63158576      -0.14736538      30.32939655 </v>
  </varray>
  <energy>
   <i name="e_fr_energy">   -186.83179202 </i>
   <i name="e_wo_entrp">   -186.65924280 </i>
   <i name="e_0_energy">     -0.34509844 </i>
  </energy>
  <time name="totalsc">  804.05  806.20</time>
 </calculation>
 <calculation>
  <scstep>
   <time name="dav">   21.78   21.84</time>
   <time name="total">   22.33   22.38</time>
   <energy>
    <i name="alphaZ">     78.92709223 </i>
    <i name="ewald">  39382.16920548 </i>
    <i name="hartreedc"> -45339.65755886 </i>
    <i name="XCdc">   -239.06724478 </i>
    <i name="pawpsdc">   4192.00683926 </i>
    <i name="pawaedc">  -3610.00929826 </i>
    <i name="eentropy">     -0.28733164 </i>
    <i name="bandstr">  -1412.98355395 </i>
    <i name="atom">   6761.44252427 </i>
    <i name="e_fr_energy">   -187.45932624 </i>
    <i name="e_wo_entrp">   -187.17199460 </i>
    <i name="e_0_energy">   -187.31566042 </i>
   </energy>
  </scstep>
  <scstep>
   <time name="dav">   30.40   30.47</time>
   <time name="total">   30.93   31.02</time>
   <energy>
    <i name="e_fr_energy">   -189.26066303 </i>
    <i name="e_wo_entrp">   -188.94520221 </i>
    <i name="e_0_energy">   -189.10293262 </i>
   </energy>
  </scstep>
  <scstep>
   <time name="dav">   30.50   30.57</time>
   <time name="total">   31.04   31.13</time>
   <energy>
    <i name="e_fr_energy">   -189.36716766 </i>
    <i name="e_wo_entrp">   -189.08624667 </i>
    <i name="e_0_energy">   -189.22670716 </i>
   </energy>
  </scstep>
  <scstep>
   <time name="dav">   30.96   31.03</time>
   <time name="total">   31.50   31.58</time>
   <energy>
    <i name="e_fr_energy">   -188.72490089 </i>
    <i name="e_wo_entrp">   -188.43869725 </i>
    <i name="e_0_energy">   -188.58179907 </i>
   </energy>
  </scstep>
  <scstep>
   <time name="dav">   25.97   26.03</time>
   <time name="total">   26.51   26.58</time>
   <energy>
    <i name="e_fr_energy">   -188.72134325 </i>
    <i name="e_wo_entrp">   -188.43343688 </i>
    <i name="e_0_energy">   -188.57739007 </i>
   </energy>
  </scstep>
  <scstep>
   <time name="dav">   26.91   26.98</time>
   <time name="total">   27.46   27.53</time>
   <energy>
    <i name="e_fr_energy">   -188.66022588 </i>
    <i name="e_wo_entrp">   -188.37393584 </i>
    <i name="e_0_energy">   -188.51708086 </i>
   </energy>
  </scstep>
  <scstep>
   <time name="dav">   28.52   28.59</time>
   <time name="total">   29.07   29.14</time>
   <energy>
    <i name="e_fr_energy">   -188.64269154 </i>
    <i name="e_wo_entrp">   -188.35686545 </i>
    <i name="e_0_energy">   -188.49977850 </i>
   </energy>
  </scstep>
  <scstep>
   <time name="dav">   30.53   30.60</time>
   <time name="total">   31.07   31.15</time>
   <energy>
    <i name="e_fr_energy">   -188.63857654 </i>
    <i name="e_wo_entrp">   -188.35374881 </i>
    <i name="e_0_energy">   -188.49616267 </i>
   </energy>
  </scstep>
  <scstep>
   <time name="dav">   31.95   32.03</time>
   <time name="total">   32.49   32.58</time>
   <energy>
    <i name="e_fr_energy">   -188.63411986 </i>
    <i name="e_wo_entrp">   -188.34878549 </i>
    <i name="e_0_energy">   -188.49145267 </i>
   </energy>
  </scstep>
  <scstep>
   <time name="dav">   31.48   31.55</time>
   <time name="total">   32.02   32.10</time>
   <energy>
    <i name="e_fr_energy">   -188.63377052 </i>
    <i name="e_wo_entrp">   -188.34900526 </i>
    <i name="e_0_energy">   -188.49138789 </i>
   </energy>
  </scstep>
  <scstep>
   <time name="dav">   29.96   30.03</time>
   <time name="total">   30.50   30.60</time>
   <energy>
    <i name="e_fr_energy">   -188.63351682 </i>
    <i name="e_wo_entrp">   -188.34911795 </i>
    <i name="e_0_energy">   -188.49131739 </i>
   </energy>
  </scstep>
  <scstep>
   <time name="dav">   27.53   27.60</time>
   <time name="total">   28.08   28.15</time>
   <energy>
    <i name="e_fr_energy">   -188.63385496 </i>
    <i name="e_wo_entrp">   -188.34958362 </i>
    <i name="e_0_energy">   -188.49171929 </i>
   </energy>
  </scstep>
  <scstep>
   <time name="dav">   24.85   24.91</time>
   <time name="total">   25.39   25.46</time>
   <energy>
    <i name="e_fr_energy">   -188.63353095 </i>
    <i name="e_wo_entrp">   -188.34896599 </i>
    <i name="e_0_energy">   -188.49124847 </i>
   </energy>
  </scstep>
  <scstep>
   <time name="dav">   20.33   20.38</time>
   <time name="total">   20.87   20.92</time>
   <energy>
    <i name="e_fr_energy">   -188.63363854 </i>
    <i name="e_wo_entrp">   -188.34901739 </i>
    <i name="e_0_energy">   -188.49132797 </i>
   </energy>
  </scstep>
  <scstep>
   <time name="dav">   20.75   20.80</time>
   <time name="total">   20.78   20.84</time>
   <energy>
    <i name="alphaZ">     78.92709223 </i>
    <i name="ewald">  39382.16920548 </i>
    <i name="hartreedc"> -45350.08429001 </i>
    <i name="XCdc">   -237.98536153 </i>
    <i name="pawpsdc">   3949.08375195 </i>
    <i name="pawaedc">  -3363.57553940 </i>
    <i name="eentropy">     -0.28459625 </i>
    <i name="bandstr">  -1408.32645933 </i>
    <i name="atom">   6761.44252427 </i>
    <i name="e_fr_energy">   -188.63367258 </i>
    <i name="e_wo_entrp">   -188.34907633 </i>
    <i name="e_0_energy">   -188.49137445 </i>
   </energy>
  </scstep>
  <structure>
   <crystal>
    <varray name="basis" >
     <v>       8.85313930       5.10167474       0.00000000 </v>
     <v>      -8.85723152       5.10871481       0.00000000 </v>
     <v>       0.00000000       0.00000000      30.00000000 </v>
    </varray>
    <i name="volume">   2712.44634609 </i>
    <varray name="rec_basis" >
     <v>       0.05650303       0.09796210       0.00000000 </v>
     <v>      -0.05642517       0.09791684       0.00000000 </v>
     <v>       0.00000000       0.00000000       0.03333333 </v>
    </varray>
   </crystal>
   <varray name="positions" >
    <v>       0.33179691      -0.00117145      -0.00015993 </v>
    <v>       1.00233192       0.33524287       0.00013975 </v>
    <v>       0.00154138       0.00043594       0.00001715 </v>
    <v>       0.33305771       0.33442742      -0.00002576 </v>
    <v>       0.33188722       0.66532092      -0.00015271 </v>
    <v>       0.00144063       0.66670856       0.00000355 </v>
    <v>       0.66557871      -0.00118900       0.00004796 </v>
    <v>       0.66656260       0.33462960       0.00015751 </v>
    <v>       0.66531331       0.66526573       0.00004387 </v>
    <v>       0.10663960       0.22014864       0.95312438 </v>
    <v>       0.22012684       0.10661633       0.04687206 </v>
    <v>       0.10891412       0.55109185       0.95190188 </v>
    <v>       0.21748197       0.44198756       0.04811101 </v>
    <v>       0.11315591       0.89331953       0.95306578 </v>
    <v>       0.22428712       0.78215036       0.04805389 </v>
    <v>       0.44300541       0.21795193       0.95196299 </v>
    <v>       0.55184693       0.10934342       0.04805432 </v>
    <v>       0.44535383       0.55608601       0.95071841 </v>
    <v>       0.55641790       0.44485157       0.04934792 </v>
    <v>       0.44284018       0.89173936       0.95195697 </v>
    <v>       0.55637636       0.77815785       0.04924048 </v>
    <v>       0.78141654       0.22385774       0.95198334 </v>
    <v>       0.89229634       0.11261904       0.04687285 </v>
    <v>       0.77695636       0.55516140       0.95072060 </v>
    <v>       0.89025613       0.44131573       0.04803153 </v>
    <v>       0.78134159       0.89050694       0.95191230 </v>
    <v>       0.88999093       0.78163859       0.04799780 </v>
   </varray>
  </structure>
  <varray name="forces" >
   <v>       0.01843678      -0.24206453      -0.02245359 </v>
   <v>       0.02223221       0.40524913       0.01492779 </v>
   <v>       0.13982075       0.12080438       0.07285418 </v>
   <v>      -0.16756883       0.43037462      -0.06629055 </v>
   <v>       0.08984042      -0.14829316      -0.02400025 </v>
   <v>       0.23121965       0.00166007       0.07189120 </v>
   <v>       0.04753525      -0.30697166      -0.01621490 </v>
   <v>      -0.37390423       0.21101784      -0.06643618 </v>
   <v>       0.03470772      -0.41624188       0.00350820 </v>
   <v>      -0.00894897      -0.04556949       0.06450968 </v>
   <v>      -0.00478027      -0.04420583      -0.08325064 </v>
   <v>       0.04059708      -0.07426464      -0.16214792 </v>
   <v>      -0.04310255      -0.08997478       0.16763085 </v>
   <v>       0.00024405       0.06224787      -0.03566999 </v>
   <v>      -0.03165411       0.07278423       0.04278096 </v>
   <v>       0.08282412       0.05273180       0.09644510 </v>
   <v>       0.03960188       0.05174075      -0.13626898 </v>
   <v>       0.03841187       0.11016586      -0.18820861 </v>
   <v>       0.07187171       0.10410626       0.15737664 </v>
   <v>       0.01073452       0.09723657      -0.03795240 </v>
   <v>       0.06514467       0.08844030       0.01228220 </v>
   <v>      -0.04144141      -0.06201773       0.26922764 </v>
   <v>      -0.06102223      -0.07269156      -0.18544857 </v>
   <v>      -0.07115337      -0.09983540       0.00424119 </v>
   <v>       0.00323203      -0.11064805       0.03238539 </v>
   <v>      -0.05522850      -0.05627288       0.14436163 </v>
   <v>      -0.07765024      -0.03950809      -0.13008008 </v>
  </varray>
  <varray name="stress" >
   <v>     -19.85555437       0.01329530      -0.02926195 </v>
   <v>       0.01329530     -19.45728447      -0.00995048 </v>
   <v>      -0.02926188      -0.00995036      -1.67462619 </v>
  </varray>
  <energy>
   <i name="e_fr_energy">   -188.63367258 </i>
   <i name="e_wo_entrp">   -188.49137445 </i>
   <i name="e_0_energy">     -0.28459625 </i>
  </energy>
  <time name="totalsc">  462.59  463.83</time>
 </calculation>
 <calculation>
  <scstep>
   <time name="dav">   23.99   24.04</time>
   <time name="total">   24.52   24.58</time>
   <energy>
    <i name="alphaZ">     82.35323509 </i>
    <i name="ewald">  41305.79003340 </i>
    <i name="hartreedc"> -47304.35736081 </i>
    <i name="XCdc">   -233.86215031 </i>
    <i name="pawpsdc">   3949.02738060 </i>
    <i name="pawaedc">  -3363.51911810 </i>
    <i name="eentropy">     -0.23671633 </i>
    <i name="bandstr">  -1387.18981571 </i>
    <i name="atom">   6761.44252427 </i>
    <i name="e_fr_energy">   -190.55198789 </i>
    <i name="e_wo_entrp">   -190.31527156 </i>
    <i name="e_0_energy">   -190.43362973 </i>
   </energy>
  </scstep>
  <scstep>
   <time name="dav">   28.99   29.06</time>
   <time name="total">   29.52   29.60</time>
   <energy>
    <i name="e_fr_energy">   -190.54593093 </i>
    <i name="e_wo_entrp">   -190.30630976 </i>
    <i name="e_0_energy">   -190.42612035 </i>
   </energy>
  </scstep>
  <scstep>
   <time name="dav">   30.29   30.37</time>
   <time name="total">   30.82   30.90</time>
   <energy>
    <i name="e_fr_energy">   -190.02451764 </i>
    <i name="e_wo_entrp">   -189.77593348 </i>
    <i name="e_0_energy">   -189.90022556 </i>
   </energy>
  </scstep>
  <scstep>
   <time name="dav">   31.55   31.63</time>
   <time name="total">   32.08   32.17</time>
   <energy>
    <i name="e_fr_energy">   -189.81991680 </i>
    <i name="e_wo_entrp">   -189.58250737 </i>
    <i name="e_0_energy">   -189.70121209 </i>
   </energy>
  </scstep>
  <scstep>
   <time name="dav">   28.40   28.47</time>
   <time name="total">   28.93   29.01</time>
   <energy>
    <i name="e_fr_energy">   -189.73722314 </i>
    <i name="e_wo_entrp">   -189.49500103 </i>
    <i name="e_0_energy">   -189.61611208 </i>
   </energy>
  </scstep>
  <scstep>
   <time name="dav">   29.51   29.58</time>
   <time name="total">   30.04   30.12</time>
   <energy>
    <i name="e_fr_energy">   -189.72306377 </i>
    <i name="e_wo_entrp">   -189.48414266 </i>
    <i name="e_0_energy">   -189.60360321 </i>
   </energy>
  </scstep>
  <scstep>
   <time name="dav">   30.06   30.13</time>
   <time name="total">   30.59   30.68</time>
   <energy>
    <i name="e_fr_energy">   -189.71710638 </i>
    <i name="e_wo_entrp">   -189.47726607 </i>
    <i name="e_0_energy">   -189.59718623 </i>
   </energy>
  </scstep>
  <scstep>
   <time name="dav">   26.62   26.69</time>
   <time name="total">   27.15   27.22</time>
   <energy>
    <i name="e_fr_energy">   -189.71695956 </i>
    <i name="e_wo_entrp">   -189.47743178 </i>
    <i name="e_0_energy">   -189.59719567 </i>
   </energy>
  </scstep>
  <scstep>
   <time name="dav">   27.80   27.87</time>
   <time name="total">   28.33   28.40</time>
   <energy>
    <i name="e_fr_energy">   -189.71717540 </i>
    <i name="e_wo_entrp">   -189.47739075 </i>
    <i name="e_0_energy">   -189.59728308 </i>
   </energy>
  </scstep>
  <scstep>
   <time name="dav">   25.83   25.89</time>
   <time name="total">   26.36   26.43</time>
   <energy>
    <i name="e_fr_energy">   -189.71757428 </i>
    <i name="e_wo_entrp">   -189.47788052 </i>
    <i name="e_0_energy">   -189.59772740 </i>
   </energy>
  </scstep>
  <scstep>
   <time name="dav">   25.09   25.15</time>
   <time name="total">   25.62   25.69</time>
   <energy>
    <i name="e_fr_energy">   -189.71699087 </i>
    <i name="e_wo_entrp">   -189.47723027 </i>
    <i name="e_0_energy">   -189.59711057 </i>
   </energy>
  </scstep>
  <scstep>
   <time name="dav">   16.78   16.82</time>
   <time name="total">   16.82   16.87</time>
   <energy>
    <i name="alphaZ">     82.35323509 </i>
    <i name="ewald">  41305.79003340 </i>
    <i name="hartreedc"> -47278.02452917 </i>
    <i name="XCdc">   -235.25360282 </i>
    <i name="pawpsdc">   4038.50821425 </i>
    <i name="pawaedc">  -3454.20469405 </i>
    <i name="eentropy">     -0.23969545 </i>
    <i name="bandstr">  -1410.08849892 </i>
    <i name="atom">   6761.44252427 </i>
    <i name="e_fr_energy">   -189.71701339 </i>
    <i name="e_wo_entrp">   -189.47731794 </i>
    <i name="e_0_energy">   -189.59716567 </i>
   </energy>
  </scstep>
  <structure>
   <crystal>
    <varray name="basis" >
     <v>       8.66521162       4.99563742       0.00000000 </v>
     <v>      -8.66907175       5.00227916       0.00000000 </v>
     <v>       0.00000000       0.00000000      30.00000000 </v>
    </varray>
    <i name="volume">   2599.60040067 </i>
    <varray name="rec_basis" >
     <v>       0.05772748       0.10004313       0.00000000 </v>
     <v>      -0.05765083       0.09999858       0.00000000 </v>
     <v>       0.00000000       0.00000000       0.03333333 </v>
    </varray>
   </crystal>
   <varray name="positions" >
    <v>       0.33141021      -0.00159348      -0.00017270 </v>
    <v>       1.00303047       0.33589829       0.00014823 </v>
    <v>       0.00187798       0.00050313       0.00005857 </v>
    <v>       0.33361533       0.33530747      -0.00006345 </v>
    <v>       0.33172602       0.66498678      -0.00016635 </v>
    <v>       0.00166624       0.66648880       0.00004443 </v>
    <v>       0.66511160      -0.00174743       0.00003874 </v>
    <v>       0.66655484       0.33534188       0.00011974 </v>
    <v>       0.66465126       0.66453715       0.00004586 </v>
    <v>       0.10655483       0.22008115       0.95316106 </v>
    <v>       0.22004837       0.10654710       0.04682473 </v>
    <v>       0.10882916       0.55092875       0.95180969 </v>
    <v>       0.21729009       0.44187877       0.04820632 </v>
    <v>       0.11326015       0.89342325       0.95304550 </v>
    <v>       0.22437823       0.78230239       0.04807821 </v>
    <v>       0.44317335       0.21796029       0.95201783 </v>
    <v>       0.55197155       0.10939172       0.04797684 </v>
    <v>       0.44557492       0.55623304       0.95061140 </v>
    <v>       0.55666111       0.44495627       0.04943740 </v>
    <v>       0.44301299       0.89189143       0.95193540 </v>
    <v>       0.55658692       0.77824286       0.04924746 </v>
    <v>       0.78127297       0.22379405       0.95213641 </v>
    <v>       0.89211607       0.11255637       0.04676741 </v>
    <v>       0.77672097       0.55506314       0.95072301 </v>
    <v>       0.89007437       0.44112782       0.04804994 </v>
    <v>       0.78119434       0.89046611       0.95199438 </v>
    <v>       0.88985008       0.78164734       0.04792384 </v>
   </varray>
  </structure>
  <varray name="forces" >
   <v>       0.06750664      -0.22044560       0.00231143 </v>
   <v>      -0.01219506       0.39913147      -0.00518962 </v>
   <v>       0.12095978       0.07549040       0.07424081 </v>
   <v>      -0.13730803       0.54226318      -0.05552593 </v>
   <v>       0.12946060      -0.09777076      -0.00106672 </v>
   <v>       0.22076974      -0.05386223       0.07004294 </v>
   <v>       0.05638272      -0.33784679      -0.02121300 </v>
   <v>      -0.42923806       0.23188560      -0.08356660 </v>
   <v>       0.04200523      -0.47221547       0.00218720 </v>
   <v>      -0.04339271      -0.10145720      -0.37198897 </v>
   <v>       0.02533335      -0.08239255       0.34543034 </v>
   <v>       0.07874985      -0.13852597      -0.65712925 </v>
   <v>      -0.07580715      -0.14042104       0.66280417 </v>
   <v>      -0.03440963       0.11109772      -0.48886419 </v>
   <v>      -0.05823157       0.13746065       0.52325980 </v>
   <v>       0.07017767      -0.07870175      -0.38937048 </v>
   <v>      -0.04676427      -0.07052692       0.35378525 </v>
   <v>      -0.00892202       0.04487914      -0.75378920 </v>
   <v>       0.02278102       0.02906955       0.74580482 </v>
   <v>      -0.10364225       0.00724813      -0.54453475 </v>
   <v>       0.02924709       0.00571969       0.56849193 </v>
   <v>       0.03101155       0.06266838      -0.20583514 </v>
   <v>       0.01351606       0.06308391       0.26080011 </v>
   <v>      -0.03527315      -0.01433093      -0.55240744 </v>
   <v>       0.11732493      -0.04403801       0.53306330 </v>
   <v>       0.03492393       0.06262212      -0.35272925 </v>
   <v>      -0.07496629       0.07991528       0.34098847 </v>
  </varray>
  <varray name="stress" >
   <v>     -10.19891127       0.03989545      -0.03483886 </v>
   <v>       0.03989532      -9.84952868       0.02360705 </v>
   <v>      -0.03483890       0.02360721       6.49408710 </v>
  </varray>
  <energy>
   <i name="e_fr_energy">   -189.71701339 </i>
   <i name="e_wo_entrp">   -189.59716567 </i>
   <i name="e_0_energy">     -0.23969545 </i>
  </energy>
  <time name="totalsc">  373.50  374.49</time>
 </calculation>
 <calculation>
  <scstep>
   <time name="dav">   21.70   21.76</time>
   <time name="total">   22.22   22.27</time>
   <energy>
    <i name="alphaZ">     85.86164010 </i>
    <i name="ewald">  42852.75808394 </i>
    <i name="hartreedc"> -48869.77594132 </i>
    <i name="XCdc">   -232.93657147 </i>
    <i name="pawpsdc">   4038.52632803 </i>
    <i name="pawaedc">  -3454.21998798 </i>
    <i name="eentropy">     -0.19608787 </i>
    <i name="bandstr">  -1372.74212017 </i>
    <i name="atom">   6761.44252427 </i>
    <i name="e_fr_energy">   -191.28213245 </i>
    <i name="e_wo_entrp">   -191.08604459 </i>
    <i name="e_0_energy">   -191.18408852 </i>
   </energy>
  </scstep>
  <scstep>
   <time name="dav">   32.53   32.61</time>
   <time name="total">   33.04   33.12</time>
   <energy>
    <i name="e_fr_energy">   -191.15719797 </i>
    <i name="e_wo_entrp">   -190.95464307 </i>
    <i name="e_0_energy">   -191.05592052 </i>
   </energy>
  </scstep>
  <scstep>
   <time name="dav">   30.16   30.23</time>
   <time name="total">   30.66   30.75</time>
   <energy>
    <i name="e_fr_energy">   -191.19699857 </i>
    <i name="e_wo_entrp">   -190.98049092 </i>
    <i name="e_0_energy">   -191.08874474 </i>
   </energy>
  </scstep>
  <scstep>
   <time name="dav">   30.90   30.97</time>
   <time name="total">   31.41   31.49</time>
   <energy>
    <i name="e_fr_energy">   -190.83765422 </i>
    <i name="e_wo_entrp">   -190.63348099 </i>
    <i name="e_0_energy">   -190.73556760 </i>
   </energy>
  </scstep>
  <scstep>
   <time name="dav">   29.56   29.63</time>
   <time name="total">   30.07   30.15</time>
   <energy>
    <i name="e_fr_energy">   -190.83340000 </i>
    <i name="e_wo_entrp">   -190.63549936 </i>
    <i name="e_0_energy">   -190.73444968 </i>
   </energy>
  </scstep>
  <scstep>
   <time name="dav">   29.92   29.99</time>
   <time name="total">   30.43   30.51</time>
   <energy>
    <i name="e_fr_energy">   -190.68853185 </i>
    <i name="e_wo_entrp">   -190.48443749 </i>
    <i name="e_0_energy">   -190.58648467 </i>
   </energy>
  </scstep>
  <scstep>
   <time name="dav">   30.29   30.36</time>
   <time name="total">   30.80   30.88</time>
   <energy>
    <i name="e_fr_energy">   -190.68307280 </i>
    <i name="e_wo_entrp">   -190.48104869 </i>
    <i name="e_0_energy">   -190.58206075 </i>
   </energy>
  </scstep>
  <scstep>
   <time name="dav">   28.98   29.05</time>
   <time name="total">   29.50   29.57</time>
   <energy>
    <i name="e_fr_energy">   -190.68154656 </i>
    <i name="e_wo_entrp">   -190.47930563 </i>
    <i name="e_0_energy">   -190.58042609 </i>
   </energy>
  </scstep>
  <scstep>
   <time name="dav">   28.23   28.30</time>
   <time name="total">   28.74   28.82</time>
   <energy>
    <i name="e_fr_energy">   -190.67935360 </i>
    <i name="e_wo_entrp">   -190.47700635 </i>
    <i name="e_0_energy">   -190.57817998 </i>
   </energy>
  </scstep>
  <scstep>
   <time name="dav">   26.58   26.65</time>
   <time name="total">   27.10   27.17</time>
   <energy>
    <i name="e_fr_energy">   -190.67962584 </i>
    <i name="e_wo_entrp">   -190.47699466 </i>
    <i name="e_0_energy">   -190.57831025 </i>
   </energy>
  </scstep>
  <scstep>
   <time name="dav">   26.54   26.61</time>
   <time name="total">   27.06   27.13</time>
   <energy>
    <i name="e_fr_energy">   -190.67946588 </i>
    <i name="e_wo_entrp">   -190.47706124 </i>
    <i name="e_0_energy">   -190.57826356 </i>
   </energy>
  </scstep>
  <scstep>
   <time name="dav">   19.89   19.93</time>
   <time name="total">   19.92   19.98</time>
   <energy>
    <i name="alphaZ">     85.86164010 </i>
    <i name="ewald">  42852.75808394 </i>
    <i name="hartreedc"> -48840.97711829 </i>
    <i name="XCdc">   -234.28256180 </i>
    <i name="pawpsdc">   4063.65768796 </i>
    <i name="pawaedc">  -3479.53303331 </i>
    <i name="eentropy">     -0.20242339 </i>
    <i name="bandstr">  -1399.40425926 </i>
    <i name="atom">   6761.44252427 </i>
    <i name="e_fr_energy">   -190.67945978 </i>
    <i name="e_wo_entrp">   -190.47703639 </i>
    <i name="e_0_energy">   -190.57824808 </i>
   </energy>
  </scstep>
  <structure>
   <crystal>
    <varray name="basis" >
     <v>       8.48216990       4.89708829       0.00000000 </v>
     <v>      -8.48406132       4.90032560       0.00000000 </v>
     <v>       0.00000000       0.00000000      30.00000000 </v>
    </varray>
    <i name="volume">   2493.37774913 </i>
    <varray name="rec_basis" >
     <v>       0.05896009       0.10207913       0.00000000 </v>
     <v>      -0.05892114       0.10205638       0.00000000 </v>
     <v>       0.00000000       0.00000000       0.03333333 </v>
    </varray>
   </crystal>
   <varray name="positions" >
    <v>       0.33039489      -0.00324045      -0.00014665 </v>
    <v>       1.00543045       0.33848568       0.00012020 </v>
    <v>       0.00264996       0.00045243       0.00021398 </v>
    <v>       0.33685282       0.33945131      -0.00016955 </v>
    <v>       0.33176601       0.66397286      -0.00014890 </v>
    <v>       0.00197355       0.66522544       0.00018834 </v>
    <v>       0.66312688      -0.00416584      -0.00000961 </v>
    <v>       0.66642740       0.33848788      -0.00006854 </v>
    <v>       0.66170394       0.66126532       0.00004927 </v>
    <v>       0.10556844       0.21950992       0.95201393 </v>
    <v>       0.21956975       0.10579749       0.04790998 </v>
    <v>       0.10813737       0.54955536       0.95002010 </v>
    <v>       0.21595732       0.44119131       0.05000786 </v>
    <v>       0.11390661       0.89441963       0.95164127 </v>
    <v>       0.22515565       0.78357895       0.04957729 </v>
    <v>       0.44258342       0.21689849       0.95079229 </v>
    <v>       0.55092458       0.10893525       0.04913209 </v>
    <v>       0.44559134       0.55645167       0.94856046 </v>
    <v>       0.55666603       0.44493862       0.05149135 </v>
    <v>       0.44228931       0.89225193       0.95036974 </v>
    <v>       0.55646830       0.77801651       0.05090546 </v>
    <v>       0.78219923       0.22428451       0.95130134 </v>
    <v>       0.89301245       0.11313777       0.04769194 </v>
    <v>       0.77677058       0.55526425       0.94909805 </v>
    <v>       0.89055703       0.44042801       0.04958671 </v>
    <v>       0.78214564       0.89090181       0.95083528 </v>
    <v>       0.89038549       0.78271833       0.04903622 </v>
   </varray>
  </structure>
  <varray name="forces" >
   <v>       0.15277866      -0.21974387       0.04853967 </v>
   <v>      -0.02039486       0.36878470      -0.05218803 </v>
   <v>       0.07267003       0.05820058       0.04901707 </v>
   <v>      -0.09395100       0.60867259      -0.01027201 </v>
   <v>       0.15038913      -0.02305080       0.02439478 </v>
   <v>       0.22724073      -0.06807307       0.03204390 </v>
   <v>       0.10847270      -0.38240431      -0.02834057 </v>
   <v>      -0.53433432       0.25803434      -0.05174165 </v>
   <v>       0.03163827      -0.53377074      -0.00617947 </v>
   <v>       0.00997315       0.04011567      -0.24910211 </v>
   <v>      -0.02955825       0.04935817       0.21806600 </v>
   <v>       0.04797603      -0.03009236      -0.46317302 </v>
   <v>      -0.01180121      -0.01799168       0.48117600 </v>
   <v>       0.01699230       0.00524265      -0.37606827 </v>
   <v>       0.00173731       0.01947752       0.36598454 </v>
   <v>      -0.02855861      -0.02887349      -0.25429796 </v>
   <v>      -0.05491952      -0.01872500       0.15519073 </v>
   <v>      -0.04909248       0.01068729      -0.61580517 </v>
   <v>      -0.01991972      -0.01503944       0.62183821 </v>
   <v>      -0.04323001      -0.07967112      -0.41574547 </v>
   <v>       0.01551964      -0.06300823       0.40929627 </v>
   <v>       0.00153943       0.01820726      -0.01908253 </v>
   <v>      -0.01482438       0.02516867       0.17499362 </v>
   <v>      -0.02382056       0.07001033      -0.40303395 </v>
   <v>       0.04553252      -0.02497818       0.38335755 </v>
   <v>       0.05429339      -0.01376696      -0.20997583 </v>
   <v>      -0.01234837      -0.01277051       0.19110770 </v>
  </varray>
  <varray name="stress" >
   <v>      -5.78576095      -0.07945754      -0.05656588 </v>
   <v>      -0.07945748      -5.72848395      -0.05315571 </v>
   <v>      -0.05656600      -0.05315572       4.56451217 </v>
  </varray>
  <energy>
   <i name="e_fr_energy">   -190.67945978 </i>
   <i name="e_wo_entrp">   -190.57824808 </i>
   <i name="e_0_energy">     -0.20242339 </i>
  </energy>
  <time name="totalsc">  383.03  384.04</time>
 </calculation>
 <calculation>
  <scstep>
   <time name="dav">   21.76   21.81</time>
   <time name="total">   22.26   22.32</time>
   <energy>
    <i name="alphaZ">     90.23220382 </i>
    <i name="ewald">  44691.62042604 </i>
    <i name="hartreedc"> -50735.37925183 </i>
    <i name="XCdc">   -231.81646151 </i>
    <i name="pawpsdc">   4063.60509213 </i>
    <i name="pawaedc">  -3479.47530158 </i>
    <i name="eentropy">     -0.18024986 </i>
    <i name="bandstr">  -1352.11299776 </i>
    <i name="atom">   6761.44252427 </i>
    <i name="e_fr_energy">   -192.06401627 </i>
    <i name="e_wo_entrp">   -191.88376642 </i>
    <i name="e_0_energy">   -191.97389134 </i>
   </energy>
  </scstep>
  <scstep>
   <time name="dav">   29.67   29.74</time>
   <time name="total">   30.17   30.25</time>
   <energy>
    <i name="e_fr_energy">   -191.84180370 </i>
    <i name="e_wo_entrp">   -191.64959942 </i>
    <i name="e_0_energy">   -191.74570156 </i>
   </energy>
  </scstep>
  <scstep>
   <time name="dav">   30.02   30.09</time>
   <time name="total">   30.52   30.60</time>
   <energy>
    <i name="e_fr_energy">   -192.22538046 </i>
    <i name="e_wo_entrp">   -192.02404994 </i>
    <i name="e_0_energy">   -192.12471520 </i>
   </energy>
  </scstep>
  <scstep>
   <time name="dav">   29.97   30.04</time>
   <time name="total">   30.48   30.56</time>
   <energy>
    <i name="e_fr_energy">   -191.56108901 </i>
    <i name="e_wo_entrp">   -191.37342131 </i>
    <i name="e_0_energy">   -191.46725516 </i>
   </energy>
  </scstep>
  <scstep>
   <time name="dav">   30.08   30.15</time>
   <time name="total">   30.58   30.66</time>
   <energy>
    <i name="e_fr_energy">   -191.38799337 </i>
    <i name="e_wo_entrp">   -191.20216162 </i>
    <i name="e_0_energy">   -191.29507750 </i>
   </energy>
  </scstep>
  <scstep>
   <time name="dav">   30.67   30.75</time>
   <time name="total">   31.18   31.26</time>
   <energy>
    <i name="e_fr_energy">   -191.37117377 </i>
    <i name="e_wo_entrp">   -191.17723452 </i>
    <i name="e_0_energy">   -191.27420414 </i>
   </energy>
  </scstep>
  <scstep>
   <time name="dav">   30.09   30.16</time>
   <time name="total">   30.59   30.67</time>
   <energy>
    <i name="e_fr_energy">   -191.34723451 </i>
    <i name="e_wo_entrp">   -191.16031711 </i>
    <i name="e_0_energy">   -191.25377581 </i>
   </energy>
  </scstep>
  <scstep>
   <time name="dav">   27.93   28.00</time>
   <time name="total">   28.44   28.51</time>
   <energy>
    <i name="e_fr_energy">   -191.33987171 </i>
    <i name="e_wo_entrp">   -191.15150186 </i>
    <i name="e_0_energy">   -191.24568678 </i>
   </energy>
  </scstep>
  <scstep>
   <time name="dav">   30.78   30.85</time>
   <time name="total">   31.28   31.37</time>
   <energy>
    <i name="e_fr_energy">   -191.34118906 </i>
    <i name="e_wo_entrp">   -191.15250701 </i>
    <i name="e_0_energy">   -191.24684803 </i>
   </energy>
  </scstep>
  <scstep>
   <time name="dav">   28.30   28.37</time>
   <time name="total">   28.80   28.88</time>
   <energy>
    <i name="e_fr_energy">   -191.34015898 </i>
    <i name="e_wo_entrp">   -191.15154948 </i>
    <i name="e_0_energy">   -191.24585423 </i>
   </energy>
  </scstep>
  <scstep>
   <time name="dav">   26.49   26.55</time>
   <time name="total">   26.99   27.07</time>
   <energy>
    <i name="e_fr_energy">   -191.33999241 </i>
    <i name="e_wo_entrp">   -191.15132766 </i>
    <i name="e_0_energy">   -191.24566003 </i>
   </energy>
  </scstep>
  <scstep>
   <time name="dav">   20.33   20.38</time>
   <time name="total">   20.36   20.42</time>
   <energy>
    <i name="alphaZ">     90.23220382 </i>
    <i name="ewald">  44691.62042604 </i>
    <i name="hartreedc"> -50701.18039791 </i>
    <i name="XCdc">   -233.35931240 </i>
    <i name="pawpsdc">   4084.64494192 </i>
    <i name="pawaedc">  -3500.58655032 </i>
    <i name="eentropy">     -0.18864181 </i>
    <i name="bandstr">  -1383.96515250 </i>
    <i name="atom">   6761.44252427 </i>
    <i name="e_fr_energy">   -191.33995889 </i>
    <i name="e_wo_entrp">   -191.15131708 </i>
    <i name="e_0_energy">   -191.24563798 </i>
   </energy>
  </scstep>
  <structure>
   <crystal>
    <varray name="basis" >
     <v>       8.27006004       4.77498503       0.00000000 </v>
     <v>      -8.27573424       4.78477450       0.00000000 </v>
     <v>       0.00000000       0.00000000      30.00000000 </v>
    </varray>
    <i name="volume">   2372.60638518 </i>
    <varray name="rec_basis" >
     <v>       0.06050023       0.10464105       0.00000000 </v>
     <v>      -0.06037645       0.10456931       0.00000000 </v>
     <v>       0.00000000       0.00000000       0.03333333 </v>
    </varray>
   </crystal>
   <varray name="positions" >
    <v>       0.32884388      -0.00695149       0.00004664 </v>
    <v>       1.00978953       0.34323121      -0.00008267 </v>
    <v>       0.00379083       0.00053416       0.00042464 </v>
    <v>       0.34386842       0.34777754      -0.00022434 </v>
    <v>       0.33261474       0.66260171      -0.00004263 </v>
    <v>       0.00258726       0.66267091       0.00033492 </v>
    <v>       0.65915776      -0.00959752      -0.00012385 </v>
    <v>       0.66583346       0.34543608      -0.00030914 </v>
    <v>       0.65534964       0.65442052       0.00002780 </v>
    <v>       0.10562221       0.21964086       0.95052333 </v>
    <v>       0.21973732       0.10617660       0.04927138 </v>
    <v>       0.10783376       0.54838618       0.94757890 </v>
    <v>       0.21518526       0.44081953       0.05251449 </v>
    <v>       0.11430248       0.89479002       0.94963272 </v>
    <v>       0.22568933       0.78429261       0.05159640 </v>
    <v>       0.44163799       0.21620849       0.94922581 </v>
    <v>       0.54972933       0.10878980       0.05034125 </v>
    <v>       0.44520316       0.55683839       0.94547047 </v>
    <v>       0.55615700       0.44479268       0.05462038 </v>
    <v>       0.44064284       0.89171611       0.94814158 </v>
    <v>       0.55563525       0.77705725       0.05317311 </v>
    <v>       0.78301820       0.22478266       0.95065677 </v>
    <v>       0.89382439       0.11385567       0.04887628 </v>
    <v>       0.77761472       0.55634771       0.94686026 </v>
    <v>       0.89099399       0.43970095       0.05169100 </v>
    <v>       0.78296520       0.89068960       0.94943053 </v>
    <v>       0.89058650       0.78320622       0.05034385 </v>
   </varray>
  </structure>
  <varray name="forces" >
   <v>       0.24802462      -0.30615778       0.01349900 </v>
   <v>       0.02802985       0.34178147      -0.00580339 </v>
   <v>      -0.01117751       0.10821425       0.05272973 </v>
   <v>      -0.03367650       0.29851471       0.02248332 </v>
   <v>       0.01200395       0.08596899      -0.03876240 </v>
   <v>       0.18828279      -0.00813897      -0.02470824 </v>
   <v>       0.24710207      -0.45367623      -0.04637729 </v>
   <v>      -0.46943701       0.22400360       0.05327755 </v>
   <v>      -0.07209852      -0.27947483      -0.06654415 </v>
   <v>       0.06403696       0.19877864       0.01073104 </v>
   <v>      -0.04417588       0.18491301      -0.09132901 </v>
   <v>       0.02310597       0.07780528      -0.13150626 </v>
   <v>       0.06898054       0.10159610       0.12637137 </v>
   <v>       0.06544692      -0.06620481      -0.02853762 </v>
   <v>       0.08086492      -0.10522075       0.11810496 </v>
   <v>      -0.13392744       0.07125188       0.06920894 </v>
   <v>      -0.03164367       0.08043358      -0.18539841 </v>
   <v>      -0.09116215       0.01424742      -0.28322814 </v>
   <v>      -0.02962562      -0.00047746       0.35909616 </v>
   <v>       0.01740070      -0.12430822      -0.13463303 </v>
   <v>       0.07433498      -0.09695426       0.19821892 </v>
   <v>      -0.11632005      -0.07684433       0.31536497 </v>
   <v>      -0.06581558      -0.03011931      -0.09984009 </v>
   <v>      -0.09514202       0.13780389      -0.15316896 </v>
   <v>      -0.04003031      -0.04615763       0.04977683 </v>
   <v>       0.07455605      -0.15550121       0.02183402 </v>
   <v>       0.04206195      -0.17607703      -0.12085983 </v>
  </varray>
  <varray name="stress" >
   <v>      -0.30640914      -0.18481114       0.27760559 </v>
   <v>      -0.18481123       0.11804196      -0.18650954 </v>
   <v>       0.27760567      -0.18650953      -0.43390835 </v>
  </varray>
  <energy>
   <i name="e_fr_energy">   -191.33995889 </i>
   <i name="e_wo_entrp">   -191.24563798 </i>
   <i name="e_0_energy">     -0.18864181 </i>
  </energy>
  <time name="totalsc">  384.40  385.42</time>
 </calculation>
 <calculation>
  <scstep>
   <time name="dav">   21.77   21.82</time>
   <time name="total">   22.27   22.33</time>
   <energy>
    <i name="alphaZ">     90.31746908 </i>
    <i name="ewald">  44707.99492351 </i>
    <i name="hartreedc"> -50719.27905736 </i>
    <i name="XCdc">   -233.39211838 </i>
    <i name="pawpsdc">   4084.53870416 </i>
    <i name="pawaedc">  -3500.47517385 </i>
    <i name="eentropy">     -0.18942613 </i>
    <i name="bandstr">  -1382.38451610 </i>
    <i name="atom">   6761.44252427 </i>
    <i name="e_fr_energy">   -191.42667080 </i>
    <i name="e_wo_entrp">   -191.23724467 </i>
    <i name="e_0_energy">   -191.33195773 </i>
   </energy>
  </scstep>
  <scstep>
   <time name="dav">   32.27   32.34</time>
   <time name="total">   32.77   32.86</time>
   <energy>
    <i name="e_fr_energy">   -191.48932710 </i>
    <i name="e_wo_entrp">   -191.28875493 </i>
    <i name="e_0_energy">   -191.38904102 </i>
   </energy>
  </scstep>
  <scstep>
   <time name="dav">   30.08   30.15</time>
   <time name="total">   30.58   30.66</time>
   <energy>
    <i name="e_fr_energy">   -191.44246519 </i>
    <i name="e_wo_entrp">   -191.25242610 </i>
    <i name="e_0_energy">   -191.34744564 </i>
   </energy>
  </scstep>
  <scstep>
   <time name="dav">   29.13   29.20</time>
   <time name="total">   29.63   29.71</time>
   <energy>
    <i name="e_fr_energy">   -191.44289404 </i>
    <i name="e_wo_entrp">   -191.25181302 </i>
    <i name="e_0_energy">   -191.34735353 </i>
   </energy>
  </scstep>
  <scstep>
   <time name="dav">   29.03   29.10</time>
   <time name="total">   29.54   29.61</time>
   <energy>
    <i name="e_fr_energy">   -191.43753191 </i>
    <i name="e_wo_entrp">   -191.24618833 </i>
    <i name="e_0_energy">   -191.34186012 </i>
   </energy>
  </scstep>
  <scstep>
   <time name="dav">   27.58   27.65</time>
   <time name="total">   28.08   28.16</time>
   <energy>
    <i name="e_fr_energy">   -191.43708026 </i>
    <i name="e_wo_entrp">   -191.24548811 </i>
    <i name="e_0_energy">   -191.34128419 </i>
   </energy>
  </scstep>
  <scstep>
   <time name="dav">   26.38   26.44</time>
   <time name="total">   26.88   26.96</time>
   <energy>
    <i name="e_fr_energy">   -191.43684533 </i>
    <i name="e_wo_entrp">   -191.24507159 </i>
    <i name="e_0_energy">   -191.34095846 </i>
   </energy>
  </scstep>
  <scstep>
   <time name="dav">   24.59   24.65</time>
   <time name="total">   24.63   24.69</time>
   <energy>
    <i name="alphaZ">     90.31746908 </i>
    <i name="ewald">  44707.99492351 </i>
    <i name="hartreedc"> -50719.54761265 </i>
    <i name="XCdc">   -233.39715527 </i>
    <i name="pawpsdc">   4083.04869690 </i>
    <i name="pawaedc">  -3498.95411737 </i>
    <i name="eentropy">     -0.19158758 </i>
    <i name="bandstr">  -1382.14994123 </i>
    <i name="atom">   6761.44252427 </i>
    <i name="e_fr_energy">   -191.43680033 </i>
    <i name="e_wo_entrp">   -191.24521275 </i>
    <i name="e_0_energy">   -191.34100654 </i>
   </energy>
  </scstep>
  <structure>
   <crystal>
    <varray name="basis" >
     <v>       8.25894586       4.77132140       0.00000000 </v>
     <v>      -8.26944697       4.78947652       0.00000000 </v>
     <v>       0.00000000       0.00000000      30.00000000 </v>
    </varray>
    <i name="volume">   2370.36649852 </i>
    <varray name="rec_basis" >
     <v>       0.06061691       0.10466036       0.00000000 </v>
     <v>      -0.06038714       0.10452745       0.00000000 </v>
     <v>       0.00000000       0.00000000       0.03333333 </v>
    </varray>
   </crystal>
   <varray name="positions" >
    <v>       0.32797946      -0.00932909       0.00007175 </v>
    <v>       1.01170607       0.34498576      -0.00009519 </v>
    <v>       0.00433330       0.00112702       0.00051481 </v>
    <v>       0.34541835       0.34954695      -0.00018824 </v>
    <v>       0.33310866       0.66298972      -0.00010484 </v>
    <v>       0.00311584       0.66202778       0.00029656 </v>
    <v>       0.65749041      -0.01276096      -0.00020198 </v>
    <v>       0.66557963       0.34809860      -0.00022524 </v>
    <v>       0.65359348       0.65308850      -0.00008215 </v>
    <v>       0.10683784       0.22047642       0.95051397 </v>
    <v>       0.22056203       0.10726573       0.04914595 </v>
    <v>       0.10829815       0.54869750       0.94732010 </v>
    <v>       0.21590106       0.44113101       0.05276574 </v>
    <v>       0.11416372       0.89426214       0.94955086 </v>
    <v>       0.22539759       0.78352270       0.05182653 </v>
    <v>       0.44158810       0.21696102       0.94931115 </v>
    <v>       0.55002730       0.10929489       0.05005952 </v>
    <v>       0.44499672       0.55718899       0.94495162 </v>
    <v>       0.55605653       0.44487546       0.05526498 </v>
    <v>       0.44002372       0.89101491       0.94788101 </v>
    <v>       0.55534194       0.77631912       0.05353971 </v>
    <v>       0.78229072       0.22474284       0.95116126 </v>
    <v>       0.89348983       0.11391011       0.04873415 </v>
    <v>       0.77805712       0.55736078       0.94656840 </v>
    <v>       0.89064615       0.43957003       0.05180995 </v>
    <v>       0.78240192       0.88966337       0.94944004 </v>
    <v>       0.88980881       0.78218317       0.05016950 </v>
   </varray>
  </structure>
  <varray name="forces" >
   <v>       0.24874769      -0.34397657       0.02205652 </v>
   <v>       0.07457089       0.39072636       0.00185746 </v>
   <v>      -0.03365554       0.16298962       0.10396042 </v>
   <v>      -0.08327572       0.29385923       0.00263454 </v>
   <v>      -0.02697309       0.08314718      -0.01165868 </v>
   <v>       0.22288261      -0.00719111      -0.00411090 </v>
   <v>       0.32824624      -0.52126876      -0.02506520 </v>
   <v>      -0.49669483       0.27772485       0.00342114 </v>
   <v>      -0.10164797      -0.28400973      -0.00902147 </v>
   <v>       0.03439619       0.13188725       0.02845573 </v>
   <v>      -0.00793262       0.12623604      -0.12641557 </v>
   <v>       0.03125581       0.04375289      -0.11573283 </v>
   <v>       0.02367515       0.07653849       0.09409095 </v>
   <v>       0.04728587      -0.04166921      -0.00177931 </v>
   <v>       0.05530441      -0.08207695       0.10120750 </v>
   <v>      -0.07545744       0.05108590       0.12711826 </v>
   <v>      -0.00523180       0.06647802      -0.24232977 </v>
   <v>      -0.07589457      -0.00673088      -0.19930629 </v>
   <v>      -0.05422809       0.02962200       0.25478555 </v>
   <v>       0.00722375      -0.08796778      -0.15160673 </v>
   <v>       0.05306343      -0.07973567       0.17427688 </v>
   <v>      -0.08510677      -0.08988315       0.39796541 </v>
   <v>      -0.07020588      -0.03005836      -0.15906387 </v>
   <v>      -0.07599714       0.09726007      -0.08242063 </v>
   <v>      -0.01968226      -0.02984800       0.01148849 </v>
   <v>       0.06244835      -0.10538430      -0.00848476 </v>
   <v>       0.02288333      -0.12150743      -0.18632281 </v>
  </varray>
  <varray name="stress" >
   <v>       0.05771810      -0.05964982       0.13853865 </v>
   <v>      -0.05964991       0.09521598      -0.04379250 </v>
   <v>       0.13853871      -0.04379264      -1.22656871 </v>
  </varray>
  <energy>
   <i name="e_fr_energy">   -191.43680033 </i>
   <i name="e_wo_entrp">   -191.34100654 </i>
   <i name="e_0_energy">     -0.19158758 </i>
  </energy>
  <time name="totalsc">  266.42  267.13</time>
 </calculation>
 <calculation>
  <scstep>
   <time name="dav">   21.75   21.80</time>
   <time name="total">   22.26   22.31</time>
   <energy>
    <i name="alphaZ">     90.29929910 </i>
    <i name="ewald">  44700.81334260 </i>
    <i name="hartreedc"> -50712.11102980 </i>
    <i name="XCdc">   -233.40538670 </i>
    <i name="pawpsdc">   4083.04389820 </i>
    <i name="pawaedc">  -3498.94942703 </i>
    <i name="eentropy">     -0.19118558 </i>
    <i name="bandstr">  -1382.40201943 </i>
    <i name="atom">   6761.44252427 </i>
    <i name="e_fr_energy">   -191.45998436 </i>
    <i name="e_wo_entrp">   -191.26879878 </i>
    <i name="e_0_energy">   -191.36439157 </i>
   </energy>
  </scstep>
  <scstep>
   <time name="dav">   33.06   33.13</time>
   <time name="total">   33.56   33.65</time>
   <energy>
    <i name="e_fr_energy">   -191.46327046 </i>
    <i name="e_wo_entrp">   -191.26935133 </i>
    <i name="e_0_energy">   -191.36631089 </i>
   </energy>
  </scstep>
  <scstep>
   <time name="dav">   28.46   28.53</time>
   <time name="total">   28.97   29.04</time>
   <energy>
    <i name="e_fr_energy">   -191.46063597 </i>
    <i name="e_wo_entrp">   -191.26933055 </i>
    <i name="e_0_energy">   -191.36498326 </i>
   </energy>
  </scstep>
  <scstep>
   <time name="dav">   25.60   25.66</time>
   <time name="total">   26.10   26.17</time>
   <energy>
    <i name="e_fr_energy">   -191.46080324 </i>
    <i name="e_wo_entrp">   -191.26928644 </i>
    <i name="e_0_energy">   -191.36504484 </i>
   </energy>
  </scstep>
  <scstep>
   <time name="dav">   22.96   23.01</time>
   <time name="total">   23.46   23.52</time>
   <energy>
    <i name="e_fr_energy">   -191.46046021 </i>
    <i name="e_wo_entrp">   -191.26882841 </i>
    <i name="e_0_energy">   -191.36464431 </i>
   </energy>
  </scstep>
  <scstep>
[...]
      <set comment="kpoint 31">
       <r>  -17.5004    1.0000 </r>
       <r>  -17.3357    1.0000 </r>
       <r>  -16.8556    1.0000 </r>
       <r>  -16.5407    1.0000 </r>
       <r>  -16.4349    1.0000 </r>
       <r>  -16.3817    1.0000 </r>
       <r>  -16.2592    1.0000 </r>
       <r>  -16.1767    1.0000 </r>
       <r>  -16.1295    1.0000 </r>
       <r>  -15.9983    1.0000 </r>
       <r>  -15.9527    1.0000 </r>
       <r>  -15.8176    1.0000 </r>
       <r>  -15.7994    1.0000 </r>
       <r>  -15.7213    1.0000 </r>
       <r>  -15.6318    1.0000 </r>
       <r>  -15.5374    1.0000 </r>
       <r>  -15.4789    1.0000 </r>
       <r>  -15.4249    1.0000 </r>
       <r>   -9.8108    1.0000 </r>
       <r>   -9.4071    1.0000 </r>
       <r>   -9.3398    1.0000 </r>
       <r>   -8.9931    1.0000 </r>
       <r>   -8.8004    1.0000 </r>
       <r>   -8.6833    1.0000 </r>
       <r>   -8.6090    1.0000 </r>
       <r>   -8.4534    1.0000 </r>
       <r>   -8.3707    1.0000 </r>
       <r>   -8.3383    1.0000 </r>
       <r>   -8.2490    1.0000 </r>
       <r>   -8.1966    1.0000 </r>
       <r>   -8.1304    1.0000 </r>
       <r>   -8.0691    1.0000 </r>
       <r>   -7.9509    1.0000 </r>
       <r>   -7.9237    1.0000 </r>
       <r>   -7.8231    1.0000 </r>
       <r>   -7.5421    1.0000 </r>
       <r>   -7.5031    1.0000 </r>
       <r>   -7.3959    1.0000 </r>
       <r>   -7.2724    1.0000 </r>
       <r>   -7.1510    1.0000 </r>
       <r>   -7.0993    1.0000 </r>
       <r>   -7.0716    1.0000 </r>
       <r>   -6.9855    1.0000 </r>
       <r>   -6.9143    1.0000 </r>
       <r>   -6.8552    1.0000 </r>
       <r>   -6.7813    1.0000 </r>
       <r>   -6.7039    1.0000 </r>
       <r>   -6.6535    1.0000 </r>
       <r>   -6.5507    1.0000 </r>
       <r>   -6.4857    1.0000 </r>
       <r>   -6.4498    1.0000 </r>
       <r>   -6.3358    1.0000 </r>
       <r>   -6.2850    1.0000 </r>
       <r>   -6.1627    1.0000 </r>
       <r>   -6.0807    1.0000 </r>
       <r>   -5.9937    1.0000 </r>
       <r>   -5.9355    1.0000 </r>
       <r>   -5.9050    1.0000 </r>
       <r>   -5.8655    1.0000 </r>
       <r>   -5.8299    1.0000 </r>
       <r>   -5.7509    1.0000 </r>
       <r>   -5.6538    1.0000 </r>
       <r>   -5.6174    1.0000 </r>
       <r>   -5.5256    1.0000 </r>
       <r>   -5.2417    1.0000 </r>
       <r>   -5.1054    1.0000 </r>
       <r>   -5.0564    1.0000 </r>
       <r>   -4.9017    1.0000 </r>
       <r>   -4.8488    1.0000 </r>
       <r>   -4.7161    1.0000 </r>
       <r>   -4.5178    1.0000 </r>
       <r>   -4.3994    1.0000 </r>
       <r>   -4.1807    1.0000 </r>
       <r>   -4.0864    1.0000 </r>
       <r>   -3.9190    1.0000 </r>
       <r>   -3.7001    1.0000 </r>
       <r>   -3.5617    0.9998 </r>
       <r>   -3.4960    0.9991 </r>
       <r>   -3.3076    0.9633 </r>
       <r>   -3.0030    0.3581 </r>
       <r>   -2.9209    0.1727 </r>
       <r>   -2.7878    0.0297 </r>
       <r>   -2.6680    0.0031 </r>
       <r>   -2.5957    0.0006 </r>
       <r>   -2.5237    0.0001 </r>
       <r>   -2.3907    0.0000 </r>
       <r>   -2.3112    0.0000 </r>
       <r>   -2.2143    0.0000 </r>
       <r>   -2.1919    0.0000 </r>
       <r>   -2.0471    0.0000 </r>
       <r>   -1.8390    0.0000 </r>
       <r>   -1.6471    0.0000 </r>
       <r>   -1.5024    0.0000 </r>
       <r>   -1.3936    0.0000 </r>
       <r>   -1.3225    0.0000 </r>
       <r>   -1.1870    0.0000 </r>
       <r>   -1.1195    0.0000 </r>
       <r>   -0.8453    0.0000 </r>
       <r>   -0.8332    0.0000 </r>
       <r>   -0.7703    0.0000 </r>
       <r>   -0.6820    0.0000 </r>
       <r>   -0.6559    0.0000 </r>
       <r>   -0.5649    0.0000 </r>
       <r>   -0.5160    0.0000 </r>
       <r>   -0.3618    0.0000 </r>
       <r>   -0.2939    0.0000 </r>
       <r>   -0.1640    0.0000 </r>
       <r>   -0.0084    0.0000 </r>
       <r>    0.0822    0.0000 </r>
       <r>    0.3608    0.0000 </r>
       <r>    0.5057    0.0000 </r>
       <r>    0.6901    0.0000 </r>
       <r>    0.7913    0.0000 </r>
       <r>    0.9658    0.0000 </r>
       <r>    1.2085    0.0000 </r>
       <r>    1.2865    0.0000 </r>
       <r>    1.6529    0.0000 </r>
       <r>    2.1639    0.0000 </r>
       <r>    2.3014    0.0000 </r>
       <r>    2.4197    0.0000 </r>
      </set>
      <set comment="kpoint 32">
       <r>  -17.5211    1.0000 </r>
       <r>  -17.2662    1.0000 </r>
       <r>  -16.9624    1.0000 </r>
       <r>  -16.5316    1.0000 </r>
       <r>  -16.3886    1.0000 </r>
       <r>  -16.3209    1.0000 </r>
       <r>  -16.2575    1.0000 </r>
       <r>  -16.1981    1.0000 </r>
       <r>  -16.1314    1.0000 </r>
       <r>  -16.0203    1.0000 </r>
       <r>  -15.9215    1.0000 </r>
       <r>  -15.8950    1.0000 </r>
       <r>  -15.7993    1.0000 </r>
       <r>  -15.7165    1.0000 </r>
       <r>  -15.6431    1.0000 </r>
       <r>  -15.5346    1.0000 </r>
       <r>  -15.4607    1.0000 </r>
       <r>  -15.4051    1.0000 </r>
       <r>   -9.7771    1.0000 </r>
       <r>   -9.4836    1.0000 </r>
       <r>   -9.4209    1.0000 </r>
       <r>   -8.9611    1.0000 </r>
       <r>   -8.6721    1.0000 </r>
       <r>   -8.5827    1.0000 </r>
       <r>   -8.5681    1.0000 </r>
       <r>   -8.4379    1.0000 </r>
       <r>   -8.3808    1.0000 </r>
       <r>   -8.3143    1.0000 </r>
       <r>   -8.2715    1.0000 </r>
       <r>   -8.2358    1.0000 </r>
       <r>   -8.1909    1.0000 </r>
       <r>   -8.1201    1.0000 </r>
       <r>   -8.0959    1.0000 </r>
       <r>   -7.9021    1.0000 </r>
       <r>   -7.8255    1.0000 </r>
       <r>   -7.5079    1.0000 </r>
       <r>   -7.4480    1.0000 </r>
       <r>   -7.3331    1.0000 </r>
       <r>   -7.2987    1.0000 </r>
       <r>   -7.2538    1.0000 </r>
       <r>   -7.1170    1.0000 </r>
       <r>   -7.0604    1.0000 </r>
       <r>   -6.9799    1.0000 </r>
       <r>   -6.9373    1.0000 </r>
       <r>   -6.8405    1.0000 </r>
       <r>   -6.7508    1.0000 </r>
       <r>   -6.7174    1.0000 </r>
       <r>   -6.6245    1.0000 </r>
       <r>   -6.5556    1.0000 </r>
       <r>   -6.5299    1.0000 </r>
       <r>   -6.4403    1.0000 </r>
       <r>   -6.4152    1.0000 </r>
       <r>   -6.2758    1.0000 </r>
       <r>   -6.2117    1.0000 </r>
       <r>   -6.1072    1.0000 </r>
       <r>   -5.9564    1.0000 </r>
       <r>   -5.9090    1.0000 </r>
       <r>   -5.8606    1.0000 </r>
       <r>   -5.8472    1.0000 </r>
       <r>   -5.7386    1.0000 </r>
       <r>   -5.6687    1.0000 </r>
       <r>   -5.5132    1.0000 </r>
       <r>   -5.4509    1.0000 </r>
       <r>   -5.3711    1.0000 </r>
       <r>   -5.3469    1.0000 </r>
       <r>   -5.2763    1.0000 </r>
       <r>   -5.1915    1.0000 </r>
       <r>   -5.0276    1.0000 </r>
       <r>   -4.9182    1.0000 </r>
       <r>   -4.7072    1.0000 </r>
       <r>   -4.5567    1.0000 </r>
       <r>   -4.4146    1.0000 </r>
       <r>   -4.2081    1.0000 </r>
       <r>   -3.9623    1.0000 </r>
       <r>   -3.8846    1.0000 </r>
       <r>   -3.7397    1.0000 </r>
       <r>   -3.5672    0.9999 </r>
       <r>   -3.4834    0.9988 </r>
       <r>   -3.2768    0.9421 </r>
       <r>   -2.9994    0.3488 </r>
       <r>   -2.8897    0.1221 </r>
       <r>   -2.7794    0.0259 </r>
       <r>   -2.6857    0.0046 </r>
       <r>   -2.6049    0.0007 </r>
       <r>   -2.5525    0.0002 </r>
       <r>   -2.4284    0.0000 </r>
       <r>   -2.3583    0.0000 </r>
       <r>   -2.2437    0.0000 </r>
       <r>   -2.1604    0.0000 </r>
       <r>   -2.0696    0.0000 </r>
       <r>   -1.8282    0.0000 </r>
       <r>   -1.6803    0.0000 </r>
       <r>   -1.5076    0.0000 </r>
       <r>   -1.3758    0.0000 </r>
       <r>   -1.3030    0.0000 </r>
       <r>   -1.1606    0.0000 </r>
       <r>   -1.0794    0.0000 </r>
       <r>   -0.8595    0.0000 </r>
       <r>   -0.8111    0.0000 </r>
       <r>   -0.7579    0.0000 </r>
       <r>   -0.7238    0.0000 </r>
       <r>   -0.6038    0.0000 </r>
       <r>   -0.5576    0.0000 </r>
       <r>   -0.5095    0.0000 </r>
       <r>   -0.3705    0.0000 </r>
       <r>   -0.2422    0.0000 </r>
       <r>   -0.1308    0.0000 </r>
       <r>   -0.0004    0.0000 </r>
       <r>    0.1513    0.0000 </r>
       <r>    0.2602    0.0000 </r>
       <r>    0.4020    0.0000 </r>
       <r>    0.6639    0.0000 </r>
       <r>    0.7977    0.0000 </r>
       <r>    0.9775    0.0000 </r>
       <r>    1.2298    0.0000 </r>
       <r>    1.2710    0.0000 </r>
       <r>    1.6571    0.0000 </r>
       <r>    2.1351    0.0000 </r>
       <r>    2.2749    0.0000 </r>
       <r>    2.6027    0.0000 </r>
      </set>
      <set comment="kpoint 33">
       <r>  -17.4980    1.0000 </r>
       <r>  -17.3257    1.0000 </r>
       <r>  -16.8714    1.0000 </r>
       <r>  -16.5298    1.0000 </r>
       <r>  -16.4493    1.0000 </r>
       <r>  -16.3970    1.0000 </r>
       <r>  -16.2691    1.0000 </r>
       <r>  -16.1981    1.0000 </r>
       <r>  -16.0914    1.0000 </r>
       <r>  -16.0151    1.0000 </r>
       <r>  -15.9212    1.0000 </r>
       <r>  -15.8207    1.0000 </r>
       <r>  -15.7975    1.0000 </r>
       <r>  -15.7077    1.0000 </r>
       <r>  -15.6397    1.0000 </r>
       <r>  -15.5612    1.0000 </r>
       <r>  -15.4628    1.0000 </r>
       <r>  -15.4161    1.0000 </r>
       <r>   -9.8199    1.0000 </r>
       <r>   -9.3946    1.0000 </r>
       <r>   -9.3681    1.0000 </r>
       <r>   -8.9640    1.0000 </r>
       <r>   -8.7621    1.0000 </r>
       <r>   -8.7230    1.0000 </r>
       <r>   -8.6279    1.0000 </r>
       <r>   -8.5061    1.0000 </r>
       <r>   -8.3921    1.0000 </r>
       <r>   -8.3262    1.0000 </r>
       <r>   -8.2673    1.0000 </r>
       <r>   -8.1887    1.0000 </r>
       <r>   -8.1424    1.0000 </r>
       <r>   -8.0395    1.0000 </r>
       <r>   -7.9638    1.0000 </r>
       <r>   -7.8680    1.0000 </r>
       <r>   -7.7124    1.0000 </r>
       <r>   -7.5894    1.0000 </r>
       <r>   -7.5230    1.0000 </r>
       <r>   -7.4576    1.0000 </r>
       <r>   -7.3165    1.0000 </r>
       <r>   -7.2414    1.0000 </r>
       <r>   -7.0642    1.0000 </r>
       <r>   -6.9948    1.0000 </r>
       <r>   -6.9703    1.0000 </r>
       <r>   -6.8850    1.0000 </r>
       <r>   -6.8358    1.0000 </r>
       <r>   -6.7743    1.0000 </r>
       <r>   -6.7328    1.0000 </r>
       <r>   -6.6449    1.0000 </r>
       <r>   -6.5881    1.0000 </r>
       <r>   -6.5060    1.0000 </r>
       <r>   -6.4814    1.0000 </r>
       <r>   -6.3221    1.0000 </r>
       <r>   -6.2535    1.0000 </r>
       <r>   -6.1732    1.0000 </r>
       <r>   -6.0619    1.0000 </r>
       <r>   -5.9631    1.0000 </r>
       <r>   -5.8825    1.0000 </r>
       <r>   -5.8561    1.0000 </r>
       <r>   -5.8039    1.0000 </r>
       <r>   -5.7984    1.0000 </r>
       <r>   -5.7266    1.0000 </r>
       <r>   -5.6802    1.0000 </r>
       <r>   -5.5984    1.0000 </r>
       <r>   -5.5381    1.0000 </r>
       <r>   -5.3254    1.0000 </r>
       <r>   -5.1230    1.0000 </r>
       <r>   -5.0256    1.0000 </r>
       <r>   -4.9529    1.0000 </r>
       <r>   -4.8216    1.0000 </r>
       <r>   -4.7616    1.0000 </r>
       <r>   -4.5584    1.0000 </r>
       <r>   -4.3873    1.0000 </r>
       <r>   -4.3566    1.0000 </r>
       <r>   -3.9249    1.0000 </r>
       <r>   -3.8506    1.0000 </r>
       <r>   -3.6781    1.0000 </r>
       <r>   -3.6082    1.0000 </r>
       <r>   -3.4827    0.9988 </r>
       <r>   -3.2677    0.9343 </r>
       <r>   -3.0283    0.4269 </r>
       <r>   -2.9964    0.3409 </r>
       <r>   -2.8149    0.0452 </r>
       <r>   -2.6926    0.0053 </r>
       <r>   -2.5693    0.0003 </r>
       <r>   -2.5053    0.0001 </r>
       <r>   -2.4506    0.0000 </r>
       <r>   -2.3293    0.0000 </r>
       <r>   -2.2462    0.0000 </r>
       <r>   -2.1442    0.0000 </r>
       <r>   -2.1241    0.0000 </r>
       <r>   -1.8186    0.0000 </r>
       <r>   -1.6923    0.0000 </r>
       <r>   -1.5480    0.0000 </r>
       <r>   -1.3633    0.0000 </r>
       <r>   -1.2452    0.0000 </r>
       <r>   -1.1164    0.0000 </r>
       <r>   -1.0350    0.0000 </r>
       <r>   -0.8685    0.0000 </r>
       <r>   -0.8441    0.0000 </r>
       <r>   -0.7181    0.0000 </r>
       <r>   -0.6864    0.0000 </r>
       <r>   -0.6377    0.0000 </r>
       <r>   -0.5677    0.0000 </r>
       <r>   -0.4679    0.0000 </r>
       <r>   -0.4089    0.0000 </r>
       <r>   -0.2935    0.0000 </r>
       <r>   -0.1551    0.0000 </r>
       <r>   -0.0761    0.0000 </r>
       <r>    0.1519    0.0000 </r>
       <r>    0.3395    0.0000 </r>
       <r>    0.4297    0.0000 </r>
       <r>    0.6427    0.0000 </r>
       <r>    0.7568    0.0000 </r>
       <r>    0.9830    0.0000 </r>
       <r>    1.2871    0.0000 </r>
       <r>    1.3127    0.0000 </r>
       <r>    1.6704    0.0000 </r>
       <r>    2.1717    0.0000 </r>
       <r>    2.3098    0.0000 </r>
       <r>    2.4367    0.0000 </r>
      </set>
      <set comment="kpoint 34">
       <r>  -17.4525    1.0000 </r>
       <r>  -17.4008    1.0000 </r>
       <r>  -16.7101    1.0000 </r>
       <r>  -16.6467    1.0000 </r>
       <r>  -16.4974    1.0000 </r>
       <r>  -16.4229    1.0000 </r>
       <r>  -16.2535    1.0000 </r>
       <r>  -16.1948    1.0000 </r>
       <r>  -16.0973    1.0000 </r>
       <r>  -16.0085    1.0000 </r>
       <r>  -15.9130    1.0000 </r>
       <r>  -15.8205    1.0000 </r>
       <r>  -15.7318    1.0000 </r>
       <r>  -15.6886    1.0000 </r>
       <r>  -15.6300    1.0000 </r>
       <r>  -15.5874    1.0000 </r>
       <r>  -15.5012    1.0000 </r>
       <r>  -15.4145    1.0000 </r>
       <r>   -9.8497    1.0000 </r>
       <r>   -9.3057    1.0000 </r>
       <r>   -9.2608    1.0000 </r>
       <r>   -9.0566    1.0000 </r>
       <r>   -8.8427    1.0000 </r>
       <r>   -8.8185    1.0000 </r>
       <r>   -8.6768    1.0000 </r>
       <r>   -8.5150    1.0000 </r>
       <r>   -8.4036    1.0000 </r>
       <r>   -8.3274    1.0000 </r>
       <r>   -8.2328    1.0000 </r>
       <r>   -8.1998    1.0000 </r>
       <r>   -8.1362    1.0000 </r>
       <r>   -7.9263    1.0000 </r>
       <r>   -7.8829    1.0000 </r>
       <r>   -7.8012    1.0000 </r>
       <r>   -7.7282    1.0000 </r>
       <r>   -7.6027    1.0000 </r>
       <r>   -7.5348    1.0000 </r>
       <r>   -7.4623    1.0000 </r>
       <r>   -7.3664    1.0000 </r>
       <r>   -7.3031    1.0000 </r>
       <r>   -7.1513    1.0000 </r>
       <r>   -6.9764    1.0000 </r>
       <r>   -6.9027    1.0000 </r>
       <r>   -6.8734    1.0000 </r>
       <r>   -6.8358    1.0000 </r>
       <r>   -6.7259    1.0000 </r>
       <r>   -6.6876    1.0000 </r>
       <r>   -6.6197    1.0000 </r>
       <r>   -6.5360    1.0000 </r>
       <r>   -6.4877    1.0000 </r>
       <r>   -6.4610    1.0000 </r>
       <r>   -6.3728    1.0000 </r>
       <r>   -6.2351    1.0000 </r>
       <r>   -6.1995    1.0000 </r>
       <r>   -6.0896    1.0000 </r>
       <r>   -5.9935    1.0000 </r>
       <r>   -5.9431    1.0000 </r>
       <r>   -5.8358    1.0000 </r>
       <r>   -5.8224    1.0000 </r>
       <r>   -5.7747    1.0000 </r>
       <r>   -5.7359    1.0000 </r>
       <r>   -5.6868    1.0000 </r>
       <r>   -5.6450    1.0000 </r>
       <r>   -5.5871    1.0000 </r>
       <r>   -5.5131    1.0000 </r>
       <r>   -5.0378    1.0000 </r>
       <r>   -4.8921    1.0000 </r>
       <r>   -4.8670    1.0000 </r>
       <r>   -4.7625    1.0000 </r>
       <r>   -4.6616    1.0000 </r>
       <r>   -4.6240    1.0000 </r>
       <r>   -4.4866    1.0000 </r>
       <r>   -4.3534    1.0000 </r>
       <r>   -3.9292    1.0000 </r>
       <r>   -3.8587    1.0000 </r>
       <r>   -3.6825    1.0000 </r>
       <r>   -3.5691    0.9999 </r>
       <r>   -3.4848    0.9988 </r>
       <r>   -3.2743    0.9400 </r>
       <r>   -3.0883    0.5949 </r>
       <r>   -3.0175    0.3971 </r>
       <r>   -2.8383    0.0633 </r>
       <r>   -2.7011    0.0062 </r>
       <r>   -2.5844    0.0004 </r>
       <r>   -2.4814    0.0000 </r>
       <r>   -2.3929    0.0000 </r>
       <r>   -2.3171    0.0000 </r>
       <r>   -2.2409    0.0000 </r>
       <r>   -2.1613    0.0000 </r>
       <r>   -2.1374    0.0000 </r>
       <r>   -1.8128    0.0000 </r>
       <r>   -1.6959    0.0000 </r>
       <r>   -1.5679    0.0000 </r>
       <r>   -1.3578    0.0000 </r>
       <r>   -1.2152    0.0000 </r>
       <r>   -1.0888    0.0000 </r>
       <r>   -1.0180    0.0000 </r>
       <r>   -0.8864    0.0000 </r>
       <r>   -0.8549    0.0000 </r>
       <r>   -0.6911    0.0000 </r>
       <r>   -0.6694    0.0000 </r>
       <r>   -0.6284    0.0000 </r>
       <r>   -0.5912    0.0000 </r>
       <r>   -0.4544    0.0000 </r>
       <r>   -0.4414    0.0000 </r>
       <r>   -0.3326    0.0000 </r>
       <r>   -0.1950    0.0000 </r>
       <r>   -0.1236    0.0000 </r>
       <r>    0.1541    0.0000 </r>
       <r>    0.4279    0.0000 </r>
       <r>    0.4619    0.0000 </r>
       <r>    0.6082    0.0000 </r>
       <r>    0.7327    0.0000 </r>
       <r>    1.0013    0.0000 </r>
       <r>    1.3144    0.0000 </r>
       <r>    1.3408    0.0000 </r>
       <r>    1.6789    0.0000 </r>
       <r>    2.2683    0.0000 </r>
       <r>    2.2773    0.0000 </r>
       <r>    2.3980    0.0000 </r>
      </set>
     </set>
    </set>
   </array>
  </eigenvalues>
  <separator name="orbital magnetization" >
   <v name="MAGDIPOLOUT">      0.00000000      0.00000000      0.00000000</v>
  </separator>
 </calculation>
 <structure name="finalpos" >
  <crystal>
   <varray name="basis" >
    <v>       8.26010605       4.78148404       0.00000000 </v>
    <v>      -8.28023327       4.81630345       0.00000000 </v>
    <v>       0.00000000       0.00000000      30.00000000 </v>
   </varray>
   <i name="volume">   2381.24941675 </i>
   <varray name="rec_basis" >
    <v>       0.06067785       0.10431793       0.00000000 </v>
    <v>      -0.06023918       0.10406435       0.00000000 </v>
    <v>       0.00000000       0.00000000       0.03333333 </v>
   </varray>
  </crystal>
  <varray name="positions" >
   <v>       0.33210108       0.00644525       0.00030275 </v>
   <v>       1.01109615       0.35030402       0.00050674 </v>
   <v>       0.00568939      -0.00502426      -0.00019132 </v>
   <v>       0.35293923       0.35443423       0.00013556 </v>
   <v>       0.32899321       0.64794817      -0.00046570 </v>
   <v>      -0.00034585       0.65546787       0.00026789 </v>
   <v>       0.66073791       0.00347512      -0.00071924 </v>
   <v>       0.66446962       0.34679919       0.00046570 </v>
   <v>       0.64755790       0.64297365      -0.00048085 </v>
   <v>       0.10990041       0.22221673       0.95243130 </v>
   <v>       0.22067172       0.10992634       0.04950837 </v>
   <v>       0.10826100       0.54710879       0.94651076 </v>
   <v>       0.21674228       0.43880934       0.05343397 </v>
   <v>       0.11457699       0.89232972       0.94986320 </v>
   <v>       0.22712092       0.78169326       0.04940385 </v>
   <v>       0.44357915       0.22052866       0.94839522 </v>
   <v>       0.54900012       0.11122406       0.05116960 </v>
   <v>       0.44500386       0.55593860       0.94320450 </v>
   <v>       0.55760332       0.44603799       0.05705054 </v>
   <v>       0.43676742       0.88896485       0.94973463 </v>
   <v>       0.55567050       0.77630939       0.05135309 </v>
   <v>       0.78344389       0.22897432       0.95058717 </v>
   <v>       0.89336026       0.11436555       0.04801272 </v>
   <v>       0.77759560       0.55664874       0.94609608 </v>
   <v>       0.88977018       0.43916483       0.05282985 </v>
   <v>       0.77903792       0.88667771       0.95128207 </v>
   <v>       0.88687026       0.77847233       0.04931145 </v>
  </varray>
 </structure>
</modeling>
