   27   27  100    1
  0.9710400E+02  0.1002848E-08  0.1002848E-08  0.3000000E-08  0.5000000E-15
  1.000000000000000E-004
  CAR 
 unknown system                          
    159     34    120
 
  0.0000000E+00  0.0000000E+00  0.0000000E+00  0.1562500E-01
    1      -17.829395   1.000000
    2      -16.775980   1.000000
    3      -16.679892   1.000000
    4      -16.579261   1.000000
    5      -16.498937   1.000000
    6      -16.445707   1.000000
    7      -16.408731   1.000000
    8      -16.387992   1.000000
    9      -16.230510   1.000000
   10      -16.184922   1.000000
   11      -16.035704   1.000000
   12      -15.963661   1.000000
   13      -15.919771   1.000000
   14      -15.595789   1.000000
   15      -15.544249   1.000000
   16      -15.523745   1.000000
   17      -15.250735   1.000000
   18      -15.192118   1.000000
   19       -9.388993   1.000000
   20       -9.112249   1.000000
   21       -8.980892   1.000000
   22       -8.861600   1.000000
   23       -8.824962   1.000000
   24       -8.734072   1.000000
   25       -8.659239   1.000000
   26       -8.553557   1.000000
   27       -8.529645   1.000000
   28       -8.475631   1.000000
   29       -8.392320   1.000000
   30       -8.293372   1.000000
   31       -8.269162   1.000000
   32       -8.145408   1.000000
   33       -8.110651   1.000000
   34       -8.089945   1.000000
   35       -7.751476   1.000000
   36       -7.724498   1.000000
   37       -7.677106   1.000000
   38       -7.577313   1.000000
   39       -7.522068   1.000000
   40       -7.371676   1.000000
   41       -7.263204   1.000000
   42       -7.203536   1.000000
   43       -7.056028   1.000000
   44       -7.002406   1.000000
   45       -6.896357   1.000000
   46       -6.849613   1.000000
   47       -6.673169   1.000000
   48       -6.656395   1.000000
   49       -6.584819   1.000000
   50       -6.532019   1.000000
   51       -6.513856   1.000000
   52       -6.301981   1.000000
   53       -6.259066   1.000000
   54       -6.192519   1.000000
   55       -6.120404   1.000000
   56       -6.055173   1.000000
   57       -5.987723   1.000000
   58       -5.905423   1.000000
   59       -5.862518   1.000000
   60       -5.726500   1.000000
   61       -5.593752   1.000000
   62       -5.367233   1.000000
   63       -5.284982   1.000000
   64       -5.065799   1.000000
   65       -4.994182   1.000000
   66       -4.973106   1.000000
   67       -4.882518   1.000000
   68       -4.810479   1.000000
   69       -4.781570   1.000000
   70       -4.668741   1.000000
   71       -4.649717   1.000000
   72       -4.624701   1.000000
   73       -4.494659   1.000000
   74       -4.366470   1.000000
   75       -4.307320   1.000000
   76       -4.087807   1.000000
   77       -3.777888   0.999884
   78       -3.625503   0.995388
   79       -3.423647   0.880265
   80       -3.267964   0.530079
   81       -3.179981   0.292305
   82       -2.923585   0.009146
   83       -2.761451   0.000227
   84       -2.660967   0.000012
   85       -2.572126   0.000001
   86       -2.454401   0.000000
   87       -2.304605   0.000000
   88       -2.291986   0.000000
   89       -2.197988   0.000000
   90       -2.009089   0.000000
   91       -1.959315   0.000000
   92       -1.559063   0.000000
   93       -1.372417   0.000000
   94       -1.203915   0.000000
   95       -1.100704   0.000000
   96       -1.060243   0.000000
   97       -0.928222   0.000000
   98       -0.878238   0.000000
   99       -0.785141   0.000000
  100       -0.666586   0.000000
  101       -0.606487   0.000000
  102       -0.565101   0.000000
  103       -0.421724   0.000000
  104       -0.300944   0.000000
  105       -0.117145   0.000000
  106       -0.085545   0.000000
  107       -0.053171   0.000000
  108       -0.007501   0.000000
  109        0.087697   0.000000
  110        0.279839   0.000000
  111        0.397755   0.000000
  112        0.543200   0.000000
  113        0.630723   0.000000
  114        0.854795   0.000000
  115        0.905460   0.000000
  116        0.978549   0.000000
  117        1.115389   0.000000
  118        1.644533   0.000000
  119        1.842507   0.000000
  120        2.168360   0.000000
 
  0.1250000E+00  0.2775558E-16  0.0000000E+00  0.3125000E-01
    1      -17.804240   1.000000
    2      -16.814154   1.000000
    3      -16.763682   1.000000
    4      -16.584043   1.000000
    5      -16.509023   1.000000
    6      -16.428285   1.000000
    7      -16.382958   1.000000
    8      -16.354307   1.000000
    9      -16.334794   1.000000
   10      -16.048380   1.000000
   11      -16.023365   1.000000
   12      -15.988757   1.000000
   13      -15.865769   1.000000
   14      -15.593995   1.000000
   15      -15.548607   1.000000
   16      -15.523749   1.000000
   17      -15.277223   1.000000
   18      -15.190306   1.000000
   19       -9.383722   1.000000
   20       -9.205637   1.000000
   21       -9.089752   1.000000
   22       -9.050260   1.000000
   23       -8.773956   1.000000
   24       -8.686380   1.000000
   25       -8.623108   1.000000
   26       -8.586512   1.000000
   27       -8.511681   1.000000
   28       -8.481513   1.000000
   29       -8.418532   1.000000
   30       -8.281471   1.000000
   31       -8.172096   1.000000
   32       -8.127102   1.000000
   33       -7.962097   1.000000
   34       -7.899824   1.000000
   35       -7.845318   1.000000
   36       -7.729868   1.000000
   37       -7.672573   1.000000
   38       -7.522134   1.000000
   39       -7.443024   1.000000
   40       -7.380489   1.000000
   41       -7.312172   1.000000
   42       -7.247847   1.000000
   43       -7.095901   1.000000
   44       -7.010293   1.000000
   45       -6.867803   1.000000
   46       -6.818643   1.000000
   47       -6.750045   1.000000
   48       -6.715440   1.000000
   49       -6.558795   1.000000
   50       -6.512770   1.000000
   51       -6.491643   1.000000
   52       -6.319810   1.000000
   53       -6.237408   1.000000
   54       -6.207627   1.000000
   55       -6.105532   1.000000
   56       -6.084033   1.000000
   57       -5.974326   1.000000
   58       -5.896128   1.000000
   59       -5.807973   1.000000
   60       -5.642363   1.000000
   61       -5.566195   1.000000
   62       -5.380598   1.000000
   63       -5.325540   1.000000
   64       -5.248094   1.000000
   65       -5.086208   1.000000
   66       -5.016359   1.000000
   67       -4.948532   1.000000
   68       -4.875727   1.000000
   69       -4.738161   1.000000
   70       -4.634913   1.000000
   71       -4.596999   1.000000
   72       -4.503895   1.000000
   73       -4.428650   1.000000
   74       -4.328823   1.000000
   75       -4.288553   1.000000
   76       -4.030727   1.000000
   77       -3.830753   0.999975
   78       -3.698651   0.999098
   79       -3.468430   0.932279
   80       -3.395595   0.835952
   81       -3.034784   0.057818
   82       -2.916544   0.007988
   83       -2.731751   0.000101
   84       -2.696798   0.000037
   85       -2.563619   0.000000
   86       -2.452643   0.000000
   87       -2.308201   0.000000
   88       -2.254580   0.000000
   89       -2.173463   0.000000
   90       -2.019922   0.000000
   91       -1.933247   0.000000
   92       -1.556301   0.000000
   93       -1.349263   0.000000
   94       -1.184166   0.000000
   95       -1.114559   0.000000
   96       -1.039299   0.000000
   97       -0.926792   0.000000
   98       -0.892704   0.000000
   99       -0.827805   0.000000
  100       -0.702590   0.000000
  101       -0.662733   0.000000
  102       -0.595405   0.000000
  103       -0.495540   0.000000
  104       -0.305783   0.000000
  105       -0.225841   0.000000
  106       -0.193434   0.000000
  107       -0.051398   0.000000
  108        0.056284   0.000000
  109        0.120510   0.000000
  110        0.204889   0.000000
  111        0.388201   0.000000
  112        0.534097   0.000000
  113        0.690197   0.000000
  114        0.860359   0.000000
  115        0.909167   0.000000
  116        1.009072   0.000000
  117        1.183789   0.000000
  118        1.689966   0.000000
  119        1.880918   0.000000
  120        2.203865   0.000000
 
  0.2500000E+00  0.5551115E-16  0.0000000E+00  0.3125000E-01
    1      -17.730182   1.000000
    2      -17.013129   1.000000
    3      -16.759784   1.000000
    4      -16.625683   1.000000
    5      -16.579562   1.000000
    6      -16.464910   1.000000
    7      -16.330010   1.000000
    8      -16.311031   1.000000
    9      -16.273058   1.000000
   10      -16.079206   1.000000
   11      -15.946282   1.000000
   12      -15.925813   1.000000
   13      -15.772245   1.000000
   14      -15.604728   1.000000
   15      -15.551683   1.000000
   16      -15.505625   1.000000
   17      -15.335016   1.000000
   18      -15.199668   1.000000
   19       -9.545824   1.000000
   20       -9.338424   1.000000
   21       -9.198594   1.000000
   22       -9.074878   1.000000
   23       -8.881269   1.000000
   24       -8.690203   1.000000
   25       -8.660511   1.000000
   26       -8.565458   1.000000
   27       -8.507619   1.000000
   28       -8.398187   1.000000
   29       -8.334326   1.000000
   30       -8.301162   1.000000
   31       -8.048225   1.000000
   32       -8.012642   1.000000
   33       -7.924771   1.000000
   34       -7.865223   1.000000
   35       -7.745297   1.000000
   36       -7.620150   1.000000
   37       -7.568391   1.000000
   38       -7.512794   1.000000
   39       -7.443665   1.000000
   40       -7.406163   1.000000
   41       -7.352175   1.000000
   42       -7.158278   1.000000
   43       -7.127818   1.000000
   44       -7.007632   1.000000
   45       -6.882409   1.000000
   46       -6.836078   1.000000
   47       -6.765221   1.000000
   48       -6.720744   1.000000
   49       -6.551119   1.000000
   50       -6.480207   1.000000
   51       -6.403222   1.000000
   52       -6.358033   1.000000
   53       -6.268910   1.000000
   54       -6.182975   1.000000
   55       -6.136031   1.000000
   56       -6.078091   1.000000
   57       -5.903510   1.000000
   58       -5.872101   1.000000
   59       -5.776716   1.000000
   60       -5.681135   1.000000
   61       -5.581419   1.000000
   62       -5.501268   1.000000
   63       -5.452552   1.000000
   64       -5.274839   1.000000
   65       -5.177357   1.000000
   66       -5.155174   1.000000
   67       -5.049796   1.000000
   68       -4.859566   1.000000
   69       -4.716104   1.000000
   70       -4.587141   1.000000
   71       -4.478526   1.000000
   72       -4.443615   1.000000
   73       -4.306467   1.000000
   74       -4.270525   1.000000
   75       -4.179900   1.000000
   76       -4.101444   1.000000
   77       -3.945484   0.999999
   78       -3.802222   0.999942
   79       -3.573823   0.987397
   80       -3.354081   0.753140
   81       -2.972120   0.021876
   82       -2.900696   0.005843
   83       -2.720199   0.000073
   84       -2.675469   0.000019
   85       -2.546899   0.000000
   86       -2.460263   0.000000
   87       -2.310416   0.000000
   88       -2.188543   0.000000
   89       -2.106054   0.000000
   90       -2.038227   0.000000
   91       -1.887762   0.000000
   92       -1.500264   0.000000
   93       -1.309939   0.000000
   94       -1.193589   0.000000
   95       -1.130362   0.000000
   96       -1.000031   0.000000
   97       -0.990093   0.000000
   98       -0.923788   0.000000
   99       -0.890744   0.000000
  100       -0.826818   0.000000
  101       -0.718659   0.000000
  102       -0.667651   0.000000
  103       -0.595436   0.000000
  104       -0.404477   0.000000
  105       -0.347674   0.000000
  106       -0.326093   0.000000
  107       -0.100914   0.000000
  108       -0.033308   0.000000
  109        0.120362   0.000000
  110        0.220869   0.000000
  111        0.342455   0.000000
  112        0.518032   0.000000
  113        0.763923   0.000000
  114        0.837717   0.000000
  115        0.969285   0.000000
  116        1.091470   0.000000
  117        1.356303   0.000000
  118        1.815833   0.000000
  119        1.991570   0.000000
  120        2.309111   0.000000
 
  0.3750000E+00  0.0000000E+00  0.0000000E+00  0.3125000E-01
    1      -17.613390   1.000000
    2      -17.221437   1.000000
    3      -16.752181   1.000000
    4      -16.664908   1.000000
    5      -16.616517   1.000000
    6      -16.521579   1.000000
    7      -16.281017   1.000000
    8      -16.259215   1.000000
    9      -16.203435   1.000000
   10      -16.135322   1.000000
   11      -15.889824   1.000000
   12      -15.843400   1.000000
   13      -15.722779   1.000000
   14      -15.655740   1.000000
   15      -15.525459   1.000000
   16      -15.451919   1.000000
   17      -15.396466   1.000000
   18      -15.224185   1.000000
   19       -9.754540   1.000000
   20       -9.441411   1.000000
   21       -9.176151   1.000000
   22       -9.057827   1.000000
   23       -8.949937   1.000000
   24       -8.733153   1.000000
   25       -8.657727   1.000000
   26       -8.569466   1.000000
   27       -8.497702   1.000000
   28       -8.380210   1.000000
   29       -8.280119   1.000000
   30       -8.190844   1.000000
   31       -8.070855   1.000000
   32       -7.981042   1.000000
   33       -7.900624   1.000000
   34       -7.814177   1.000000
   35       -7.721103   1.000000
   36       -7.713275   1.000000
   37       -7.637866   1.000000
   38       -7.500314   1.000000
   39       -7.404156   1.000000
   40       -7.336011   1.000000
   41       -7.188530   1.000000
   42       -7.079664   1.000000
   43       -7.039860   1.000000
   44       -6.983822   1.000000
   45       -6.899011   1.000000
   46       -6.776224   1.000000
   47       -6.720856   1.000000
   48       -6.681928   1.000000
   49       -6.492085   1.000000
   50       -6.415445   1.000000
   51       -6.395570   1.000000
   52       -6.309240   1.000000
   53       -6.266000   1.000000
   54       -6.171697   1.000000
   55       -6.141065   1.000000
   56       -6.077368   1.000000
   57       -6.036244   1.000000
   58       -5.975724   1.000000
   59       -5.885499   1.000000
   60       -5.747669   1.000000
   61       -5.656093   1.000000
   62       -5.579396   1.000000
   63       -5.464554   1.000000
   64       -5.322794   1.000000
   65       -5.186164   1.000000
   66       -5.112129   1.000000
   67       -5.053649   1.000000
   68       -4.799038   1.000000
   69       -4.762024   1.000000
   70       -4.649652   1.000000
   71       -4.517667   1.000000
   72       -4.416121   1.000000
   73       -4.301769   1.000000
   74       -4.248801   1.000000
   75       -4.153406   1.000000
   76       -4.069142   1.000000
   77       -3.951746   1.000000
   78       -3.775908   0.999877
   79       -3.653745   0.997471
   80       -3.293698   0.601579
   81       -2.974569   0.022796
   82       -2.872411   0.003249
   83       -2.724678   0.000083
   84       -2.645421   0.000008
   85       -2.523394   0.000000
   86       -2.474549   0.000000
   87       -2.292662   0.000000
   88       -2.153873   0.000000
   89       -2.049631   0.000000
   90       -2.015698   0.000000
   91       -1.839263   0.000000
   92       -1.435767   0.000000
   93       -1.293400   0.000000
   94       -1.229863   0.000000
   95       -1.136807   0.000000
   96       -1.097310   0.000000
   97       -1.039914   0.000000
   98       -0.999281   0.000000
   99       -0.903912   0.000000
  100       -0.854107   0.000000
  101       -0.758929   0.000000
  102       -0.720866   0.000000
  103       -0.658888   0.000000
  104       -0.519429   0.000000
  105       -0.484254   0.000000
  106       -0.389464   0.000000
  107       -0.217430   0.000000
  108       -0.064871   0.000000
  109        0.074180   0.000000
  110        0.260898   0.000000
  111        0.297026   0.000000
  112        0.504118   0.000000
  113        0.725516   0.000000
  114        0.890516   0.000000
  115        1.056320   0.000000
  116        1.172211   0.000000
  117        1.509225   0.000000
  118        2.003732   0.000000
  119        2.165772   0.000000
  120        2.480555   0.000000
 
  0.5000000E+00  0.1110223E-15  0.0000000E+00  0.1562500E-01
    1      -17.507295   1.000000
    2      -17.360195   1.000000
    3      -16.748953   1.000000
    4      -16.683041   1.000000
    5      -16.621013   1.000000
    6      -16.544764   1.000000
    7      -16.258224   1.000000
    8      -16.234674   1.000000
    9      -16.184287   1.000000
   10      -16.159751   1.000000
   11      -15.873248   1.000000
   12      -15.753938   1.000000
   13      -15.738556   1.000000
   14      -15.710297   1.000000
   15      -15.495601   1.000000
   16      -15.453070   1.000000
   17      -15.396677   1.000000
   18      -15.243035   1.000000
   19       -9.831686   1.000000
   20       -9.484207   1.000000
   21       -9.155066   1.000000
   22       -9.088635   1.000000
   23       -8.885150   1.000000
   24       -8.738366   1.000000
   25       -8.728178   1.000000
   26       -8.592058   1.000000
   27       -8.490280   1.000000
   28       -8.373776   1.000000
   29       -8.181875   1.000000
   30       -8.102765   1.000000
   31       -8.083157   1.000000
   32       -8.060061   1.000000
   33       -7.898825   1.000000
   34       -7.825919   1.000000
   35       -7.757517   1.000000
   36       -7.720764   1.000000
   37       -7.658974   1.000000
   38       -7.483957   1.000000
   39       -7.433227   1.000000
   40       -7.405131   1.000000
   41       -7.051840   1.000000
   42       -7.027341   1.000000
   43       -6.976502   1.000000
   44       -6.905256   1.000000
   45       -6.774685   1.000000
   46       -6.726351   1.000000
   47       -6.647929   1.000000
   48       -6.610544   1.000000
   49       -6.565081   1.000000
   50       -6.546994   1.000000
   51       -6.417248   1.000000
   52       -6.325044   1.000000
   53       -6.321826   1.000000
   54       -6.244197   1.000000
   55       -6.117541   1.000000
   56       -6.095961   1.000000
   57       -6.055466   1.000000
   58       -5.880207   1.000000
   59       -5.862857   1.000000
   60       -5.793906   1.000000
   61       -5.689429   1.000000
   62       -5.542573   1.000000
   63       -5.523195   1.000000
   64       -5.401757   1.000000
   65       -5.207376   1.000000
   66       -5.064467   1.000000
   67       -5.007984   1.000000
   68       -4.963628   1.000000
   69       -4.729968   1.000000
   70       -4.613602   1.000000
   71       -4.547581   1.000000
   72       -4.445610   1.000000
   73       -4.302680   1.000000
   74       -4.253130   1.000000
   75       -4.175266   1.000000
   76       -4.006438   1.000000
   77       -3.848811   0.999986
   78       -3.779284   0.999888
   79       -3.721462   0.999485
   80       -3.273112   0.544536
   81       -2.953187   0.015764
   82       -2.871002   0.003153
   83       -2.742581   0.000137
   84       -2.634754   0.000005
   85       -2.515248   0.000000
   86       -2.472599   0.000000
   87       -2.283014   0.000000
   88       -2.130976   0.000000
   89       -2.048480   0.000000
   90       -1.994770   0.000000
   91       -1.808083   0.000000
   92       -1.421343   0.000000
   93       -1.298663   0.000000
   94       -1.226724   0.000000
   95       -1.167595   0.000000
   96       -1.118853   0.000000
   97       -1.096284   0.000000
   98       -1.022243   0.000000
   99       -0.893705   0.000000
  100       -0.848345   0.000000
  101       -0.794841   0.000000
  102       -0.741805   0.000000
  103       -0.653523   0.000000
  104       -0.579576   0.000000
  105       -0.542073   0.000000
  106       -0.411611   0.000000
  107       -0.251854   0.000000
  108       -0.082596   0.000000
  109        0.048434   0.000000
  110        0.264953   0.000000
  111        0.293007   0.000000
  112        0.498022   0.000000
  113        0.709637   0.000000
  114        0.913536   0.000000
  115        1.084740   0.000000
  116        1.208392   0.000000
  117        1.567440   0.000000
  118        2.234427   0.000000
  119        2.250553   0.000000
  120        2.378396   0.000000
 
  0.0000000E+00  0.1250000E+00  0.0000000E+00  0.3125000E-01
    1      -17.806310   1.000000
    2      -16.819916   1.000000
    3      -16.704236   1.000000
    4      -16.640244   1.000000
    5      -16.558073   1.000000
    6      -16.412681   1.000000
    7      -16.386758   1.000000
    8      -16.351676   1.000000
    9      -16.216485   1.000000
   10      -16.167545   1.000000
   11      -15.974791   1.000000
   12      -15.949124   1.000000
   13      -15.906587   1.000000
   14      -15.599362   1.000000
   15      -15.555712   1.000000
   16      -15.539670   1.000000
   17      -15.253555   1.000000
   18      -15.194285   1.000000
   19       -9.394764   1.000000
   20       -9.194101   1.000000
   21       -9.022323   1.000000
   22       -8.954267   1.000000
   23       -8.896946   1.000000
   24       -8.781961   1.000000
   25       -8.662820   1.000000
   26       -8.623826   1.000000
   27       -8.508748   1.000000
   28       -8.433447   1.000000
   29       -8.387965   1.000000
   30       -8.237431   1.000000
   31       -8.140316   1.000000
   32       -8.070378   1.000000
   33       -8.039044   1.000000
   34       -7.957083   1.000000
   35       -7.731463   1.000000
   36       -7.704279   1.000000
   37       -7.621115   1.000000
   38       -7.589134   1.000000
   39       -7.526575   1.000000
   40       -7.448928   1.000000
   41       -7.257410   1.000000
   42       -7.186644   1.000000
   43       -7.094719   1.000000
   44       -7.047473   1.000000
   45       -6.944800   1.000000
   46       -6.837691   1.000000
   47       -6.679239   1.000000
   48       -6.604331   1.000000
   49       -6.557108   1.000000
   50       -6.505241   1.000000
   51       -6.470320   1.000000
   52       -6.354416   1.000000
   53       -6.262969   1.000000
   54       -6.229324   1.000000
   55       -6.091847   1.000000
   56       -6.065878   1.000000
   57       -5.996826   1.000000
   58       -5.954408   1.000000
   59       -5.762337   1.000000
   60       -5.682500   1.000000
   61       -5.582971   1.000000
   62       -5.467995   1.000000
   63       -5.382276   1.000000
   64       -5.165047   1.000000
   65       -5.074445   1.000000
   66       -4.980953   1.000000
   67       -4.877534   1.000000
   68       -4.792251   1.000000
   69       -4.752770   1.000000
   70       -4.668311   1.000000
   71       -4.587749   1.000000
   72       -4.554139   1.000000
   73       -4.460574   1.000000
   74       -4.317523   1.000000
   75       -4.286506   1.000000
   76       -4.116270   1.000000
   77       -3.849843   0.999986
   78       -3.702422   0.999177
   79       -3.467387   0.931308
   80       -3.222768   0.403570
   81       -3.139904   0.203254
   82       -2.883262   0.004087
   83       -2.736772   0.000116
   84       -2.638710   0.000006
   85       -2.559408   0.000000
   86       -2.449139   0.000000
   87       -2.284456   0.000000
   88       -2.263512   0.000000
   89       -2.166873   0.000000
   90       -2.012226   0.000000
   91       -1.965805   0.000000
   92       -1.547563   0.000000
   93       -1.371296   0.000000
   94       -1.221488   0.000000
   95       -1.111378   0.000000
   96       -1.062114   0.000000
   97       -0.940931   0.000000
   98       -0.876905   0.000000
   99       -0.792998   0.000000
  100       -0.731185   0.000000
  101       -0.700984   0.000000
  102       -0.638893   0.000000
  103       -0.487500   0.000000
  104       -0.394231   0.000000
  105       -0.115395   0.000000
  106       -0.089255   0.000000
  107       -0.029140   0.000000
  108        0.013304   0.000000
  109        0.107572   0.000000
  110        0.209723   0.000000
  111        0.410324   0.000000
  112        0.532884   0.000000
  113        0.676179   0.000000
  114        0.869594   0.000000
  115        0.945670   0.000000
  116        1.007172   0.000000
  117        1.094832   0.000000
  118        1.686398   0.000000
  119        1.883239   0.000000
  120        2.202888   0.000000
 
  0.1250000E+00  0.1250000E+00  0.0000000E+00  0.3125000E-01
    1      -17.759379   1.000000
    2      -16.889246   1.000000
    3      -16.836295   1.000000
    4      -16.680368   1.000000
    5      -16.467360   1.000000
    6      -16.432005   1.000000
    7      -16.351638   1.000000
    8      -16.326467   1.000000
    9      -16.306906   1.000000
   10      -16.043741   1.000000
   11      -16.000408   1.000000
   12      -15.889130   1.000000
   13      -15.836291   1.000000
   14      -15.617219   1.000000
   15      -15.567958   1.000000
   16      -15.537522   1.000000
   17      -15.285331   1.000000
   18      -15.191105   1.000000
   19       -9.421321   1.000000
   20       -9.344687   1.000000
   21       -9.176285   1.000000
   22       -9.121522   1.000000
   23       -8.849680   1.000000
   24       -8.694805   1.000000
   25       -8.647117   1.000000
   26       -8.590963   1.000000
   27       -8.457650   1.000000
   28       -8.418485   1.000000
   29       -8.391271   1.000000
   30       -8.234305   1.000000
   31       -8.165778   1.000000
   32       -7.977851   1.000000
   33       -7.933991   1.000000
   34       -7.854270   1.000000
   35       -7.715634   1.000000
   36       -7.699969   1.000000
   37       -7.590408   1.000000
   38       -7.541828   1.000000
   39       -7.492970   1.000000
   40       -7.383644   1.000000
   41       -7.289143   1.000000
   42       -7.209359   1.000000
   43       -7.096491   1.000000
   44       -7.051347   1.000000
   45       -6.937853   1.000000
   46       -6.822146   1.000000
   47       -6.735071   1.000000
   48       -6.672154   1.000000
   49       -6.533588   1.000000
   50       -6.460487   1.000000
   51       -6.387058   1.000000
   52       -6.334715   1.000000
   53       -6.300670   1.000000
   54       -6.265335   1.000000
   55       -6.100363   1.000000
   56       -6.052122   1.000000
   57       -6.018449   1.000000
   58       -5.886663   1.000000
   59       -5.786090   1.000000
   60       -5.616888   1.000000
   61       -5.545942   1.000000
   62       -5.518658   1.000000
   63       -5.478317   1.000000
   64       -5.277133   1.000000
   65       -5.213333   1.000000
   66       -5.099550   1.000000
   67       -4.926381   1.000000
   68       -4.839095   1.000000
   69       -4.671291   1.000000
   70       -4.604378   1.000000
   71       -4.519117   1.000000
   72       -4.460277   1.000000
   73       -4.402923   1.000000
   74       -4.269573   1.000000
   75       -4.230821   1.000000
   76       -4.114628   1.000000
   77       -3.990605   1.000000
   78       -3.783523   0.999901
   79       -3.450679   0.914260
   80       -3.344513   0.731300
   81       -2.997374   0.033039
   82       -2.851557   0.002059
   83       -2.704659   0.000047
   84       -2.655598   0.000010
   85       -2.538998   0.000000
   86       -2.442852   0.000000
   87       -2.261285   0.000000
   88       -2.216620   0.000000
   89       -2.118028   0.000000
   90       -2.024588   0.000000
   91       -1.916501   0.000000
   92       -1.551127   0.000000
   93       -1.341760   0.000000
   94       -1.233831   0.000000
   95       -1.132615   0.000000
   96       -1.059707   0.000000
   97       -0.945680   0.000000
   98       -0.926470   0.000000
   99       -0.875942   0.000000
  100       -0.794433   0.000000
  101       -0.765316   0.000000
  102       -0.696731   0.000000
  103       -0.584803   0.000000
  104       -0.448558   0.000000
  105       -0.234409   0.000000
  106       -0.155365   0.000000
  107       -0.052647   0.000000
  108        0.049526   0.000000
  109        0.084499   0.000000
  110        0.177614   0.000000
  111        0.393666   0.000000
  112        0.534886   0.000000
  113        0.755609   0.000000
  114        0.900309   0.000000
  115        0.943596   0.000000
  116        1.034227   0.000000
  117        1.175877   0.000000
  118        1.769775   0.000000
  119        1.959282   0.000000
  120        2.272371   0.000000
 
  0.2500000E+00  0.1250000E+00  0.0000000E+00  0.3125000E-01
    1      -17.666466   1.000000
    2      -17.085988   1.000000
    3      -16.903365   1.000000
    4      -16.673552   1.000000
    5      -16.481545   1.000000
    6      -16.428175   1.000000
    7      -16.321487   1.000000
    8      -16.309816   1.000000
    9      -16.262584   1.000000
   10      -16.064585   1.000000
   11      -15.966412   1.000000
   12      -15.799697   1.000000
   13      -15.753835   1.000000
   14      -15.677271   1.000000
   15      -15.553406   1.000000
   16      -15.497471   1.000000
   17      -15.347272   1.000000
   18      -15.196701   1.000000
   19       -9.623906   1.000000
   20       -9.457820   1.000000
   21       -9.301691   1.000000
   22       -9.109981   1.000000
   23       -8.840435   1.000000
   24       -8.630131   1.000000
   25       -8.611838   1.000000
   26       -8.501754   1.000000
   27       -8.483620   1.000000
   28       -8.412753   1.000000
   29       -8.310542   1.000000
   30       -8.289613   1.000000
   31       -8.076600   1.000000
   32       -8.019888   1.000000
   33       -7.935619   1.000000
   34       -7.902019   1.000000
   35       -7.726449   1.000000
   36       -7.610472   1.000000
   37       -7.564919   1.000000
   38       -7.502827   1.000000
   39       -7.389532   1.000000
   40       -7.360030   1.000000
   41       -7.254985   1.000000
   42       -7.167813   1.000000
   43       -7.084219   1.000000
   44       -7.014837   1.000000
   45       -6.885453   1.000000
   46       -6.796056   1.000000
   47       -6.731964   1.000000