   27   27  100    1
  0.9710400E+02  0.1002848E-08  0.1002848E-08  0.3000000E-08  0.5000000E-15
  1.000000000000000E-004
  CAR 
 unknown system                          
    159     34    120
 
  0.0000000E+00  0.0000000E+00  0.0000000E+00  0.1562500E-01
    1      -17.797172   1.000000
    2      -16.750516   1.000000
    3      -16.655173   1.000000
    4      -16.570945   1.000000
    5      -16.512213   1.000000
    6      -16.462091   1.000000
    7      -16.392818   1.000000
    8      -16.311890   1.000000
    9      -16.217178   1.000000
   10      -16.160728   1.000000
   11      -16.065145   1.000000
   12      -16.014988   1.000000
   13      -15.869119   1.000000
   14      -15.604384   1.000000
   15      -15.566244   1.000000
   16      -15.456285   1.000000
   17      -15.370977   1.000000
   18      -15.240497   1.000000
   19       -9.304760   1.000000
   20       -9.081926   1.000000
   21       -8.962756   1.000000
   22       -8.901860   1.000000
   23       -8.814139   1.000000
   24       -8.739437   1.000000
   25       -8.625791   1.000000
   26       -8.603078   1.000000
   27       -8.507049   1.000000
   28       -8.402522   1.000000
   29       -8.337666   1.000000
   30       -8.290186   1.000000
   31       -8.234393   1.000000
   32       -8.113678   1.000000
   33       -8.021596   1.000000
   34       -7.943604   1.000000
   35       -7.903585   1.000000
   36       -7.803966   1.000000
   37       -7.678209   1.000000
   38       -7.516142   1.000000
   39       -7.482837   1.000000
   40       -7.448296   1.000000
   41       -7.278994   1.000000
   42       -7.165675   1.000000
   43       -7.130663   1.000000
   44       -6.999832   1.000000
   45       -6.839865   1.000000
   46       -6.810595   1.000000
   47       -6.644004   1.000000
   48       -6.609669   1.000000
   49       -6.571221   1.000000
   50       -6.537522   1.000000
   51       -6.493102   1.000000
   52       -6.414355   1.000000
   53       -6.316784   1.000000
   54       -6.254512   1.000000
   55       -6.198865   1.000000
   56       -6.191444   1.000000
   57       -6.076700   1.000000
   58       -5.919587   1.000000
   59       -5.722860   1.000000
   60       -5.558075   1.000000
   61       -5.523148   1.000000
   62       -5.437599   1.000000
   63       -5.217251   1.000000
   64       -5.121497   1.000000
   65       -5.039817   1.000000
   66       -4.980675   1.000000
   67       -4.885067   1.000000
   68       -4.865204   1.000000
   69       -4.813163   1.000000
   70       -4.735765   1.000000
   71       -4.643986   1.000000
   72       -4.605926   1.000000
   73       -4.503418   1.000000
   74       -4.335504   1.000000
   75       -4.282900   1.000000
   76       -4.117225   1.000000
   77       -3.807755   0.999410
   78       -3.588500   0.954788
   79       -3.515628   0.880578
   80       -3.400963   0.643220
   81       -3.291282   0.341459
   82       -2.861097   0.000280
   83       -2.729986   0.000006
   84       -2.619095   0.000000
   85       -2.515969   0.000000
   86       -2.479774   0.000000
   87       -2.362207   0.000000
   88       -2.262379   0.000000
   89       -2.216299   0.000000
   90       -2.071486   0.000000
   91       -2.044020   0.000000
   92       -1.393869   0.000000
   93       -1.334216   0.000000
   94       -1.265418   0.000000
   95       -1.106710   0.000000
   96       -1.067355   0.000000
   97       -0.990258   0.000000
   98       -0.859299   0.000000
   99       -0.715871   0.000000
  100       -0.698223   0.000000
  101       -0.626325   0.000000
  102       -0.521569   0.000000
  103       -0.489321   0.000000
  104       -0.337888   0.000000
  105       -0.213218   0.000000
  106       -0.122091   0.000000
  107       -0.074515   0.000000
  108       -0.003031   0.000000
  109        0.075450   0.000000
  110        0.278749   0.000000
  111        0.327532   0.000000
  112        0.599153   0.000000
  113        0.756472   0.000000
  114        0.780834   0.000000
  115        0.841791   0.000000
  116        1.037580   0.000000
  117        1.116392   0.000000
  118        1.639702   0.000000
  119        1.837094   0.000000
  120        2.146621   0.000000
 
  0.1250000E+00  0.2775558E-16  0.0000000E+00  0.3125000E-01
    1      -17.771999   1.000000
    2      -16.785053   1.000000
    3      -16.731911   1.000000
    4      -16.637940   1.000000
    5      -16.489721   1.000000
    6      -16.411526   1.000000
    7      -16.371212   1.000000
    8      -16.329470   1.000000
    9      -16.239905   1.000000
   10      -16.088889   1.000000
   11      -16.042401   1.000000
   12      -15.989995   1.000000
   13      -15.850255   1.000000
   14      -15.611644   1.000000
   15      -15.577696   1.000000
   16      -15.449366   1.000000
   17      -15.380216   1.000000
   18      -15.248205   1.000000
   19       -9.286687   1.000000
   20       -9.189953   1.000000
   21       -9.070344   1.000000
   22       -9.018515   1.000000
   23       -8.797266   1.000000
   24       -8.710900   1.000000
   25       -8.669913   1.000000
   26       -8.565095   1.000000
   27       -8.498195   1.000000
   28       -8.413765   1.000000
   29       -8.380672   1.000000
   30       -8.193125   1.000000
   31       -8.137493   1.000000
   32       -8.070416   1.000000
   33       -8.024510   1.000000
   34       -7.878780   1.000000
   35       -7.817113   1.000000
   36       -7.705388   1.000000
   37       -7.657640   1.000000
   38       -7.570585   1.000000
   39       -7.486049   1.000000
   40       -7.360724   1.000000
   41       -7.313556   1.000000
   42       -7.237456   1.000000
   43       -7.137678   1.000000
   44       -7.011938   1.000000
   45       -6.859187   1.000000
   46       -6.822824   1.000000
   47       -6.727371   1.000000
   48       -6.663614   1.000000
   49       -6.565127   1.000000
   50       -6.475460   1.000000
   51       -6.456533   1.000000
   52       -6.387303   1.000000
   53       -6.306898   1.000000
   54       -6.254140   1.000000
   55       -6.192536   1.000000
   56       -6.157673   1.000000
   57       -6.023071   1.000000
   58       -5.924879   1.000000
   59       -5.714368   1.000000
   60       -5.558934   1.000000
   61       -5.522749   1.000000
   62       -5.452244   1.000000
   63       -5.342954   1.000000
   64       -5.168849   1.000000
   65       -5.142526   1.000000
   66       -5.031471   1.000000
   67       -4.912987   1.000000
   68       -4.878311   1.000000
   69       -4.787107   1.000000
   70       -4.689022   1.000000
   71       -4.617942   1.000000
   72       -4.526481   1.000000
   73       -4.445354   1.000000
   74       -4.322254   1.000000
   75       -4.229240   1.000000
   76       -4.072113   1.000000
   77       -3.881807   0.999917
   78       -3.694788   0.992752
   79       -3.563099   0.934930
   80       -3.455043   0.773217
   81       -3.134844   0.064928
   82       -2.847993   0.000198
   83       -2.736155   0.000007
   84       -2.619984   0.000000
   85       -2.513725   0.000000
   86       -2.453194   0.000000
   87       -2.357078   0.000000
   88       -2.241410   0.000000
   89       -2.185676   0.000000
   90       -2.062521   0.000000
   91       -2.057881   0.000000
   92       -1.400044   0.000000
   93       -1.320632   0.000000
   94       -1.254709   0.000000
   95       -1.102496   0.000000
   96       -1.060010   0.000000
   97       -0.982326   0.000000
   98       -0.867395   0.000000
   99       -0.793010   0.000000
  100       -0.724786   0.000000
  101       -0.671385   0.000000
  102       -0.544627   0.000000
  103       -0.516840   0.000000
  104       -0.347880   0.000000
  105       -0.264513   0.000000
  106       -0.200826   0.000000
  107       -0.118813   0.000000
  108       -0.064645   0.000000
  109        0.119265   0.000000
  110        0.269891   0.000000
  111        0.301206   0.000000
  112        0.571204   0.000000
  113        0.737044   0.000000
  114        0.828776   0.000000
  115        0.917417   0.000000
  116        1.085529   0.000000
  117        1.146400   0.000000
  118        1.683923   0.000000
  119        1.875734   0.000000
  120        2.181789   0.000000
 
  0.2500000E+00  0.5551115E-16  0.0000000E+00  0.3125000E-01
    1      -17.697635   1.000000
    2      -16.986863   1.000000
    3      -16.732205   1.000000
    4      -16.695259   1.000000
    5      -16.553775   1.000000
    6      -16.390602   1.000000
    7      -16.318909   1.000000
    8      -16.277081   1.000000
    9      -16.232942   1.000000
   10      -16.062010   1.000000
   11      -15.984545   1.000000
   12      -15.929410   1.000000
   13      -15.781745   1.000000
   14      -15.630369   1.000000
   15      -15.598870   1.000000
   16      -15.453505   1.000000
   17      -15.386344   1.000000
   18      -15.268597   1.000000
   19       -9.477626   1.000000
   20       -9.284738   1.000000
   21       -9.155398   1.000000
   22       -9.057620   1.000000
   23       -8.902373   1.000000
   24       -8.729725   1.000000
   25       -8.659069   1.000000
   26       -8.538036   1.000000
   27       -8.462807   1.000000
   28       -8.400298   1.000000
   29       -8.298954   1.000000
   30       -8.232548   1.000000
   31       -8.098945   1.000000
   32       -7.980447   1.000000
   33       -7.900282   1.000000
   34       -7.833689   1.000000
   35       -7.735046   1.000000
   36       -7.663184   1.000000
   37       -7.590362   1.000000
   38       -7.465252   1.000000
   39       -7.426235   1.000000
   40       -7.365280   1.000000
   41       -7.312534   1.000000
   42       -7.226244   1.000000
   43       -7.118257   1.000000
   44       -6.989516   1.000000
   45       -6.946980   1.000000
   46       -6.880577   1.000000
   47       -6.707354   1.000000
   48       -6.679868   1.000000
   49       -6.545312   1.000000
   50       -6.503561   1.000000
   51       -6.425068   1.000000
   52       -6.389292   1.000000
   53       -6.285589   1.000000
   54       -6.182562   1.000000
   55       -6.131911   1.000000
   56       -6.089358   1.000000
   57       -5.965300   1.000000
   58       -5.901820   1.000000
   59       -5.782506   1.000000
   60       -5.667909   1.000000
   61       -5.596305   1.000000
   62       -5.564104   1.000000
   63       -5.486377   1.000000
   64       -5.283384   1.000000
   65       -5.196591   1.000000
   66       -5.109648   1.000000
   67       -4.945325   1.000000
   68       -4.846032   1.000000
   69       -4.803503   1.000000
   70       -4.610599   1.000000
   71       -4.534302   1.000000
   72       -4.400907   1.000000
   73       -4.338054   1.000000
   74       -4.305120   1.000000
   75       -4.169697   1.000000
   76       -4.099795   1.000000
   77       -4.006120   0.999998
   78       -3.879724   0.999912
   79       -3.591992   0.957089
   80       -3.391993   0.619304
   81       -3.007182   0.007816
   82       -2.826701   0.000111
   83       -2.734624   0.000007
   84       -2.627229   0.000000
   85       -2.489285   0.000000
   86       -2.418063   0.000000
   87       -2.338782   0.000000
   88       -2.231059   0.000000
   89       -2.111947   0.000000
   90       -2.051046   0.000000
   91       -2.023732   0.000000
   92       -1.418938   0.000000
   93       -1.294104   0.000000
   94       -1.213491   0.000000
   95       -1.104298   0.000000
   96       -1.082677   0.000000
   97       -0.979015   0.000000
   98       -0.934101   0.000000
   99       -0.860825   0.000000
  100       -0.805291   0.000000
  101       -0.734168   0.000000
  102       -0.642573   0.000000
  103       -0.583679   0.000000
  104       -0.463321   0.000000
  105       -0.377393   0.000000
  106       -0.292636   0.000000
  107       -0.214600   0.000000
  108       -0.094086   0.000000
  109        0.123729   0.000000
  110        0.140803   0.000000
  111        0.347158   0.000000
  112        0.486475   0.000000
  113        0.791162   0.000000
  114        0.881034   0.000000
  115        0.967891   0.000000
  116        1.183249   0.000000
  117        1.306871   0.000000
  118        1.806653   0.000000
  119        1.986341   0.000000
  120        2.286021   0.000000
 
  0.3750000E+00  0.0000000E+00  0.0000000E+00  0.3125000E-01
    1      -17.578710   1.000000
    2      -17.200572   1.000000
    3      -16.754407   1.000000
    4      -16.693100   1.000000
    5      -16.613647   1.000000
    6      -16.417147   1.000000
    7      -16.263344   1.000000
    8      -16.251522   1.000000
    9      -16.177050   1.000000
   10      -16.069941   1.000000
   11      -15.928182   1.000000
   12      -15.871000   1.000000
   13      -15.744274   1.000000
   14      -15.649461   1.000000
   15      -15.595803   1.000000
   16      -15.483915   1.000000
   17      -15.368508   1.000000
   18      -15.292649   1.000000
   19       -9.686281   1.000000
   20       -9.383721   1.000000
   21       -9.151920   1.000000
   22       -9.046003   1.000000
   23       -8.937823   1.000000
   24       -8.767918   1.000000
   25       -8.633580   1.000000
   26       -8.517173   1.000000
   27       -8.462006   1.000000
   28       -8.344510   1.000000
   29       -8.315155   1.000000
   30       -8.170726   1.000000
   31       -8.090197   1.000000
   32       -7.960948   1.000000
   33       -7.911508   1.000000
   34       -7.842239   1.000000
   35       -7.751533   1.000000
   36       -7.657224   1.000000
   37       -7.603566   1.000000
   38       -7.472029   1.000000
   39       -7.363288   1.000000
   40       -7.272069   1.000000
   41       -7.192558   1.000000
   42       -7.113035   1.000000
   43       -7.077431   1.000000
   44       -6.972675   1.000000
   45       -6.912710   1.000000
   46       -6.799541   1.000000
   47       -6.703406   1.000000
   48       -6.612129   1.000000
   49       -6.516625   1.000000
   50       -6.481382   1.000000
   51       -6.425865   1.000000
   52       -6.364333   1.000000
   53       -6.239768   1.000000
   54       -6.184669   1.000000
   55       -6.128256   1.000000
   56       -6.068290   1.000000
   57       -5.992605   1.000000
   58       -5.934023   1.000000
   59       -5.853911   1.000000
   60       -5.772318   1.000000
   61       -5.749271   1.000000
   62       -5.701045   1.000000
   63       -5.564488   1.000000
   64       -5.309767   1.000000
   65       -5.190228   1.000000
   66       -5.125311   1.000000
   67       -4.985371   1.000000
   68       -4.830136   1.000000
   69       -4.751330   1.000000
   70       -4.712600   1.000000
   71       -4.482890   1.000000
   72       -4.391967   1.000000
   73       -4.333661   1.000000
   74       -4.251875   1.000000
   75       -4.188636   1.000000
   76       -4.123918   1.000000
   77       -3.977619   0.999996
   78       -3.866665   0.999874
   79       -3.638687   0.979722
   80       -3.324563   0.431266
   81       -2.939914   0.001908
   82       -2.824337   0.000104
   83       -2.712146   0.000003
   84       -2.630780   0.000000
   85       -2.459090   0.000000
   86       -2.420090   0.000000
   87       -2.302774   0.000000
   88       -2.238034   0.000000
   89       -2.068910   0.000000
   90       -2.018160   0.000000
   91       -1.925718   0.000000
   92       -1.447729   0.000000
   93       -1.271169   0.000000
   94       -1.203439   0.000000
   95       -1.162733   0.000000
   96       -1.100703   0.000000
   97       -1.034976   0.000000
   98       -0.937134   0.000000
   99       -0.870841   0.000000
  100       -0.855855   0.000000
  101       -0.802936   0.000000
  102       -0.759411   0.000000
  103       -0.659137   0.000000
  104       -0.593996   0.000000
  105       -0.475718   0.000000
  106       -0.377302   0.000000
  107       -0.233115   0.000000
  108       -0.142751   0.000000
  109        0.023380   0.000000
  110        0.149836   0.000000
  111        0.318187   0.000000
  112        0.453919   0.000000
  113        0.797229   0.000000
  114        0.933716   0.000000
  115        1.010957   0.000000
  116        1.302239   0.000000
  117        1.446763   0.000000
  118        1.990462   0.000000
  119        2.158126   0.000000
  120        2.455978   0.000000
 
  0.5000000E+00  0.1110223E-15  0.0000000E+00  0.1562500E-01
    1      -17.459946   1.000000
    2      -17.352880   1.000000
    3      -16.767478   1.000000
    4      -16.673495   1.000000
    5      -16.646900   1.000000
    6      -16.427852   1.000000
    7      -16.262572   1.000000
    8      -16.230274   1.000000
    9      -16.126127   1.000000
   10      -16.100055   1.000000
   11      -15.898696   1.000000
   12      -15.830870   1.000000
   13      -15.762832   1.000000
   14      -15.659833   1.000000
   15      -15.583900   1.000000
   16      -15.495641   1.000000
   17      -15.358277   1.000000
   18      -15.304072   1.000000
   19       -9.761713   1.000000
   20       -9.426082   1.000000
   21       -9.152132   1.000000
   22       -9.065746   1.000000
   23       -8.859106   1.000000
   24       -8.814624   1.000000
   25       -8.602479   1.000000
   26       -8.564955   1.000000
   27       -8.485597   1.000000
   28       -8.362206   1.000000
   29       -8.188548   1.000000
   30       -8.140795   1.000000
   31       -8.068718   1.000000
   32       -8.030215   1.000000
   33       -7.940211   1.000000
   34       -7.866445   1.000000
   35       -7.790949   1.000000
   36       -7.645124   1.000000
   37       -7.599599   1.000000
   38       -7.477602   1.000000
   39       -7.393435   1.000000
   40       -7.292326   1.000000
   41       -7.076844   1.000000
   42       -7.063837   1.000000
   43       -7.033669   1.000000
   44       -6.862857   1.000000
   45       -6.847628   1.000000
   46       -6.697700   1.000000
   47       -6.659897   1.000000
   48       -6.609139   1.000000
   49       -6.569702   1.000000
   50       -6.511220   1.000000
   51       -6.460643   1.000000
   52       -6.332669   1.000000
   53       -6.310030   1.000000
   54       -6.237301   1.000000
   55       -6.135725   1.000000
   56       -6.058025   1.000000
   57       -5.969856   1.000000
   58       -5.940642   1.000000
   59       -5.880118   1.000000
   60       -5.806069   1.000000
   61       -5.745874   1.000000
   62       -5.682985   1.000000
   63       -5.581163   1.000000
   64       -5.348682   1.000000
   65       -5.279546   1.000000
   66       -5.090926   1.000000
   67       -5.066748   1.000000
   68       -4.919822   1.000000
   69       -4.741664   1.000000
   70       -4.603340   1.000000
   71       -4.509654   1.000000
   72       -4.402095   1.000000
   73       -4.352058   1.000000
   74       -4.245217   1.000000
   75       -4.185196   1.000000
   76       -4.101000   1.000000
   77       -3.942348   0.999986
   78       -3.823954   0.999608
   79       -3.679045   0.990187
   80       -3.296886   0.356117
   81       -2.917493   0.001138
   82       -2.831266   0.000125
   83       -2.688696   0.000002
   84       -2.642972   0.000000
   85       -2.444277   0.000000
   86       -2.420890   0.000000
   87       -2.296675   0.000000
   88       -2.231448   0.000000
   89       -2.050883   0.000000
   90       -2.006136   0.000000
   91       -1.871652   0.000000
   92       -1.457885   0.000000
   93       -1.294041   0.000000
   94       -1.230832   0.000000
   95       -1.171173   0.000000
   96       -1.084166   0.000000
   97       -1.051586   0.000000
   98       -0.951229   0.000000
   99       -0.886380   0.000000
  100       -0.842354   0.000000
  101       -0.824502   0.000000
  102       -0.817183   0.000000
  103       -0.699944   0.000000
  104       -0.644542   0.000000
  105       -0.512944   0.000000
  106       -0.407880   0.000000
  107       -0.233351   0.000000
  108       -0.174213   0.000000
  109       -0.007386   0.000000
  110        0.150163   0.000000
  111        0.301016   0.000000
  112        0.447417   0.000000
  113        0.787097   0.000000
  114        0.973583   0.000000
  115        1.021921   0.000000
  116        1.343205   0.000000
  117        1.501514   0.000000
  118        2.207040   0.000000
  119        2.244279   0.000000
  120        2.368792   0.000000
 
  0.0000000E+00  0.1250000E+00  0.0000000E+00  0.3125000E-01
    1      -17.773404   1.000000
    2      -16.791191   1.000000
    3      -16.705627   1.000000
    4      -16.647189   1.000000
    5      -16.521860   1.000000
    6      -16.415489   1.000000
    7      -16.366307   1.000000
    8      -16.284723   1.000000
    9      -16.205605   1.000000
   10      -16.163405   1.000000
   11      -16.056642   1.000000
   12      -15.945220   1.000000
   13      -15.854567   1.000000
   14      -15.621432   1.000000
   15      -15.580394   1.000000
   16      -15.456950   1.000000
   17      -15.374490   1.000000
   18      -15.244070   1.000000
   19       -9.324342   1.000000
   20       -9.150145   1.000000
   21       -9.020604   1.000000
   22       -8.961780   1.000000
   23       -8.877235   1.000000
   24       -8.763073   1.000000
   25       -8.675536   1.000000
   26       -8.596805   1.000000
   27       -8.497306   1.000000
   28       -8.392920   1.000000
   29       -8.366732   1.000000
   30       -8.217305   1.000000
   31       -8.104845   1.000000
   32       -8.028057   1.000000
   33       -7.957101   1.000000
   34       -7.904267   1.000000
   35       -7.830305   1.000000
   36       -7.737152   1.000000
   37       -7.639334   1.000000
   38       -7.558332   1.000000
   39       -7.511636   1.000000
   40       -7.490818   1.000000
   41       -7.246421   1.000000
   42       -7.173291   1.000000
   43       -7.104434   1.000000
   44       -7.057091   1.000000
   45       -6.912857   1.000000
   46       -6.788631   1.000000
   47       -6.642566   1.000000
   48       -6.608502   1.000000
   49       -6.581840   1.000000
   50       -6.531885   1.000000
   51       -6.474061   1.000000
   52       -6.409742   1.000000
   53       -6.375570   1.000000
   54       -6.225654   1.000000
   55       -6.198106   1.000000
   56       -6.181163   1.000000
   57       -5.988172   1.000000
   58       -5.910441   1.000000
   59       -5.723980   1.000000
   60       -5.553141   1.000000
   61       -5.528005   1.000000
   62       -5.490783   1.000000
   63       -5.310147   1.000000
   64       -5.268878   1.000000
   65       -5.097972   1.000000
   66       -4.981564   1.000000
   67       -4.920758   1.000000
   68       -4.853359   1.000000
   69       -4.719908   1.000000
   70       -4.673164   1.000000
   71       -4.609530   1.000000
   72       -4.602166   1.000000
   73       -4.461467   1.000000
   74       -4.276094   1.000000
   75       -4.236671   1.000000
   76       -4.134455   1.000000
   77       -3.904704   0.999957
   78       -3.715640   0.995232
   79       -3.515204   0.879979
   80       -3.346359   0.492409
   81       -3.260845   0.266410
   82       -2.816028   0.000082
   83       -2.711261   0.000003
   84       -2.605576   0.000000
   85       -2.509352   0.000000
   86       -2.459572   0.000000
   87       -2.335778   0.000000
   88       -2.230078   0.000000
   89       -2.206882   0.000000
   90       -2.093096   0.000000
   91       -2.027421   0.000000
   92       -1.405656   0.000000
   93       -1.356192   0.000000
   94       -1.253097   0.000000
   95       -1.117156   0.000000
   96       -1.072228   0.000000
   97       -0.977447   0.000000
   98       -0.875465   0.000000
   99       -0.811773   0.000000
  100       -0.740788   0.000000
  101       -0.650691   0.000000
  102       -0.575970   0.000000
  103       -0.517603   0.000000
  104       -0.400403   0.000000
  105       -0.270305   0.000000
  106       -0.131713   0.000000
  107       -0.095726   0.000000
  108        0.003698   0.000000
  109        0.077589   0.000000
  110        0.268620   0.000000
  111        0.324680   0.000000
  112        0.576068   0.000000
  113        0.757412   0.000000
  114        0.811516   0.000000
  115        0.921600   0.000000
  116        1.072843   0.000000
  117        1.127269   0.000000
  118        1.681619   0.000000
  119        1.877126   0.000000
  120        2.181254   0.000000
 
  0.1250000E+00  0.1250000E+00  0.0000000E+00  0.3125000E-01
    1      -17.725353   1.000000
    2      -16.873995   1.000000
    3      -16.818022   1.000000
    4      -16.697204   1.000000
    5      -16.444515   1.000000
    6      -16.396264   1.000000
    7      -16.336001   1.000000
    8      -16.307933   1.000000
    9      -16.243719   1.000000
   10      -16.081754   1.000000
   11      -16.014641   1.000000
   12      -15.910046   1.000000
   13      -15.806668   1.000000
   14      -15.643218   1.000000
   15      -15.595085   1.000000
   16      -15.454446   1.000000
   17      -15.392795   1.000000
   18      -15.249178   1.000000
   19       -9.356421   1.000000
   20       -9.289357   1.000000
   21       -9.177343   1.000000
   22       -9.048529   1.000000
   23       -8.856275   1.000000
   24       -8.695478   1.000000
   25       -8.676469   1.000000
   26       -8.582247   1.000000
   27       -8.530316   1.000000
   28       -8.369371   1.000000
   29       -8.288796   1.000000
   30       -8.195579   1.000000
   31       -8.098297   1.000000
   32       -8.014692   1.000000
   33       -7.922387   1.000000
   34       -7.874235   1.000000
   35       -7.729107   1.000000
   36       -7.642119   1.000000
   37       -7.603695   1.000000
   38       -7.540252   1.000000
   39       -7.444436   1.000000
   40       -7.400807   1.000000
   41       -7.290358   1.000000
   42       -7.203594   1.000000
   43       -7.136125   1.000000
   44       -6.993901   1.000000
   45       -6.978932   1.000000
   46       -6.826702   1.000000
   47       -6.712116   1.000000
   48       -6.637083   1.000000
   49       -6.579811   1.000000
   50       -6.508649   1.000000
   51       -6.448477   1.000000
   52       -6.380949   1.000000
   53       -6.306783   1.000000
   54       -6.256827   1.000000
   55       -6.168432   1.000000
   56       -6.102173   1.000000
   57       -5.944360   1.000000
   58       -5.888723   1.000000
   59       -5.724717   1.000000
   60       -5.644742   1.000000
   61       -5.584822   1.000000
   62       -5.553243   1.000000
   63       -5.431527   1.000000
   64       -5.286101   1.000000
   65       -5.173891   1.000000
   66       -5.123463   1.000000
   67       -4.915181   1.000000
   68       -4.796536   1.000000
   69       -4.779982   1.000000
   70       -4.611397   1.000000
   71       -4.541488   1.000000
   72       -4.453401   1.000000
   73       -4.393965   1.000000
   74       -4.284408   1.000000
   75       -4.192107   1.000000
   76       -4.132592   1.000000
   77       -4.015173   0.999999
   78       -3.851518   0.999810
   79       -3.500868   0.858479
   80       -3.419935   0.691897
   81       -3.112641   0.047295
   82       -2.779063   0.000028
   83       -2.714633   0.000004
   84       -2.576509   0.000000
   85       -2.507725   0.000000
   86       -2.420092   0.000000
   87       -2.303601   0.000000
   88       -2.221922   0.000000
   89       -2.152735   0.000000
   90       -2.072273   0.000000
   91       -2.030818   0.000000
   92       -1.426706   0.000000
   93       -1.332851   0.000000
   94       -1.264294   0.000000
   95       -1.120147   0.000000
   96       -1.066424   0.000000
   97       -0.987360   0.000000
   98       -0.931883   0.000000
   99       -0.861828   0.000000
  100       -0.788540   0.000000
  101       -0.715605   0.000000
  102       -0.609378   0.000000
  103       -0.593792   0.000000
  104       -0.417114   0.000000
  105       -0.341317   0.000000
  106       -0.278105   0.000000
  107       -0.149881   0.000000
  108       -0.073113   0.000000
  109        0.108893   0.000000
  110        0.172289   0.000000
  111        0.368692   0.000000
  112        0.539382   0.000000
  113        0.754268   0.000000
  114        0.844327   0.000000
  115        1.027201   0.000000
  116        1.140085   0.000000
  117        1.213998   0.000000
  118        1.762493   0.000000
  119        1.953108   0.000000
  120        2.250169   0.000000
 
  0.2500000E+00  0.1250000E+00  0.0000000E+00  0.3125000E-01
    1      -17.630386   1.000000
    2      -17.071531   1.000000
    3      -16.895940   1.000000
    4      -16.685942   1.000000
    5      -16.443668   1.000000
    6      -16.397859   1.000000
    7      -16.295799   1.000000
    8      -16.278760   1.000000
    9      -16.235674   1.000000
   10      -16.051183   1.000000
   11      -15.966066   1.000000
   12      -15.858540   1.000000
   13      -15.757273   1.000000
   14      -15.670134   1.000000
   15      -15.600708   1.000000
   16      -15.469795   1.000000
   17      -15.388969   1.000000
   18      -15.265241   1.000000
   19       -9.562122   1.000000
   20       -9.384910   1.000000
   21       -9.312807   1.000000
   22       -9.027781   1.000000
   23       -8.852611   1.000000
   24       -8.665200   1.000000
   25       -8.593899   1.000000
   26       -8.518304   1.000000
   27       -8.474784   1.000000
   28       -8.399825   1.000000
   29       -8.271986   1.000000
   30       -8.216243   1.000000
   31       -8.081856   1.000000
   32       -8.003511   1.000000
   33       -7.971958   1.000000
   34       -7.897240   1.000000
   35       -7.760222   1.000000
   36       -7.604588   1.000000
   37       -7.547035   1.000000
   38       -7.441519   1.000000
   39       -7.387496   1.000000
   40       -7.284451   1.000000
   41       -7.212571   1.000000
   42       -7.190981   1.000000
   43       -7.076599   1.000000
   44       -6.998921   1.000000
   45       -6.937235   1.000000
   46       -6.838192   1.000000
   47       -6.722001   1.000000