<?xml version="1.0" encoding="ISO-8859-1"?>
<modeling>
 <generator>
  <i name="program" type="string">vasp </i>
  <i name="version" type="string">5.4.1  </i>
  <i name="subversion" type="string">05Feb16 (build Jul 05 2020 17:13:04) complex                          parallel </i>
  <i name="platform" type="string">IFC91_ompi </i>
  <i name="date" type="string">2024 04 26 </i>
  <i name="time" type="string">01:43:09 </i>
 </generator>
 <incar>
  <i type="int" name="ISTART">     0</i>
  <i type="string" name="PREC">normal</i>
  <i type="string" name="ALGO"> Normal</i>
  <i type="int" name="ISPIN">     1</i>
  <i type="int" name="ICHARG">     2</i>
  <i type="int" name="IBRION">     1</i>
  <i type="int" name="NSW">   100</i>
  <i type="int" name="ISIF">     3</i>
  <i type="int" name="ISYM">     0</i>
  <i name="SYMPREC">      0.00000001</i>
  <i name="POTIM">      0.50000000</i>
  <i type="logical" name="LREAL"> F  </i>
  <i type="logical" name="LPLANE"> F  </i>
  <i type="int" name="ISMEAR">     0</i>
  <i type="logical" name="LWAVE"> F  </i>
  <i type="logical" name="LCHARG"> F  </i>
  <v type="int" name="KPOINT_BSE">    -1     0     0     0</v>
 </incar>
 <kpoints>
  <generation param="Gamma">
   <v type="int" name="divisions">       8        8        1 </v>
   <v name="usershift">      0.00000000       0.00000000       0.00000000 </v>
   <v name="genvec1">      0.12500000       0.00000000       0.00000000 </v>
   <v name="genvec2">     -0.00000000       0.12500000       0.00000000 </v>
   <v name="genvec3">      0.00000000       0.00000000       1.00000000 </v>
   <v name="shift">      0.00000000       0.00000000       0.00000000 </v>
  </generation>
  <varray name="kpointlist" >
   <v>       0.00000000       0.00000000       0.00000000 </v>
   <v>       0.12500000       0.00000000       0.00000000 </v>
   <v>       0.25000000       0.00000000       0.00000000 </v>
   <v>       0.37500000       0.00000000       0.00000000 </v>
   <v>       0.50000000       0.00000000       0.00000000 </v>
   <v>       0.00000000       0.12500000       0.00000000 </v>
   <v>       0.12500000       0.12500000       0.00000000 </v>
   <v>       0.25000000       0.12500000       0.00000000 </v>
   <v>       0.37500000       0.12500000       0.00000000 </v>
   <v>       0.50000000       0.12500000       0.00000000 </v>
   <v>      -0.37500000       0.12500000       0.00000000 </v>
   <v>      -0.25000000       0.12500000       0.00000000 </v>
   <v>      -0.12500000       0.12500000       0.00000000 </v>
   <v>       0.00000000       0.25000000       0.00000000 </v>
   <v>       0.12500000       0.25000000       0.00000000 </v>
   <v>       0.25000000       0.25000000       0.00000000 </v>
   <v>       0.37500000       0.25000000       0.00000000 </v>
   <v>       0.50000000       0.25000000       0.00000000 </v>
   <v>      -0.37500000       0.25000000       0.00000000 </v>
   <v>      -0.25000000       0.25000000       0.00000000 </v>
   <v>      -0.12500000       0.25000000       0.00000000 </v>
   <v>      -0.00000000       0.37500000       0.00000000 </v>
   <v>       0.12500000       0.37500000       0.00000000 </v>
   <v>       0.25000000       0.37500000       0.00000000 </v>
   <v>       0.37500000       0.37500000       0.00000000 </v>
   <v>       0.50000000       0.37500000       0.00000000 </v>
   <v>      -0.37500000       0.37500000       0.00000000 </v>
   <v>      -0.25000000       0.37500000       0.00000000 </v>
   <v>      -0.12500000       0.37500000       0.00000000 </v>
   <v>       0.00000000       0.50000000       0.00000000 </v>
   <v>       0.12500000       0.50000000       0.00000000 </v>
   <v>       0.25000000       0.50000000       0.00000000 </v>
   <v>       0.37500000       0.50000000       0.00000000 </v>
   <v>       0.50000000       0.50000000       0.00000000 </v>
  </varray>
  <varray name="weights" >
   <v>       0.01562500 </v>
   <v>       0.03125000 </v>
   <v>       0.03125000 </v>
   <v>       0.03125000 </v>
   <v>       0.01562500 </v>
   <v>       0.03125000 </v>
   <v>       0.03125000 </v>
   <v>       0.03125000 </v>
   <v>       0.03125000 </v>
   <v>       0.03125000 </v>
   <v>       0.03125000 </v>
   <v>       0.03125000 </v>
   <v>       0.03125000 </v>
   <v>       0.03125000 </v>
   <v>       0.03125000 </v>
   <v>       0.03125000 </v>
   <v>       0.03125000 </v>
   <v>       0.03125000 </v>
   <v>       0.03125000 </v>
   <v>       0.03125000 </v>
   <v>       0.03125000 </v>
   <v>       0.03125000 </v>
   <v>       0.03125000 </v>
   <v>       0.03125000 </v>
   <v>       0.03125000 </v>
   <v>       0.03125000 </v>
   <v>       0.03125000 </v>
   <v>       0.03125000 </v>
   <v>       0.03125000 </v>
   <v>       0.01562500 </v>
   <v>       0.03125000 </v>
   <v>       0.03125000 </v>
   <v>       0.03125000 </v>
   <v>       0.01562500 </v>
  </varray>
 </kpoints>
 <parameters>
  <separator name="general" >
   <i type="string" name="SYSTEM">unknown system</i>
   <i type="logical" name="LCOMPAT"> F  </i>
  </separator>
  <separator name="electronic" >
   <i type="string" name="PREC">normal</i>
   <i name="ENMAX">    280.00000000</i>
   <i name="ENAUG">    373.43800000</i>
   <i name="EDIFF">      0.00010000</i>
   <i type="int" name="IALGO">    38</i>
   <i type="int" name="IWAVPR">    11</i>
   <i type="int" name="NBANDS">   120</i>
   <i name="NELECT">    159.00000000</i>
   <i type="int" name="TURBO">     0</i>
   <i type="int" name="IRESTART">     0</i>
   <i type="int" name="NREBOOT">     0</i>
   <i type="int" name="NMIN">     0</i>
   <i name="EREF">      0.00000000</i>
   <separator name="electronic smearing" >
    <i type="int" name="ISMEAR">     0</i>
    <i name="SIGMA">      0.20000000</i>
    <i name="KSPACING">      0.50000000</i>
    <i type="logical" name="KGAMMA"> T  </i>
   </separator>
   <separator name="electronic projectors" >
    <i type="logical" name="LREAL"> F  </i>
    <v name="ROPT">      0.00000000      0.00000000      0.00000000      0.00000000</v>
    <i type="int" name="LMAXPAW">  -100</i>
    <i type="int" name="LMAXMIX">     2</i>
    <i type="logical" name="NLSPLINE"> F  </i>
   </separator>
   <separator name="electronic startup" >
    <i type="int" name="ISTART">     0</i>
    <i type="int" name="ICHARG">     2</i>
    <i type="int" name="INIWAV">     1</i>
   </separator>
   <separator name="electronic spin" >
    <i type="int" name="ISPIN">     1</i>
    <i type="logical" name="LNONCOLLINEAR"> F  </i>
    <v name="MAGMOM">      1.00000000      1.00000000      1.00000000      1.00000000      1.00000000      1.00000000      1.00000000      1.00000000      1.00000000      1.00000000      1.00000000      1.00000000      1.00000000      1.00000000      1.00000000      1.00000000      1.00000000      1.00000000      1.00000000      1.00000000
      1.00000000      1.00000000      1.00000000      1.00000000      1.00000000      1.00000000      1.00000000</v>
    <i name="NUPDOWN">     -1.00000000</i>
    <i type="logical" name="LSORBIT"> F  </i>
    <v name="SAXIS">      0.00000000      0.00000000      1.00000000</v>
    <i type="logical" name="LSPIRAL"> F  </i>
    <v name="QSPIRAL">      0.00000000      0.00000000      0.00000000</v>
    <i type="logical" name="LZEROZ"> F  </i>
   </separator>
   <separator name="electronic exchange-correlation" >
    <i type="logical" name="LASPH"> F  </i>
    <i type="logical" name="LMETAGGA"> F  </i>
   </separator>
   <separator name="electronic convergence" >
    <i type="int" name="NELM">    60</i>
    <i type="int" name="NELMDL">    -5</i>
    <i type="int" name="NELMIN">     2</i>
    <i name="ENINI">    280.00000000</i>
    <separator name="electronic convergence detail" >
     <i type="logical" name="LDIAG"> T  </i>
     <i type="logical" name="LSUBROT"> F  </i>
     <i name="WEIMIN">      0.00100000</i>
     <i name="EBREAK">      0.00000021</i>
     <i name="DEPER">      0.30000000</i>
     <i type="int" name="NRMM">     4</i>
     <i name="TIME">      0.40000000</i>
    </separator>
   </separator>
   <separator name="electronic mixer" >
    <i name="AMIX">      0.40000000</i>
    <i name="BMIX">      1.00000000</i>
    <i name="AMIN">      0.10000000</i>
    <i name="AMIX_MAG">      1.60000000</i>
    <i name="BMIX_MAG">      1.00000000</i>
    <separator name="electronic mixer details" >
     <i type="int" name="IMIX">     4</i>
     <i type="logical" name="MIXFIRST"> F  </i>
     <i type="int" name="MAXMIX">   -45</i>
     <i name="WC">    100.00000000</i>
     <i type="int" name="INIMIX">     1</i>
     <i type="int" name="MIXPRE">     1</i>
     <i type="int" name="MREMOVE">     5</i>
    </separator>
   </separator>
   <separator name="electronic dipolcorrection" >
    <i type="logical" name="LDIPOL"> F  </i>
    <i type="logical" name="LMONO"> F  </i>
    <i type="int" name="IDIPOL">     0</i>
    <i name="EPSILON">      1.00000000</i>
    <v name="DIPOL">   -100.00000000   -100.00000000   -100.00000000</v>
    <i name="EFIELD">      0.00000000</i>
   </separator>
  </separator>
  <separator name="grids" >
   <i type="int" name="NGX">    42</i>
   <i type="int" name="NGY">    42</i>
   <i type="int" name="NGZ">   126</i>
   <i type="int" name="NGXF">    84</i>
   <i type="int" name="NGYF">    84</i>
   <i type="int" name="NGZF">   252</i>
   <i type="logical" name="ADDGRID"> F  </i>
  </separator>
  <separator name="ionic" >
   <i type="int" name="NSW">   100</i>
   <i type="int" name="IBRION">     1</i>
   <i type="int" name="ISIF">     3</i>
   <i name="PSTRESS">      0.00000000</i>
   <i name="EDIFFG">      0.00100000</i>
   <i type="int" name="NFREE">     0</i>
   <i name="POTIM">      0.50000000</i>
   <i name="SMASS">     -3.00000000</i>
   <i name="SCALEE">      1.00000000</i>
  </separator>
  <separator name="ionic md" >
   <i name="TEBEG">      0.00010000</i>
   <i name="TEEND">      0.00010000</i>
   <i type="int" name="NBLOCK">     1</i>
   <i type="int" name="KBLOCK">   100</i>
   <i type="int" name="NPACO">   256</i>
   <i name="APACO">     16.00000000</i>
  </separator>
  <separator name="symmetry" >
   <i type="int" name="ISYM">     0</i>
   <i name="SYMPREC">      0.00000001</i>
  </separator>
  <separator name="dos" >
   <i type="logical" name="LORBIT"> F  </i>
   <v name="RWIGS">     -1.00000000     -1.00000000     -1.00000000     -1.00000000</v>
   <i type="int" name="NEDOS">   301</i>
   <i name="EMIN">     10.00000000</i>
   <i name="EMAX">    -10.00000000</i>
   <i name="EFERMI">      0.00000000</i>
  </separator>
  <separator name="writing" >
   <i type="int" name="NWRITE">     2</i>
   <i type="logical" name="LWAVE"> F  </i>
   <i type="logical" name="LCHARG"> F  </i>
   <i type="logical" name="LPARD"> F  </i>
   <i type="logical" name="LVTOT"> F  </i>
   <i type="logical" name="LVHAR"> F  </i>
   <i type="logical" name="LELF"> F  </i>
   <i type="logical" name="LOPTICS"> F  </i>
   <v name="STM">      0.00000000      0.00000000      0.00000000      0.00000000      0.00000000      0.00000000      0.00000000</v>
  </separator>
  <separator name="performance" >
   <i type="int" name="NPAR">    40</i>
   <i type="int" name="NSIM">     4</i>
   <i type="int" name="NBLK">    -1</i>
   <i type="logical" name="LPLANE"> F  </i>
   <i type="logical" name="LSCALAPACK"> T  </i>
   <i type="logical" name="LSCAAWARE"> F  </i>
   <i type="logical" name="LSCALU"> F  </i>
   <i type="logical" name="LASYNC"> F  </i>
   <i type="logical" name="LORBITALREAL"> F  </i>
  </separator>
  <separator name="miscellaneous" >
   <i type="int" name="IDIOT">     3</i>
   <i type="logical" name="LMUSIC"> F  </i>
   <v name="POMASS">     50.94100000     95.94000000    183.85000000     32.06600000</v>
   <v name="DARWINR">      0.00000000      0.00000000      0.00000000      0.00000000</v>
   <v name="DARWINV">      1.00000000      1.00000000      1.00000000      1.00000000</v>
   <i type="logical" name="LCORR"> T  </i>
  </separator>
  <i type="logical" name="GGA_COMPAT"> T  </i>
  <i type="logical" name="LBERRY"> F  </i>
  <i type="int" name="ICORELEVEL">     0</i>
  <i type="logical" name="LDAU"> F  </i>
  <i type="int" name="I_CONSTRAINED_M">     0</i>
  <separator name="electronic exchange-correlation" >
   <i type="string" name="GGA">--</i>
   <i type="int" name="VOSKOWN">     0</i>
   <i type="logical" name="LHFCALC"> F  </i>
   <i type="string" name="PRECFOCK"></i>
   <i type="logical" name="LSYMGRAD"> F  </i>
   <i type="logical" name="LHFONE"> F  </i>
   <i type="logical" name="LRHFCALC"> F  </i>
   <i type="logical" name="LTHOMAS"> F  </i>
   <i type="logical" name="LMODELHF"> F  </i>
   <i name="ENCUT4O">     -1.00000000</i>
   <i type="int" name="EXXOEP">     0</i>
   <i type="int" name="FOURORBIT">     0</i>
   <i name="AEXX">      0.00000000</i>
   <i name="HFALPHA">      0.00000000</i>
   <i name="MCALPHA">      0.00000000</i>
   <i name="ALDAX">      1.00000000</i>
   <i name="AGGAX">      1.00000000</i>
   <i name="ALDAC">      1.00000000</i>
   <i name="AGGAC">      1.00000000</i>
   <i type="int" name="NKREDX">     1</i>
   <i type="int" name="NKREDY">     1</i>
   <i type="int" name="NKREDZ">     1</i>
   <i type="logical" name="SHIFTRED"> F  </i>
   <i type="logical" name="ODDONLY"> F  </i>
   <i type="logical" name="EVENONLY"> F  </i>
   <i type="int" name="LMAXFOCK">     0</i>
   <i type="int" name="NMAXFOCKAE">     0</i>
   <i type="logical" name="LFOCKAEDFT"> F  </i>
   <i name="HFSCREEN">      0.00000000</i>
   <i name="HFSCREENC">      0.00000000</i>
   <i type="int" name="NBANDSGWLOW">     0</i>
  </separator>
  <separator name="vdW DFT" >
   <i type="logical" name="LUSE_VDW"> F  </i>
   <i name="Zab_VDW">     -0.84910000</i>
   <i name="PARAM1">      0.12340000</i>
   <i name="PARAM2">      1.00000000</i>
   <i name="PARAM3">      0.00000000</i>
  </separator>
  <separator name="model GW" >
   <i type="int" name="MODEL_GW">     0</i>
   <i name="MODEL_EPS0">     58.26239943</i>
   <i name="MODEL_ALPHA">      1.00000000</i>
  </separator>
  <separator name="linear response parameters" >
   <i type="logical" name="LEPSILON"> F  </i>
   <i type="logical" name="LRPA"> F  </i>
   <i type="logical" name="LNABLA"> F  </i>
   <i type="logical" name="LVEL"> F  </i>
   <i type="int" name="KINTER">     0</i>
   <i name="CSHIFT">      0.10000000</i>
   <i name="OMEGAMAX">     -1.00000000</i>
   <i name="DEG_THRESHOLD">      0.00200000</i>
  </separator>
  <separator name="orbital magnetization" >
   <i type="logical" name="NUCIND"> F  </i>
   <v name="MAGPOS">      0.00000000      0.00000000      0.00000000</v>
   <i type="logical" name="LNICSALL"> T  </i>
   <i type="logical" name="ORBITALMAG"> F  </i>
   <i type="logical" name="LMAGBLOCH"> F  </i>
   <i type="logical" name="LCHIMAG"> F  </i>
   <i type="logical" name="LGAUGE"> T  </i>
   <i type="int" name="MAGATOM">     0</i>
   <v name="MAGDIPOL">      0.00000000      0.00000000      0.00000000</v>
   <v name="AVECCONST">      0.00000000      0.00000000      0.00000000</v>
  </separator>
  <separator name="response functions" >
   <i type="logical" name="LADDER"> F  </i>
   <i type="logical" name="LFXC"> F  </i>
   <i type="logical" name="LHARTREE"> T  </i>
   <i type="int" name="IBSE">     0</i>
   <v type="int" name="KPOINT">    -1     0     0     0</v>
   <i type="logical" name="LTCTE"> F  </i>
   <i type="logical" name="LTETE"> F  </i>
   <i type="logical" name="LTRIPLET"> F  </i>
   <i type="logical" name="LFXCEPS"> F  </i>
   <i type="logical" name="LFXHEG"> F  </i>
   <i type="int" name="NATURALO">     0</i>
   <i type="logical" name="L2ORDER"> F  </i>
   <i type="logical" name="LUSEW"> F  </i>
   <i name="ENCUTGW">     -2.00000000</i>
   <i name="ENCUTGWSOFT">     -2.00000000</i>
   <i name="ENCUTLF">     -1.00000000</i>
   <i type="int" name="LMAXMP2">    -1</i>
   <i name="SCISSOR">      0.00000000</i>
   <i type="int" name="NOMEGA">     0</i>
   <i type="int" name="NOMEGAR">     0</i>
   <i type="int" name="NBANDSGW">    -1</i>
   <i type="int" name="NBANDSO">    -1</i>
   <i type="int" name="NBANDSV">    -1</i>
   <i type="int" name="NELM">     1</i>
   <i type="int" name="NELMHF">     1</i>
   <i type="int" name="DIM">     3</i>
   <i type="int" name="ANTIRES">     0</i>
   <i name="OMEGAMAX">    -30.00000000</i>
   <i name="OMEGAMIN">    -30.00000000</i>
   <i name="OMEGATL">   -200.00000000</i>
   <i type="int" name="OMEGAGRID">     0</i>
   <i name="CSHIFT">     -0.10000000</i>
   <i type="logical" name="SELFENERGY"> F  </i>
   <i type="logical" name="LSPECTRAL"> F  </i>
   <i type="logical" name="LSPECTRALGW"> F  </i>
   <i type="logical" name="LSINGLES"> F  </i>
   <i type="logical" name="LFERMIGW"> F  </i>
   <i type="logical" name="ODDONLYGW"> F  </i>
   <i type="logical" name="EVENONLYGW"> F  </i>
   <i type="int" name="NKREDLFX">     1</i>
   <i type="int" name="NKREDLFY">     1</i>
   <i type="int" name="NKREDLFZ">     1</i>
   <i type="int" name="MAXMEM">  1800</i>
   <i type="int" name="TELESCOPE">     0</i>
   <i type="int" name="TAUPAR">     1</i>
   <i type="int" name="OMEGAPAR">    -1</i>
   <i name="LAMBDA">      1.00000000</i>
  </separator>
  <separator name="External order field" >
   <i name="OFIELD_KAPPA">      0.00000000</i>
   <v name="OFIELD_K">      0.00000000      0.00000000      0.00000000</v>
   <i name="OFIELD_Q6_NEAR">      0.00000000</i>
   <i name="OFIELD_Q6_FAR">      0.00000000</i>
   <i name="OFIELD_A">      0.00000000</i>
  </separator>
 </parameters>
 <atominfo>
  <atoms>      27 </atoms>
  <types>       4 </types>
  <array name="atoms" >
   <dimension dim="1">ion</dimension>
   <field type="string">element</field>
   <field type="int">atomtype</field>
   <set>
    <rc><c>V </c><c>   1</c></rc>
    <rc><c>V </c><c>   1</c></rc>
    <rc><c>V </c><c>   1</c></rc>
    <rc><c>Mo</c><c>   2</c></rc>
    <rc><c>Mo</c><c>   2</c></rc>
    <rc><c>Mo</c><c>   2</c></rc>
    <rc><c>W </c><c>   3</c></rc>
    <rc><c>W </c><c>   3</c></rc>
    <rc><c>W </c><c>   3</c></rc>
    <rc><c>S </c><c>   4</c></rc>
    <rc><c>S </c><c>   4</c></rc>
    <rc><c>S </c><c>   4</c></rc>
    <rc><c>S </c><c>   4</c></rc>
    <rc><c>S </c><c>   4</c></rc>
    <rc><c>S </c><c>   4</c></rc>
    <rc><c>S </c><c>   4</c></rc>
    <rc><c>S </c><c>   4</c></rc>
    <rc><c>S </c><c>   4</c></rc>
    <rc><c>S </c><c>   4</c></rc>
    <rc><c>S </c><c>   4</c></rc>
    <rc><c>S </c><c>   4</c></rc>
    <rc><c>S </c><c>   4</c></rc>
    <rc><c>S </c><c>   4</c></rc>
    <rc><c>S </c><c>   4</c></rc>
    <rc><c>S </c><c>   4</c></rc>
    <rc><c>S </c><c>   4</c></rc>
    <rc><c>S </c><c>   4</c></rc>
   </set>
  </array>
  <array name="atomtypes" >
   <dimension dim="1">type</dimension>
   <field type="int">atomspertype</field>
   <field type="string">element</field>
   <field>mass</field>
   <field>valence</field>
   <field type="string">pseudopotential</field>
   <set>
    <rc><c>   3</c><c>V </c><c>     50.94100000</c><c>      5.00000000</c><c> PAW_PBE V 08Apr2002                    </c></rc>
    <rc><c>   3</c><c>Mo</c><c>     95.94000000</c><c>      6.00000000</c><c> PAW_PBE Mo 08Apr2002                   </c></rc>
    <rc><c>   3</c><c>W </c><c>    183.85000000</c><c>      6.00000000</c><c> PAW_PBE W 08Apr2002                    </c></rc>
    <rc><c>  18</c><c>S </c><c>     32.06600000</c><c>      6.00000000</c><c>  PAW_PBE S 17Jan2003                   </c></rc>
   </set>
  </array>
 </atominfo>
 <structure name="initialpos" >
  <crystal>
   <varray name="basis" >
    <v>       8.66999996       5.03999989       0.00000000 </v>
    <v>      -8.66999982       5.04000013       0.00000000 </v>
    <v>       0.00000000       0.00000000      30.00000000 </v>
   </varray>
   <i name="volume">   2621.80797419 </i>
   <varray name="rec_basis" >
    <v>       0.05767013       0.09920635       0.00000000 </v>
    <v>      -0.05767013       0.09920635       0.00000000 </v>
    <v>       0.00000000       0.00000000       0.03333333 </v>
   </varray>
  </crystal>
  <varray name="positions" >
   <v>       0.33333334       0.33333334       0.00000000 </v>
   <v>       1.00000000       0.33333334       0.00000000 </v>
   <v>       0.66666669       0.33333334       0.00000000 </v>
   <v>       0.00000000       0.66666669       0.00000000 </v>
   <v>       0.66666669       0.00000000       0.00000000 </v>
   <v>       0.33333334       0.66666669       0.00000000 </v>
   <v>       0.00000000       0.00000000       0.00000000 </v>
   <v>       0.33333334       0.00000000       0.00000000 </v>
   <v>       0.66666669       0.66666669       0.00000000 </v>
   <v>       0.11068511       0.22244981       0.95539999 </v>
   <v>       0.22244981       0.11068511       0.04460000 </v>
   <v>       0.11068511       0.55578315       0.95539999 </v>
   <v>       0.22244981       0.44401845       0.04460000 </v>
   <v>       0.11068511       0.88911647       0.95539999 </v>
   <v>       0.22244981       0.77735180       0.04460000 </v>
   <v>       0.44401845       0.22244981       0.95539999 </v>
   <v>       0.55578315       0.11068511       0.04460000 </v>
   <v>       0.44401845       0.55578315       0.95539999 </v>
   <v>       0.55578315       0.44401845       0.04460000 </v>
   <v>       0.44401845       0.88911647       0.95539999 </v>
   <v>       0.55578315       0.77735180       0.04460000 </v>
   <v>       0.77735180       0.22244981       0.95539999 </v>
   <v>       0.88911647       0.11068511       0.04460000 </v>
   <v>       0.77735180       0.55578315       0.95539999 </v>
   <v>       0.88911647       0.44401845       0.04460000 </v>
   <v>       0.77735180       0.88911647       0.95539999 </v>
   <v>       0.88911647       0.77735180       0.04460000 </v>
  </varray>
 </structure>
 <calculation>
  <scstep>
   <time name="dav">   21.78   21.83</time>
   <time name="total">   21.82   21.88</time>
   <energy>
    <i name="alphaZ">     81.65567618 </i>
    <i name="ewald">  41891.19379415 </i>
    <i name="hartreedc"> -47723.83805681 </i>
    <i name="XCdc">   -242.92497599 </i>
    <i name="pawpsdc">   3467.42045192 </i>
    <i name="pawaedc">  -2871.19716117 </i>
    <i name="eentropy">     -0.52582841 </i>
    <i name="bandstr">   -239.81198363 </i>
    <i name="atom">   6761.44252427 </i>
    <i name="e_fr_energy">   1123.41444050 </i>
    <i name="e_wo_entrp">   1123.94026891 </i>
    <i name="e_0_energy">   1123.67735470 </i>
   </energy>
  </scstep>
  <scstep>
   <time name="dav">   28.08   28.15</time>
   <time name="total">   28.08   28.16</time>
   <energy>
    <i name="e_fr_energy">     -3.49472694 </i>
    <i name="e_wo_entrp">     -3.30322809 </i>
    <i name="e_0_energy">     -3.39897751 </i>
   </energy>
  </scstep>
  <scstep>
   <time name="dav">   27.57   27.64</time>
   <time name="total">   27.57   27.65</time>
   <energy>
    <i name="e_fr_energy">   -199.68927612 </i>
    <i name="e_wo_entrp">   -199.43820397 </i>
    <i name="e_0_energy">   -199.56374005 </i>
   </energy>
  </scstep>
  <scstep>
   <time name="dav">   30.01   30.08</time>
   <time name="total">   30.01   30.09</time>
   <energy>
    <i name="e_fr_energy">   -209.07569577 </i>
    <i name="e_wo_entrp">   -208.81392650 </i>
    <i name="e_0_energy">   -208.94481114 </i>
   </energy>
  </scstep>
  <scstep>
   <time name="dav">   28.13   28.19</time>
   <time name="total">   28.60   28.68</time>
   <energy>
    <i name="e_fr_energy">   -209.40342327 </i>
    <i name="e_wo_entrp">   -209.14426625 </i>
    <i name="e_0_energy">   -209.27384476 </i>
   </energy>
  </scstep>
  <scstep>
   <time name="dav">   30.57   30.64</time>
   <time name="total">   31.07   31.15</time>
   <energy>
    <i name="e_fr_energy">   -241.51555612 </i>
    <i name="e_wo_entrp">   -241.23462884 </i>
    <i name="e_0_energy">   -241.37509248 </i>
   </energy>
  </scstep>
  <scstep>
   <time name="dav">   32.34   32.42</time>
   <time name="total">   32.85   32.94</time>
   <energy>
    <i name="e_fr_energy">   -196.12964322 </i>
    <i name="e_wo_entrp">   -195.80568953 </i>
    <i name="e_0_energy">   -195.96766638 </i>
   </energy>
  </scstep>
  <scstep>
   <time name="dav">   29.50   29.57</time>
   <time name="total">   30.02   30.10</time>
   <energy>
    <i name="e_fr_energy">   -189.35506482 </i>
    <i name="e_wo_entrp">   -189.02319458 </i>
    <i name="e_0_energy">   -189.18912970 </i>
   </energy>
  </scstep>
  <scstep>
   <time name="dav">   31.89   31.96</time>
   <time name="total">   32.41   32.50</time>
   <energy>
    <i name="e_fr_energy">   -188.08244890 </i>
    <i name="e_wo_entrp">   -187.75044751 </i>
    <i name="e_0_energy">   -187.91644821 </i>
   </energy>
  </scstep>
  <scstep>
   <time name="dav">   32.41   32.49</time>
   <time name="total">   32.94   33.03</time>
   <energy>
    <i name="e_fr_energy">   -186.95361354 </i>
    <i name="e_wo_entrp">   -186.59871316 </i>
    <i name="e_0_energy">   -186.77616335 </i>
   </energy>
  </scstep>
  <scstep>
   <time name="dav">   32.52   32.60</time>
   <time name="total">   33.06   33.14</time>
   <energy>
    <i name="e_fr_energy">   -187.02755791 </i>
    <i name="e_wo_entrp">   -186.68656636 </i>
    <i name="e_0_energy">   -186.85706213 </i>
   </energy>
  </scstep>
  <scstep>
   <time name="dav">   31.83   31.91</time>
   <time name="total">   32.37   32.45</time>
   <energy>
    <i name="e_fr_energy">   -186.95011656 </i>
    <i name="e_wo_entrp">   -186.60808017 </i>
    <i name="e_0_energy">   -186.77909837 </i>
   </energy>
  </scstep>
  <scstep>
   <time name="dav">   32.50   32.58</time>
   <time name="total">   33.03   33.12</time>
   <energy>
    <i name="e_fr_energy">   -186.88104245 </i>
    <i name="e_wo_entrp">   -186.53763582 </i>
    <i name="e_0_energy">   -186.70933913 </i>
   </energy>
  </scstep>
  <scstep>
   <time name="dav">   30.46   30.54</time>
   <time name="total">   31.00   31.08</time>
   <energy>
    <i name="e_fr_energy">   -186.85601634 </i>
    <i name="e_wo_entrp">   -186.50889287 </i>
    <i name="e_0_energy">   -186.68245460 </i>
   </energy>
  </scstep>
  <scstep>
   <time name="dav">   31.29   31.37</time>
   <time name="total">   31.83   31.91</time>
   <energy>
    <i name="e_fr_energy">   -186.85407577 </i>
    <i name="e_wo_entrp">   -186.50610146 </i>
    <i name="e_0_energy">   -186.68008861 </i>
   </energy>
  </scstep>
  <scstep>
   <time name="dav">   32.11   32.18</time>
   <time name="total">   32.64   32.73</time>
   <energy>
    <i name="e_fr_energy">   -186.84915333 </i>
    <i name="e_wo_entrp">   -186.50211022 </i>
    <i name="e_0_energy">   -186.67563177 </i>
   </energy>
  </scstep>
  <scstep>
   <time name="dav">   30.97   31.04</time>
   <time name="total">   31.50   31.59</time>
   <energy>
    <i name="e_fr_energy">   -186.84798392 </i>
    <i name="e_wo_entrp">   -186.50206493 </i>
    <i name="e_0_energy">   -186.67502442 </i>
   </energy>
  </scstep>
  <scstep>
   <time name="dav">   31.41   31.49</time>
   <time name="total">   31.95   32.03</time>
   <energy>
    <i name="e_fr_energy">   -186.84738906 </i>
    <i name="e_wo_entrp">   -186.50098575 </i>
    <i name="e_0_energy">   -186.67418741 </i>
   </energy>
  </scstep>
  <scstep>
   <time name="dav">   23.57   23.63</time>
   <time name="total">   23.61   23.67</time>
   <energy>
    <i name="alphaZ">     81.65567618 </i>
    <i name="ewald">  41891.19379415 </i>
    <i name="hartreedc"> -47818.74061844 </i>
    <i name="XCdc">   -231.69012420 </i>
    <i name="pawpsdc">   4194.35397427 </i>
    <i name="pawaedc">  -3612.37658403 </i>
    <i name="eentropy">     -0.34642176 </i>
    <i name="bandstr">  -1452.33965489 </i>
    <i name="atom">   6761.44252427 </i>
    <i name="e_fr_energy">   -186.84743444 </i>
    <i name="e_wo_entrp">   -186.50101268 </i>
    <i name="e_0_energy">   -186.67422356 </i>
   </energy>
  </scstep>
  <structure>
   <crystal>
    <varray name="basis" >
     <v>       8.66999996       5.03999989       0.00000000 </v>
     <v>      -8.66999982       5.04000013       0.00000000 </v>
     <v>       0.00000000       0.00000000      30.00000000 </v>
    </varray>
    <i name="volume">   2621.80797419 </i>
    <varray name="rec_basis" >
     <v>       0.05767013       0.09920635       0.00000000 </v>
     <v>      -0.05767013       0.09920635       0.00000000 </v>
     <v>       0.00000000       0.00000000       0.03333333 </v>
    </varray>
   </crystal>
   <varray name="positions" >
    <v>       0.33333334       0.33333334       0.00000000 </v>
    <v>       1.00000000       0.33333334       0.00000000 </v>
    <v>       0.66666669       0.33333334       0.00000000 </v>
    <v>       0.00000000       0.66666669       0.00000000 </v>
    <v>       0.66666669       0.00000000       0.00000000 </v>
    <v>       0.33333334       0.66666669       0.00000000 </v>
    <v>       0.00000000       0.00000000       0.00000000 </v>
    <v>       0.33333334       0.00000000       0.00000000 </v>
    <v>       0.66666669       0.66666669       0.00000000 </v>
    <v>       0.11068511       0.22244981       0.95539999 </v>
    <v>       0.22244981       0.11068511       0.04460000 </v>
    <v>       0.11068511       0.55578315       0.95539999 </v>
    <v>       0.22244981       0.44401845       0.04460000 </v>
    <v>       0.11068511       0.88911647       0.95539999 </v>
    <v>       0.22244981       0.77735180       0.04460000 </v>
    <v>       0.44401845       0.22244981       0.95539999 </v>
    <v>       0.55578315       0.11068511       0.04460000 </v>
    <v>       0.44401845       0.55578315       0.95539999 </v>
    <v>       0.55578315       0.44401845       0.04460000 </v>
    <v>       0.44401845       0.88911647       0.95539999 </v>
    <v>       0.55578315       0.77735180       0.04460000 </v>
    <v>       0.77735180       0.22244981       0.95539999 </v>
    <v>       0.88911647       0.11068511       0.04460000 </v>
    <v>       0.77735180       0.55578315       0.95539999 </v>
    <v>       0.88911647       0.44401845       0.04460000 </v>
    <v>       0.77735180       0.88911647       0.95539999 </v>
    <v>       0.88911647       0.77735180       0.04460000 </v>
   </varray>
  </structure>
  <varray name="forces" >
   <v>      -0.22240679       0.11779739       0.01312985 </v>
   <v>      -0.22969571       0.13313493       0.01786297 </v>
   <v>       0.23869713       0.11066280      -0.02835049 </v>
   <v>       0.27509871       0.14213397       0.09127476 </v>
   <v>       0.00094858      -0.25142577      -0.12311774 </v>
   <v>      -0.25783105       0.07308875       0.14075485 </v>
   <v>      -0.08852707      -0.25558546      -0.12144597 </v>
   <v>       0.52994333      -0.20721380      -0.15958733 </v>
   <v>      -0.21358058       0.06148509       0.12543731 </v>
   <v>      -0.23293167       0.52243301      -1.40760867 </v>
   <v>      -0.47545585       0.57289597       2.11865682 </v>
   <v>       0.53471986      -0.70315595      -2.14697835 </v>
   <v>       0.32345791      -0.66131550       1.40177914 </v>
   <v>       0.02848949       0.17435210      -2.89368196 </v>
   <v>      -0.18934595       0.11964818       2.94694143 </v>
   <v>      -0.24316914       0.52174154      -1.37868123 </v>
   <v>      -0.62876959       0.56335001       2.14524099 </v>
   <v>       0.61590981      -0.54829050      -2.12475040 </v>
   <v>       0.23198174      -0.51387364       1.40591248 </v>
   <v>      -0.07346385       0.03593406      -2.93484399 </v>
   <v>       0.06981450      -0.03386985       2.89920333 </v>
   <v>      -0.33303777       0.66993531      -1.41155587 </v>
   <v>      -0.36863599       0.70865652       2.13003942 </v>
   <v>       0.37485796      -0.69528008      -2.10635008 </v>
   <v>       0.32400327      -0.66695780       1.42886839 </v>
   <v>       0.25727163       0.04048062      -2.94201826 </v>
   <v>      -0.24834293      -0.03076189       2.91386859 </v>
  </varray>
  <varray name="stress" >
   <v>       7.38899531      -0.10997610      -1.54274509 </v>
   <v>      -0.10997613       4.61564253       0.03348165 </v>
   <v>      -1.54274515       0.03348165      31.17189423 </v>
  </varray>
  <energy>
   <i name="e_fr_energy">   -186.84743444 </i>
   <i name="e_wo_entrp">   -186.67422356 </i>
   <i name="e_0_energy">     -0.34642176 </i>
  </energy>
  <time name="totalsc">  618.94  620.58</time>
 </calculation>
 <calculation>
  <scstep>
   <time name="dav">   21.81   21.86</time>
   <time name="total">   22.35   22.40</time>
   <energy>
    <i name="alphaZ">     78.86454685 </i>
    <i name="ewald">  39348.80893986 </i>
    <i name="hartreedc"> -45296.73580540 </i>
    <i name="XCdc">   -239.17691221 </i>
    <i name="pawpsdc">   4192.93816940 </i>
    <i name="pawaedc">  -3610.94184078 </i>
    <i name="eentropy">     -0.28605700 </i>
    <i name="bandstr">  -1422.43225264 </i>
    <i name="atom">   6761.44252427 </i>
    <i name="e_fr_energy">   -187.51868764 </i>
    <i name="e_wo_entrp">   -187.23263064 </i>
    <i name="e_0_energy">   -187.37565914 </i>
   </energy>
  </scstep>
  <scstep>
   <time name="dav">   29.48   29.55</time>
   <time name="total">   30.01   30.09</time>
   <energy>
    <i name="e_fr_energy">   -189.63436044 </i>
    <i name="e_wo_entrp">   -189.29316056 </i>
    <i name="e_0_energy">   -189.46376050 </i>
   </energy>
  </scstep>
  <scstep>
   <time name="dav">   30.12   30.19</time>
   <time name="total">   30.67   30.75</time>
   <energy>
    <i name="e_fr_energy">   -189.31109371 </i>
    <i name="e_wo_entrp">   -189.04289794 </i>
    <i name="e_0_energy">   -189.17699583 </i>
   </energy>
  </scstep>
  <scstep>
   <time name="dav">   30.30   30.37</time>
   <time name="total">   30.85   30.93</time>
   <energy>
    <i name="e_fr_energy">   -188.77954449 </i>
    <i name="e_wo_entrp">   -188.48992543 </i>
    <i name="e_0_energy">   -188.63473496 </i>
   </energy>
  </scstep>
  <scstep>
   <time name="dav">   27.64   27.71</time>
   <time name="total">   28.18   28.25</time>
   <energy>
    <i name="e_fr_energy">   -188.89565400 </i>
    <i name="e_wo_entrp">   -188.60642764 </i>
    <i name="e_0_energy">   -188.75104082 </i>
   </energy>
  </scstep>
  <scstep>
   <time name="dav">   30.37   30.44</time>
   <time name="total">   30.91   30.99</time>
   <energy>
    <i name="e_fr_energy">   -188.75228978 </i>
    <i name="e_wo_entrp">   -188.46255937 </i>
    <i name="e_0_energy">   -188.60742457 </i>
   </energy>
  </scstep>
  <scstep>
   <time name="dav">   29.43   29.50</time>
   <time name="total">   29.98   30.06</time>
   <energy>
    <i name="e_fr_energy">   -188.71095161 </i>
    <i name="e_wo_entrp">   -188.42197769 </i>
    <i name="e_0_energy">   -188.56646465 </i>
   </energy>
  </scstep>
  <scstep>
   <time name="dav">   28.92   28.99</time>
   <time name="total">   29.47   29.55</time>
   <energy>
    <i name="e_fr_energy">   -188.69712423 </i>
    <i name="e_wo_entrp">   -188.40980779 </i>
    <i name="e_0_energy">   -188.55346601 </i>
   </energy>
  </scstep>
  <scstep>
   <time name="dav">   29.34   29.41</time>
   <time name="total">   29.89   29.97</time>
   <energy>
    <i name="e_fr_energy">   -188.66722003 </i>
    <i name="e_wo_entrp">   -188.38064020 </i>
    <i name="e_0_energy">   -188.52393011 </i>
   </energy>
  </scstep>
  <scstep>
   <time name="dav">   27.14   27.21</time>
   <time name="total">   27.69   27.76</time>
   <energy>
    <i name="e_fr_energy">   -188.66495181 </i>
    <i name="e_wo_entrp">   -188.37910109 </i>
    <i name="e_0_energy">   -188.52202645 </i>
   </energy>
  </scstep>
  <scstep>
   <time name="dav">   31.71   31.78</time>
   <time name="total">   32.25   32.34</time>
   <energy>
    <i name="e_fr_energy">   -188.66446658 </i>
    <i name="e_wo_entrp">   -188.37942529 </i>
    <i name="e_0_energy">   -188.52194594 </i>
   </energy>
  </scstep>
  <scstep>
   <time name="dav">   27.58   27.65</time>
   <time name="total">   28.13   28.21</time>
   <energy>
    <i name="e_fr_energy">   -188.66453940 </i>
    <i name="e_wo_entrp">   -188.37972548 </i>
    <i name="e_0_energy">   -188.52213244 </i>
   </energy>
  </scstep>
  <scstep>
   <time name="dav">   21.66   21.71</time>
   <time name="total">   22.21   22.26</time>
   <energy>
    <i name="e_fr_energy">   -188.66468506 </i>
    <i name="e_wo_entrp">   -188.37971406 </i>
    <i name="e_0_energy">   -188.52219956 </i>
   </energy>
  </scstep>
  <scstep>
   <time name="dav">   21.29   21.34</time>
   <time name="total">   21.32   21.38</time>
   <energy>
    <i name="alphaZ">     78.86454685 </i>
    <i name="ewald">  39348.80893986 </i>
    <i name="hartreedc"> -45313.89268873 </i>
    <i name="XCdc">   -238.03433108 </i>
    <i name="pawpsdc">   3949.02162568 </i>
    <i name="pawaedc">  -3363.51062303 </i>
    <i name="eentropy">     -0.28498376 </i>
    <i name="bandstr">  -1411.07977568 </i>
    <i name="atom">   6761.44252427 </i>
    <i name="e_fr_energy">   -188.66476560 </i>
    <i name="e_wo_entrp">   -188.37978185 </i>
    <i name="e_0_energy">   -188.52227373 </i>
   </energy>
  </scstep>
  <structure>
   <crystal>
    <varray name="basis" >
     <v>       8.85568986       5.10522947       0.00000000 </v>
     <v>      -8.85893099       5.11080548       0.00000000 </v>
     <v>       0.00000000       0.00000000      30.00000000 </v>
    </varray>
    <i name="volume">   2714.59751535 </i>
    <varray name="rec_basis" >
     <v>       0.05648136       0.09790325       0.00000000 </v>
     <v>      -0.05641974       0.09786743       0.00000000 </v>
     <v>       0.00000000       0.00000000       0.03333333 </v>
    </varray>
   </crystal>
   <varray name="positions" >
    <v>       0.33327835       0.33451589       0.00002111 </v>
    <v>       0.99999813       0.33460957       0.00002873 </v>
    <v>       0.66786041       0.33319888      -0.00004559 </v>
    <v>       0.00144562       0.66658157       0.00014678 </v>
    <v>       0.66546601      -0.00120596      -0.00019798 </v>
    <v>       0.33296582       0.66773381       0.00022635 </v>
    <v>      -0.00146952      -0.00097693      -0.00019530 </v>
    <v>       0.33381601      -0.00246611      -0.00025663 </v>
    <v>       0.66636674       0.66755517       0.00020171 </v>
    <v>       0.11253741       0.22559822       0.95313643 </v>
    <v>       0.22386888       0.11474977       0.04800699 </v>
    <v>       0.10880750       0.55093019       0.95194746 </v>
    <v>       0.22018468       0.43995350       0.04685418 </v>
    <v>       0.11159882       0.88987165       0.95074669 </v>
    <v>       0.22249565       0.77845122       0.04933894 </v>
    <v>       0.44583896       0.22562339       0.95318295 </v>
    <v>       0.55673000       0.11513063       0.04804974 </v>
    <v>       0.44310791       0.55144549       0.95198320 </v>
    <v>       0.55396918       0.44091366       0.04686083 </v>
    <v>       0.44398604       0.88949283       0.95068050 </v>
    <v>       0.55581529       0.77699546       0.04926217 </v>
    <v>       0.77963153       0.22658267       0.95313008 </v>
    <v>       0.89148248       0.11510233       0.04802529 </v>
    <v>       0.77506712       0.55141264       0.95201279 </v>
    <v>       0.88682585       0.43992498       0.04689775 </v>
    <v>       0.77826131       0.88859443       0.95066896 </v>
    <v>       0.88827831       0.77789550       0.04928576 </v>
   </varray>
  </structure>
  <varray name="forces" >
   <v>      -0.16116816       0.11171264       0.01433383 </v>
   <v>      -0.17470906       0.12225702       0.00634950 </v>
   <v>       0.15562627       0.08907819      -0.09105877 </v>
   <v>       0.13815948       0.36474718      -0.05091886 </v>
   <v>       0.15144847      -0.42382908       0.04463609 </v>
   <v>      -0.40950770       0.29279972       0.02931641 </v>
   <v>      -0.01697846      -0.42356825       0.08143196 </v>
   <v>       0.55754016      -0.35118095      -0.02062466 </v>
   <v>      -0.27717914       0.28144664       0.02333779 </v>
   <v>       0.04470545      -0.07283534       0.13646062 </v>
   <v>       0.06669895      -0.07124366      -0.30469583 </v>
   <v>       0.04392365      -0.07277414      -0.03835972 </v>
   <v>      -0.00238072      -0.04408127      -0.05163023 </v>
   <v>      -0.06750695       0.11482131      -0.02882641 </v>
   <v>      -0.05055859       0.11760198       0.26451981 </v>
   <v>       0.06454872      -0.07519141       0.22278924 </v>
   <v>      -0.08357246      -0.05554064      -0.07757359 </v>
   <v>       0.06639488       0.05324689       0.08660535 </v>
   <v>      -0.05583376       0.07425429      -0.13377930 </v>
   <v>      -0.13032641      -0.01324728      -0.26671204 </v>
   <v>       0.13321530      -0.00601303       0.16465500 </v>
   <v>      -0.01179763       0.04651390       0.06831227 </v>
   <v>       0.10708328       0.04813877      -0.15740131 </v>
   <v>      -0.11005711      -0.04948247       0.18027515 </v>
   <v>       0.02368603      -0.04434927       0.01608549 </v>
   <v>       0.10619163      -0.00914539      -0.14230034 </v>
   <v>      -0.10764614      -0.00413634       0.02477254 </v>
  </varray>
  <varray name="stress" >
   <v>     -20.01863135       0.03828328       0.01217252 </v>
   <v>       0.03828343     -19.63929430       0.09606887 </v>
   <v>       0.01217242       0.09606881      -1.72358982 </v>
  </varray>
  <energy>
   <i name="e_fr_energy">   -188.66476560 </i>
   <i name="e_wo_entrp">   -188.52227373 </i>
   <i name="e_0_energy">     -0.28498376 </i>
  </energy>
  <time name="totalsc">  437.17  438.32</time>
 </calculation>
 <calculation>
  <scstep>
   <time name="dav">   23.41   23.46</time>
   <time name="total">   23.95   24.00</time>
   <energy>
    <i name="alphaZ">     82.31142686 </i>
    <i name="ewald">  41285.71628729 </i>
    <i name="hartreedc"> -47281.86888972 </i>
    <i name="XCdc">   -233.87689091 </i>
    <i name="pawpsdc">   3948.12646762 </i>
    <i name="pawaedc">  -3362.60679547 </i>
    <i name="eentropy">     -0.23886919 </i>
    <i name="bandstr">  -1389.62692924 </i>
    <i name="atom">   6761.44252427 </i>
    <i name="e_fr_energy">   -190.62166848 </i>
    <i name="e_wo_entrp">   -190.38279930 </i>
    <i name="e_0_energy">   -190.50223389 </i>
   </energy>
  </scstep>
  <scstep>
   <time name="dav">   29.88   29.95</time>
   <time name="total">   30.40   30.49</time>
   <energy>
    <i name="e_fr_energy">   -190.55355379 </i>
    <i name="e_wo_entrp">   -190.32016421 </i>
    <i name="e_0_energy">   -190.43685900 </i>
   </energy>
  </scstep>
  <scstep>
   <time name="dav">   30.01   30.09</time>
   <time name="total">   30.54   30.62</time>
   <energy>
    <i name="e_fr_energy">   -190.11210895 </i>
    <i name="e_wo_entrp">   -189.85831970 </i>
    <i name="e_0_energy">   -189.98521433 </i>
   </energy>
  </scstep>
  <scstep>
   <time name="dav">   31.60   31.68</time>
   <time name="total">   32.14   32.23</time>
   <energy>
    <i name="e_fr_energy">   -189.88251515 </i>
    <i name="e_wo_entrp">   -189.64781994 </i>
    <i name="e_0_energy">   -189.76516755 </i>
   </energy>
  </scstep>
  <scstep>
   <time name="dav">   30.25   30.32</time>
   <time name="total">   30.78   30.86</time>
   <energy>
    <i name="e_fr_energy">   -189.86741312 </i>
    <i name="e_wo_entrp">   -189.61703868 </i>
    <i name="e_0_energy">   -189.74222590 </i>
   </energy>
  </scstep>
  <scstep>
   <time name="dav">   30.14   30.21</time>
   <time name="total">   30.67   30.76</time>
   <energy>
    <i name="e_fr_energy">   -189.78382267 </i>
    <i name="e_wo_entrp">   -189.54457168 </i>
    <i name="e_0_energy">   -189.66419717 </i>
   </energy>
  </scstep>
  <scstep>
   <time name="dav">   29.16   29.23</time>
   <time name="total">   29.70   29.78</time>
   <energy>
    <i name="e_fr_energy">   -189.77888413 </i>
    <i name="e_wo_entrp">   -189.53757472 </i>
    <i name="e_0_energy">   -189.65822942 </i>
   </energy>
  </scstep>
  <scstep>
   <time name="dav">   29.06   29.13</time>
   <time name="total">   29.60   29.68</time>
   <energy>
    <i name="e_fr_energy">   -189.77816574 </i>
    <i name="e_wo_entrp">   -189.53715485 </i>
    <i name="e_0_energy">   -189.65766029 </i>
   </energy>
  </scstep>
  <scstep>
   <time name="dav">   28.60   28.67</time>
   <time name="total">   29.13   29.21</time>
   <energy>
    <i name="e_fr_energy">   -189.77728051 </i>
    <i name="e_wo_entrp">   -189.53615271 </i>
    <i name="e_0_energy">   -189.65671661 </i>
   </energy>
  </scstep>
  <scstep>
   <time name="dav">   26.52   26.59</time>
   <time name="total">   27.06   27.13</time>
   <energy>
    <i name="e_fr_energy">   -189.77758159 </i>
    <i name="e_wo_entrp">   -189.53622062 </i>
    <i name="e_0_energy">   -189.65690111 </i>
   </energy>
  </scstep>
  <scstep>
   <time name="dav">   23.40   23.46</time>
   <time name="total">   23.94   24.00</time>
   <energy>
    <i name="e_fr_energy">   -189.77745301 </i>
    <i name="e_wo_entrp">   -189.53609534 </i>
    <i name="e_0_energy">   -189.65677417 </i>
   </energy>
  </scstep>
  <scstep>
   <time name="dav">   18.58   18.63</time>
   <time name="total">   18.62   18.67</time>
   <energy>
    <i name="alphaZ">     82.31142686 </i>
    <i name="ewald">  41285.71628729 </i>
    <i name="hartreedc"> -47256.82965022 </i>
    <i name="XCdc">   -235.27182868 </i>
    <i name="pawpsdc">   4038.09769072 </i>
    <i name="pawaedc">  -3453.79200129 </i>
    <i name="eentropy">     -0.24134398 </i>
    <i name="bandstr">  -1411.21059416 </i>
    <i name="atom">   6761.44252427 </i>
    <i name="e_fr_energy">   -189.77748917 </i>
    <i name="e_wo_entrp">   -189.53614520 </i>
    <i name="e_0_energy">   -189.65681719 </i>
   </energy>
  </scstep>
  <structure>
   <crystal>
    <varray name="basis" >
     <v>       8.66670236       4.99858816       0.00000000 </v>
     <v>      -8.66945686       5.00332354       0.00000000 </v>
     <v>       0.00000000       0.00000000      30.00000000 </v>
    </varray>
    <i name="volume">   2600.92080898 </i>
    <varray name="rec_basis" >
     <v>       0.05771022       0.09999678       0.00000000 </v>
     <v>      -0.05765560       0.09996501       0.00000000 </v>
     <v>       0.00000000       0.00000000       0.03333333 </v>
    </varray>
   </crystal>
   <varray name="positions" >
    <v>       0.33330954       0.33485647       0.00002924 </v>
    <v>       1.00003387       0.33498070       0.00003232 </v>
    <v>       0.66815822       0.33319782      -0.00009721 </v>
    <v>       0.00218564       0.66705609       0.00011791 </v>
    <v>       0.66490580      -0.00205670      -0.00017268 </v>
    <v>       0.33305998       0.66861409       0.00024297 </v>
    <v>      -0.00219108      -0.00166563      -0.00014913 </v>
    <v>       0.33376684      -0.00358559      -0.00026832 </v>
    <v>       0.66656910       0.66828957       0.00021494 </v>
    <v>       0.11245908       0.22543409       0.95321379 </v>
    <v>       0.22381433       0.11456719       0.04783426 </v>
    <v>       0.10872852       0.55076692       0.95192571 </v>
    <v>       0.22010900       0.43988242       0.04682491 </v>
    <v>       0.11172515       0.89012753       0.95073035 </v>
    <v>       0.22264290       0.77869547       0.04948890 </v>
    <v>       0.44577577       0.22543630       0.95330925 </v>
    <v>       0.55655724       0.11511838       0.04800576 </v>
    <v>       0.44326034       0.55147040       0.95203230 </v>
    <v>       0.55403918       0.44109082       0.04678499 </v>
    <v>       0.44383880       0.88959584       0.95052930 </v>
    <v>       0.55593324       0.77685763       0.04935552 </v>
    <v>       0.77969764       0.22667141       0.95316881 </v>
    <v>       0.89166549       0.11507970       0.04793606 </v>
    <v>       0.77487901       0.55143589       0.95211499 </v>
    <v>       0.88677476       0.43982844       0.04690686 </v>
    <v>       0.77834808       0.88847732       0.95058830 </v>
    <v>       0.88816802       0.77799191       0.04929980 </v>
   </varray>
  </structure>
  <varray name="forces" >
   <v>      -0.14365198       0.11364671       0.00887569 </v>
   <v>      -0.15325015       0.11783018       0.00109625 </v>
   <v>       0.12706379       0.07145006      -0.08629909 </v>
   <v>       0.09153051       0.43797482      -0.06503689 </v>
   <v>       0.21154274      -0.48840893       0.06149823 </v>
   <v>      -0.45706581       0.36512921      -0.00504814 </v>
   <v>       0.00941203      -0.49721422       0.10242072 </v>
   <v>       0.56598352      -0.40763439       0.02072908 </v>
   <v>      -0.30420727       0.36403898      -0.01654341 </v>
   <v>      -0.03476012       0.04990666      -0.31814862 </v>
   <v>       0.01471249       0.04758400       0.16935479 </v>
   <v>       0.09019143      -0.12426421      -0.52702841 </v>
   <v>       0.01873438      -0.09613966       0.39602007 </v>
   <v>      -0.03193703       0.05795243      -0.59167193 </v>
   <v>      -0.01467968       0.05296748       0.84813974 </v>
   <v>      -0.00505118       0.04264311      -0.22198176 </v>
   <v>      -0.07968143       0.06895082       0.41265480 </v>
   <v>       0.04692364      -0.06750510      -0.39673237 </v>
   <v>       0.02601659      -0.04958381       0.32511150 </v>
   <v>      -0.02868471      -0.01919078      -0.85376159 </v>
   <v>       0.04507949      -0.01583480       0.73594948 </v>
   <v>      -0.02984127       0.09829728      -0.37288430 </v>
   <v>      -0.02059451       0.10518709       0.33318255 </v>
   <v>      -0.00398101      -0.09980068      -0.29464633 </v>
   <v>       0.05280286      -0.09708000       0.46987378 </v>
   <v>       0.02740258      -0.02017474      -0.72793326 </v>
   <v>      -0.02000989      -0.01072753       0.59280941 </v>
  </varray>
  <varray name="stress" >
   <v>     -10.28185474       0.00366111      -0.01958700 </v>
   <v>       0.00366108      -9.96806459       0.10257923 </v>
   <v>      -0.01958691       0.10257912       6.48711165 </v>
  </varray>
  <energy>
   <i name="e_fr_energy">   -189.77748917 </i>
   <i name="e_wo_entrp">   -189.65681719 </i>
   <i name="e_0_energy">     -0.24134398 </i>
  </energy>
  <time name="totalsc">  379.40  380.41</time>
 </calculation>
 <calculation>
  <scstep>
   <time name="dav">   21.76   21.81</time>
   <time name="total">   22.28   22.34</time>
   <energy>
    <i name="alphaZ">     85.85395419 </i>
    <i name="ewald">  42851.84969634 </i>
    <i name="hartreedc"> -48868.06957777 </i>
    <i name="XCdc">   -232.91864442 </i>
    <i name="pawpsdc">   4038.09748159 </i>
    <i name="pawaedc">  -3453.78870463 </i>
    <i name="eentropy">     -0.19884028 </i>
    <i name="bandstr">  -1373.68434352 </i>
    <i name="atom">   6761.44252427 </i>
    <i name="e_fr_energy">   -191.41645422 </i>
    <i name="e_wo_entrp">   -191.21761394 </i>
    <i name="e_0_energy">   -191.31703408 </i>
   </energy>
  </scstep>
  <scstep>
   <time name="dav">   32.30   32.38</time>
   <time name="total">   32.82   32.90</time>
   <energy>
    <i name="e_fr_energy">   -191.14562543 </i>
    <i name="e_wo_entrp">   -190.94204311 </i>
    <i name="e_0_energy">   -191.04383427 </i>
   </energy>
  </scstep>
  <scstep>
   <time name="dav">   29.67   29.74</time>
   <time name="total">   30.18   30.26</time>
   <energy>
    <i name="e_fr_energy">   -191.46592269 </i>
    <i name="e_wo_entrp">   -191.24918284 </i>
    <i name="e_0_energy">   -191.35755277 </i>
   </energy>
  </scstep>
  <scstep>
   <time name="dav">   28.47   28.54</time>
   <time name="total">   28.99   29.06</time>
   <energy>
    <i name="e_fr_energy">   -191.00934257 </i>
    <i name="e_wo_entrp">   -190.79705109 </i>
    <i name="e_0_energy">   -190.90319683 </i>
   </energy>
  </scstep>
  <scstep>
   <time name="dav">   29.70   29.77</time>
   <time name="total">   30.22   30.30</time>
   <energy>
    <i name="e_fr_energy">   -190.99961254 </i>
    <i name="e_wo_entrp">   -190.80460589 </i>
    <i name="e_0_energy">   -190.90210921 </i>
   </energy>
  </scstep>
  <scstep>
   <time name="dav">   30.13   30.20</time>
   <time name="total">   30.64   30.72</time>
   <energy>
    <i name="e_fr_energy">   -190.81452852 </i>
    <i name="e_wo_entrp">   -190.60709914 </i>
    <i name="e_0_energy">   -190.71081383 </i>
   </energy>
  </scstep>
  <scstep>
   <time name="dav">   30.43   30.50</time>
   <time name="total">   30.95   31.03</time>
   <energy>
    <i name="e_fr_energy">   -190.81462284 </i>
    <i name="e_wo_entrp">   -190.60841707 </i>
    <i name="e_0_energy">   -190.71151996 </i>
   </energy>
  </scstep>
  <scstep>
   <time name="dav">   29.75   29.82</time>
   <time name="total">   30.27   30.35</time>
   <energy>
    <i name="e_fr_energy">   -190.81265363 </i>
    <i name="e_wo_entrp">   -190.60590359 </i>
    <i name="e_0_energy">   -190.70927861 </i>
   </energy>
  </scstep>
  <scstep>
   <time name="dav">   28.43   28.49</time>
   <time name="total">   28.94   29.02</time>
   <energy>
    <i name="e_fr_energy">   -190.80876723 </i>
    <i name="e_wo_entrp">   -190.60244540 </i>
    <i name="e_0_energy">   -190.70560631 </i>
   </energy>
  </scstep>
  <scstep>
   <time name="dav">   27.87   27.93</time>
   <time name="total">   28.38   28.46</time>
   <energy>
    <i name="e_fr_energy">   -190.80908142 </i>
    <i name="e_wo_entrp">   -190.60262661 </i>
    <i name="e_0_energy">   -190.70585402 </i>
   </energy>
  </scstep>
  <scstep>
   <time name="dav">   27.07   27.13</time>
   <time name="total">   27.58   27.66</time>
   <energy>
    <i name="e_fr_energy">   -190.80886456 </i>
    <i name="e_wo_entrp">   -190.60230858 </i>
    <i name="e_0_energy">   -190.70558657 </i>
   </energy>
  </scstep>
  <scstep>
   <time name="dav">   18.48   18.53</time>
   <time name="total">   18.52   18.57</time>
   <energy>
    <i name="alphaZ">     85.85395419 </i>
    <i name="ewald">  42851.84969634 </i>
    <i name="hartreedc"> -48839.33246015 </i>
    <i name="XCdc">   -234.27569134 </i>
    <i name="pawpsdc">   4064.69678401 </i>
    <i name="pawaedc">  -3480.59063176 </i>
    <i name="eentropy">     -0.20659368 </i>
    <i name="bandstr">  -1400.24646162 </i>
    <i name="atom">   6761.44252427 </i>
    <i name="e_fr_energy">   -190.80887974 </i>
    <i name="e_wo_entrp">   -190.60228606 </i>
    <i name="e_0_energy">   -190.70558290 </i>
   </energy>
  </scstep>
  <structure>
   <crystal>
    <varray name="basis" >
     <v>       8.48136738       4.89653555       0.00000000 </v>
     <v>      -8.48451481       4.90195765       0.00000000 </v>
     <v>       0.00000000       0.00000000      30.00000000 </v>
    </varray>
    <i name="volume">   2493.60096410 </i>
    <varray name="rec_basis" >
     <v>       0.05897444       0.10207545       0.00000000 </v>
     <v>      -0.05890921       0.10203759       0.00000000 </v>
     <v>       0.00000000       0.00000000       0.03333333 </v>
    </varray>
   </crystal>
   <varray name="positions" >
    <v>       0.33353284       0.33606952       0.00004298 </v>
    <v>       1.00023836       0.33623302       0.00003009 </v>
    <v>       0.66898147       0.33318328      -0.00027222 </v>
    <v>       0.00538433       0.66972619      -0.00002917 </v>
    <v>       0.66253027      -0.00613867      -0.00003059 </v>
    <v>       0.33380925       0.67281259       0.00020301 </v>
    <v>      -0.00542637      -0.00504480       0.00008142 </v>
    <v>       0.33312857      -0.00834854      -0.00018983 </v>
    <v>       0.66792127       0.67192373       0.00014640 </v>
    <v>       0.11284025       0.22629784       0.95216352 </v>
    <v>       0.22439031       0.11518744       0.04859242 </v>
    <v>       0.10821263       0.54946335       0.95041275 </v>
    <v>       0.21947272       0.43904926       0.04803081 </v>
    <v>       0.11188171       0.89041207       0.94901960 </v>
    <v>       0.22281158       0.77886622       0.05174970 </v>
    <v>       0.44622098       0.22612018       0.95246699 </v>
    <v>       0.55702077       0.11614770       0.04928271 </v>
    <v>       0.44267393       0.55060082       0.95079431 </v>
    <v>       0.55362905       0.44025454       0.04785338 </v>
    <v>       0.44374711       0.88941667       0.94825389 </v>
    <v>       0.55584432       0.77669823       0.05137292 </v>
    <v>       0.78031098       0.22755317       0.95201646 </v>
    <v>       0.89220950       0.11614371       0.04904839 </v>
    <v>       0.77426531       0.55054301       0.95109607 </v>
    <v>       0.88626599       0.43885269       0.04827129 </v>
    <v>       0.77817839       0.88833807       0.94857522 </v>
    <v>       0.88813893       0.77785316       0.05101737 </v>
   </varray>
  </structure>
  <varray name="forces" >
   <v>      -0.12557077       0.16206479       0.00791031 </v>
   <v>      -0.10979912       0.15035250      -0.00104817 </v>
   <v>       0.04953584       0.02277375      -0.05185935 </v>
   <v>       0.07668605       0.49445410      -0.03428394 </v>
   <v>       0.28384437      -0.51867111       0.03173826 </v>
   <v>      -0.46881805       0.36957399      -0.03584777 </v>
   <v>      -0.01336927      -0.55983107       0.06076734 </v>
   <v>       0.55322476      -0.39550895       0.04690044 </v>
   <v>      -0.32656323       0.39484649      -0.04180435 </v>
   <v>      -0.01544594      -0.03414975      -0.19984713 </v>
   <v>       0.06078964      -0.02855944       0.01837368 </v>
   <v>       0.03419368       0.00956535      -0.36982470 </v>
   <v>      -0.07222401       0.02569271       0.30543879 </v>
   <v>      -0.00229919       0.05599312      -0.42354293 </v>
   <v>       0.02247605      -0.01024952       0.68277133 </v>
   <v>       0.05490534      -0.04626609      -0.15009776 </v>
   <v>       0.01759906      -0.01630951       0.24352291 </v>
   <v>      -0.05336837       0.01618098      -0.23622721 </v>
   <v>      -0.00801082       0.03337558       0.23331835 </v>
   <v>       0.03159689      -0.00094475      -0.67021683 </v>
   <v>      -0.01086919      -0.07129210       0.58121717 </v>
   <v>       0.05539398      -0.02410828      -0.25821880 </v>
   <v>      -0.05011014      -0.01317146       0.20310220 </v>
   <v>      -0.00476934       0.02972389      -0.15148421 </v>
   <v>      -0.00233204       0.02680853       0.33656662 </v>
   <v>      -0.03378416      -0.01138059      -0.58245555 </v>
   <v>       0.05708798      -0.06096314       0.45513130 </v>
  </varray>
  <varray name="stress" >
   <v>      -5.82343858      -0.17233295      -0.04931748 </v>
   <v>      -0.17233330      -5.69608298      -0.11629697 </v>
   <v>      -0.04931748      -0.11629698       4.71189198 </v>
  </varray>
  <energy>
   <i name="e_fr_energy">   -190.80887974 </i>
   <i name="e_wo_entrp">   -190.70558290 </i>
   <i name="e_0_energy">     -0.20659368 </i>
  </energy>
  <time name="totalsc">  382.10  383.11</time>
 </calculation>
 <calculation>
  <scstep>
   <time name="dav">   21.73   21.78</time>
   <time name="total">   22.24   22.30</time>
   <energy>
    <i name="alphaZ">     90.18653731 </i>
    <i name="ewald">  44667.35608713 </i>
    <i name="hartreedc"> -50709.90781828 </i>
    <i name="XCdc">   -231.86923956 </i>
    <i name="pawpsdc">   4064.62024236 </i>
    <i name="pawaedc">  -3480.51034794 </i>
    <i name="eentropy">     -0.18118965 </i>
    <i name="bandstr">  -1353.35958535 </i>
    <i name="atom">   6761.44252427 </i>
    <i name="e_fr_energy">   -192.22278970 </i>
    <i name="e_wo_entrp">   -192.04160006 </i>
    <i name="e_0_energy">   -192.13219488 </i>
   </energy>
  </scstep>
  <scstep>
   <time name="dav">   27.93   28.00</time>
   <time name="total">   28.44   28.51</time>
   <energy>
    <i name="e_fr_energy">   -191.99151233 </i>
    <i name="e_wo_entrp">   -191.77693196 </i>
    <i name="e_0_energy">   -191.88422215 </i>
   </energy>
  </scstep>
  <scstep>
   <time name="dav">   30.21   30.29</time>
   <time name="total">   30.72   30.80</time>
   <energy>
    <i name="e_fr_energy">   -192.43473293 </i>
    <i name="e_wo_entrp">   -192.26133523 </i>
    <i name="e_0_energy">   -192.34803408 </i>
   </energy>
  </scstep>
  <scstep>
   <time name="dav">   30.38   30.45</time>
   <time name="total">   30.89   30.97</time>
   <energy>
    <i name="e_fr_energy">   -191.68903057 </i>
    <i name="e_wo_entrp">   -191.49901212 </i>
    <i name="e_0_energy">   -191.59402134 </i>
   </energy>
  </scstep>
  <scstep>
   <time name="dav">   29.28   29.35</time>
   <time name="total">   29.79   29.87</time>
   <energy>
    <i name="e_fr_energy">   -191.74282735 </i>
    <i name="e_wo_entrp">   -191.54224967 </i>
    <i name="e_0_energy">   -191.64253851 </i>
   </energy>
  </scstep>
  <scstep>
   <time name="dav">   29.95   30.03</time>
   <time name="total">   30.46   30.55</time>
   <energy>
    <i name="e_fr_energy">   -191.54587515 </i>
    <i name="e_wo_entrp">   -191.35487495 </i>
    <i name="e_0_energy">   -191.45037505 </i>
   </energy>
  </scstep>
  <scstep>
   <time name="dav">   29.65   29.73</time>
   <time name="total">   30.16   30.24</time>
   <energy>
    <i name="e_fr_energy">   -191.53847319 </i>
    <i name="e_wo_entrp">   -191.34113032 </i>
    <i name="e_0_energy">   -191.43980176 </i>
   </energy>
  </scstep>
  <scstep>
   <time name="dav">   30.46   30.54</time>
   <time name="total">   30.97   31.06</time>
   <energy>
    <i name="e_fr_energy">   -191.53671818 </i>
    <i name="e_wo_entrp">   -191.34086534 </i>
    <i name="e_0_energy">   -191.43879176 </i>
   </energy>
  </scstep>
  <scstep>
   <time name="dav">   28.68   28.74</time>
   <time name="total">   29.18   29.26</time>
   <energy>
    <i name="e_fr_energy">   -191.53223955 </i>
    <i name="e_wo_entrp">   -191.33644626 </i>
    <i name="e_0_energy">   -191.43434291 </i>
   </energy>
  </scstep>
  <scstep>
   <time name="dav">   28.67   28.74</time>
   <time name="total">   29.18   29.26</time>
   <energy>
    <i name="e_fr_energy">   -191.53224953 </i>
    <i name="e_wo_entrp">   -191.33668709 </i>
    <i name="e_0_energy">   -191.43446831 </i>
   </energy>
  </scstep>
  <scstep>
   <time name="dav">   24.49   24.55</time>
   <time name="total">   24.52   24.59</time>
   <energy>
    <i name="alphaZ">     90.18653731 </i>
    <i name="ewald">  44667.35608713 </i>
    <i name="hartreedc"> -50675.95778549 </i>
    <i name="XCdc">   -233.37041247 </i>
    <i name="pawpsdc">   4086.74243446 </i>
    <i name="pawaedc">  -3502.73470919 </i>
    <i name="eentropy">     -0.19578881 </i>
    <i name="bandstr">  -1385.00115031 </i>
    <i name="atom">   6761.44252427 </i>
    <i name="e_fr_energy">   -191.53226308 </i>
    <i name="e_wo_entrp">   -191.33647427 </i>
    <i name="e_0_energy">   -191.43436868 </i>
   </energy>
  </scstep>
  <structure>
   <crystal>
    <varray name="basis" >
     <v>       8.26611577       4.77039571       0.00000000 </v>
     <v>      -8.27983554       4.79413001       0.00000000 </v>
     <v>       0.00000000       0.00000000      30.00000000 </v>
    </varray>
    <i name="volume">   2373.80776907 </i>
    <varray name="rec_basis" >
     <v>       0.06058785       0.10463992       0.00000000 </v>
     <v>      -0.06028789       0.10446654       0.00000000 </v>
     <v>       0.00000000       0.00000000       0.03333333 </v>
    </varray>
   </crystal>
   <varray name="positions" >
    <v>       0.33455868       0.33883478       0.00006952 </v>
    <v>       1.00122295       0.33877095       0.00002196 </v>
    <v>       0.66966316       0.33311565      -0.00049129 </v>
    <v>       0.01198903       0.67537721      -0.00019502 </v>
    <v>       0.65811274      -0.01460019       0.00012733 </v>
    <v>       0.33514199       0.68086157       0.00004386 </v>
    <v>      -0.01236982      -0.01192846       0.00036466 </v>
    <v>       0.33205032      -0.01724604       0.00002236 </v>
    <v>       0.67059047       0.67922352      -0.00004465 </v>
    <v>       0.11265658       0.22662978       0.95086671 </v>
    <v>       0.22480574       0.11500833       0.04920651 </v>
    <v>       0.10833077       0.54884217       0.94838877 </v>
    <v>       0.21904940       0.43939724       0.04972450 </v>
    <v>       0.11241754       0.89091925       0.94670483 </v>
    <v>       0.22278819       0.77847984       0.05511024 </v>
    <v>       0.44635572       0.22582758       0.95140144 </v>
    <v>       0.55735630       0.11640856       0.05081415 </v>
    <v>       0.44207602       0.55062550       0.94930305 </v>
    <v>       0.55365515       0.44005853       0.04927292 </v>
    <v>       0.44402063       0.88902636       0.94493013 </v>
    <v>       0.55487250       0.77606322       0.05431350 </v>
    <v>       0.78064602       0.22733222       0.95050337 </v>
    <v>       0.89187331       0.11687573       0.05039935 </v>
    <v>       0.77441131       0.55040484       0.94995792 </v>
    <v>       0.88632098       0.43873938       0.05011691 </v>
    <v>       0.77768503       0.88846229       0.94562069 </v>
    <v>       0.88793375       0.77670463       0.05344621 </v>
   </varray>
  </structure>
  <varray name="forces" >
   <v>      -0.11981335       0.28722039       0.04807831 </v>
   <v>      -0.09196788       0.22326559       0.00470618 </v>
   <v>      -0.02072696      -0.06462375      -0.05790152 </v>
   <v>       0.03996934       0.26883135       0.08885145 </v>
   <v>       0.24784391      -0.18094310      -0.09496111 </v>
   <v>      -0.12463817       0.00322402       0.07851024 </v>
   <v>      -0.05120405      -0.44986576      -0.05472377 </v>
   <v>       0.24140746      -0.12117152      -0.05789878 </v>
   <v>      -0.21010409       0.19529510       0.10830643 </v>
   <v>       0.03183178      -0.13646310       0.11434104 </v>
   <v>       0.12855325      -0.17274552      -0.26559394 </v>
   <v>      -0.06892510       0.18524912      -0.06611772 </v>
   <v>      -0.13473913       0.14220521       0.01765732 </v>
   <v>      -0.02080853       0.10347350      -0.08703974 </v>
   <v>       0.04465714      -0.04921993       0.30635171 </v>
   <v>       0.11151658      -0.17777331       0.09900489 </v>
   <v>       0.15327361      -0.14671403      -0.02463896 </v>
   <v>      -0.16141019       0.14538139      -0.02656679 </v>
   <v>      -0.05849254       0.14842528      -0.02124597 </v>
   <v>       0.04332968       0.05923215      -0.26394871 </v>
   <v>      -0.01178521      -0.17072734       0.20177167 </v>
   <v>       0.11665104      -0.13710504       0.09244673 </v>
   <v>      -0.01397306      -0.19023680      -0.07459658 </v>
   <v>      -0.05770130       0.21402869       0.13041187 </v>
   <v>      -0.05064241       0.13570881      -0.02554345 </v>
   <v>      -0.07610088      -0.00100707      -0.33505912 </v>
   <v>       0.11399906      -0.11294432       0.16539832 </v>
  </varray>
  <varray name="stress" >
   <v>      -0.32092864      -0.56786906       0.28427596 </v>
   <v>      -0.56786907       0.33442297      -0.75552400 </v>
   <v>       0.28427588      -0.75552385      -0.33496185 </v>
  </varray>
  <energy>
   <i name="e_fr_energy">   -191.53226308 </i>
   <i name="e_wo_entrp">   -191.43436868 </i>
   <i name="e_0_energy">     -0.19578881 </i>
  </energy>
  <time name="totalsc">  359.45  360.40</time>
 </calculation>
 <calculation>
  <scstep>
   <time name="dav">   21.79   21.85</time>
   <time name="total">   22.31   22.36</time>
   <energy>
    <i name="alphaZ">     90.21297277 </i>
    <i name="ewald">  44654.82793910 </i>
    <i name="hartreedc"> -50664.67029809 </i>
    <i name="XCdc">   -233.45443793 </i>
    <i name="pawpsdc">   4087.03850248 </i>
    <i name="pawaedc">  -3503.02823028 </i>
    <i name="eentropy">     -0.19536471 </i>
    <i name="bandstr">  -1383.77981933 </i>
    <i name="atom">   6761.44252427 </i>
    <i name="e_fr_energy">   -191.60621171 </i>
    <i name="e_wo_entrp">   -191.41084700 </i>
    <i name="e_0_energy">   -191.50852936 </i>
   </energy>
  </scstep>
  <scstep>
   <time name="dav">   31.69   31.76</time>
   <time name="total">   32.19   32.28</time>
   <energy>
    <i name="e_fr_energy">   -191.70720903 </i>
    <i name="e_wo_entrp">   -191.49465547 </i>
    <i name="e_0_energy">   -191.60093225 </i>
   </energy>
  </scstep>
  <scstep>
   <time name="dav">   30.59   30.67</time>
   <time name="total">   31.11   31.19</time>
   <energy>
    <i name="e_fr_energy">   -191.62056088 </i>
    <i name="e_wo_entrp">   -191.42232405 </i>
    <i name="e_0_energy">   -191.52144247 </i>
   </energy>
  </scstep>
  <scstep>
   <time name="dav">   28.84   28.90</time>
   <time name="total">   29.35   29.43</time>
   <energy>
    <i name="e_fr_energy">   -191.62481305 </i>
    <i name="e_wo_entrp">   -191.42606753 </i>
    <i name="e_0_energy">   -191.52544029 </i>
   </energy>
  </scstep>
  <scstep>
   <time name="dav">   28.80   28.87</time>
   <time name="total">   29.31   29.39</time>
   <energy>
    <i name="e_fr_energy">   -191.61770824 </i>
    <i name="e_wo_entrp">   -191.41762394 </i>
    <i name="e_0_energy">   -191.51766609 </i>
   </energy>
  </scstep>
  <scstep>
   <time name="dav">   28.53   28.60</time>
   <time name="total">   29.04   29.12</time>
   <energy>
    <i name="e_fr_energy">   -191.61894360 </i>
    <i name="e_wo_entrp">   -191.41999561 </i>
    <i name="e_0_energy">   -191.51946960 </i>
   </energy>
  </scstep>
  <scstep>
   <time name="dav">   28.18   28.25</time>
   <time name="total">   28.69   28.77</time>
   <energy>
    <i name="e_fr_energy">   -191.61758348 </i>
    <i name="e_wo_entrp">   -191.41706006 </i>
    <i name="e_0_energy">   -191.51732177 </i>
   </energy>
  </scstep>
  <scstep>
   <time name="dav">   25.63   25.70</time>
   <time name="total">   26.14   26.21</time>
   <energy>
    <i name="e_fr_energy">   -191.61720252 </i>
    <i name="e_wo_entrp">   -191.41734010 </i>
    <i name="e_0_energy">   -191.51727131 </i>
   </energy>
  </scstep>
  <scstep>
   <time name="dav">   18.13   18.18</time>
   <time name="total">   18.17   18.22</time>
   <energy>
    <i name="alphaZ">     90.21297277 </i>
    <i name="ewald">  44654.82793910 </i>
    <i name="hartreedc"> -50665.60262358 </i>
    <i name="XCdc">   -233.43692775 </i>
    <i name="pawpsdc">   4084.22914445 </i>
    <i name="pawaedc">  -3500.17494373 </i>
    <i name="eentropy">     -0.19978739 </i>
    <i name="bandstr">  -1382.91550435 </i>
    <i name="atom">   6761.44252427 </i>
    <i name="e_fr_energy">   -191.61720621 </i>
    <i name="e_wo_entrp">   -191.41741882 </i>
    <i name="e_0_energy">   -191.51731251 </i>
   </energy>
  </scstep>
  <structure>
   <crystal>
    <varray name="basis" >
     <v>       8.25020002       4.76118126       0.00000000 </v>
     <v>      -8.27867592       4.81048484       0.00000000 </v>
     <v>       0.00000000       0.00000000      30.00000000 </v>
    </varray>
    <i name="volume">   2373.11216283 </i>
    <varray name="rec_basis" >
     <v>       0.06081236       0.10465594       0.00000000 </v>
     <v>      -0.06018908       0.10429596       0.00000000 </v>
     <v>       0.00000000       0.00000000       0.03333333 </v>
    </varray>
   </crystal>
   <varray name="positions" >
    <v>       0.33569071       0.34069611       0.00014858 </v>
    <v>       1.00210834       0.34021885       0.00002955 </v>
    <v>       0.66927715       0.33284440      -0.00058879 </v>
    <v>       0.01356701       0.67670545      -0.00005153 </v>
    <v>       0.65786889      -0.01636212      -0.00002626 </v>
    <v>       0.33480353       0.68134153       0.00017059 </v>
    <v>      -0.01491646      -0.01416728       0.00027853 </v>
    <v>       0.33213253      -0.01868718      -0.00006991 </v>
    <v>       0.67100108       0.68093437       0.00013048 </v>
    <v>       0.11204986       0.22584324       0.95103540 </v>
    <v>       0.22430728       0.11374255       0.04878243 </v>
    <v>       0.10907804       0.54998705       0.94825299 </v>
    <v>       0.21937305       0.44052737       0.04977650 </v>
    <v>       0.11289303       0.89151673       0.94653084 </v>
    <v>       0.22266729       0.77808944       0.05565572 </v>
    <v>       0.44577725       0.22458565       0.95154789 </v>
    <v>       0.55706509       0.11520814       0.05079563 </v>
    <v>       0.44233308       0.55184673       0.94923819 </v>
    <v>       0.55424233       0.44098694       0.04925813 </v>
    <v>       0.44445807       0.88919649       0.94445445 </v>
    <v>       0.55394770       0.77521518       0.05468266 </v>
    <v>       0.78029380       0.22628326       0.95063383 </v>
    <v>       0.89085046       0.11595257       0.05029674 </v>
    <v>       0.77534083       0.55166950       0.95015450 </v>
    <v>       0.88686698       0.43958172       0.05010006 </v>
    <v>       0.77744660       0.88868431       0.94503285 </v>
    <v>       0.88769097       0.77577342       0.05374983 </v>
   </varray>
  </structure>
  <varray name="forces" >
   <v>      -0.15181567       0.35937373       0.02483988 </v>
   <v>      -0.11242468       0.25469380      -0.02883622 </v>
   <v>       0.00861874      -0.11677586      -0.08094498 </v>
   <v>       0.05870281       0.29047460       0.03054888 </v>
   <v>       0.24356918      -0.20753820      -0.02251804 </v>
   <v>      -0.12108877       0.02071737      -0.01812722 </v>
   <v>      -0.05887890      -0.48147884      -0.01774554 </v>
   <v>       0.30358028      -0.13185967       0.03429625 </v>
   <v>      -0.24984604       0.19280422       0.00641851 </v>
   <v>       0.03893680      -0.09475789       0.17095241 </v>
   <v>       0.05295034      -0.11921518      -0.31849731 </v>
   <v>      -0.05594345       0.11071844      -0.02839454 </v>
   <v>      -0.08014885       0.07944110       0.04491605 </v>
   <v>      -0.02289992       0.04644399      -0.03132845 </v>
   <v>       0.00760715       0.02111808       0.19227204 </v>
   <v>       0.05520121      -0.12245188       0.10962838 </v>
   <v>       0.12102726      -0.08635841      -0.05940747 </v>
   <v>      -0.08807754       0.08874707      -0.00823434 </v>
   <v>      -0.03694150       0.10650631      -0.01279448 </v>
   <v>       0.06225747      -0.00778048      -0.14865132 </v>
   <v>      -0.02612413      -0.09587831       0.14313779 </v>
   <v>       0.08350029      -0.08491617       0.11677741 </v>
   <v>      -0.00269322      -0.12247344      -0.10668324 </v>
   <v>      -0.04004023       0.13338527       0.18721843 </v>
   <v>      -0.04176218       0.08510501      -0.04428569 </v>
   <v>      -0.01110986      -0.05810863      -0.25462000 </v>
   <v>       0.06384342      -0.05993602       0.12006282 </v>
  </varray>
  <varray name="stress" >
   <v>      -0.01340174       0.01639599       0.03724029 </v>
   <v>       0.01639611       0.03753562      -0.22179942 </v>
   <v>       0.03724041      -0.22179945      -1.28441287 </v>
  </varray>
  <energy>
   <i name="e_fr_energy">   -191.61720621 </i>
   <i name="e_wo_entrp">   -191.51731251 </i>
   <i name="e_0_energy">     -0.19978739 </i>
  </energy>
  <time name="totalsc">  288.77  289.53</time>
 </calculation>
 <calculation>
  <scstep>
   <time name="dav">   21.74   21.79</time>
   <time name="total">   22.25   22.30</time>
   <energy>
    <i name="alphaZ">     90.21344795 </i>
    <i name="ewald">  44657.28114751 </i>
    <i name="hartreedc"> -50667.92645791 </i>
    <i name="XCdc">   -233.43218822 </i>
    <i name="pawpsdc">   4084.19469517 </i>
    <i name="pawaedc">  -3500.14003717 </i>
    <i name="eentropy">     -0.19717854 </i>
    <i name="bandstr">  -1383.12286355 </i>
    <i name="atom">   6761.44252427 </i>
    <i name="e_fr_energy">   -191.68691048 </i>
    <i name="e_wo_entrp">   -191.48973194 </i>
    <i name="e_0_energy">   -191.58832121 </i>
   </energy>
  </scstep>
  <scstep>
   <time name="dav">   32.83   32.91</time>
   <time name="total">   33.34   33.43</time>
   <energy>
    <i name="e_fr_energy">   -191.76299673 </i>
    <i name="e_wo_entrp">   -191.54787208 </i>
    <i name="e_0_energy">   -191.65543440 </i>
   </energy>
  </scstep>
  <scstep>
   <time name="dav">   30.44   30.51</time>
   <time name="total">   30.95   31.03</time>
   <energy>
    <i name="e_fr_energy">   -191.69541700 </i>
    <i name="e_wo_entrp">   -191.49506099 </i>
    <i name="e_0_energy">   -191.59523899 </i>
   </energy>
  </scstep>
  <scstep>
   <time name="dav">   28.63   28.70</time>
   <time name="total">   29.15   29.23</time>
   <energy>
    <i name="e_fr_energy">   -191.69881421 </i>
    <i name="e_wo_entrp">   -191.49984130 </i>
    <i name="e_0_energy">   -191.59932776 </i>
   </energy>
  </scstep>
  <scstep>
   <time name="dav">   28.84   28.91</time>
   <time name="total">   29.34   29.42</time>
   <energy>
    <i name="e_fr_energy">   -191.69253495 </i>
    <i name="e_wo_entrp">   -191.49126193 </i>
    <i name="e_0_energy">   -191.59189844 </i>
   </energy>
  </scstep>
  <scstep>
   <time name="dav">   28.67   28.74</time>
   <time name="total">   29.19   29.26</time>
   <energy>
    <i name="e_fr_energy">   -191.69299976 </i>
    <i name="e_wo_entrp">   -191.49246374 </i>
    <i name="e_0_energy">   -191.59273175 </i>
   </energy>
  </scstep>
  <scstep>
   <time name="dav">   28.83   28.90</time>
   <time name="total">   29.33   29.41</time>
   <energy>
    <i name="e_fr_energy">   -191.69277510 </i>
    <i name="e_wo_entrp">   -191.49085238 </i>
    <i name="e_0_energy">   -191.59181374 </i>
   </energy>
  </scstep>
  <scstep>
   <time name="dav">   24.95   25.01</time>
   <time name="total">   25.46   25.53</time>
   <energy>
    <i name="e_fr_energy">   -191.69222233 </i>
    <i name="e_wo_entrp">   -191.49105148 </i>
    <i name="e_0_energy">   -191.59163690 </i>
   </energy>
  </scstep>
  <scstep>
   <time name="dav">   17.24   17.28</time>
   <time name="total">   17.27   17.32</time>
   <energy>
    <i name="alphaZ">     90.21344795 </i>
    <i name="ewald">  44657.28114751 </i>
    <i name="hartreedc"> -50668.70512788 </i>
    <i name="XCdc">   -233.40501522 </i>
    <i name="pawpsdc">   4086.96721841 </i>
    <i name="pawaedc">  -3502.94667793 </i>
    <i name="eentropy">     -0.20108085 </i>
    <i name="bandstr">  -1382.33865264 </i>
    <i name="atom">   6761.44252427 </i>
    <i name="e_fr_energy">   -191.69221637 </i>
    <i name="e_wo_entrp">   -191.49113552 </i>
    <i name="e_0_energy">   -191.59167594 </i>
   </energy>
  </scstep>
  <structure>
   <crystal>
    <varray name="basis" >
     <v>       8.24972197       4.76183769       0.00000000 </v>
     <v>      -8.27784260       4.81053536       0.00000000 </v>
     <v>       0.00000000       0.00000000      30.00000000 </v>
    </varray>
    <i name="volume">   2373.09966311 </i>
    <varray name="rec_basis" >
     <v>       0.06081332       0.10464595       0.00000000 </v>
     <v>      -0.06019770       0.10429046       0.00000000 </v>
     <v>       0.00000000       0.00000000       0.03333333 </v>
    </varray>
   </crystal>
   <varray name="positions" >
    <v>       0.33715358       0.34310202       0.00019144 </v>
    <v>       1.00313099       0.34194086      -0.00001974 </v>
    <v>       0.66867735       0.33219177      -0.00072817 </v>
    <v>       0.01533280       0.67809829       0.00000084 </v>
    <v>       0.65750223      -0.01825336      -0.00006496 </v>
    <v>       0.33453918       0.68184892       0.00013970 </v>
    <v>      -0.01771306      -0.01658832       0.00024861 </v>
    <v>       0.33236901      -0.02035865      -0.00001108 </v>
    <v>       0.67126547       0.68276310       0.00014167 </v>
    <v>       0.11166020       0.22521471       0.95132428 </v>
    <v>       0.22383199       0.11293653       0.04823855 </v>
[...]
      <set comment="kpoint 31">
       <r>  -17.5282    1.0000 </r>
       <r>  -17.2312    1.0000 </r>
       <r>  -16.9308    1.0000 </r>
       <r>  -16.6764    1.0000 </r>
       <r>  -16.5031    1.0000 </r>
       <r>  -16.3587    1.0000 </r>
       <r>  -16.3287    1.0000 </r>
       <r>  -16.2398    1.0000 </r>
       <r>  -16.0995    1.0000 </r>
       <r>  -16.0578    1.0000 </r>
       <r>  -15.9629    1.0000 </r>
       <r>  -15.8505    1.0000 </r>
       <r>  -15.7679    1.0000 </r>
       <r>  -15.6914    1.0000 </r>
       <r>  -15.5907    1.0000 </r>
       <r>  -15.4756    1.0000 </r>
       <r>  -15.3841    1.0000 </r>
       <r>  -15.2707    1.0000 </r>
       <r>   -9.6959    1.0000 </r>
       <r>   -9.4451    1.0000 </r>
       <r>   -9.3225    1.0000 </r>
       <r>   -9.0589    1.0000 </r>
       <r>   -8.9059    1.0000 </r>
       <r>   -8.7370    1.0000 </r>
       <r>   -8.4612    1.0000 </r>
       <r>   -8.4276    1.0000 </r>
       <r>   -8.3922    1.0000 </r>
       <r>   -8.3058    1.0000 </r>
       <r>   -8.2430    1.0000 </r>
       <r>   -8.2036    1.0000 </r>
       <r>   -8.1505    1.0000 </r>
       <r>   -8.0743    1.0000 </r>
       <r>   -8.0448    1.0000 </r>
       <r>   -7.8609    1.0000 </r>
       <r>   -7.7801    1.0000 </r>
       <r>   -7.6808    1.0000 </r>
       <r>   -7.4954    1.0000 </r>
       <r>   -7.4537    1.0000 </r>
       <r>   -7.3746    1.0000 </r>
       <r>   -7.2353    1.0000 </r>
       <r>   -7.1574    1.0000 </r>
       <r>   -7.0911    1.0000 </r>
       <r>   -7.0211    1.0000 </r>
       <r>   -6.9659    1.0000 </r>
       <r>   -6.8650    1.0000 </r>
       <r>   -6.7745    1.0000 </r>
       <r>   -6.6530    1.0000 </r>
       <r>   -6.5992    1.0000 </r>
       <r>   -6.5342    1.0000 </r>
       <r>   -6.4552    1.0000 </r>
       <r>   -6.4212    1.0000 </r>
       <r>   -6.3600    1.0000 </r>
       <r>   -6.2956    1.0000 </r>
       <r>   -6.2026    1.0000 </r>
       <r>   -6.1240    1.0000 </r>
       <r>   -6.0958    1.0000 </r>
       <r>   -6.0367    1.0000 </r>
       <r>   -5.9317    1.0000 </r>
       <r>   -5.8866    1.0000 </r>
       <r>   -5.8176    1.0000 </r>
       <r>   -5.7337    1.0000 </r>
       <r>   -5.6319    1.0000 </r>
       <r>   -5.5921    1.0000 </r>
       <r>   -5.4160    1.0000 </r>
       <r>   -5.2942    1.0000 </r>
       <r>   -5.0883    1.0000 </r>
       <r>   -5.0175    1.0000 </r>
       <r>   -4.8123    1.0000 </r>
       <r>   -4.7629    1.0000 </r>
       <r>   -4.6309    1.0000 </r>
       <r>   -4.5488    1.0000 </r>
       <r>   -4.4465    1.0000 </r>
       <r>   -4.3408    1.0000 </r>
       <r>   -4.2351    1.0000 </r>
       <r>   -4.1547    1.0000 </r>
       <r>   -4.1243    1.0000 </r>
       <r>   -4.0421    1.0000 </r>
       <r>   -3.8557    0.9998 </r>
       <r>   -3.4763    0.8159 </r>
       <r>   -3.3413    0.4781 </r>
       <r>   -3.1223    0.0544 </r>
       <r>   -2.6977    0.0000 </r>
       <r>   -2.5812    0.0000 </r>
       <r>   -2.5217    0.0000 </r>
       <r>   -2.4098    0.0000 </r>
       <r>   -2.3745    0.0000 </r>
       <r>   -2.2466    0.0000 </r>
       <r>   -2.1894    0.0000 </r>
       <r>   -2.0845    0.0000 </r>
       <r>   -1.9691    0.0000 </r>
       <r>   -1.8678    0.0000 </r>
       <r>   -1.5338    0.0000 </r>
       <r>   -1.4579    0.0000 </r>
       <r>   -1.3270    0.0000 </r>
       <r>   -1.2792    0.0000 </r>
       <r>   -1.1689    0.0000 </r>
       <r>   -1.0798    0.0000 </r>
       <r>   -1.0141    0.0000 </r>
       <r>   -0.9513    0.0000 </r>
       <r>   -0.9169    0.0000 </r>
       <r>   -0.8899    0.0000 </r>
       <r>   -0.7697    0.0000 </r>
       <r>   -0.6787    0.0000 </r>
       <r>   -0.5520    0.0000 </r>
       <r>   -0.4865    0.0000 </r>
       <r>   -0.2978    0.0000 </r>
       <r>   -0.1941    0.0000 </r>
       <r>   -0.1145    0.0000 </r>
       <r>    0.0034    0.0000 </r>
       <r>    0.1435    0.0000 </r>
       <r>    0.3722    0.0000 </r>
       <r>    0.5326    0.0000 </r>
       <r>    0.8221    0.0000 </r>
       <r>    0.9415    0.0000 </r>
       <r>    1.0362    0.0000 </r>
       <r>    1.2748    0.0000 </r>
       <r>    1.3547    0.0000 </r>
       <r>    2.1173    0.0000 </r>
       <r>    2.2848    0.0000 </r>
       <r>    2.3644    0.0000 </r>
      </set>
      <set comment="kpoint 32">
       <r>  -17.5258    1.0000 </r>
       <r>  -17.1657    1.0000 </r>
       <r>  -17.0516    1.0000 </r>
       <r>  -16.6711    1.0000 </r>
       <r>  -16.4171    1.0000 </r>
       <r>  -16.3308    1.0000 </r>
       <r>  -16.3080    1.0000 </r>
       <r>  -16.2551    1.0000 </r>
       <r>  -16.1906    1.0000 </r>
       <r>  -16.0861    1.0000 </r>
       <r>  -15.9426    1.0000 </r>
       <r>  -15.8374    1.0000 </r>
       <r>  -15.7585    1.0000 </r>
       <r>  -15.6794    1.0000 </r>
       <r>  -15.6086    1.0000 </r>
       <r>  -15.4838    1.0000 </r>
       <r>  -15.3565    1.0000 </r>
       <r>  -15.2748    1.0000 </r>
       <r>   -9.6446    1.0000 </r>
       <r>   -9.5836    1.0000 </r>
       <r>   -9.4010    1.0000 </r>
       <r>   -9.0092    1.0000 </r>
       <r>   -8.7484    1.0000 </r>
       <r>   -8.5673    1.0000 </r>
       <r>   -8.4978    1.0000 </r>
       <r>   -8.4575    1.0000 </r>
       <r>   -8.3869    1.0000 </r>
       <r>   -8.3509    1.0000 </r>
       <r>   -8.2936    1.0000 </r>
       <r>   -8.2056    1.0000 </r>
       <r>   -8.1393    1.0000 </r>
       <r>   -8.0974    1.0000 </r>
       <r>   -8.0460    1.0000 </r>
       <r>   -7.9717    1.0000 </r>
       <r>   -7.7957    1.0000 </r>
       <r>   -7.6502    1.0000 </r>
       <r>   -7.5037    1.0000 </r>
       <r>   -7.4194    1.0000 </r>
       <r>   -7.3841    1.0000 </r>
       <r>   -7.3227    1.0000 </r>
       <r>   -7.1227    1.0000 </r>
       <r>   -7.0491    1.0000 </r>
       <r>   -6.9820    1.0000 </r>
       <r>   -6.9445    1.0000 </r>
       <r>   -6.8503    1.0000 </r>
       <r>   -6.7862    1.0000 </r>
       <r>   -6.7192    1.0000 </r>
       <r>   -6.6200    1.0000 </r>
       <r>   -6.5177    1.0000 </r>
       <r>   -6.4714    1.0000 </r>
       <r>   -6.4264    1.0000 </r>
       <r>   -6.3414    1.0000 </r>
       <r>   -6.3241    1.0000 </r>
       <r>   -6.1737    1.0000 </r>
       <r>   -6.1404    1.0000 </r>
       <r>   -6.1025    1.0000 </r>
       <r>   -5.9691    1.0000 </r>
       <r>   -5.9041    1.0000 </r>
       <r>   -5.8673    1.0000 </r>
       <r>   -5.7721    1.0000 </r>
       <r>   -5.6723    1.0000 </r>
       <r>   -5.6388    1.0000 </r>
       <r>   -5.5200    1.0000 </r>
       <r>   -5.4278    1.0000 </r>
       <r>   -5.3045    1.0000 </r>
       <r>   -5.1727    1.0000 </r>
       <r>   -5.0626    1.0000 </r>
       <r>   -4.9590    1.0000 </r>
       <r>   -4.7845    1.0000 </r>
       <r>   -4.6522    1.0000 </r>
       <r>   -4.5271    1.0000 </r>
       <r>   -4.4138    1.0000 </r>
       <r>   -4.3195    1.0000 </r>
       <r>   -4.2517    1.0000 </r>
       <r>   -4.1648    1.0000 </r>
       <r>   -4.1026    1.0000 </r>
       <r>   -3.9827    1.0000 </r>
       <r>   -3.7864    0.9990 </r>
       <r>   -3.5123    0.8758 </r>
       <r>   -3.3768    0.5778 </r>
       <r>   -3.0283    0.0117 </r>
       <r>   -2.7331    0.0000 </r>
       <r>   -2.6127    0.0000 </r>
       <r>   -2.5535    0.0000 </r>
       <r>   -2.4726    0.0000 </r>
       <r>   -2.3825    0.0000 </r>
       <r>   -2.2793    0.0000 </r>
       <r>   -2.2167    0.0000 </r>
       <r>   -2.0854    0.0000 </r>
       <r>   -2.0151    0.0000 </r>
       <r>   -1.8158    0.0000 </r>
       <r>   -1.5066    0.0000 </r>
       <r>   -1.4245    0.0000 </r>
       <r>   -1.3165    0.0000 </r>
       <r>   -1.2558    0.0000 </r>
       <r>   -1.1486    0.0000 </r>
       <r>   -1.0767    0.0000 </r>
       <r>   -1.0416    0.0000 </r>
       <r>   -0.9726    0.0000 </r>
       <r>   -0.9002    0.0000 </r>
       <r>   -0.8121    0.0000 </r>
       <r>   -0.7512    0.0000 </r>
       <r>   -0.6620    0.0000 </r>
       <r>   -0.5550    0.0000 </r>
       <r>   -0.4502    0.0000 </r>
       <r>   -0.2709    0.0000 </r>
       <r>   -0.2321    0.0000 </r>
       <r>   -0.1407    0.0000 </r>
       <r>    0.0080    0.0000 </r>
       <r>    0.2293    0.0000 </r>
       <r>    0.3066    0.0000 </r>
       <r>    0.5344    0.0000 </r>
       <r>    0.8245    0.0000 </r>
       <r>    0.8963    0.0000 </r>
       <r>    1.0455    0.0000 </r>
       <r>    1.2411    0.0000 </r>
       <r>    1.3395    0.0000 </r>
       <r>    2.0927    0.0000 </r>
       <r>    2.2599    0.0000 </r>
       <r>    2.5555    0.0000 </r>
      </set>
      <set comment="kpoint 33">
       <r>  -17.4913    1.0000 </r>
       <r>  -17.2870    1.0000 </r>
       <r>  -16.9109    1.0000 </r>
       <r>  -16.6650    1.0000 </r>
       <r>  -16.5010    1.0000 </r>
       <r>  -16.4256    1.0000 </r>
       <r>  -16.2818    1.0000 </r>
       <r>  -16.2225    1.0000 </r>
       <r>  -16.1514    1.0000 </r>
       <r>  -16.1029    1.0000 </r>
       <r>  -15.9193    1.0000 </r>
       <r>  -15.8155    1.0000 </r>
       <r>  -15.7543    1.0000 </r>
       <r>  -15.6721    1.0000 </r>
       <r>  -15.6034    1.0000 </r>
       <r>  -15.4957    1.0000 </r>
       <r>  -15.3644    1.0000 </r>
       <r>  -15.2758    1.0000 </r>
       <r>   -9.7615    1.0000 </r>
       <r>   -9.5046    1.0000 </r>
       <r>   -9.3157    1.0000 </r>
       <r>   -8.9715    1.0000 </r>
       <r>   -8.8008    1.0000 </r>
       <r>   -8.6460    1.0000 </r>
       <r>   -8.6036    1.0000 </r>
       <r>   -8.4997    1.0000 </r>
       <r>   -8.4039    1.0000 </r>
       <r>   -8.3487    1.0000 </r>
       <r>   -8.2728    1.0000 </r>
       <r>   -8.1780    1.0000 </r>
       <r>   -8.1022    1.0000 </r>
       <r>   -8.0591    1.0000 </r>
       <r>   -7.9962    1.0000 </r>
       <r>   -7.8990    1.0000 </r>
       <r>   -7.7801    1.0000 </r>
       <r>   -7.6967    1.0000 </r>
       <r>   -7.5497    1.0000 </r>
       <r>   -7.4312    1.0000 </r>
       <r>   -7.3615    1.0000 </r>
       <r>   -7.2473    1.0000 </r>
       <r>   -7.0989    1.0000 </r>
       <r>   -7.0367    1.0000 </r>
       <r>   -7.0181    1.0000 </r>
       <r>   -6.9627    1.0000 </r>
       <r>   -6.8379    1.0000 </r>
       <r>   -6.8058    1.0000 </r>
       <r>   -6.6798    1.0000 </r>
       <r>   -6.6159    1.0000 </r>
       <r>   -6.5286    1.0000 </r>
       <r>   -6.4598    1.0000 </r>
       <r>   -6.4322    1.0000 </r>
       <r>   -6.3073    1.0000 </r>
       <r>   -6.2879    1.0000 </r>
       <r>   -6.2012    1.0000 </r>
       <r>   -6.1301    1.0000 </r>
       <r>   -6.1139    1.0000 </r>
       <r>   -6.0495    1.0000 </r>
       <r>   -5.9253    1.0000 </r>
       <r>   -5.8667    1.0000 </r>
       <r>   -5.8105    1.0000 </r>
       <r>   -5.7556    1.0000 </r>
       <r>   -5.6765    1.0000 </r>
       <r>   -5.5316    1.0000 </r>
       <r>   -5.3368    1.0000 </r>
       <r>   -5.2249    1.0000 </r>
       <r>   -5.1767    1.0000 </r>
       <r>   -5.0981    1.0000 </r>
       <r>   -4.9362    1.0000 </r>
       <r>   -4.7814    1.0000 </r>
       <r>   -4.6463    1.0000 </r>
       <r>   -4.5018    1.0000 </r>
       <r>   -4.4356    1.0000 </r>
       <r>   -4.2959    1.0000 </r>
       <r>   -4.2614    1.0000 </r>
       <r>   -4.1717    1.0000 </r>
       <r>   -4.1143    1.0000 </r>
       <r>   -3.9117    1.0000 </r>
       <r>   -3.7441    0.9974 </r>
       <r>   -3.6034    0.9640 </r>
       <r>   -3.3917    0.6184 </r>
       <r>   -2.9243    0.0013 </r>
       <r>   -2.7655    0.0000 </r>
       <r>   -2.6689    0.0000 </r>
       <r>   -2.5839    0.0000 </r>
       <r>   -2.5210    0.0000 </r>
       <r>   -2.4104    0.0000 </r>
       <r>   -2.3160    0.0000 </r>
       <r>   -2.2448    0.0000 </r>
       <r>   -2.1021    0.0000 </r>
       <r>   -2.0252    0.0000 </r>
       <r>   -1.7287    0.0000 </r>
       <r>   -1.4809    0.0000 </r>
       <r>   -1.3874    0.0000 </r>
       <r>   -1.3050    0.0000 </r>
       <r>   -1.2547    0.0000 </r>
       <r>   -1.1433    0.0000 </r>
       <r>   -1.1130    0.0000 </r>
       <r>   -1.0030    0.0000 </r>
       <r>   -0.9492    0.0000 </r>
       <r>   -0.8633    0.0000 </r>
       <r>   -0.7953    0.0000 </r>
       <r>   -0.7335    0.0000 </r>
       <r>   -0.6857    0.0000 </r>
       <r>   -0.5485    0.0000 </r>
       <r>   -0.4657    0.0000 </r>
       <r>   -0.2895    0.0000 </r>
       <r>   -0.2346    0.0000 </r>
       <r>   -0.1086    0.0000 </r>
       <r>    0.0211    0.0000 </r>
       <r>    0.2074    0.0000 </r>
       <r>    0.3323    0.0000 </r>
       <r>    0.5163    0.0000 </r>
       <r>    0.7775    0.0000 </r>
       <r>    0.8698    0.0000 </r>
       <r>    1.0694    0.0000 </r>
       <r>    1.2489    0.0000 </r>
       <r>    1.3899    0.0000 </r>
       <r>    2.1289    0.0000 </r>
       <r>    2.2907    0.0000 </r>
       <r>    2.3965    0.0000 </r>
      </set>
      <set comment="kpoint 34">
       <r>  -17.4409    1.0000 </r>
       <r>  -17.3760    1.0000 </r>
       <r>  -16.7345    1.0000 </r>
       <r>  -16.6886    1.0000 </r>
       <r>  -16.6596    1.0000 </r>
       <r>  -16.4412    1.0000 </r>
       <r>  -16.2635    1.0000 </r>
       <r>  -16.2181    1.0000 </r>
       <r>  -16.1366    1.0000 </r>
       <r>  -16.0976    1.0000 </r>
       <r>  -15.9135    1.0000 </r>
       <r>  -15.7927    1.0000 </r>
       <r>  -15.7539    1.0000 </r>
       <r>  -15.6795    1.0000 </r>
       <r>  -15.5659    1.0000 </r>
       <r>  -15.5246    1.0000 </r>
       <r>  -15.3783    1.0000 </r>
       <r>  -15.2738    1.0000 </r>
       <r>   -9.8065    1.0000 </r>
       <r>   -9.4636    1.0000 </r>
       <r>   -9.1922    1.0000 </r>
       <r>   -9.0147    1.0000 </r>
       <r>   -8.8450    1.0000 </r>
       <r>   -8.7588    1.0000 </r>
       <r>   -8.6106    1.0000 </r>
       <r>   -8.5711    1.0000 </r>
       <r>   -8.4259    1.0000 </r>
       <r>   -8.3575    1.0000 </r>
       <r>   -8.2158    1.0000 </r>
       <r>   -8.1289    1.0000 </r>
       <r>   -8.0775    1.0000 </r>
       <r>   -8.0394    1.0000 </r>
       <r>   -7.9149    1.0000 </r>
       <r>   -7.8753    1.0000 </r>
       <r>   -7.8208    1.0000 </r>
       <r>   -7.7166    1.0000 </r>
       <r>   -7.5180    1.0000 </r>
       <r>   -7.4498    1.0000 </r>
       <r>   -7.3464    1.0000 </r>
       <r>   -7.2990    1.0000 </r>
       <r>   -7.0856    1.0000 </r>
       <r>   -7.0139    1.0000 </r>
       <r>   -6.9803    1.0000 </r>
       <r>   -6.9535    1.0000 </r>
       <r>   -6.8808    1.0000 </r>
       <r>   -6.7321    1.0000 </r>
       <r>   -6.6249    1.0000 </r>
       <r>   -6.6063    1.0000 </r>
       <r>   -6.5672    1.0000 </r>
       <r>   -6.4712    1.0000 </r>
       <r>   -6.4318    1.0000 </r>
       <r>   -6.3827    1.0000 </r>
       <r>   -6.2994    1.0000 </r>
       <r>   -6.2199    1.0000 </r>
       <r>   -6.1460    1.0000 </r>
       <r>   -6.0619    1.0000 </r>
       <r>   -6.0001    1.0000 </r>
       <r>   -5.9839    1.0000 </r>
       <r>   -5.9343    1.0000 </r>
       <r>   -5.8453    1.0000 </r>
       <r>   -5.7822    1.0000 </r>
       <r>   -5.7058    1.0000 </r>
       <r>   -5.4852    1.0000 </r>
       <r>   -5.3577    1.0000 </r>
       <r>   -5.2524    1.0000 </r>
       <r>   -5.1136    1.0000 </r>
       <r>   -5.0508    1.0000 </r>
       <r>   -4.9310    1.0000 </r>
       <r>   -4.7569    1.0000 </r>
       <r>   -4.6320    1.0000 </r>
       <r>   -4.4807    1.0000 </r>
       <r>   -4.4168    1.0000 </r>
       <r>   -4.3367    1.0000 </r>
       <r>   -4.2428    1.0000 </r>
       <r>   -4.1945    1.0000 </r>
       <r>   -4.1143    1.0000 </r>
       <r>   -3.8877    0.9999 </r>
       <r>   -3.7578    0.9981 </r>
       <r>   -3.6288    0.9761 </r>
       <r>   -3.3928    0.6215 </r>
       <r>   -2.8643    0.0003 </r>
       <r>   -2.7921    0.0000 </r>
       <r>   -2.7056    0.0000 </r>
       <r>   -2.5916    0.0000 </r>
       <r>   -2.5355    0.0000 </r>
       <r>   -2.4287    0.0000 </r>
       <r>   -2.3325    0.0000 </r>
       <r>   -2.2580    0.0000 </r>
       <r>   -2.1121    0.0000 </r>
       <r>   -2.0175    0.0000 </r>
       <r>   -1.6810    0.0000 </r>
       <r>   -1.4697    0.0000 </r>
       <r>   -1.3750    0.0000 </r>
       <r>   -1.3104    0.0000 </r>
       <r>   -1.2621    0.0000 </r>
       <r>   -1.1468    0.0000 </r>
       <r>   -1.1156    0.0000 </r>
       <r>   -0.9578    0.0000 </r>
       <r>   -0.9199    0.0000 </r>
       <r>   -0.8532    0.0000 </r>
       <r>   -0.8434    0.0000 </r>
       <r>   -0.7440    0.0000 </r>
       <r>   -0.6547    0.0000 </r>
       <r>   -0.5580    0.0000 </r>
       <r>   -0.4956    0.0000 </r>
       <r>   -0.2718    0.0000 </r>
       <r>   -0.2353    0.0000 </r>
       <r>   -0.1090    0.0000 </r>
       <r>    0.0219    0.0000 </r>
       <r>    0.2076    0.0000 </r>
       <r>    0.3286    0.0000 </r>
       <r>    0.5341    0.0000 </r>
       <r>    0.7239    0.0000 </r>
       <r>    0.8824    0.0000 </r>
       <r>    1.0671    0.0000 </r>
       <r>    1.2738    0.0000 </r>
       <r>    1.4240    0.0000 </r>
       <r>    2.2051    0.0000 </r>
       <r>    2.2586    0.0000 </r>
       <r>    2.3786    0.0000 </r>
      </set>
     </set>
    </set>
   </array>
  </eigenvalues>
  <separator name="orbital magnetization" >
   <v name="MAGDIPOLOUT">      0.00000000      0.00000000      0.00000000</v>
  </separator>
 </calculation>
 <structure name="finalpos" >
  <crystal>
   <varray name="basis" >
    <v>       8.33375350       4.82516978       0.00000000 </v>
    <v>      -8.35198689       4.85703857       0.00000000 </v>
    <v>       0.00000000       0.00000000      30.00000000 </v>
   </varray>
   <i name="volume">   2423.31350656 </i>
   <varray name="rec_basis" >
    <v>       0.06012889       0.10339546       0.00000000 </v>
    <v>      -0.05973436       0.10316973       0.00000000 </v>
    <v>       0.00000000       0.00000000       0.03333333 </v>
   </varray>
  </crystal>
  <varray name="positions" >
   <v>       0.34967245       0.36958224       0.00166513 </v>
   <v>       1.02208545       0.37234776       0.00178112 </v>
   <v>       0.65153260       0.29402746      -0.00290610 </v>
   <v>       0.03272014       0.68792277       0.00084457 </v>
   <v>       0.64844068      -0.02659464      -0.00084391 </v>
   <v>       0.33684880       0.67809506       0.00059694 </v>
   <v>      -0.03282533      -0.03433743      -0.00180233 </v>
   <v>       0.34052605      -0.02297106      -0.00015759 </v>
   <v>       0.65633725       0.68431909       0.00029189 </v>
   <v>       0.10975329       0.22660188       0.95665018 </v>
   <v>       0.22159815       0.11385189       0.04090434 </v>
   <v>       0.11406872       0.55991038       0.94705166 </v>
   <v>       0.22201182       0.44733870       0.05262608 </v>
   <v>       0.11627717       0.89507309       0.94666071 </v>
   <v>       0.22843124       0.78070999       0.05745458 </v>
   <v>       0.43962359       0.22193940       0.95263247 </v>
   <v>       0.55653494       0.10677281       0.05257962 </v>
   <v>       0.44353321       0.55683376       0.94682764 </v>
   <v>       0.55592352       0.44129218       0.04807923 </v>
   <v>       0.44391647       0.88618356       0.94281763 </v>
   <v>       0.55114591       0.77474618       0.05686602 </v>
   <v>       0.78554955       0.22114871       0.95175894 </v>
   <v>       0.89255499       0.11867265       0.04468202 </v>
   <v>       0.77527600       0.54813385       0.95948614 </v>
   <v>       0.88396488       0.44334781       0.04786512 </v>
   <v>       0.77011177       0.88260242       0.94239553 </v>
   <v>       0.88260114       0.77066396       0.05319228 </v>
  </varray>
 </structure>
</modeling>
