   27   27  100    1
  0.9710400E+02  0.1002848E-08  0.1002848E-08  0.3000000E-08  0.5000000E-15
  1.000000000000000E-004
  CAR 
 unknown system                          
    159     34    120
 
  0.0000000E+00  0.0000000E+00  0.0000000E+00  0.1562500E-01
    1      -17.838881   1.000000
    2      -16.719423   1.000000
    3      -16.627450   1.000000
    4      -16.585602   1.000000
    5      -16.560661   1.000000
    6      -16.497080   1.000000
    7      -16.379558   1.000000
    8      -16.357835   1.000000
    9      -16.208297   1.000000
   10      -16.123748   1.000000
   11      -16.078553   1.000000
   12      -16.012360   1.000000
   13      -15.848598   1.000000
   14      -15.731188   1.000000
   15      -15.657829   1.000000
   16      -15.336079   1.000000
   17      -15.286515   1.000000
   18      -15.240830   1.000000
   19       -9.353698   1.000000
   20       -9.006368   1.000000
   21       -8.964290   1.000000
   22       -8.878453   1.000000
   23       -8.715349   1.000000
   24       -8.674714   1.000000
   25       -8.626515   1.000000
   26       -8.593100   1.000000
   27       -8.542445   1.000000
   28       -8.509110   1.000000
   29       -8.397054   1.000000
   30       -8.364538   1.000000
   31       -8.301994   1.000000
   32       -8.162884   1.000000
   33       -8.076543   1.000000
   34       -8.068498   1.000000
   35       -7.842016   1.000000
   36       -7.792364   1.000000
   37       -7.694265   1.000000
   38       -7.581078   1.000000
   39       -7.521263   1.000000
   40       -7.461031   1.000000
   41       -7.356129   1.000000
   42       -7.148057   1.000000
   43       -7.074936   1.000000
   44       -6.896634   1.000000
   45       -6.868718   1.000000
   46       -6.786046   1.000000
   47       -6.782354   1.000000
   48       -6.683258   1.000000
   49       -6.570643   1.000000
   50       -6.527529   1.000000
   51       -6.476929   1.000000
   52       -6.304585   1.000000
   53       -6.294998   1.000000
   54       -6.227277   1.000000
   55       -6.121920   1.000000
   56       -6.035912   1.000000
   57       -6.020612   1.000000
   58       -5.976733   1.000000
   59       -5.822226   1.000000
   60       -5.687069   1.000000
   61       -5.455129   1.000000
   62       -5.306027   1.000000
   63       -5.219009   1.000000
   64       -5.141491   1.000000
   65       -4.988962   1.000000
   66       -4.954191   1.000000
   67       -4.889867   1.000000
   68       -4.848265   1.000000
   69       -4.708226   1.000000
   70       -4.692651   1.000000
   71       -4.603407   1.000000
   72       -4.591564   1.000000
   73       -4.497473   1.000000
   74       -4.319279   1.000000
   75       -4.110536   1.000000
   76       -4.021990   1.000000
   77       -3.704392   0.998657
   78       -3.570045   0.979900
   79       -3.466956   0.907038
   80       -3.396731   0.795645
   81       -3.186445   0.254378
   82       -2.764470   0.000134
   83       -2.659091   0.000006
   84       -2.601514   0.000001
   85       -2.530539   0.000000
   86       -2.408512   0.000000
   87       -2.289596   0.000000
   88       -2.237166   0.000000
   89       -2.208600   0.000000
   90       -2.166462   0.000000
   91       -1.684100   0.000000
   92       -1.479858   0.000000
   93       -1.392897   0.000000
   94       -1.245487   0.000000
   95       -1.232075   0.000000
   96       -1.154601   0.000000
   97       -1.093297   0.000000
   98       -0.949924   0.000000
   99       -0.836383   0.000000
  100       -0.680412   0.000000
  101       -0.543446   0.000000
  102       -0.498365   0.000000
  103       -0.384143   0.000000
  104       -0.211935   0.000000
  105       -0.126211   0.000000
  106       -0.106891   0.000000
  107       -0.011512   0.000000
  108        0.063896   0.000000
  109        0.201001   0.000000
  110        0.284304   0.000000
  111        0.403531   0.000000
  112        0.582259   0.000000
  113        0.623480   0.000000
  114        0.835324   0.000000
  115        0.941036   0.000000
  116        1.017176   0.000000
  117        1.078075   0.000000
  118        1.656685   0.000000
  119        1.840891   0.000000
  120        2.167244   0.000000
 
  0.1250000E+00  0.2775558E-16  0.0000000E+00  0.3125000E-01
    1      -17.814153   1.000000
    2      -16.785334   1.000000
    3      -16.703924   1.000000
    4      -16.633397   1.000000
    5      -16.536435   1.000000
    6      -16.429675   1.000000
    7      -16.365518   1.000000
    8      -16.333445   1.000000
    9      -16.277093   1.000000
   10      -16.097867   1.000000
   11      -16.000289   1.000000
   12      -15.988239   1.000000
   13      -15.851197   1.000000
   14      -15.722006   1.000000
   15      -15.649511   1.000000
   16      -15.350625   1.000000
   17      -15.299511   1.000000
   18      -15.239979   1.000000
   19       -9.351950   1.000000
   20       -9.164689   1.000000
   21       -9.067929   1.000000
   22       -8.985431   1.000000
   23       -8.729996   1.000000
   24       -8.702131   1.000000
   25       -8.634372   1.000000
   26       -8.576930   1.000000
   27       -8.551401   1.000000
   28       -8.440257   1.000000
   29       -8.367398   1.000000
   30       -8.279379   1.000000
   31       -8.244108   1.000000
   32       -8.090520   1.000000
   33       -8.045378   1.000000
   34       -7.916304   1.000000
   35       -7.827497   1.000000
   36       -7.759766   1.000000
   37       -7.701817   1.000000
   38       -7.560364   1.000000
   39       -7.531224   1.000000
   40       -7.415922   1.000000
   41       -7.293533   1.000000
   42       -7.200250   1.000000
   43       -7.109975   1.000000
   44       -6.986186   1.000000
   45       -6.883402   1.000000
   46       -6.845847   1.000000
   47       -6.773730   1.000000
   48       -6.672592   1.000000
   49       -6.562667   1.000000
   50       -6.529268   1.000000
   51       -6.424753   1.000000
   52       -6.324694   1.000000
   53       -6.276956   1.000000
   54       -6.232878   1.000000
   55       -6.144000   1.000000
   56       -6.052410   1.000000
   57       -6.017056   1.000000
   58       -5.900837   1.000000
   59       -5.783604   1.000000
   60       -5.632659   1.000000
   61       -5.450597   1.000000
   62       -5.323204   1.000000
   63       -5.257303   1.000000
   64       -5.203485   1.000000
   65       -5.134080   1.000000
   66       -5.042033   1.000000
   67       -5.016083   1.000000
   68       -4.845089   1.000000
   69       -4.738135   1.000000
   70       -4.643335   1.000000
   71       -4.516567   1.000000
   72       -4.495925   1.000000
   73       -4.454812   1.000000
   74       -4.280595   1.000000
   75       -4.052140   1.000000
   76       -3.919314   0.999997
   77       -3.744448   0.999490
   78       -3.712185   0.998881
   79       -3.587763   0.985259
   80       -3.288924   0.525460
   81       -3.141898   0.164589
   82       -2.788009   0.000252
   83       -2.658017   0.000005
   84       -2.615841   0.000001
   85       -2.531754   0.000000
   86       -2.386857   0.000000
   87       -2.304391   0.000000
   88       -2.228674   0.000000
   89       -2.196873   0.000000
   90       -2.127047   0.000000
   91       -1.635142   0.000000
   92       -1.506155   0.000000
   93       -1.370526   0.000000
   94       -1.262203   0.000000
   95       -1.241614   0.000000
   96       -1.148957   0.000000
   97       -1.073965   0.000000
   98       -0.944279   0.000000
   99       -0.836487   0.000000
  100       -0.713305   0.000000
  101       -0.581601   0.000000
  102       -0.544889   0.000000
  103       -0.443702   0.000000
  104       -0.338234   0.000000
  105       -0.269752   0.000000
  106       -0.132419   0.000000
  107       -0.013694   0.000000
  108        0.084607   0.000000
  109        0.196742   0.000000
  110        0.269487   0.000000
  111        0.437692   0.000000
  112        0.547414   0.000000
  113        0.651095   0.000000
  114        0.866298   0.000000
  115        0.965876   0.000000
  116        1.052767   0.000000
  117        1.168871   0.000000
  118        1.700772   0.000000
  119        1.878556   0.000000
  120        2.202609   0.000000
 
  0.2500000E+00  0.5551115E-16  0.0000000E+00  0.3125000E-01
    1      -17.741828   1.000000
    2      -16.995504   1.000000
    3      -16.701282   1.000000
    4      -16.686470   1.000000
    5      -16.572662   1.000000
    6      -16.419008   1.000000
    7      -16.334911   1.000000
    8      -16.299090   1.000000
    9      -16.246046   1.000000
   10      -16.081996   1.000000
   11      -15.961018   1.000000
   12      -15.910408   1.000000
   13      -15.818917   1.000000
   14      -15.706267   1.000000
   15      -15.618320   1.000000
   16      -15.385753   1.000000
   17      -15.322175   1.000000
   18      -15.246490   1.000000
   19       -9.540350   1.000000
   20       -9.279381   1.000000
   21       -9.181076   1.000000
   22       -9.098090   1.000000
   23       -8.813133   1.000000
   24       -8.753421   1.000000
   25       -8.634201   1.000000
   26       -8.534481   1.000000
   27       -8.493247   1.000000
   28       -8.388142   1.000000
   29       -8.300261   1.000000
   30       -8.242794   1.000000
   31       -8.149551   1.000000
   32       -8.089194   1.000000
   33       -7.944395   1.000000
   34       -7.826904   1.000000
   35       -7.751401   1.000000
   36       -7.689946   1.000000
   37       -7.553678   1.000000
   38       -7.502235   1.000000
   39       -7.462676   1.000000
   40       -7.302734   1.000000
   41       -7.290395   1.000000
   42       -7.207148   1.000000
   43       -7.166433   1.000000
   44       -7.073157   1.000000
   45       -6.935284   1.000000
   46       -6.847505   1.000000
   47       -6.800212   1.000000
   48       -6.628379   1.000000
   49       -6.595751   1.000000
   50       -6.506341   1.000000
   51       -6.403559   1.000000
   52       -6.340486   1.000000
   53       -6.283431   1.000000
   54       -6.180621   1.000000
   55       -6.106959   1.000000
   56       -6.039608   1.000000
   57       -5.972011   1.000000
   58       -5.837505   1.000000
   59       -5.740167   1.000000
   60       -5.652103   1.000000
   61       -5.606911   1.000000
   62       -5.477661   1.000000
   63       -5.432989   1.000000
   64       -5.288152   1.000000
   65       -5.236495   1.000000
   66       -5.083598   1.000000
   67       -5.051367   1.000000
   68       -4.839661   1.000000
   69       -4.703882   1.000000
   70       -4.677676   1.000000
   71       -4.432276   1.000000
   72       -4.382841   1.000000
   73       -4.330138   1.000000
   74       -4.202271   1.000000
   75       -4.084238   1.000000
   76       -3.969771   0.999999
   77       -3.860402   0.999980
   78       -3.687525   0.998027
   79       -3.544915   0.969534
   80       -3.210002   0.310581
   81       -3.122721   0.133204
   82       -2.816506   0.000525
   83       -2.726263   0.000045
   84       -2.628292   0.000002
   85       -2.524447   0.000000
   86       -2.393196   0.000000
   87       -2.278502   0.000000
   88       -2.183359   0.000000
   89       -2.131901   0.000000
   90       -2.074513   0.000000
   91       -1.567906   0.000000
   92       -1.514101   0.000000
   93       -1.351611   0.000000
   94       -1.306568   0.000000
   95       -1.239208   0.000000
   96       -1.128880   0.000000
   97       -1.056868   0.000000
   98       -0.946284   0.000000
   99       -0.858657   0.000000
  100       -0.814286   0.000000
  101       -0.701097   0.000000
  102       -0.648073   0.000000
  103       -0.524294   0.000000
  104       -0.466692   0.000000
  105       -0.413439   0.000000
  106       -0.254846   0.000000
  107       -0.152848   0.000000
  108       -0.021062   0.000000
  109        0.159433   0.000000
  110        0.281042   0.000000
  111        0.433766   0.000000
  112        0.550139   0.000000
  113        0.713012   0.000000
  114        0.947799   0.000000
  115        1.049281   0.000000
  116        1.195892   0.000000
  117        1.293862   0.000000
  118        1.824378   0.000000
  119        1.987344   0.000000
  120        2.307561   0.000000
 
  0.3750000E+00  0.0000000E+00  0.0000000E+00  0.3125000E-01
    1      -17.630920   1.000000
    2      -17.202932   1.000000
    3      -16.742351   1.000000
    4      -16.667712   1.000000
    5      -16.608719   1.000000
    6      -16.468123   1.000000
    7      -16.302067   1.000000
    8      -16.259725   1.000000
    9      -16.200792   1.000000
   10      -16.053689   1.000000
   11      -15.940612   1.000000
   12      -15.858973   1.000000
   13      -15.791057   1.000000
   14      -15.705775   1.000000
   15      -15.575174   1.000000
   16      -15.412563   1.000000
   17      -15.334364   1.000000
   18      -15.261684   1.000000
   19       -9.759171   1.000000
   20       -9.346603   1.000000
   21       -9.284933   1.000000
   22       -9.046009   1.000000
   23       -8.869708   1.000000
   24       -8.800090   1.000000
   25       -8.591368   1.000000
   26       -8.530018   1.000000
   27       -8.470562   1.000000
   28       -8.353180   1.000000
   29       -8.281151   1.000000
   30       -8.192323   1.000000
   31       -8.147393   1.000000
   32       -8.024054   1.000000
   33       -7.941769   1.000000
   34       -7.830413   1.000000
   35       -7.772264   1.000000
   36       -7.634937   1.000000
   37       -7.572670   1.000000
   38       -7.479161   1.000000
   39       -7.414190   1.000000
   40       -7.281568   1.000000
   41       -7.146691   1.000000
   42       -7.105937   1.000000
   43       -7.049951   1.000000
   44       -6.976990   1.000000
   45       -6.939677   1.000000
   46       -6.866422   1.000000
   47       -6.757407   1.000000
   48       -6.620479   1.000000
   49       -6.536560   1.000000
   50       -6.485658   1.000000
   51       -6.380610   1.000000
   52       -6.314049   1.000000
   53       -6.248869   1.000000
   54       -6.146516   1.000000
   55       -6.099626   1.000000
   56       -6.052906   1.000000
   57       -5.972001   1.000000
   58       -5.921317   1.000000
   59       -5.892898   1.000000
   60       -5.780543   1.000000
   61       -5.699515   1.000000
   62       -5.605426   1.000000
   63       -5.534873   1.000000
   64       -5.321858   1.000000
   65       -5.261711   1.000000
   66       -5.059312   1.000000
   67       -5.016387   1.000000
   68       -4.807236   1.000000
   69       -4.757267   1.000000
   70       -4.640980   1.000000
   71       -4.549631   1.000000
   72       -4.387036   1.000000
   73       -4.290938   1.000000
   74       -4.191914   1.000000
   75       -4.056782   1.000000
   76       -4.002803   1.000000
   77       -3.837058   0.999959
   78       -3.583249   0.984026
   79       -3.405308   0.812412
   80       -3.180706   0.241540
   81       -3.128970   0.142943
   82       -2.857135   0.001398
   83       -2.772972   0.000169
   84       -2.694799   0.000018
   85       -2.493992   0.000000
   86       -2.413794   0.000000
   87       -2.238269   0.000000
   88       -2.142337   0.000000
   89       -2.035707   0.000000
   90       -2.019894   0.000000
   91       -1.586131   0.000000
   92       -1.461279   0.000000
   93       -1.365409   0.000000
   94       -1.340042   0.000000
   95       -1.226201   0.000000
   96       -1.122874   0.000000
   97       -1.072646   0.000000
   98       -1.003416   0.000000
   99       -0.909809   0.000000
  100       -0.859955   0.000000
  101       -0.808838   0.000000
  102       -0.713381   0.000000
  103       -0.579685   0.000000
  104       -0.547264   0.000000
  105       -0.525026   0.000000
  106       -0.333614   0.000000
  107       -0.265145   0.000000
  108       -0.192268   0.000000
  109        0.115027   0.000000
  110        0.264432   0.000000
  111        0.401346   0.000000
  112        0.577077   0.000000
  113        0.770241   0.000000
  114        1.047562   0.000000
  115        1.122869   0.000000
  116        1.333670   0.000000
  117        1.385388   0.000000
  118        2.010791   0.000000
  119        2.159606   0.000000
  120        2.478674   0.000000
 
  0.5000000E+00  0.1110223E-15  0.0000000E+00  0.1562500E-01
    1      -17.543181   1.000000
    2      -17.324681   1.000000
    3      -16.757547   1.000000
    4      -16.655169   1.000000
    5      -16.623607   1.000000
    6      -16.489148   1.000000
    7      -16.290660   1.000000
    8      -16.250536   1.000000
    9      -16.180088   1.000000
   10      -16.048487   1.000000
   11      -15.915260   1.000000
   12      -15.848242   1.000000
   13      -15.762854   1.000000
   14      -15.730939   1.000000
   15      -15.563064   1.000000
   16      -15.415600   1.000000
   17      -15.333464   1.000000
   18      -15.271658   1.000000
   19       -9.839224   1.000000
   20       -9.375533   1.000000
   21       -9.330665   1.000000
   22       -8.987306   1.000000
   23       -8.880646   1.000000
   24       -8.813787   1.000000
   25       -8.611330   1.000000
   26       -8.545186   1.000000
   27       -8.464774   1.000000
   28       -8.374428   1.000000
   29       -8.241169   1.000000
   30       -8.123047   1.000000
   31       -8.112980   1.000000
   32       -7.977512   1.000000
   33       -7.961291   1.000000
   34       -7.898237   1.000000
   35       -7.786665   1.000000
   36       -7.656118   1.000000
   37       -7.626697   1.000000
   38       -7.499342   1.000000
   39       -7.425171   1.000000
   40       -7.292166   1.000000
   41       -7.073565   1.000000
   42       -6.987256   1.000000
   43       -6.935332   1.000000
   44       -6.922136   1.000000
   45       -6.889310   1.000000
   46       -6.794868   1.000000
   47       -6.673304   1.000000
   48       -6.561933   1.000000
   49       -6.554232   1.000000
   50       -6.511984   1.000000
   51       -6.434753   1.000000
   52       -6.384759   1.000000
   53       -6.299863   1.000000
   54       -6.225299   1.000000
   55       -6.118595   1.000000
   56       -6.099037   1.000000
   57       -5.965748   1.000000
   58       -5.875293   1.000000
   59       -5.848365   1.000000
   60       -5.790487   1.000000
   61       -5.690388   1.000000
   62       -5.630946   1.000000
   63       -5.502869   1.000000
   64       -5.481862   1.000000
   65       -5.306332   1.000000
   66       -5.062428   1.000000
   67       -5.033490   1.000000
   68       -4.890469   1.000000
   69       -4.743390   1.000000
   70       -4.597373   1.000000
   71       -4.480747   1.000000
   72       -4.448418   1.000000
   73       -4.353644   1.000000
   74       -4.184531   1.000000
   75       -4.028121   1.000000
   76       -3.944250   0.999999
   77       -3.830949   0.999951
   78       -3.547770   0.970899
   79       -3.323183   0.620238
   80       -3.201862   0.290557
   81       -3.114521   0.121130
   82       -2.867745   0.001782
   83       -2.809775   0.000443
   84       -2.723931   0.000042
   85       -2.479631   0.000000
   86       -2.418524   0.000000
   87       -2.225343   0.000000
   88       -2.121215   0.000000
   89       -2.010834   0.000000
   90       -1.976149   0.000000
   91       -1.590728   0.000000
   92       -1.453091   0.000000
   93       -1.384565   0.000000
   94       -1.348145   0.000000
   95       -1.217152   0.000000
   96       -1.160934   0.000000
   97       -1.070092   0.000000
   98       -1.028435   0.000000
   99       -0.937630   0.000000
  100       -0.837460   0.000000
  101       -0.831215   0.000000
  102       -0.766760   0.000000
  103       -0.620241   0.000000
  104       -0.570408   0.000000
  105       -0.558001   0.000000
  106       -0.357309   0.000000
  107       -0.302323   0.000000
  108       -0.260040   0.000000
  109        0.091196   0.000000
  110        0.254895   0.000000
  111        0.388387   0.000000
  112        0.587797   0.000000
  113        0.793029   0.000000
  114        1.083247   0.000000
  115        1.151704   0.000000
  116        1.395066   0.000000
  117        1.410862   0.000000
  118        2.245045   0.000000
  119        2.252218   0.000000
  120        2.370011   0.000000
 
  0.0000000E+00  0.1250000E+00  0.0000000E+00  0.3125000E-01
    1      -17.815093   1.000000
    2      -16.766148   1.000000
    3      -16.703300   1.000000
    4      -16.636901   1.000000
    5      -16.571818   1.000000
    6      -16.427391   1.000000
    7      -16.379549   1.000000
    8      -16.313384   1.000000
    9      -16.231636   1.000000
   10      -16.105484   1.000000
   11      -16.073915   1.000000
   12      -15.942941   1.000000
   13      -15.844309   1.000000
   14      -15.712295   1.000000
   15      -15.667396   1.000000
   16      -15.348140   1.000000
   17      -15.293925   1.000000
   18      -15.245211   1.000000
   19       -9.350842   1.000000
   20       -9.157020   1.000000
   21       -9.034016   1.000000
   22       -8.977919   1.000000
   23       -8.755397   1.000000
   24       -8.726711   1.000000
   25       -8.640034   1.000000
   26       -8.593712   1.000000
   27       -8.534210   1.000000
   28       -8.458686   1.000000
   29       -8.395388   1.000000
   30       -8.285506   1.000000
   31       -8.197464   1.000000
   32       -8.116719   1.000000
   33       -8.023752   1.000000
   34       -7.909053   1.000000
   35       -7.835509   1.000000
   36       -7.725241   1.000000
   37       -7.679663   1.000000
   38       -7.596142   1.000000
   39       -7.493762   1.000000
   40       -7.450247   1.000000
   41       -7.322041   1.000000
   42       -7.175971   1.000000
   43       -7.100395   1.000000
   44       -6.987889   1.000000
   45       -6.896983   1.000000
   46       -6.834095   1.000000
   47       -6.773990   1.000000
   48       -6.650973   1.000000
   49       -6.584344   1.000000
   50       -6.523629   1.000000
   51       -6.434281   1.000000
   52       -6.345891   1.000000
   53       -6.289013   1.000000
   54       -6.209653   1.000000
   55       -6.152652   1.000000
   56       -6.058697   1.000000
   57       -5.985121   1.000000
   58       -5.914791   1.000000
   59       -5.800387   1.000000
   60       -5.611490   1.000000
   61       -5.446341   1.000000
   62       -5.343108   1.000000
   63       -5.277455   1.000000
   64       -5.214296   1.000000
   65       -5.136741   1.000000
   66       -4.982319   1.000000
   67       -4.976428   1.000000
   68       -4.895175   1.000000
   69       -4.746030   1.000000
   70       -4.636780   1.000000
   71       -4.539329   1.000000
   72       -4.475648   1.000000
   73       -4.429053   1.000000
   74       -4.251208   1.000000
   75       -4.108615   1.000000
   76       -3.934351   0.999998
   77       -3.787578   0.999835
   78       -3.653947   0.995915
   79       -3.549232   0.971579
   80       -3.405288   0.812373
   81       -3.080217   0.078987
   82       -2.754437   0.000101
   83       -2.668633   0.000008
   84       -2.606513   0.000001
   85       -2.522447   0.000000
   86       -2.391967   0.000000
   87       -2.297250   0.000000
   88       -2.232559   0.000000
   89       -2.203338   0.000000
   90       -2.127210   0.000000
   91       -1.645710   0.000000
   92       -1.491372   0.000000
   93       -1.372540   0.000000
   94       -1.279808   0.000000
   95       -1.232749   0.000000
   96       -1.135933   0.000000
   97       -1.066728   0.000000
   98       -0.950483   0.000000
   99       -0.855341   0.000000
  100       -0.719329   0.000000
  101       -0.606474   0.000000
  102       -0.546773   0.000000
  103       -0.436836   0.000000
  104       -0.303778   0.000000
  105       -0.250053   0.000000
  106       -0.108605   0.000000
  107       -0.002123   0.000000
  108        0.050409   0.000000
  109        0.123905   0.000000
  110        0.262391   0.000000
  111        0.433656   0.000000
  112        0.576095   0.000000
  113        0.694664   0.000000
  114        0.851834   0.000000
  115        0.967786   0.000000
  116        1.029542   0.000000
  117        1.171276   0.000000
  118        1.700208   0.000000
  119        1.880209   0.000000
  120        2.202438   0.000000
 
  0.1250000E+00  0.1250000E+00  0.0000000E+00  0.3125000E-01
    1      -17.767088   1.000000
    2      -16.899684   1.000000
    3      -16.771675   1.000000
    4      -16.679325   1.000000
    5      -16.510019   1.000000
    6      -16.408351   1.000000
    7      -16.366452   1.000000
    8      -16.313354   1.000000
    9      -16.234240   1.000000
   10      -16.107536   1.000000
   11      -15.985459   1.000000
   12      -15.914033   1.000000
   13      -15.830541   1.000000
   14      -15.693162   1.000000
   15      -15.641330   1.000000
   16      -15.372659   1.000000
   17      -15.310151   1.000000
   18      -15.252539   1.000000
   19       -9.445146   1.000000
   20       -9.270815   1.000000
   21       -9.198431   1.000000
   22       -9.047277   1.000000
   23       -8.790478   1.000000
   24       -8.749219   1.000000
   25       -8.613590   1.000000
   26       -8.540992   1.000000
   27       -8.494707   1.000000
   28       -8.376948   1.000000
   29       -8.332948   1.000000
   30       -8.309306   1.000000
   31       -8.166253   1.000000
   32       -8.114557   1.000000
   33       -7.980951   1.000000
   34       -7.842585   1.000000
   35       -7.718578   1.000000
   36       -7.684710   1.000000
   37       -7.639669   1.000000
   38       -7.512562   1.000000
   39       -7.402246   1.000000
   40       -7.363419   1.000000
   41       -7.289055   1.000000
   42       -7.232015   1.000000
   43       -7.141512   1.000000
   44       -7.053680   1.000000
   45       -6.976074   1.000000
   46       -6.852711   1.000000
   47       -6.782417   1.000000
   48       -6.668028   1.000000
   49       -6.584759   1.000000
   50       -6.538445   1.000000
   51       -6.379866   1.000000
   52       -6.345888   1.000000
   53       -6.295510   1.000000
   54       -6.211840   1.000000
   55       -6.108000   1.000000
   56       -6.040988   1.000000
   57       -5.948377   1.000000
   58       -5.847273   1.000000
   59       -5.740618   1.000000
   60       -5.621025   1.000000
   61       -5.526265   1.000000
   62       -5.446583   1.000000
   63       -5.345446   1.000000
   64       -5.290795   1.000000
   65       -5.181635   1.000000
   66       -5.160411   1.000000
   67       -5.051190   1.000000
   68       -4.839798   1.000000
   69       -4.748924   1.000000
   70       -4.637302   1.000000
   71       -4.497104   1.000000
   72       -4.381235   1.000000
   73       -4.307058   1.000000
   74       -4.185934   1.000000
   75       -4.064264   1.000000
   76       -3.953336   0.999999
   77       -3.872584   0.999986
   78       -3.729923   0.999269
   79       -3.546972   0.970523
   80       -3.307671   0.577859
   81       -3.087289   0.086612
   82       -2.771187   0.000161
   83       -2.700045   0.000021
   84       -2.617850   0.000001
   85       -2.520738   0.000000
   86       -2.382661   0.000000
   87       -2.313663   0.000000
   88       -2.215106   0.000000
   89       -2.158527   0.000000
   90       -2.094151   0.000000
   91       -1.578200   0.000000
   92       -1.496207   0.000000
   93       -1.345658   0.000000
   94       -1.317972   0.000000
   95       -1.218814   0.000000
   96       -1.121719   0.000000
   97       -1.053950   0.000000
   98       -0.958295   0.000000
   99       -0.875728   0.000000
  100       -0.747346   0.000000
  101       -0.666579   0.000000
  102       -0.618591   0.000000
  103       -0.504498   0.000000
  104       -0.447772   0.000000
  105       -0.364426   0.000000
  106       -0.207129   0.000000
  107       -0.087445   0.000000
  108       -0.003488   0.000000
  109        0.072230   0.000000
  110        0.240201   0.000000
  111        0.395599   0.000000
  112        0.597439   0.000000
  113        0.723567   0.000000
  114        0.960212   0.000000
  115        1.022747   0.000000
  116        1.139655   0.000000
  117        1.284036   0.000000
  118        1.784000   0.000000
  119        1.952624   0.000000
  120        2.272817   0.000000
 
  0.2500000E+00  0.1250000E+00  0.0000000E+00  0.3125000E-01
    1      -17.675326   1.000000
    2      -17.090663   1.000000
    3      -16.866231   1.000000
    4      -16.659873   1.000000
    5      -16.480960   1.000000
    6      -16.440814   1.000000
    7      -16.328227   1.000000
    8      -16.276206   1.000000
    9      -16.217540   1.000000
   10      -16.099162   1.000000
   11      -15.928916   1.000000
   12      -15.885108   1.000000
   13      -15.809474   1.000000
   14      -15.694480   1.000000
   15      -15.582822   1.000000
   16      -15.396747   1.000000
   17      -15.329578   1.000000
   18      -15.264663   1.000000
   19       -9.656369   1.000000
   20       -9.424250   1.000000
   21       -9.253688   1.000000
   22       -9.083497   1.000000
   23       -8.809464   1.000000
   24       -8.709796   1.000000
   25       -8.561491   1.000000
   26       -8.521516   1.000000
   27       -8.456642   1.000000
   28       -8.338977   1.000000
   29       -8.314009   1.000000
   30       -8.226866   1.000000
   31       -8.161367   1.000000
   32       -8.120644   1.000000
   33       -7.994743   1.000000
   34       -7.891863   1.000000
   35       -7.806521   1.000000
   36       -7.544641   1.000000
   37       -7.514066   1.000000
   38       -7.420528   1.000000
   39       -7.383458   1.000000
   40       -7.293385   1.000000
   41       -7.237606   1.000000
   42       -7.177024   1.000000
   43       -7.127843   1.000000
   44       -7.007288   1.000000
   45       -6.925096   1.000000
   46       -6.824259   1.000000
   47       -6.810204   1.000000