       N       E                     dE             d eps       ncg     rms          rms(c)
DAV:   1     0.112407726298E+04    0.11241E+04   -0.35863E+04  8160   0.577E+02
DAV:   2    -0.393803261953E+01   -0.11280E+04   -0.10868E+04 11520   0.173E+02
DAV:   3    -0.200009243687E+03   -0.19607E+03   -0.18865E+03 10920   0.818E+01
DAV:   4    -0.208989183709E+03   -0.89799E+01   -0.87383E+01 12520   0.259E+01
DAV:   5    -0.209249185950E+03   -0.26000E+00   -0.25927E+00 11200   0.319E+00    0.274E+01
DAV:   6    -0.236669111173E+03   -0.27420E+02   -0.10844E+02 12760   0.604E+01    0.592E+01
DAV:   7    -0.196768393657E+03    0.39901E+02   -0.17625E+02 13080   0.152E+02    0.205E+01
DAV:   8    -0.190225185669E+03    0.65432E+01   -0.21472E+01 11760   0.135E+01    0.139E+01
DAV:   9    -0.188307674563E+03    0.19175E+01   -0.35835E+00 12040   0.635E+00    0.939E+00
DAV:  10    -0.187164339614E+03    0.11433E+01   -0.18050E+00 13320   0.747E+00    0.375E+00
DAV:  11    -0.187000199621E+03    0.16414E+00   -0.73248E-01 12600   0.269E+00    0.225E+00
DAV:  12    -0.187080630995E+03   -0.80431E-01   -0.52894E-01 13200   0.371E+00    0.440E+00
DAV:  13    -0.186936741248E+03    0.14389E+00   -0.47938E-01 13040   0.373E+00    0.198E+00
DAV:  14    -0.186903050259E+03    0.33691E-01   -0.10517E-01 13320   0.172E+00    0.113E+00
DAV:  15    -0.186896589811E+03    0.64604E-02   -0.52790E-02 12760   0.133E+00    0.100E+00
DAV:  16    -0.186889156674E+03    0.74331E-02   -0.18825E-02 12760   0.727E-01    0.483E-01
DAV:  17    -0.186886863517E+03    0.22932E-02   -0.66483E-03 12880   0.293E-01    0.215E-01
DAV:  18    -0.186885941119E+03    0.92240E-03   -0.35199E-03 12680   0.259E-01    0.201E-01
DAV:  19    -0.186885631148E+03    0.30997E-03   -0.10224E-03 11440   0.159E-01    0.481E-02
DAV:  20    -0.186886428506E+03   -0.79736E-03   -0.75084E-04  9040   0.605E-02    0.533E-02
DAV:  21    -0.186887000307E+03   -0.57180E-03   -0.22403E-04  8240   0.460E-02    0.285E-02
DAV:  22    -0.186888101967E+03   -0.11017E-02   -0.16287E-04  7520   0.381E-02    0.351E-02
DAV:  23    -0.186889338120E+03   -0.12362E-02   -0.13603E-04  7440   0.433E-02    0.149E-02
DAV:  24    -0.186889919703E+03   -0.58158E-03   -0.26095E-05  6840   0.151E-02    0.539E-03
DAV:  25    -0.186890300986E+03   -0.38128E-03   -0.16349E-05  5440   0.922E-03    0.430E-03
DAV:  26    -0.186890540965E+03   -0.23998E-03   -0.89356E-06  6840   0.710E-03    0.150E-03
DAV:  27    -0.186890639479E+03   -0.98515E-04   -0.34282E-06  7240   0.404E-03
   1 F= -.18689064E+03 E0= -.18671981E+03  d E =-.186891E+03
       N       E                     dE             d eps       ncg     rms          rms(c)
DAV:   1    -0.187533073787E+03   -0.64253E+00   -0.27225E+02  8160   0.351E+01    0.467E+00
DAV:   2    -0.189546211909E+03   -0.20131E+01   -0.20394E+01 12320   0.157E+01    0.968E+00
DAV:   3    -0.189357468090E+03    0.18874E+00   -0.43412E+00 12440   0.124E+01    0.640E+00
DAV:   4    -0.188787994964E+03    0.56947E+00   -0.57670E-01 12520   0.442E+00    0.173E+00
DAV:   5    -0.188889211822E+03   -0.10122E+00   -0.45379E-01 11880   0.332E+00    0.509E+00
DAV:   6    -0.188755096410E+03    0.13412E+00   -0.69495E-01 12880   0.422E+00    0.207E+00
DAV:   7    -0.188730475809E+03    0.24621E-01   -0.14097E-01 11800   0.181E+00    0.163E+00
DAV:   8    -0.188712269978E+03    0.18206E-01   -0.73411E-02 13560   0.159E+00    0.111E+00
DAV:   9    -0.188701872118E+03    0.10398E-01   -0.21873E-02 12040   0.768E-01    0.326E-01
DAV:  10    -0.188701285584E+03    0.58653E-03   -0.41923E-03 11640   0.214E-01    0.199E-01
DAV:  11    -0.188700674912E+03    0.61067E-03   -0.23111E-03 12600   0.159E-01    0.933E-02
DAV:  12    -0.188700809664E+03   -0.13475E-03   -0.70098E-04 10440   0.790E-02    0.568E-02
DAV:  13    -0.188700797912E+03    0.11752E-04   -0.13339E-04  8160   0.377E-02
   2 F= -.18870080E+03 E0= -.18856183E+03  d E =-.181016E+01
       N       E                     dE             d eps       ncg     rms          rms(c)
DAV:   1    -0.190629072275E+03   -0.19283E+01   -0.31481E+01  9000   0.143E+01    0.444E+00
DAV:   2    -0.190575443598E+03    0.53629E-01   -0.27707E+00 11240   0.947E+00    0.721E+00
DAV:   3    -0.190110835947E+03    0.46461E+00   -0.13383E+00 12360   0.861E+00    0.422E+00
DAV:   4    -0.189901171683E+03    0.20966E+00   -0.72669E-01 12800   0.426E+00    0.253E+00
DAV:   5    -0.189881392461E+03    0.19779E-01   -0.38541E-01 12280   0.318E+00    0.287E+00
DAV:   6    -0.189802499816E+03    0.78893E-01   -0.15289E-01 12640   0.251E+00    0.707E-01
DAV:   7    -0.189796099443E+03    0.64004E-02   -0.13848E-02 11560   0.519E-01    0.212E-01
DAV:   8    -0.189796724251E+03   -0.62481E-03   -0.38931E-03 12200   0.310E-01    0.324E-01
DAV:   9    -0.189796091450E+03    0.63280E-03   -0.20404E-03 10480   0.296E-01    0.146E-01
DAV:  10    -0.189796389681E+03   -0.29823E-03   -0.86896E-04  9800   0.131E-01    0.126E-01
DAV:  11    -0.189796114240E+03    0.27544E-03   -0.44159E-04  9120   0.737E-02    0.204E-02
DAV:  12    -0.189796139351E+03   -0.25111E-04   -0.68137E-05  7320   0.268E-02
   3 F= -.18979614E+03 E0= -.18967783E+03  d E =-.109534E+01
       N       E                     dE             d eps       ncg     rms          rms(c)
DAV:   1    -0.191367168585E+03   -0.15711E+01   -0.77796E+01  8160   0.201E+01    0.458E+00
DAV:   2    -0.191203595771E+03    0.16357E+00   -0.53898E+00 13200   0.781E+00    0.471E+00
DAV:   3    -0.191312538770E+03   -0.10894E+00   -0.15966E+00 12200   0.909E+00    0.650E+00
DAV:   4    -0.190938905409E+03    0.37363E+00   -0.13549E+00 12440   0.748E+00    0.298E+00
DAV:   5    -0.190894267814E+03    0.44638E-01   -0.44613E-01 12560   0.399E+00    0.291E+00
DAV:   6    -0.190806069170E+03    0.88199E-01   -0.21069E-01 12280   0.318E+00    0.123E+00
DAV:   7    -0.190791957271E+03    0.14112E-01   -0.46907E-02 12680   0.112E+00    0.423E-01
DAV:   8    -0.190790306912E+03    0.16504E-02   -0.85134E-03 11360   0.485E-01    0.385E-01
DAV:   9    -0.190789204133E+03    0.11028E-02   -0.30762E-03 10760   0.377E-01    0.167E-01
DAV:  10    -0.190789435034E+03   -0.23090E-03   -0.12978E-03 11400   0.152E-01    0.102E-01
DAV:  11    -0.190789279641E+03    0.15539E-03   -0.53504E-04  9560   0.851E-02    0.446E-02
DAV:  12    -0.190789279464E+03    0.17657E-06   -0.10357E-04  7080   0.397E-02
   4 F= -.19078928E+03 E0= -.19068445E+03  d E =-.993140E+00
       N       E                     dE             d eps       ncg     rms          rms(c)
DAV:   1    -0.192096477423E+03   -0.13072E+01   -0.15687E+02  8160   0.279E+01    0.553E+00
DAV:   2    -0.191855493271E+03    0.24098E+00   -0.89901E+00 11480   0.798E+00    0.386E+00
DAV:   3    -0.192050953112E+03   -0.19546E+00   -0.20232E+00 11160   0.865E+00    0.797E+00
DAV:   4    -0.191743168264E+03    0.30778E+00   -0.28459E+00 11440   0.107E+01    0.444E+00
DAV:   5    -0.191572893125E+03    0.17028E+00   -0.74310E-01 12320   0.550E+00    0.322E+00
DAV:   6    -0.191445456600E+03    0.12744E+00   -0.27124E-01 12240   0.374E+00    0.123E+00
DAV:   7    -0.191431855624E+03    0.13601E-01   -0.60084E-02 12240   0.128E+00    0.506E-01
DAV:   8    -0.191427961899E+03    0.38937E-02   -0.10506E-02 10800   0.498E-01    0.265E-01
DAV:   9    -0.191428826093E+03   -0.86419E-03   -0.48893E-03 12640   0.476E-01    0.375E-01
DAV:  10    -0.191427736318E+03    0.10898E-02   -0.32205E-03 11360   0.335E-01    0.605E-02
DAV:  11    -0.191427800722E+03   -0.64404E-04   -0.34269E-04  9080   0.696E-02
   5 F= -.19142780E+03 E0= -.19132268E+03  d E =-.638521E+00
       N       E                     dE             d eps       ncg     rms          rms(c)
DAV:   1    -0.191474616634E+03   -0.46880E-01   -0.35327E+00  8160   0.398E+00    0.574E-01
DAV:   2    -0.191524987663E+03   -0.50371E-01   -0.23082E-01 12600   0.265E+00    0.197E+00
DAV:   3    -0.191484077206E+03    0.40910E-01   -0.83075E-02 12400   0.203E+00    0.344E-01
DAV:   4    -0.191485640391E+03   -0.15632E-02   -0.10971E-02 11400   0.660E-01    0.568E-01
DAV:   5    -0.191482485377E+03    0.31550E-02   -0.71231E-03 10240   0.555E-01    0.182E-01
DAV:   6    -0.191482406506E+03    0.78871E-04   -0.17681E-03 10600   0.174E-01    0.121E-01
DAV:   7    -0.191482130740E+03    0.27577E-03   -0.87055E-04 10280   0.121E-01    0.651E-02
DAV:   8    -0.191482140830E+03   -0.10089E-04   -0.28096E-04  7800   0.110E-01
   6 F= -.19148214E+03 E0= -.19137478E+03  d E =-.543401E-01
       N       E                     dE             d eps       ncg     rms          rms(c)
DAV:   1    -0.191541165409E+03   -0.59035E-01   -0.58824E+00  8160   0.513E+00    0.645E-01
DAV:   2    -0.191580521799E+03   -0.39356E-01   -0.21364E-01 13600   0.212E+00    0.170E+00
DAV:   3    -0.191549615955E+03    0.30906E-01   -0.82071E-02 12440   0.204E+00    0.527E-01
DAV:   4    -0.191548782737E+03    0.83322E-03   -0.12230E-02 11280   0.642E-01    0.513E-01
DAV:   5    -0.191546977862E+03    0.18049E-02   -0.95949E-03 10720   0.644E-01    0.341E-01
DAV:   6    -0.191546012598E+03    0.96526E-03   -0.34199E-03 10000   0.318E-01    0.129E-01
DAV:   7    -0.191545811923E+03    0.20067E-03   -0.10238E-03 10520   0.133E-01    0.740E-02
DAV:   8    -0.191545831306E+03   -0.19382E-04   -0.43273E-04  9520   0.134E-01
   7 F= -.19154583E+03 E0= -.19143640E+03  d E =-.636905E-01
       N       E                     dE             d eps       ncg     rms          rms(c)
DAV:   1    -0.191560096316E+03   -0.14284E-01   -0.29439E-01  8240   0.117E+00    0.179E-01
DAV:   2    -0.191562293955E+03   -0.21976E-02   -0.13978E-02 12680   0.586E-01    0.433E-01
DAV:   3    -0.191560278092E+03    0.20159E-02   -0.47669E-03 11600   0.498E-01    0.114E-01
DAV:   4    -0.191560168381E+03    0.10971E-03   -0.66611E-04 10000   0.128E-01    0.984E-02
DAV:   5    -0.191560214593E+03   -0.46212E-04   -0.76209E-04  8880   0.176E-01
   8 F= -.19156021E+03 E0= -.19145046E+03  d E =-.143833E-01
       N       E                     dE             d eps       ncg     rms          rms(c)
DAV:   1    -0.191499976587E+03    0.60192E-01   -0.61851E+00  8160   0.534E+00    0.777E-01
DAV:   2    -0.191551052270E+03   -0.51076E-01   -0.28199E-01 13560   0.283E+00    0.204E+00
DAV:   3    -0.191503959039E+03    0.47093E-01   -0.92058E-02 12040   0.222E+00    0.563E-01
DAV:   4    -0.191507853448E+03   -0.38944E-02   -0.28991E-02 10640   0.105E+00    0.945E-01
DAV:   5    -0.191499971844E+03    0.78816E-02   -0.22013E-02 10520   0.958E-01    0.309E-01
DAV:   6    -0.191498844221E+03    0.11276E-02   -0.46791E-03 10960   0.326E-01    0.128E-01
DAV:   7    -0.191498673162E+03    0.17106E-03   -0.14213E-03 11920   0.170E-01    0.105E-01
DAV:   8    -0.191498652252E+03    0.20909E-04   -0.70136E-04  9040   0.175E-01
   9 F= -.19149865E+03 E0= -.19139049E+03  d E =0.615623E-01
       N       E                     dE             d eps       ncg     rms          rms(c)
DAV:   1    -0.191517459032E+03   -0.18786E-01   -0.86516E-01  8160   0.197E+00    0.286E-01
DAV:   2    -0.191530068740E+03   -0.12610E-01   -0.51492E-02 13240   0.131E+00    0.102E+00
DAV:   3    -0.191519171060E+03    0.10898E-01   -0.22843E-02 11280   0.104E+00    0.208E-01
DAV:   4    -0.191519508202E+03   -0.33714E-03   -0.31272E-03 10560   0.362E-01    0.280E-01
DAV:   5    -0.191518707180E+03    0.80102E-03   -0.15387E-03  9680   0.263E-01    0.718E-02
DAV:   6    -0.191518720787E+03   -0.13607E-04   -0.31550E-04  7560   0.766E-02
  10 F= -.19151872E+03 E0= -.19140929E+03  d E =-.200685E-01
       N       E                     dE             d eps       ncg     rms          rms(c)
DAV:   1    -0.191577147522E+03   -0.58440E-01   -0.53429E+00  8160   0.493E+00    0.666E-01
DAV:   2    -0.191626156747E+03   -0.49009E-01   -0.23055E-01 13600   0.260E+00    0.201E+00
DAV:   3    -0.191583709690E+03    0.42447E-01   -0.91941E-02 12280   0.219E+00    0.417E-01
DAV:   4    -0.191585320674E+03   -0.16110E-02   -0.13197E-02 12320   0.728E-01    0.653E-01
DAV:   5    -0.191581327256E+03    0.39934E-02   -0.11520E-02 11240   0.716E-01    0.245E-01
DAV:   6    -0.191581017899E+03    0.30936E-03   -0.29648E-03 11120   0.257E-01    0.133E-01
DAV:   7    -0.191580740091E+03    0.27781E-03   -0.11520E-03 10760   0.159E-01    0.109E-01
DAV:   8    -0.191580661883E+03    0.78208E-04   -0.48535E-04  8520   0.138E-01
  11 F= -.19158066E+03 E0= -.19146976E+03  d E =-.619411E-01
       N       E                     dE             d eps       ncg     rms          rms(c)
DAV:   1    -0.191568302615E+03    0.12437E-01   -0.23710E-01  8160   0.104E+00    0.120E-01
DAV:   2    -0.191569302176E+03   -0.99956E-03   -0.74422E-03 13360   0.329E-01    0.259E-01
DAV:   3    -0.191568633737E+03    0.66844E-03   -0.24879E-03 10680   0.340E-01    0.132E-01
DAV:   4    -0.191568549341E+03    0.84396E-04   -0.59408E-04  8400   0.149E-01
  12 F= -.19156855E+03 E0= -.19145755E+03  d E =0.121125E-01
       N       E                     dE             d eps       ncg     rms          rms(c)
DAV:   1    -0.191565080866E+03    0.35529E-02   -0.88564E-01  8160   0.216E+00    0.522E-01
DAV:   2    -0.191560621524E+03    0.44593E-02   -0.55064E-02 11360   0.735E-01    0.458E-01
DAV:   3    -0.191563114697E+03   -0.24932E-02   -0.24004E-02 11280   0.106E+00    0.730E-01
DAV:   4    -0.191558183812E+03    0.49309E-02   -0.17808E-02 11160   0.893E-01    0.399E-01
DAV:   5    -0.191558137774E+03    0.46038E-04   -0.90298E-03 10920   0.600E-01    0.446E-01
DAV:   6    -0.191556065973E+03    0.20718E-02   -0.42045E-03 11000   0.439E-01    0.832E-02
DAV:   7    -0.191556060582E+03    0.53903E-05   -0.41712E-04  8960   0.992E-02
  13 F= -.19155606E+03 E0= -.19144476E+03  d E =0.124888E-01
       N       E                     dE             d eps       ncg     rms          rms(c)
DAV:   1    -0.191537235418E+03    0.18831E-01   -0.54282E-01  8160   0.156E+00    0.208E-01
DAV:   2    -0.191542182821E+03   -0.49474E-02   -0.24565E-02 13520   0.782E-01    0.597E-01
DAV:   3    -0.191538212164E+03    0.39707E-02   -0.84703E-03 11600   0.667E-01    0.164E-01
DAV:   4    -0.191538389029E+03   -0.17687E-03   -0.17066E-03  9920   0.251E-01    0.215E-01
DAV:   5    -0.191537956144E+03    0.43289E-03   -0.11742E-03  9520   0.219E-01    0.778E-02
DAV:   6    -0.191537937547E+03    0.18597E-04   -0.21246E-04  6440   0.744E-02
  14 F= -.19153794E+03 E0= -.19142694E+03  d E =0.181230E-01
       N       E                     dE             d eps       ncg     rms          rms(c)
DAV:   1    -0.191528213579E+03    0.97426E-02   -0.60960E-01  8160   0.167E+00    0.231E-01
DAV:   2    -0.191535478866E+03   -0.72653E-02   -0.36295E-02 12520   0.944E-01    0.756E-01
DAV:   3    -0.191529847901E+03    0.56310E-02   -0.13235E-02 11600   0.778E-01    0.193E-01
DAV:   4    -0.191529859869E+03   -0.11968E-04   -0.17982E-03  9880   0.273E-01    0.187E-01
DAV:   5    -0.191529522283E+03    0.33759E-03   -0.92003E-04  9880   0.223E-01    0.891E-02
DAV:   6    -0.191529488127E+03    0.34156E-04   -0.31205E-04  8320   0.968E-02
  15 F= -.19152949E+03 E0= -.19141849E+03  d E =0.844942E-02
       N       E                     dE             d eps       ncg     rms          rms(c)
DAV:   1    -0.191574387362E+03   -0.44865E-01   -0.33054E+00  8160   0.386E+00    0.466E-01
DAV:   2    -0.191597209666E+03   -0.22822E-01   -0.12125E-01 13600   0.159E+00    0.134E+00
DAV:   3    -0.191580066679E+03    0.17143E-01   -0.51401E-02 12080   0.149E+00    0.452E-01
DAV:   4    -0.191580801067E+03   -0.73439E-03   -0.10931E-02 11000   0.658E-01    0.532E-01
DAV:   5    -0.191577962012E+03    0.28391E-02   -0.60225E-03 10680   0.532E-01    0.166E-01
DAV:   6    -0.191577814514E+03    0.14750E-03   -0.12431E-03 10200   0.155E-01    0.951E-02
DAV:   7    -0.191577690412E+03    0.12410E-03   -0.51771E-04 10840   0.912E-02    0.499E-02
DAV:   8    -0.191577682617E+03    0.77950E-05   -0.16208E-04  6880   0.834E-02
  16 F= -.19157768E+03 E0= -.19146637E+03  d E =-.481945E-01
       N       E                     dE             d eps       ncg     rms          rms(c)
DAV:   1    -0.191554455319E+03    0.23235E-01   -0.89871E-01  8160   0.203E+00    0.284E-01
DAV:   2    -0.191562268590E+03   -0.78133E-02   -0.38314E-02 13120   0.108E+00    0.804E-01
DAV:   3    -0.191555024140E+03    0.72444E-02   -0.14271E-02 12040   0.863E-01    0.190E-01
DAV:   4    -0.191555630126E+03   -0.60599E-03   -0.34759E-03  9960   0.362E-01    0.332E-01
DAV:   5    -0.191554661282E+03    0.96884E-03   -0.28678E-03  9600   0.345E-01    0.127E-01
DAV:   6    -0.191554538648E+03    0.12263E-03   -0.65941E-04  9880   0.120E-01    0.563E-02
DAV:   7    -0.191554505061E+03    0.33587E-04   -0.18273E-04  7440   0.730E-02
  17 F= -.19155451E+03 E0= -.19144324E+03  d E =0.231776E-01
       N       E                     dE             d eps       ncg     rms          rms(c)
DAV:   1    -0.191501757985E+03    0.52781E-01   -0.46869E+00  8160   0.459E+00    0.526E-01
DAV:   2    -0.191524577079E+03   -0.22819E-01   -0.14100E-01 13600   0.158E+00    0.124E+00
DAV:   3    -0.191507886168E+03    0.16691E-01   -0.44438E-02 12240   0.149E+00    0.489E-01
DAV:   4    -0.191508636891E+03   -0.75072E-03   -0.12970E-02 11440   0.678E-01    0.585E-01
DAV:   5    -0.191505679141E+03    0.29577E-02   -0.91704E-03 10520   0.612E-01    0.236E-01
DAV:   6    -0.191505262230E+03    0.41691E-03   -0.22300E-03 10360   0.235E-01    0.120E-01
DAV:   7    -0.191505098232E+03    0.16400E-03   -0.80926E-04 10800   0.127E-01    0.792E-02
DAV:   8    -0.191505065008E+03    0.33224E-04   -0.33210E-04  8040   0.122E-01
  18 F= -.19150507E+03 E0= -.19139442E+03  d E =0.494401E-01
       N       E                     dE             d eps       ncg     rms          rms(c)
DAV:   1    -0.191528712784E+03   -0.23615E-01   -0.12615E+00  8160   0.240E+00    0.299E-01
DAV:   2    -0.191535190861E+03   -0.64781E-02   -0.45648E-02 13400   0.854E-01    0.671E-01
DAV:   3    -0.191530849743E+03    0.43411E-02   -0.14999E-02 11880   0.858E-01    0.307E-01
DAV:   4    -0.191530510895E+03    0.33885E-03   -0.36110E-03 10880   0.367E-01    0.285E-01
DAV:   5    -0.191529764833E+03    0.74606E-03   -0.22943E-03  9720   0.322E-01    0.123E-01
DAV:   6    -0.191529666360E+03    0.98474E-04   -0.72407E-04  9920   0.131E-01
  19 F= -.19152967E+03 E0= -.19141767E+03  d E =-.246014E-01
       N       E                     dE             d eps       ncg     rms          rms(c)
DAV:   1    -0.191556908617E+03   -0.27144E-01   -0.13631E+00  8160   0.249E+00    0.343E-01
DAV:   2    -0.191570948313E+03   -0.14040E-01   -0.60672E-02 13600   0.134E+00    0.114E+00
DAV:   3    -0.191558473298E+03    0.12475E-01   -0.31453E-02 11320   0.116E+00    0.293E-01
DAV:   4    -0.191559070438E+03   -0.59714E-03   -0.58872E-03 11160   0.490E-01    0.383E-01
DAV:   5    -0.191557584011E+03    0.14864E-02   -0.31383E-03  9840   0.371E-01    0.110E-01
DAV:   6    -0.191557509790E+03    0.74221E-04   -0.70918E-04 10160   0.112E-01
  20 F= -.19155751E+03 E0= -.19144501E+03  d E =-.278434E-01
       N       E                     dE             d eps       ncg     rms          rms(c)
DAV:   1    -0.191503493721E+03    0.54090E-01   -0.78023E+00  8160   0.593E+00    0.649E-01
DAV:   2    -0.191527948536E+03   -0.24455E-01   -0.19274E-01 13600   0.173E+00    0.125E+00
DAV:   3    -0.191511947721E+03    0.16001E-01   -0.53766E-02 12240   0.164E+00    0.606E-01
DAV:   4    -0.191510860762E+03    0.10870E-02   -0.15810E-02 12160   0.746E-01    0.570E-01
DAV:   5    -0.191508869412E+03    0.19913E-02   -0.13310E-02 11080   0.727E-01    0.406E-01
DAV:   6    -0.191507472854E+03    0.13966E-02   -0.53088E-03 10760   0.404E-01    0.151E-01
DAV:   7    -0.191507314357E+03    0.15850E-03   -0.13686E-03 11080   0.184E-01    0.124E-01
DAV:   8    -0.191507181680E+03    0.13268E-03   -0.56655E-04  9000   0.159E-01    0.770E-02
DAV:   9    -0.191507132224E+03    0.49456E-04   -0.13694E-04  6200   0.752E-02
  21 F= -.19150713E+03 E0= -.19139567E+03  d E =0.503776E-01
       N       E                     dE             d eps       ncg     rms          rms(c)
DAV:   1    -0.191519633210E+03   -0.12452E-01   -0.22920E+00  8160   0.327E+00    0.381E-01
DAV:   2    -0.191521812183E+03   -0.21790E-02   -0.56008E-02 11800   0.665E-01    0.337E-01
DAV:   3    -0.191524184201E+03   -0.23720E-02   -0.15003E-02 12400   0.767E-01    0.655E-01
DAV:   4    -0.191520561506E+03    0.36227E-02   -0.10185E-02 11560   0.678E-01    0.233E-01
DAV:   5    -0.191519883524E+03    0.67798E-03   -0.23913E-03 11520   0.232E-01    0.119E-01
DAV:   6    -0.191520232483E+03   -0.34896E-03   -0.19121E-03 11400   0.266E-01    0.234E-01
DAV:   7    -0.191519725754E+03    0.50673E-03   -0.12557E-03  9040   0.225E-01    0.621E-02
DAV:   8    -0.191519718402E+03    0.73518E-05   -0.17604E-04  5840   0.866E-02
  22 F= -.19151972E+03 E0= -.19140835E+03  d E =-.125862E-01
       N       E                     dE             d eps       ncg     rms          rms(c)
DAV:   1    -0.191548969838E+03   -0.29244E-01   -0.29922E+00  8160   0.369E+00    0.475E-01
DAV:   2    -0.191567893636E+03   -0.18924E-01   -0.10192E-01 13600   0.162E+00    0.128E+00
DAV:   3    -0.191551673209E+03    0.16220E-01   -0.42189E-02 12040   0.143E+00    0.380E-01
DAV:   4    -0.191552864397E+03   -0.11912E-02   -0.10042E-02 12080   0.654E-01    0.546E-01
DAV:   5    -0.191550056734E+03    0.28077E-02   -0.80740E-03 11360   0.603E-01    0.209E-01
DAV:   6    -0.191549670763E+03    0.38597E-03   -0.20944E-03 10880   0.220E-01    0.106E-01
DAV:   7    -0.191549876442E+03   -0.20568E-03   -0.14182E-03 10720   0.223E-01    0.197E-01
DAV:   8    -0.191549504202E+03    0.37224E-03   -0.78194E-04  8640   0.179E-01    0.357E-02
DAV:   9    -0.191549500183E+03    0.40194E-05   -0.53326E-05  5760   0.335E-02
  23 F= -.19154950E+03 E0= -.19143634E+03  d E =-.297818E-01
       N       E                     dE             d eps       ncg     rms          rms(c)
DAV:   1    -0.191580168594E+03   -0.30664E-01   -0.16657E+00  8160   0.277E+00    0.352E-01
DAV:   2    -0.191590018459E+03   -0.98499E-02   -0.63309E-02 13600   0.119E+00    0.862E-01
DAV:   3    -0.191582473429E+03    0.75450E-02   -0.20289E-02 12240   0.102E+00    0.278E-01
DAV:   4    -0.191582505293E+03   -0.31864E-04   -0.41896E-03 11520   0.392E-01    0.336E-01
DAV:   5    -0.191581534096E+03    0.97120E-03   -0.32328E-03 10160   0.375E-01    0.149E-01
DAV:   6    -0.191581434056E+03    0.10004E-03   -0.10874E-03  9800   0.171E-01    0.962E-02
DAV:   7    -0.191581470728E+03   -0.36672E-04   -0.80120E-04  9480   0.178E-01
  24 F= -.19158147E+03 E0= -.19146830E+03  d E =-.319705E-01
       N       E                     dE             d eps       ncg     rms          rms(c)
DAV:   1    -0.191563900342E+03    0.17534E-01   -0.14721E+00  8160   0.262E+00    0.291E-01
DAV:   2    -0.191568396624E+03   -0.44963E-02   -0.41695E-02 13040   0.714E-01    0.572E-01
DAV:   3    -0.191566178226E+03    0.22184E-02   -0.13174E-02 11600   0.723E-01    0.349E-01
DAV:   4    -0.191565281141E+03    0.89708E-03   -0.34206E-03 10960   0.339E-01    0.185E-01
DAV:   5    -0.191565075257E+03    0.20588E-03   -0.16486E-03 10320   0.278E-01    0.161E-01
DAV:   6    -0.191564988948E+03    0.86309E-04   -0.12379E-03 10080   0.227E-01    0.117E-01
DAV:   7    -0.191564899328E+03    0.89620E-04   -0.62800E-04  8880   0.158E-01
  25 F= -.19156490E+03 E0= -.19145117E+03  d E =0.165714E-01
       N       E                     dE             d eps       ncg     rms          rms(c)
DAV:   1    -0.191599671387E+03   -0.34682E-01   -0.34574E+00  8160   0.395E+00    0.444E-01
DAV:   2    -0.191611435459E+03   -0.11764E-01   -0.86205E-02 13600   0.126E+00    0.916E-01
DAV:   3    -0.191603523311E+03    0.79121E-02   -0.28575E-02 12240   0.119E+00    0.420E-01
DAV:   4    -0.191603599137E+03   -0.75826E-04   -0.80759E-03 11480   0.556E-01    0.460E-01
DAV:   5    -0.191601857848E+03    0.17413E-02   -0.64050E-03 10480   0.521E-01    0.235E-01
DAV:   6    -0.191601455192E+03    0.40266E-03   -0.21710E-03 10240   0.240E-01    0.105E-01
DAV:   7    -0.191601306726E+03    0.14847E-03   -0.52070E-04 10680   0.931E-02    0.364E-02
DAV:   8    -0.191601292417E+03    0.14310E-04   -0.84376E-05  7120   0.539E-02
  26 F= -.19160129E+03 E0= -.19148819E+03  d E =-.363931E-01
       N       E                     dE             d eps       ncg     rms          rms(c)
DAV:   1    -0.191574453768E+03    0.26853E-01   -0.88751E+00  8160   0.640E+00    0.702E-01
DAV:   2    -0.191593755747E+03   -0.19302E-01   -0.19938E-01 13600   0.160E+00    0.115E+00
DAV:   3    -0.191585537682E+03    0.82181E-02   -0.59874E-02 11920   0.167E+00    0.864E-01
DAV:   4    -0.191583371374E+03    0.21663E-02   -0.28969E-02 12160   0.105E+00    0.731E-01
DAV:   5    -0.191579053277E+03    0.43181E-02   -0.18530E-02 10960   0.887E-01    0.417E-01
DAV:   6    -0.191577494941E+03    0.15583E-02   -0.61930E-03 11520   0.453E-01    0.179E-01
DAV:   7    -0.191577577287E+03   -0.82346E-04   -0.23827E-03 12480   0.295E-01    0.243E-01
DAV:   8    -0.191576997770E+03    0.57952E-03   -0.12024E-03  9080   0.233E-01    0.458E-02
DAV:   9    -0.191576998044E+03   -0.27436E-06   -0.93087E-05  5800   0.461E-02
  27 F= -.19157700E+03 E0= -.19146424E+03  d E =0.242944E-01
       N       E                     dE             d eps       ncg     rms          rms(c)
DAV:   1    -0.191577752207E+03   -0.75444E-03   -0.14584E+00  8160   0.260E+00    0.287E-01
DAV:   2    -0.191581267376E+03   -0.35152E-02   -0.34425E-02 13600   0.665E-01    0.512E-01
DAV:   3    -0.191579686378E+03    0.15810E-02   -0.11670E-02 11360   0.710E-01    0.358E-01
DAV:   4    -0.191578965867E+03    0.72051E-03   -0.38435E-03 10560   0.374E-01    0.222E-01
DAV:   5    -0.191578596217E+03    0.36965E-03   -0.20934E-03 10200   0.316E-01    0.174E-01
DAV:   6    -0.191578441092E+03    0.15512E-03   -0.11724E-03  9840   0.219E-01    0.112E-01
DAV:   7    -0.191578474247E+03   -0.33155E-04   -0.77417E-04  8560   0.184E-01
  28 F= -.19157847E+03 E0= -.19146680E+03  d E =-.147620E-02
       N       E                     dE             d eps       ncg     rms          rms(c)
DAV:   1    -0.191573320180E+03    0.51209E-02   -0.65927E-02  8160   0.567E-01    0.638E-02
DAV:   2    -0.191573750654E+03   -0.43047E-03   -0.23540E-03 12800   0.213E-01    0.195E-01
DAV:   3    -0.191573387973E+03    0.36268E-03   -0.86742E-04  8760   0.194E-01    0.471E-02
DAV:   4    -0.191573388544E+03   -0.57108E-06   -0.91239E-05  5560   0.539E-02
  29 F= -.19157339E+03 E0= -.19146171E+03  d E =0.508570E-02
       N       E                     dE             d eps       ncg     rms          rms(c)
DAV:   1    -0.191604108363E+03   -0.30720E-01   -0.22907E+00  8160   0.321E+00    0.366E-01
DAV:   2    -0.191611682421E+03   -0.75741E-02   -0.65273E-02 13520   0.949E-01    0.684E-01
DAV:   3    -0.191607696630E+03    0.39858E-02   -0.19690E-02 12240   0.986E-01    0.406E-01
DAV:   4    -0.191606826292E+03    0.87034E-03   -0.53272E-03 11080   0.462E-01    0.332E-01
DAV:   5    -0.191605962960E+03    0.86333E-03   -0.35969E-03 10000   0.394E-01    0.185E-01
DAV:   6    -0.191605726688E+03    0.23627E-03   -0.12622E-03  9920   0.181E-01    0.742E-02
DAV:   7    -0.191605672358E+03    0.54330E-04   -0.37799E-04  8520   0.938E-02
  30 F= -.19160567E+03 E0= -.19149452E+03  d E =-.322838E-01
       N       E                     dE             d eps       ncg     rms          rms(c)
DAV:   1    -0.191605391724E+03    0.33496E-03   -0.11966E+00  8160   0.236E+00    0.340E-01
DAV:   2    -0.191618603545E+03   -0.13212E-01   -0.54417E-02 13600   0.126E+00    0.111E+00
DAV:   3    -0.191605774345E+03    0.12829E-01   -0.24776E-02 11560   0.112E+00    0.226E-01
DAV:   4    -0.191606168027E+03   -0.39368E-03   -0.33832E-03 11200   0.366E-01    0.304E-01
DAV:   5    -0.191605181032E+03    0.98700E-03   -0.23562E-03 11520   0.367E-01    0.113E-01
DAV:   6    -0.191605072232E+03    0.10880E-03   -0.58496E-04  9560   0.123E-01    0.486E-02
DAV:   7    -0.191605036534E+03    0.35698E-04   -0.16842E-04  7480   0.575E-02
  31 F= -.19160504E+03 E0= -.19149470E+03  d E =0.635824E-03
       N       E                     dE             d eps       ncg     rms          rms(c)
DAV:   1    -0.191657372994E+03   -0.52301E-01   -0.42545E+00  8160   0.441E+00    0.513E-01
DAV:   2    -0.191677446013E+03   -0.20073E-01   -0.14385E-01 13440   0.164E+00    0.124E+00
DAV:   3    -0.191664455623E+03    0.12990E-01   -0.47746E-02 12240   0.149E+00    0.531E-01
DAV:   4    -0.191663339606E+03    0.11160E-02   -0.11698E-02 11480   0.664E-01    0.458E-01
DAV:   5    -0.191661428902E+03    0.19107E-02   -0.63095E-03 10880   0.577E-01    0.246E-01
DAV:   6    -0.191661106330E+03    0.32257E-03   -0.32365E-03 11600   0.335E-01    0.199E-01
DAV:   7    -0.191661324788E+03   -0.21846E-03   -0.27133E-03 10800   0.366E-01    0.245E-01
DAV:   8    -0.191660639098E+03    0.68569E-03   -0.11448E-03  8880   0.235E-01    0.301E-02
DAV:   9    -0.191660646761E+03   -0.76632E-05   -0.82534E-05  6240   0.351E-02
  32 F= -.19166065E+03 E0= -.19155395E+03  d E =-.556102E-01
       N       E                     dE             d eps       ncg     rms          rms(c)
DAV:   1    -0.191664974620E+03   -0.43355E-02   -0.31242E-01  8160   0.119E+00    0.148E-01
DAV:   2    -0.191666772233E+03   -0.17976E-02   -0.99172E-03 13600   0.539E-01    0.382E-01
DAV:   3    -0.191665209329E+03    0.15629E-02   -0.34657E-03 11240   0.434E-01    0.987E-02
DAV:   4    -0.191665354712E+03   -0.14538E-03   -0.74595E-04  8320   0.187E-01    0.160E-01
DAV:   5    -0.191665110278E+03    0.24443E-03   -0.56580E-04  8160   0.176E-01    0.532E-02
DAV:   6    -0.191665113241E+03   -0.29631E-05   -0.15019E-04  5800   0.646E-02
  33 F= -.19166511E+03 E0= -.19155825E+03  d E =-.446648E-02
       N       E                     dE             d eps       ncg     rms          rms(c)
DAV:   1    -0.191720417234E+03   -0.55307E-01   -0.43672E+00  8160   0.444E+00    0.474E-01
DAV:   2    -0.191733571258E+03   -0.13154E-01   -0.12599E-01 12680   0.132E+00    0.863E-01
DAV:   3    -0.191728818618E+03    0.47526E-02   -0.33591E-02 12280   0.127E+00    0.596E-01
DAV:   4    -0.191726043604E+03    0.27750E-02   -0.96797E-03 11560   0.626E-01    0.337E-01
DAV:   5    -0.191725265574E+03    0.77803E-03   -0.44425E-03 10520   0.490E-01    0.260E-01
DAV:   6    -0.191724801212E+03    0.46436E-03   -0.29791E-03 12400   0.350E-01    0.167E-01
DAV:   7    -0.191725111073E+03   -0.30986E-03   -0.22181E-03 10240   0.325E-01    0.241E-01
DAV:   8    -0.191724469517E+03    0.64156E-03   -0.10804E-03  8720   0.236E-01    0.306E-02
DAV:   9    -0.191724477250E+03   -0.77327E-05   -0.68910E-05  5680   0.346E-02
  34 F= -.19172448E+03 E0= -.19162313E+03  d E =-.593640E-01
       N       E                     dE             d eps       ncg     rms          rms(c)
DAV:   1    -0.191730505116E+03   -0.60356E-02   -0.35696E-01  8160   0.127E+00    0.140E-01
DAV:   2    -0.191731376409E+03   -0.87129E-03   -0.79334E-03 13560   0.341E-01    0.243E-01
DAV:   3    -0.191730888914E+03    0.48749E-03   -0.22937E-03 11000   0.352E-01    0.145E-01
DAV:   4    -0.191730863361E+03    0.25553E-04   -0.84522E-04  8360   0.189E-01
  35 F= -.19173086E+03 E0= -.19162979E+03  d E =-.638611E-02
       N       E                     dE             d eps       ncg     rms          rms(c)
DAV:   1    -0.191697561501E+03    0.33327E-01   -0.33683E+00  8160   0.390E+00    0.444E-01
DAV:   2    -0.191713480909E+03   -0.15919E-01   -0.93318E-02 13600   0.137E+00    0.105E+00
DAV:   3    -0.191701230455E+03    0.12250E-01   -0.29518E-02 11800   0.129E+00    0.380E-01
DAV:   4    -0.191702054849E+03   -0.82439E-03   -0.84185E-03 10360   0.600E-01    0.493E-01
DAV:   5    -0.191699754929E+03    0.22999E-02   -0.52930E-03 10080   0.513E-01    0.158E-01
DAV:   6    -0.191699683864E+03    0.71065E-04   -0.15571E-03 10160   0.205E-01    0.133E-01
DAV:   7    -0.191699839550E+03   -0.15569E-03   -0.14218E-03 10440   0.264E-01    0.188E-01
DAV:   8    -0.191699457348E+03    0.38220E-03   -0.65342E-04  8600   0.182E-01    0.250E-02
DAV:   9    -0.191699462578E+03   -0.52308E-05   -0.47055E-05  6000   0.288E-02
  36 F= -.19169946E+03 E0= -.19159657E+03  d E =0.314008E-01
       N       E                     dE             d eps       ncg     rms          rms(c)
DAV:   1    -0.191674784253E+03    0.24673E-01   -0.66407E+00  8160   0.547E+00    0.604E-01
DAV:   2    -0.191695837588E+03   -0.21053E-01   -0.15160E-01 13560   0.164E+00    0.117E+00
DAV:   3    -0.191681198305E+03    0.14639E-01   -0.41361E-02 11840   0.156E+00    0.525E-01
DAV:   4    -0.191681057969E+03    0.14034E-03   -0.12658E-02 11800   0.728E-01    0.542E-01
DAV:   5    -0.191678616002E+03    0.24420E-02   -0.87819E-03 11920   0.690E-01    0.289E-01
DAV:   6    -0.191678131992E+03    0.48401E-03   -0.36259E-03 10760   0.343E-01    0.177E-01
DAV:   7    -0.191678344510E+03   -0.21252E-03   -0.23534E-03 10560   0.335E-01    0.252E-01
DAV:   8    -0.191677682947E+03    0.66156E-03   -0.11353E-03  9000   0.239E-01    0.341E-02
DAV:   9    -0.191677690351E+03   -0.74036E-05   -0.77712E-05  5920   0.378E-02
  37 F= -.19167769E+03 E0= -.19157440E+03  d E =0.217722E-01
       N       E                     dE             d eps       ncg     rms          rms(c)
DAV:   1    -0.191693467600E+03   -0.15785E-01   -0.47363E+00  8160   0.461E+00    0.454E-01
DAV:   2    -0.191707490320E+03   -0.14023E-01   -0.10991E-01 13360   0.132E+00    0.945E-01
DAV:   3    -0.191699831675E+03    0.76586E-02   -0.24726E-02 11560   0.116E+00    0.460E-01
DAV:   4    -0.191698705849E+03    0.11258E-02   -0.62291E-03 11040   0.548E-01    0.332E-01
DAV:   5    -0.191697821735E+03    0.88411E-03   -0.37342E-03 11520   0.485E-01    0.206E-01
DAV:   6    -0.191697676916E+03    0.14482E-03   -0.18588E-03 12200   0.260E-01    0.113E-01
DAV:   7    -0.191697386332E+03    0.29058E-03   -0.55863E-04 10520   0.108E-01    0.377E-02
DAV:   8    -0.191697399884E+03   -0.13552E-04   -0.10876E-04  6640   0.737E-02
  38 F= -.19169740E+03 E0= -.19159529E+03  d E =-.197095E-01
       N       E                     dE             d eps       ncg     rms          rms(c)
DAV:   1    -0.191747672869E+03   -0.50287E-01   -0.53289E+00  8160   0.494E+00    0.492E-01
DAV:   2    -0.191757149720E+03   -0.94769E-02   -0.14372E-01 12240   0.111E+00    0.506E-01
DAV:   3    -0.191760368759E+03   -0.32190E-02   -0.25290E-02 12280   0.112E+00    0.802E-01
DAV:   4    -0.191754058980E+03    0.63098E-02   -0.12493E-02 11360   0.817E-01    0.241E-01
DAV:   5    -0.191753509177E+03    0.54980E-03   -0.32058E-03 11240   0.323E-01    0.204E-01
DAV:   6    -0.191753773329E+03   -0.26415E-03   -0.30755E-03 12880   0.424E-01    0.245E-01
DAV:   7    -0.191753069906E+03    0.70342E-03   -0.12920E-03 10000   0.261E-01    0.853E-02
DAV:   8    -0.191753013540E+03    0.56365E-04   -0.27496E-04  7800   0.120E-01
  39 F= -.19175301E+03 E0= -.19165341E+03  d E =-.556137E-01
       N       E                     dE             d eps       ncg     rms          rms(c)
DAV:   1    -0.191813318415E+03   -0.60249E-01   -0.10516E+01  8160   0.687E+00    0.673E-01
DAV:   2    -0.191835718057E+03   -0.22400E-01   -0.30905E-01 12120   0.164E+00    0.674E-01
DAV:   3    -0.191840984755E+03   -0.52667E-02   -0.48114E-02 12600   0.153E+00    0.107E+00
DAV:   4    -0.191829733562E+03    0.11251E-01   -0.22253E-02 12240   0.112E+00    0.314E-01
DAV:   5    -0.191828723284E+03    0.10103E-02   -0.51477E-03 11400   0.417E-01    0.266E-01
DAV:   6    -0.191829384090E+03   -0.66081E-03   -0.58103E-03 12520   0.579E-01    0.350E-01
DAV:   7    -0.191828104665E+03    0.12794E-02   -0.27091E-03 10960   0.390E-01    0.140E-01
DAV:   8    -0.191827911219E+03    0.19345E-03   -0.57097E-04  8640   0.185E-01    0.560E-02
DAV:   9    -0.191827885654E+03    0.25566E-04   -0.11616E-04  6840   0.703E-02
  40 F= -.19182789E+03 E0= -.19173103E+03  d E =-.748721E-01
       N       E                     dE             d eps       ncg     rms          rms(c)
DAV:   1    -0.191865176792E+03   -0.37266E-01   -0.52246E+00  8160   0.487E+00    0.542E-01
DAV:   2    -0.191884464286E+03   -0.19287E-01   -0.19538E-01 11880   0.161E+00    0.950E-01
DAV:   3    -0.191879198202E+03    0.52661E-02   -0.37392E-02 12320   0.144E+00    0.657E-01
DAV:   4    -0.191874799340E+03    0.43989E-02   -0.11069E-02 12240   0.719E-01    0.300E-01
DAV:   5    -0.191874311882E+03    0.48746E-03   -0.45682E-03 11280   0.513E-01    0.291E-01
DAV:   6    -0.191873639025E+03    0.67286E-03   -0.35166E-03 12400   0.428E-01    0.158E-01
DAV:   7    -0.191873425796E+03    0.21323E-03   -0.12197E-03 10480   0.212E-01    0.122E-01
DAV:   8    -0.191873263870E+03    0.16193E-03   -0.45328E-04  9200   0.159E-01    0.491E-02
DAV:   9    -0.191873240555E+03    0.23315E-04   -0.78257E-05  6320   0.595E-02
  41 F= -.19187324E+03 E0= -.19177763E+03  d E =-.453549E-01
       N       E                     dE             d eps       ncg     rms          rms(c)
DAV:   1    -0.191862981606E+03    0.10282E-01   -0.36861E+01  8160   0.128E+01    0.127E+00
DAV:   2    -0.191967586385E+03   -0.10460E+00   -0.12531E+00 11200   0.341E+00    0.152E+00
DAV:   3    -0.191975400250E+03   -0.78139E-02   -0.18243E-01 12520   0.315E+00    0.186E+00
DAV:   4    -0.191937609869E+03    0.37790E-01   -0.66520E-02 12360   0.197E+00    0.512E-01
DAV:   5    -0.191933887084E+03    0.37228E-02   -0.16232E-02 11560   0.571E-01    0.365E-01
DAV:   6    -0.191937425844E+03   -0.35388E-02   -0.17855E-02 12680   0.970E-01    0.681E-01
DAV:   7    -0.191932042292E+03    0.53836E-02   -0.93147E-03 12720   0.777E-01    0.143E-01
DAV:   8    -0.191931800550E+03    0.24174E-03   -0.11117E-03 10280   0.188E-01    0.849E-02
DAV:   9    -0.191931782229E+03    0.18321E-04   -0.40211E-04 10520   0.161E-01
  42 F= -.19193178E+03 E0= -.19183767E+03  d E =-.585417E-01
       N       E                     dE             d eps       ncg     rms          rms(c)
DAV:   1    -0.191929866447E+03    0.19341E-02   -0.40031E+00  8160   0.424E+00    0.388E-01
DAV:   2    -0.191936034574E+03   -0.61681E-02   -0.85731E-02 11440   0.967E-01    0.455E-01
DAV:   3    -0.191935732552E+03    0.30202E-03   -0.14522E-02 11880   0.902E-01    0.471E-01
DAV:   4    -0.191933411586E+03    0.23210E-02   -0.57234E-03 11760   0.572E-01    0.235E-01
DAV:   5    -0.191933374742E+03    0.36845E-04   -0.28854E-03 10120   0.415E-01    0.264E-01
DAV:   6    -0.191932721879E+03    0.65286E-03   -0.17024E-03 11160   0.330E-01    0.107E-01
DAV:   7    -0.191932703974E+03    0.17905E-04   -0.64172E-04  9960   0.182E-01
  43 F= -.19193270E+03 E0= -.19183937E+03  d E =-.921745E-03
       N       E                     dE             d eps       ncg     rms          rms(c)
DAV:   1    -0.191939351473E+03   -0.66296E-02   -0.82100E-01  8160   0.192E+00    0.206E-01
DAV:   2    -0.191942082639E+03   -0.27312E-02   -0.29671E-02 12440   0.609E-01    0.313E-01
DAV:   3    -0.191941590267E+03    0.49237E-03   -0.48393E-03 12480   0.531E-01    0.257E-01
DAV:   4    -0.191940900604E+03    0.68966E-03   -0.15727E-03 10000   0.284E-01    0.104E-01
DAV:   5    -0.191940878432E+03    0.22172E-04   -0.65551E-04 10040   0.189E-01
  44 F= -.19194088E+03 E0= -.19184839E+03  d E =-.817446E-02
       N       E                     dE             d eps       ncg     rms          rms(c)
DAV:   1    -0.191941044685E+03   -0.14408E-03   -0.10924E-03 11240   0.177E-01    0.701E-02
DAV:   2    -0.191941894749E+03   -0.85006E-03   -0.17606E-03 11240   0.337E-01    0.274E-01
DAV:   3    -0.191940979929E+03    0.91482E-03   -0.12685E-03  9840   0.295E-01    0.396E-02
DAV:   4    -0.191940976957E+03    0.29715E-05   -0.69690E-05  5720   0.506E-02
  45 F= -.19194098E+03 E0= -.19184860E+03  d E =-.985254E-04
       N       E                     dE             d eps       ncg     rms          rms(c)
DAV:   1    -0.191946452097E+03   -0.54722E-02   -0.51949E-01  8160   0.152E+00    0.157E-01
DAV:   2    -0.191947728099E+03   -0.12760E-02   -0.15902E-02 12320   0.420E-01    0.184E-01
DAV:   3    -0.191947907814E+03   -0.17972E-03   -0.26443E-03 12400   0.382E-01    0.231E-01
DAV:   4    -0.191947338504E+03    0.56931E-03   -0.99262E-04  9480   0.238E-01    0.618E-02
DAV:   5    -0.191947361575E+03   -0.23071E-04   -0.26674E-04  7200   0.934E-02
  46 F= -.19194736E+03 E0= -.19185648E+03  d E =-.638462E-02
       N       E                     dE             d eps       ncg     rms          rms(c)
DAV:   1    -0.191948267071E+03   -0.92857E-03   -0.10472E-02  9160   0.303E-01    0.950E-02
DAV:   2    -0.191949328753E+03   -0.10617E-02   -0.27172E-03 12320   0.410E-01    0.315E-01
DAV:   3    -0.191948107605E+03    0.12211E-02   -0.17095E-03 10120   0.356E-01    0.492E-02
DAV:   4    -0.191948117763E+03   -0.10158E-04   -0.11358E-04  6000   0.729E-02
  47 F= -.19194812E+03 E0= -.19185716E+03  d E =-.756188E-03
       N       E                     dE             d eps       ncg     rms          rms(c)
DAV:   1    -0.191953258250E+03   -0.51506E-02   -0.42754E-01  8160   0.138E+00    0.153E-01
DAV:   2    -0.191954808457E+03   -0.15502E-02   -0.13364E-02 13600   0.456E-01    0.269E-01
DAV:   3    -0.191954096015E+03    0.71244E-03   -0.21665E-03 12080   0.402E-01    0.136E-01
DAV:   4    -0.191953988823E+03    0.10719E-03   -0.59679E-04  8800   0.176E-01    0.108E-01
DAV:   5    -0.191953911286E+03    0.77536E-04   -0.40885E-04  8320   0.165E-01
  48 F= -.19195391E+03 E0= -.19186440E+03  d E =-.579352E-02
       N       E                     dE             d eps       ncg     rms          rms(c)
DAV:   1    -0.191957977500E+03   -0.39887E-02   -0.22774E-01  8160   0.102E+00    0.130E-01
DAV:   2    -0.191958629038E+03   -0.65154E-03   -0.72064E-03 13600   0.357E-01    0.208E-01
DAV:   3    -0.191958269105E+03    0.35993E-03   -0.14200E-03 11040   0.313E-01    0.120E-01
DAV:   4    -0.191958194608E+03    0.74497E-04   -0.47435E-04  8920   0.169E-01
  49 F= -.19195819E+03 E0= -.19186955E+03  d E =-.428332E-02
       N       E                     dE             d eps       ncg     rms          rms(c)
DAV:   1    -0.191959669816E+03   -0.14007E-02   -0.50281E-02  8200   0.500E-01    0.705E-02
DAV:   2    -0.191959789281E+03   -0.11946E-03   -0.15701E-03 13600   0.140E-01    0.898E-02
DAV:   3    -0.191959755641E+03    0.33640E-04   -0.44362E-04  9680   0.168E-01
  50 F= -.19195976E+03 E0= -.19187146E+03  d E =-.156103E-02
       N       E                     dE             d eps       ncg     rms          rms(c)
DAV:   1    -0.191965284671E+03   -0.54954E-02   -0.43138E-01  8160   0.139E+00    0.149E-01
DAV:   2    -0.191966102708E+03   -0.81804E-03   -0.11611E-02 12800   0.357E-01    0.150E-01
DAV:   3    -0.191966161150E+03   -0.58443E-04   -0.17617E-03 11760   0.309E-01    0.182E-01
DAV:   4    -0.191965871306E+03    0.28984E-03   -0.88420E-04  9360   0.241E-01    0.958E-02
DAV:   5    -0.191965836845E+03    0.34461E-04   -0.40089E-04  8640   0.141E-01
  51 F= -.19196584E+03 E0= -.19187917E+03  d E =-.608120E-02
       N       E                     dE             d eps       ncg     rms          rms(c)
DAV:   1    -0.191961855063E+03    0.40162E-02   -0.17314E-01  8160   0.900E-01    0.117E-01
DAV:   2    -0.191963371409E+03   -0.15163E-02   -0.66634E-03 13520   0.428E-01    0.330E-01
DAV:   3    -0.191962087726E+03    0.12837E-02   -0.24247E-03 10520   0.397E-01    0.986E-02
DAV:   4    -0.191962028401E+03    0.59325E-04   -0.38508E-04  8400   0.127E-01
  52 F= -.19196203E+03 E0= -.19187422E+03  d E =0.380844E-02
       N       E                     dE             d eps       ncg     rms          rms(c)
DAV:   1    -0.191966261458E+03   -0.41737E-02   -0.27427E-01  8160   0.111E+00    0.141E-01
DAV:   2    -0.191967722191E+03   -0.14607E-02   -0.10637E-02 13400   0.514E-01    0.315E-01
DAV:   3    -0.191966646753E+03    0.10754E-02   -0.22885E-03 11320   0.404E-01    0.101E-01
DAV:   4    -0.191966660058E+03   -0.13305E-04   -0.56172E-04  8800   0.181E-01
  53 F= -.19196666E+03 E0= -.19187970E+03  d E =-.463166E-02
       N       E                     dE             d eps       ncg     rms          rms(c)
DAV:   1    -0.191968859649E+03   -0.22129E-02   -0.62307E-02  8160   0.553E-01    0.889E-02
DAV:   2    -0.191969446753E+03   -0.58710E-03   -0.24928E-03 12680   0.306E-01    0.232E-01
DAV:   3    -0.191968829121E+03    0.61763E-03   -0.11556E-03  9960   0.277E-01    0.629E-02
DAV:   4    -0.191968866800E+03   -0.37679E-04   -0.24760E-04  7400   0.114E-01
  54 F= -.19196887E+03 E0= -.19188255E+03  d E =-.220674E-02
       N       E                     dE             d eps       ncg     rms          rms(c)
DAV:   1    -0.191977571723E+03   -0.87426E-02   -0.91737E-01  8160   0.205E+00    0.241E-01
DAV:   2    -0.191978986852E+03   -0.14151E-02   -0.24224E-02 12360   0.475E-01    0.259E-01
DAV:   3    -0.191979319144E+03   -0.33229E-03   -0.54401E-03 12040   0.561E-01    0.349E-01
DAV:   4    -0.191978087322E+03    0.12318E-02   -0.24928E-03 11040   0.380E-01    0.112E-01
DAV:   5    -0.191978042642E+03    0.44680E-04   -0.82671E-04 10000   0.196E-01
  55 F= -.19197804E+03 E0= -.19189404E+03  d E =-.917584E-02
       N       E                     dE             d eps       ncg     rms          rms(c)
DAV:   1    -0.191980051501E+03   -0.19642E-02   -0.40537E-02  8160   0.460E-01    0.129E-01
DAV:   2    -0.191982431576E+03   -0.23801E-02   -0.51226E-03 12000   0.610E-01    0.448E-01
DAV:   3    -0.191979853868E+03    0.25777E-02   -0.27654E-03 10360   0.491E-01    0.511E-02
DAV:   4    -0.191979927426E+03   -0.73558E-04   -0.27814E-04  7760   0.124E-01
  56 F= -.19197993E+03 E0= -.19189624E+03  d E =-.188478E-02
       N       E                     dE             d eps       ncg     rms          rms(c)
DAV:   1    -0.191972622939E+03    0.72309E-02   -0.54981E-01  8160   0.156E+00    0.184E-01
DAV:   2    -0.191976287445E+03   -0.36645E-02   -0.15454E-02 13560   0.742E-01    0.503E-01
DAV:   3    -0.191973066654E+03    0.32208E-02   -0.45898E-03 11800   0.606E-01    0.110E-01
DAV:   4    -0.191973158928E+03   -0.92274E-04   -0.92423E-04  9120   0.206E-01
  57 F= -.19197316E+03 E0= -.19188807E+03  d E =0.676850E-02
       N       E                     dE             d eps       ncg     rms          rms(c)
DAV:   1    -0.191968326906E+03    0.47397E-02   -0.40950E-01  8160   0.135E+00    0.169E-01
DAV:   2    -0.191969651070E+03   -0.13242E-02   -0.11627E-02 13560   0.475E-01    0.302E-01
DAV:   3    -0.191968821642E+03    0.82943E-03   -0.41823E-03 12120   0.456E-01    0.189E-01
DAV:   4    -0.191968496112E+03    0.32553E-03   -0.10645E-03 10000   0.232E-01    0.946E-02
DAV:   5    -0.191968427928E+03    0.68184E-04   -0.34538E-04  8800   0.126E-01
  58 F= -.19196843E+03 E0= -.19188254E+03  d E =0.473100E-02
       N       E                     dE             d eps       ncg     rms          rms(c)
DAV:   1    -0.191946646705E+03    0.21849E-01   -0.71645E+00  8160   0.562E+00    0.630E-01
DAV:   2    -0.191976682557E+03   -0.30036E-01   -0.16894E-01 13480   0.230E+00    0.139E+00
DAV:   3    -0.191951943294E+03    0.24739E-01   -0.38935E-02 12240   0.177E+00    0.360E-01
DAV:   4    -0.191951932953E+03    0.10341E-04   -0.81037E-03 11440   0.523E-01    0.377E-01
DAV:   5    -0.191951388711E+03    0.54424E-03   -0.74945E-03 12480   0.659E-01    0.368E-01
DAV:   6    -0.191950223506E+03    0.11652E-02   -0.37099E-03 11960   0.440E-01    0.126E-01
DAV:   7    -0.191949985970E+03    0.23754E-03   -0.74781E-04 10080   0.134E-01    0.481E-02
DAV:   8    -0.191949981960E+03    0.40095E-05   -0.12827E-04  7600   0.924E-02
  59 F= -.19194998E+03 E0= -.19185963E+03  d E =0.184460E-01
       N       E                     dE             d eps       ncg     rms          rms(c)
DAV:   1    -0.191965343124E+03   -0.15357E-01   -0.72068E+00  8160   0.564E+00    0.622E-01
DAV:   2    -0.191994136436E+03   -0.28793E-01   -0.17808E-01 13560   0.231E+00    0.138E+00
DAV:   3    -0.191971971061E+03    0.22165E-01   -0.40597E-02 12240   0.180E+00    0.380E-01
DAV:   4    -0.191970981187E+03    0.98987E-03   -0.76274E-03 12160   0.500E-01    0.315E-01
DAV:   5    -0.191970765649E+03    0.21554E-03   -0.59722E-03 12120   0.600E-01    0.356E-01
DAV:   6    -0.191969752131E+03    0.10135E-02   -0.36857E-03 12320   0.494E-01    0.157E-01
DAV:   7    -0.191969385380E+03    0.36675E-03   -0.78912E-04 10720   0.160E-01    0.367E-02
DAV:   8    -0.191969393885E+03   -0.85050E-05   -0.12249E-04  7960   0.735E-02
  60 F= -.19196939E+03 E0= -.19188385E+03  d E =-.194119E-01
       N       E                     dE             d eps       ncg     rms          rms(c)
DAV:   1    -0.191968909170E+03    0.47621E-03   -0.52818E-02  8160   0.490E-01    0.590E-02
DAV:   2    -0.191969206213E+03   -0.29704E-03   -0.17767E-03 13360   0.201E-01    0.134E-01
DAV:   3    -0.191968982174E+03    0.22404E-03   -0.44802E-04  9200   0.178E-01    0.490E-02
DAV:   4    -0.191968970346E+03    0.11828E-04   -0.97910E-05  5800   0.699E-02
  61 F= -.19196897E+03 E0= -.19188348E+03  d E =0.423540E-03
       N       E                     dE             d eps       ncg     rms          rms(c)
DAV:   1    -0.191973465767E+03   -0.44836E-02   -0.42684E-01  8160   0.139E+00    0.148E-01
DAV:   2    -0.191974449562E+03   -0.98380E-03   -0.13170E-02 11960   0.361E-01    0.152E-01
DAV:   3    -0.191974442441E+03    0.71207E-05   -0.14745E-03 12360   0.314E-01    0.166E-01
DAV:   4    -0.191974139024E+03    0.30342E-03   -0.56432E-04  9400   0.207E-01    0.695E-02
DAV:   5    -0.191974135711E+03    0.33132E-05   -0.29381E-04  7840   0.121E-01
  62 F= -.19197414E+03 E0= -.19189000E+03  d E =-.516537E-02
       N       E                     dE             d eps       ncg     rms          rms(c)
DAV:   1    -0.191974774027E+03   -0.63500E-03   -0.11740E-01  8160   0.751E-01    0.118E-01
DAV:   2    -0.191976370151E+03   -0.15961E-02   -0.57438E-03 12920   0.452E-01    0.350E-01
DAV:   3    -0.191974881126E+03    0.14890E-02   -0.24235E-03 11200   0.423E-01    0.868E-02
DAV:   4    -0.191974853461E+03    0.27665E-04   -0.35108E-04  8200   0.123E-01
  63 F= -.19197485E+03 E0= -.19189079E+03  d E =-.717750E-03
       N       E                     dE             d eps       ncg     rms          rms(c)
DAV:   1    -0.191979495301E+03   -0.46142E-02   -0.51757E-01  8160   0.155E+00    0.182E-01
DAV:   2    -0.191981121237E+03   -0.16259E-02   -0.19559E-02 12920   0.483E-01    0.248E-01
DAV:   3    -0.191980926435E+03    0.19480E-03   -0.32155E-03 12080   0.461E-01    0.222E-01
DAV:   4    -0.191980364413E+03    0.56202E-03   -0.10880E-03  9240   0.248E-01    0.798E-02
DAV:   5    -0.191980420867E+03   -0.56453E-04   -0.50051E-04  8840   0.177E-01
  64 F= -.19198042E+03 E0= -.19189767E+03  d E =-.556741E-02
       N       E                     dE             d eps       ncg     rms          rms(c)
DAV:   1    -0.191984049844E+03   -0.36854E-02   -0.27309E-01  8160   0.112E+00    0.125E-01
DAV:   2    -0.191984746163E+03   -0.69632E-03   -0.58622E-03 12840   0.326E-01    0.216E-01
DAV:   3    -0.191984234561E+03    0.51160E-03   -0.15649E-03 11000   0.335E-01    0.115E-01
DAV:   4    -0.191984155717E+03    0.78843E-04   -0.42583E-04  8280   0.149E-01
  65 F= -.19198416E+03 E0= -.19190210E+03  d E =-.373485E-02
       N       E                     dE             d eps       ncg     rms          rms(c)
DAV:   1    -0.191987486524E+03   -0.32520E-02   -0.22337E-01  8160   0.104E+00    0.135E-01
DAV:   2    -0.191987911685E+03   -0.42516E-03   -0.79813E-03 12200   0.264E-01    0.137E-01
DAV:   3    -0.191988089354E+03   -0.17767E-03   -0.15486E-03 11000   0.303E-01    0.199E-01
DAV:   4    -0.191987660006E+03    0.42935E-03   -0.77693E-04  8920   0.220E-01    0.561E-02
DAV:   5    -0.191987649468E+03    0.10538E-04   -0.21320E-04  6320   0.887E-02
  66 F= -.19198765E+03 E0= -.19190614E+03  d E =-.349375E-02
       N       E                     dE             d eps       ncg     rms          rms(c)
DAV:   1    -0.191993666341E+03   -0.60063E-02   -0.42828E-01  8160   0.140E+00    0.195E-01
DAV:   2    -0.191993982995E+03   -0.31665E-03   -0.10111E-02 11960   0.411E-01    0.253E-01
DAV:   3    -0.191993801612E+03    0.18138E-03   -0.37131E-03 12280   0.492E-01    0.252E-01
DAV:   4    -0.191993098471E+03    0.70314E-03   -0.15431E-03  9600   0.291E-01    0.798E-02
DAV:   5    -0.191993127432E+03   -0.28961E-04   -0.65232E-04  8480   0.167E-01
  67 F= -.19199313E+03 E0= -.19191278E+03  d E =-.547796E-02
       N       E                     dE             d eps       ncg     rms          rms(c)
DAV:   1    -0.191996839648E+03   -0.37412E-02   -0.14656E-01  8160   0.829E-01    0.111E-01
DAV:   2    -0.191997681136E+03   -0.84149E-03   -0.51926E-03 13520   0.360E-01    0.248E-01
DAV:   3    -0.191996968529E+03    0.71261E-03   -0.13435E-03 10240   0.316E-01    0.804E-02
DAV:   4    -0.191996983820E+03   -0.15291E-04   -0.34982E-04  8520   0.137E-01
  68 F= -.19199698E+03 E0= -.19191715E+03  d E =-.385639E-02
       N       E                     dE             d eps       ncg     rms          rms(c)
DAV:   1    -0.191997870358E+03   -0.90183E-03   -0.61756E-02  8160   0.544E-01    0.702E-02
DAV:   2    -0.191998235206E+03   -0.36485E-03   -0.25506E-03 12240   0.208E-01    0.135E-01
DAV:   3    -0.191997998522E+03    0.23668E-03   -0.54550E-04 10040   0.198E-01    0.607E-02
DAV:   4    -0.191997970465E+03    0.28057E-04   -0.97478E-05  5680   0.774E-02
  69 F= -.19199797E+03 E0= -.19191797E+03  d E =-.986645E-03
       N       E                     dE             d eps       ncg     rms          rms(c)
DAV:   1    -0.192007117937E+03   -0.91194E-02   -0.84579E-01  8160   0.193E+00    0.212E-01
DAV:   2    -0.192010256331E+03   -0.31384E-02   -0.19587E-02 13480   0.692E-01    0.441E-01
DAV:   3    -0.192007918693E+03    0.23376E-02   -0.46054E-03 12200   0.609E-01    0.153E-01
DAV:   4    -0.192007832096E+03    0.86597E-04   -0.10293E-03  9880   0.208E-01    0.126E-01
DAV:   5    -0.192007788657E+03    0.43439E-04   -0.79815E-04  9760   0.230E-01
  70 F= -.19200779E+03 E0= -.19192911E+03  d E =-.981819E-02
       N       E                     dE             d eps       ncg     rms          rms(c)
DAV:   1    -0.192002181162E+03    0.56509E-02   -0.24620E-01  8160   0.106E+00    0.130E-01
DAV:   2    -0.192003846250E+03   -0.16651E-02   -0.87690E-03 12920   0.481E-01    0.342E-01
DAV:   3    -0.192002495342E+03    0.13509E-02   -0.26716E-03 10640   0.424E-01    0.109E-01
DAV:   4    -0.192002384575E+03    0.11077E-03   -0.50408E-04  8280   0.144E-01    0.616E-02
DAV:   5    -0.192002372125E+03    0.12450E-04   -0.18066E-04  7040   0.117E-01
  71 F= -.19200237E+03 E0= -.19192324E+03  d E =0.541653E-02
       N       E                     dE             d eps       ncg     rms          rms(c)
DAV:   1    -0.192001964632E+03    0.41994E-03   -0.15165E-01  8160   0.878E-01    0.216E-01
DAV:   2    -0.192003362273E+03   -0.13976E-02   -0.11999E-02 11960   0.605E-01    0.454E-01
DAV:   3    -0.192001256304E+03    0.21060E-02   -0.53224E-03 11240   0.590E-01    0.173E-01
DAV:   4    -0.192000913767E+03    0.34254E-03   -0.12157E-03  9840   0.233E-01    0.105E-01
DAV:   5    -0.192000890917E+03    0.22850E-04   -0.66333E-04  9840   0.209E-01
  72 F= -.19200089E+03 E0= -.19192231E+03  d E =0.148121E-02
       N       E                     dE             d eps       ncg     rms          rms(c)
DAV:   1    -0.191988736641E+03    0.12177E-01   -0.95588E-01  8160   0.208E+00    0.285E-01
DAV:   2    -0.191996173226E+03   -0.74366E-02   -0.40128E-02 12920   0.111E+00    0.753E-01
DAV:   3    -0.191989819123E+03    0.63541E-02   -0.11522E-02 12160   0.888E-01    0.187E-01
DAV:   4    -0.191989716143E+03    0.10298E-03   -0.17591E-03 10640   0.303E-01    0.181E-01
DAV:   5    -0.191989409519E+03    0.30662E-03   -0.98922E-04 10600   0.286E-01    0.112E-01
DAV:   6    -0.191989316818E+03    0.92701E-04   -0.56474E-04 10320   0.156E-01
  73 F= -.19198932E+03 E0= -.19190981E+03  d E =0.115741E-01
       N       E                     dE             d eps       ncg     rms          rms(c)
DAV:   1    -0.192013304504E+03   -0.23895E-01   -0.54192E+00  8160   0.493E+00    0.591E-01
DAV:   2    -0.192044758531E+03   -0.31454E-01   -0.17457E-01 13560   0.221E+00    0.156E+00
DAV:   3    -0.192020020102E+03    0.24738E-01   -0.54772E-02 12240   0.189E+00    0.437E-01
DAV:   4    -0.192019051506E+03    0.96860E-03   -0.92743E-03 12240   0.669E-01    0.395E-01
DAV:   5    -0.192017765320E+03    0.12862E-02   -0.56972E-03 11840   0.642E-01    0.289E-01
DAV:   6    -0.192017016463E+03    0.74886E-03   -0.31081E-03 11360   0.388E-01    0.149E-01
DAV:   7    -0.192017137865E+03   -0.12140E-03   -0.13671E-03 11520   0.318E-01    0.188E-01
DAV:   8    -0.192016681521E+03    0.45634E-03   -0.55977E-04  8760   0.207E-01    0.231E-02
DAV:   9    -0.192016684141E+03   -0.26203E-05   -0.52309E-05  5880   0.283E-02
  74 F= -.19201668E+03 E0= -.19193917E+03  d E =-.273673E-01
       N       E                     dE             d eps       ncg     rms          rms(c)
DAV:   1    -0.192031251601E+03   -0.14570E-01   -0.18677E+00  8160   0.288E+00    0.302E-01
DAV:   2    -0.192037610864E+03   -0.63593E-02   -0.46877E-02 13000   0.102E+00    0.615E-01
DAV:   3    -0.192033661270E+03    0.39496E-02   -0.10471E-02 11880   0.850E-01    0.256E-01
DAV:   4    -0.192033395712E+03    0.26556E-03   -0.28296E-03 11920   0.375E-01    0.222E-01
DAV:   5    -0.192033008808E+03    0.38690E-03   -0.16885E-03 10480   0.348E-01    0.151E-01
DAV:   6    -0.192032801720E+03    0.20709E-03   -0.76259E-04 10240   0.190E-01    0.602E-02
DAV:   7    -0.192032754998E+03    0.46722E-04   -0.16017E-04  6720   0.741E-02
  75 F= -.19203275E+03 E0= -.19195619E+03  d E =-.160709E-01
       N       E                     dE             d eps       ncg     rms          rms(c)
DAV:   1    -0.192037257161E+03   -0.44554E-02   -0.15728E-01  8160   0.834E-01    0.892E-02
DAV:   2    -0.192037768557E+03   -0.51140E-03   -0.37478E-03 13160   0.274E-01    0.173E-01
DAV:   3    -0.192037439227E+03    0.32933E-03   -0.87166E-04 10440   0.253E-01    0.780E-02
DAV:   4    -0.192037409609E+03    0.29617E-04   -0.21239E-04  7000   0.105E-01
  76 F= -.19203741E+03 E0= -.19196102E+03  d E =-.465461E-02
       N       E                     dE             d eps       ncg     rms          rms(c)
DAV:   1    -0.192018459509E+03    0.18980E-01   -0.23357E+00  8160   0.320E+00    0.327E-01
DAV:   2    -0.192026854195E+03   -0.83947E-02   -0.52072E-02 12440   0.114E+00    0.698E-01
DAV:   3    -0.192020491191E+03    0.63630E-02   -0.11923E-02 12200   0.956E-01    0.215E-01
DAV:   4    -0.192020216603E+03    0.27459E-03   -0.21074E-03 11400   0.292E-01    0.171E-01
DAV:   5    -0.192020163097E+03    0.53506E-04   -0.14796E-03 11560   0.303E-01    0.183E-01
DAV:   6    -0.192019864443E+03    0.29865E-03   -0.10765E-03 10440   0.244E-01    0.767E-02
DAV:   7    -0.192019800973E+03    0.63469E-04   -0.21012E-04  6600   0.791E-02
  77 F= -.19201980E+03 E0= -.19194261E+03  d E =0.176086E-01
       N       E                     dE             d eps       ncg     rms          rms(c)
DAV:   1    -0.192002114089E+03    0.17750E-01   -0.22324E+00  8160   0.314E+00    0.313E-01
DAV:   2    -0.192007534931E+03   -0.54208E-02   -0.47994E-02 12080   0.830E-01    0.498E-01
DAV:   3    -0.192004830877E+03    0.27041E-02   -0.94066E-03 12240   0.812E-01    0.283E-01
DAV:   4    -0.192004034246E+03    0.79663E-03   -0.20817E-03 11560   0.334E-01    0.128E-01
DAV:   5    -0.192003965918E+03    0.68328E-04   -0.93581E-04 11440   0.216E-01
  78 F= -.19200397E+03 E0= -.19192562E+03  d E =0.158351E-01
       N       E                     dE             d eps       ncg     rms          rms(c)
DAV:   1    -0.192004055685E+03   -0.21439E-04   -0.15016E-01  8160   0.849E-01    0.114E-01
DAV:   2    -0.192005594709E+03   -0.15390E-02   -0.69036E-03 13600   0.451E-01    0.321E-01
DAV:   3    -0.192004327127E+03    0.12676E-02   -0.21416E-03 11160   0.386E-01    0.766E-02
DAV:   4    -0.192004329355E+03   -0.22288E-05   -0.26060E-04  7440   0.120E-01
  79 F= -.19200433E+03 E0= -.19192645E+03  d E =-.363438E-03
       N       E                     dE             d eps       ncg     rms          rms(c)
DAV:   1    -0.192013609793E+03   -0.92827E-02   -0.85134E-01  8160   0.193E+00    0.212E-01
DAV:   2    -0.192017497165E+03   -0.38874E-02   -0.20315E-02 12880   0.772E-01    0.504E-01
DAV:   3    -0.192014280688E+03    0.32165E-02   -0.55121E-03 12120   0.666E-01    0.139E-01
DAV:   4    -0.192014172053E+03    0.10863E-03   -0.88907E-04  9680   0.192E-01    0.110E-01
DAV:   5    -0.192014142244E+03    0.29809E-04   -0.52720E-04  9760   0.199E-01
  80 F= -.19201414E+03 E0= -.19193682E+03  d E =-.981289E-02
       N       E                     dE             d eps       ncg     rms          rms(c)
DAV:   1    -0.191980351784E+03    0.33820E-01   -0.81508E+00  8160   0.598E+00    0.613E-01
DAV:   2    -0.192010308247E+03   -0.29956E-01   -0.18761E-01 12160   0.213E+00    0.132E+00
DAV:   3    -0.191989070448E+03    0.21238E-01   -0.43282E-02 12160   0.180E+00    0.478E-01
DAV:   4    -0.191987847529E+03    0.12229E-02   -0.93332E-03 12200   0.692E-01    0.383E-01
DAV:   5    -0.191986888361E+03    0.95917E-03   -0.53375E-03 11240   0.623E-01    0.305E-01
DAV:   6    -0.191985998411E+03    0.88995E-03   -0.28772E-03 12280   0.409E-01    0.145E-01
DAV:   7    -0.191986288100E+03   -0.28969E-03   -0.16333E-03  9960   0.314E-01    0.214E-01
DAV:   8    -0.191985740717E+03    0.54738E-03   -0.82554E-04  9360   0.235E-01    0.294E-02
DAV:   9    -0.191985742793E+03   -0.20757E-05   -0.51283E-05  6240   0.329E-02
  81 F= -.19198574E+03 E0= -.19190652E+03  d E =0.283995E-01
       N       E                     dE             d eps       ncg     rms          rms(c)
DAV:   1    -0.191953652030E+03    0.32089E-01   -0.13247E+01  8160   0.761E+00    0.748E-01
DAV:   2    -0.191991106890E+03   -0.37455E-01   -0.26741E-01 12280   0.231E+00    0.141E+00
DAV:   3    -0.191967794235E+03    0.23313E-01   -0.55552E-02 11880   0.202E+00    0.632E-01
DAV:   4    -0.191966165186E+03    0.16290E-02   -0.16255E-02 12440   0.884E-01    0.521E-01
DAV:   5    -0.191964381828E+03    0.17834E-02   -0.10237E-02 12320   0.835E-01    0.403E-01
DAV:   6    -0.191962885438E+03    0.14964E-02   -0.49550E-03 12680   0.521E-01    0.179E-01
DAV:   7    -0.191963096660E+03   -0.21122E-03   -0.21374E-03 11360   0.356E-01    0.229E-01
DAV:   8    -0.191962460121E+03    0.63654E-03   -0.98776E-04  9280   0.264E-01    0.375E-02
DAV:   9    -0.191962457146E+03    0.29757E-05   -0.74382E-05  6680   0.423E-02
  82 F= -.19196246E+03 E0= -.19187946E+03  d E =0.232856E-01
       N       E                     dE             d eps       ncg     rms          rms(c)
DAV:   1    -0.191964709873E+03   -0.22498E-02   -0.21581E-01  8160   0.102E+00    0.203E-01
DAV:   2    -0.191967660935E+03   -0.29511E-02   -0.15766E-02 11600   0.732E-01    0.520E-01
DAV:   3    -0.191964587064E+03    0.30739E-02   -0.57395E-03 11680   0.642E-01    0.129E-01
DAV:   4    -0.191964356115E+03    0.23095E-03   -0.79589E-04 10160   0.163E-01    0.761E-02
DAV:   5    -0.191964338586E+03    0.17529E-04   -0.52378E-04 10000   0.140E-01
  83 F= -.19196434E+03 E0= -.19188057E+03  d E =-.188144E-02
       N       E                     dE             d eps       ncg     rms          rms(c)
DAV:   1    -0.191955203575E+03    0.91525E-02   -0.47562E+00  8160   0.455E+00    0.442E-01
DAV:   2    -0.191967263277E+03   -0.12060E-01   -0.88390E-02 12240   0.130E+00    0.801E-01
DAV:   3    -0.191959859584E+03    0.74037E-02   -0.18700E-02 12120   0.118E+00    0.383E-01
DAV:   4    -0.191959087186E+03    0.77240E-03   -0.53642E-03 12440   0.504E-01    0.291E-01
DAV:   5    -0.191958724259E+03    0.36293E-03   -0.36468E-03 12000   0.490E-01    0.262E-01
DAV:   6    -0.191958088806E+03    0.63545E-03   -0.19888E-03 11680   0.337E-01    0.107E-01
DAV:   7    -0.191958157511E+03   -0.68705E-04   -0.70820E-04  9000   0.204E-01
  84 F= -.19195816E+03 E0= -.19187194E+03  d E =0.618107E-02
       N       E                     dE             d eps       ncg     rms          rms(c)
DAV:   1    -0.191954009726E+03    0.40791E-02   -0.18681E+00  8160   0.286E+00    0.281E-01
DAV:   2    -0.191958280821E+03   -0.42711E-02   -0.37475E-02 12200   0.771E-01    0.447E-01
DAV:   3    -0.191956311417E+03    0.19694E-02   -0.68270E-03 12280   0.709E-01    0.266E-01
DAV:   4    -0.191955901647E+03    0.40977E-03   -0.24255E-03 11040   0.336E-01    0.192E-01
DAV:   5    -0.191955695469E+03    0.20618E-03   -0.15935E-03 10560   0.316E-01    0.160E-01
DAV:   6    -0.191955499387E+03    0.19608E-03   -0.75292E-04  9680   0.202E-01    0.659E-02
DAV:   7    -0.191955436901E+03    0.62486E-04   -0.16370E-04  6040   0.680E-02
  85 F= -.19195544E+03 E0= -.19186769E+03  d E =0.272061E-02
       N       E                     dE             d eps       ncg     rms          rms(c)
DAV:   1    -0.191956729556E+03   -0.12302E-02   -0.26174E-01  8160   0.107E+00    0.107E-01
DAV:   2    -0.191957870823E+03   -0.11413E-02   -0.59882E-03 12440   0.384E-01    0.285E-01
DAV:   3    -0.191956993322E+03    0.87750E-03   -0.17532E-03 10160   0.335E-01    0.812E-02
DAV:   4    -0.191956990148E+03    0.31738E-05   -0.28576E-04  8040   0.121E-01
  86 F= -.19195699E+03 E0= -.19186984E+03  d E =-.155325E-02
       N       E                     dE             d eps       ncg     rms          rms(c)
DAV:   1    -0.191957291053E+03   -0.29773E-03   -0.15998E-02  8160   0.282E-01    0.622E-02
DAV:   2    -0.191957616137E+03   -0.32508E-03   -0.12043E-03 11840   0.228E-01    0.163E-01
DAV:   3    -0.191957275751E+03    0.34039E-03   -0.48036E-04  8960   0.196E-01    0.371E-02
DAV:   4    -0.191957300258E+03   -0.24507E-04   -0.98260E-05  5800   0.777E-02
  87 F= -.19195730E+03 E0= -.19187034E+03  d E =-.310110E-03
