unknown system                          
           1
     8.857820    5.102974    0.000000
    -8.858977    5.104966    0.000000
     0.000000    0.000000   30.000000
   V    Mo   W    S 
   3   3   3  18
Direct configuration=     1
   0.66666669  0.00000000  0.00000000
   0.00000000  0.66666669  0.00000000
   0.33333334  0.00000000  0.00000000
   1.00000000  0.33333334  0.00000000
   0.00000000  0.00000000  0.00000000
   0.33333334  0.33333334  0.00000000
   0.33333334  0.66666669  0.00000000
   0.66666669  0.33333334  0.00000000
   0.66666669  0.66666669  0.00000000
   0.11068511  0.22244981  0.95539999
   0.22244981  0.11068511  0.04460000
   0.11068511  0.55578315  0.95539999
   0.22244981  0.44401845  0.04460000
   0.11068511  0.88911647  0.95539999
   0.22244981  0.77735180  0.04460000
   0.44401845  0.22244981  0.95539999
   0.55578315  0.11068511  0.04460000
   0.44401845  0.55578315  0.95539999
   0.55578315  0.44401845  0.04460000
   0.44401845  0.88911647  0.95539999
   0.55578315  0.77735180  0.04460000
   0.77735180  0.22244981  0.95539999
   0.88911647  0.11068511  0.04460000
   0.77735180  0.55578315  0.95539999
   0.88911647  0.44401845  0.04460000
   0.77735180  0.88911647  0.95539999
   0.88911647  0.77735180  0.04460000
unknown system                          
           1
     8.669414    4.997018    0.000000
    -8.670405    4.998722    0.000000
     0.000000    0.000000   30.000000
   V    Mo   W    S 
   3   3   3  18
Direct configuration=     2
   0.66852099  0.00104881  0.00011674
   0.00027832  0.66698109 -0.00014807
   0.33215668  0.00081917 -0.00007136
   1.00150333  0.33186508  0.00023096
   0.00147566  0.00265629 -0.00000157
   0.33050983  0.33202500  0.00002832
   0.33181899  0.66447645 -0.00008242
   0.66656944  0.33277471  0.00007539
   0.66689054  0.66691011 -0.00015225
   0.11109907  0.22210205  0.95067248
   0.22456600  0.10865390  0.04802714
   0.10955568  0.55852263  0.95200673
   0.22252783  0.44525772  0.04932061
   0.11316482  0.88651539  0.95304823
   0.22037293  0.77942855  0.04694938
   0.44311741  0.21818215  0.95196078
   0.55405624  0.10754661  0.04690951
   0.44492239  0.55625162  0.95071663
   0.55611796  0.44469914  0.04920064
   0.44588006  0.89227001  0.95320633
   0.55730002  0.78158973  0.04811093
   0.77501657  0.21813209  0.95196955
   0.88422174  0.10884695  0.04811928
   0.78150458  0.55737867  0.95182673
   0.89002672  0.44828677  0.04799291
   0.77476728  0.89014480  0.95203250
   0.89027338  0.77484895  0.04793383
unknown system                          
           1
     8.487494    4.898086    0.000000
    -8.488241    4.899369    0.000000
     0.000000    0.000000   30.000000
   V    Mo   W    S 
   3   3   3  18
Direct configuration=     3
   0.66911635  0.00139050  0.00008736
   0.00018085  0.66700141 -0.00012708
   0.33186803  0.00109315 -0.00012678
   1.00230267  0.33142028  0.00024885
   0.00200132  0.00380124  0.00000393
   0.32947813  0.33185269  0.00002964
   0.33145673  0.66345683 -0.00014133
   0.66658722  0.33293353  0.00012281
   0.66678871  0.66671063 -0.00011926
   0.11107896  0.22210372  0.95047090
   0.22460844  0.10858073  0.04812256
   0.10974258  0.55864901  0.95201212
   0.22264040  0.44546543  0.04948140
   0.11321557  0.88651756  0.95308574
   0.22048461  0.77933942  0.04684555
   0.44327993  0.21819958  0.95199099
   0.55411305  0.10771353  0.04684720
   0.44500864  0.55645308  0.95069823
   0.55632671  0.44478970  0.04913910
   0.44580542  0.89207441  0.95338573
   0.55724671  0.78146237  0.04802916
   0.77483987  0.21815780  0.95201951
   0.88409684  0.10876463  0.04823569
   0.78138909  0.55734997  0.95183557
   0.88985780  0.44825602  0.04792130
   0.77461093  0.88996057  0.95204739
   0.89008889  0.77471666  0.04785360
unknown system                          
           1
     8.290233    4.778922    0.000000
    -8.290987    4.780216    0.000000
     0.000000    0.000000   30.000000
   V    Mo   W    S 
   3   3   3  18
Direct configuration=     4
   0.67138821  0.00253889 -0.00007631
  -0.00081268  0.66669201  0.00000801
   0.33099258  0.00226101 -0.00030265
   1.00572163  0.32989187  0.00022011
   0.00374582  0.00816989  0.00003188
   0.32570391  0.33183410  0.00002312
   0.33041555  0.65918870 -0.00030531
   0.66677015  0.33420059  0.00023724
   0.66607793  0.66542621  0.00005381
   0.11097573  0.22210031  0.94809363
   0.22512154  0.10798083  0.04992150
   0.10907154  0.55881047  0.95058487
   0.22265722  0.44544481  0.05176705
   0.11365096  0.88623402  0.95192112
   0.22024959  0.77976717  0.04776123
   0.44270329  0.21729221  0.95067837
   0.55344087  0.10664097  0.04796368
   0.44495357  0.55628801  0.94897861
   0.55612037  0.44465466  0.05049889
   0.44624423  0.89278168  0.95277853
   0.55760266  0.78240155  0.04918058
   0.77445767  0.21732429  0.95080325
   0.88297819  0.10811751  0.05015320
   0.78243839  0.55792658  0.95033949
   0.89056517  0.44917869  0.04905609
   0.77426750  0.89051314  0.95068262
   0.89071287  0.77455430  0.04894729
unknown system                          
           1
     8.300715    4.778969    0.000000
    -8.302342    4.781777    0.000000
     0.000000    0.000000   30.000000
   V    Mo   W    S 
   3   3   3  18
Direct configuration=     5
   0.67569181  0.00487228 -0.00038070
  -0.00342881  0.66591309  0.00026684
   0.32969457  0.00445932 -0.00047355
   1.01225564  0.32728457  0.00010240
   0.00677480  0.01605802  0.00011798
   0.31910202  0.33257331 -0.00000011
   0.32842590  0.65100242 -0.00040768
   0.66726617  0.33700110  0.00029418
   0.66457545  0.66242452  0.00027951
   0.11100689  0.22204879  0.94466249
   0.22530582  0.10793170  0.05231579
   0.10815570  0.55793846  0.94881861
   0.22214493  0.44471736  0.05508064
   0.11369924  0.88650482  0.95027438
   0.22023239  0.77993210  0.04876706
   0.44173332  0.21692756  0.94908449
   0.55266123  0.10558220  0.04938715
   0.44465629  0.55507859  0.94656067
   0.55449066  0.44373817  0.05225976
   0.44639190  0.89275895  0.95221471
   0.55749828  0.78319779  0.05052272
   0.77511150  0.21717454  0.94943825
   0.88262200  0.10807020  0.05290279
   0.78369571  0.55864342  0.94825136
   0.89185410  0.44940933  0.05038016
   0.77473852  0.89126123  0.94907987
   0.89185846  0.77571063  0.05020013
unknown system                          
           1
     8.292738    4.773278    0.000000
    -8.295992    4.778912    0.000000
     0.000000    0.000000   30.000000
   V    Mo   W    S 
   3   3   3  18
Direct configuration=     6
   0.67729133  0.00601196 -0.00034141
  -0.00466586  0.66585675  0.00023713
   0.32932560  0.00523276 -0.00046571
   1.01239543  0.32697829  0.00012737
   0.00714453  0.01683651  0.00007503
   0.31952696  0.33323304 -0.00007653
   0.32813425  0.64919142 -0.00032623
   0.66722547  0.33803900  0.00030515
   0.66370692  0.66066326  0.00023536
   0.11131103  0.22207228  0.94433613
   0.22509475  0.10863676  0.05240004
   0.10814066  0.55706621  0.94890469
   0.22175652  0.44427994  0.05542558
   0.11321409  0.88687597  0.95030492
   0.22046513  0.77951703  0.04855497
   0.44159359  0.21770210  0.94913485
   0.55280673  0.10583770  0.04930524
   0.44455222  0.55442901  0.94633655
   0.55339849  0.44308240  0.05235372
   0.44601770  0.89176181  0.95252986
   0.55712091  0.78275942  0.05039569
   0.77617492  0.21815176  0.94955872
   0.88328725  0.10864487  0.05308124
   0.78364503  0.55878804  0.94806782
   0.89220126  0.44857498  0.05022062
   0.77538857  0.89117154  0.94923513
   0.89196098  0.77681964  0.05008397
unknown system                          
           1
     8.296979    4.775002    0.000000
    -8.300818    4.781650    0.000000
     0.000000    0.000000   30.000000
   V    Mo   W    S 
   3   3   3  18
Direct configuration=     7
   0.67938497  0.00765975 -0.00035810
  -0.00603343  0.66591778  0.00027637
   0.32872218  0.00625356 -0.00045481
   1.01321153  0.32610534  0.00007197
   0.00809150  0.01859461  0.00001752
   0.31942698  0.33399556 -0.00011117
   0.32771838  0.64669007 -0.00027909
   0.66706508  0.33931081  0.00035202
   0.66239154  0.65819426  0.00024221
   0.11156075  0.22217375  0.94399094
   0.22498862  0.10912950  0.05258887
   0.10807327  0.55645853  0.94892584
   0.22143381  0.44376627  0.05584442
   0.11286763  0.88711203  0.95025568
   0.22056169  0.77916515  0.04831980
   0.44154143  0.21818343  0.94904324
   0.55289076  0.10601582  0.04926229
   0.44453527  0.55402318  0.94596760
   0.55263458  0.44254221  0.05261288
   0.44578376  0.89105088  0.95291271
   0.55692180  0.78238693  0.05030706
   0.77688078  0.21891994  0.94959680
   0.88371935  0.10894537  0.05341043
   0.78365308  0.55891570  0.94774386
   0.89245385  0.44810922  0.05011323
   0.77581225  0.89104192  0.94935126
   0.89192306  0.77755289  0.04999607
unknown system                          
           1
     8.280257    4.767171    0.000000
    -8.281486    4.769287    0.000000
     0.000000    0.000000   30.000000
   V    Mo   W    S 
   3   3   3  18
Direct configuration=     8
   0.67989294  0.00814060 -0.00036102
  -0.00631217  0.66599535  0.00028392
   0.32860358  0.00649367 -0.00045476
   1.01311532  0.32586515  0.00007870
   0.00824157  0.01883219  0.00000873
   0.31973635  0.33418748 -0.00012017
   0.32772733  0.64634709 -0.00027166
   0.66696586  0.33954997  0.00036211
   0.66200732  0.65751470  0.00023533
   0.11166117  0.22221531  0.94400258
   0.22496807  0.10922363  0.05257421
   0.10808555  0.55638203  0.94899064
   0.22135720  0.44365413  0.05584091
   0.11280019  0.88713453  0.95028833
   0.22056968  0.77908000  0.04821845
   0.44158859  0.21825964  0.94905326
   0.55293894  0.10607996  0.04920390
   0.44456617  0.55400480  0.94593933
   0.55254290  0.44245604  0.05265441
   0.44576612  0.89092719  0.95305399
   0.55689788  0.78228712  0.05023008
   0.77697637  0.21906931  0.94964619
   0.88379090  0.10897626  0.05340418
   0.78360107  0.55889957  0.94772527
   0.89245214  0.44803479  0.05003490
   0.77585569  0.89096585  0.94945201
   0.89181772  0.77763809  0.04992610
unknown system                          
           1
     8.282770    4.766909    0.000000
    -8.284734    4.770302    0.000000
     0.000000    0.000000   30.000000
   V    Mo   W    S 
   3   3   3  18
Direct configuration=     9
   0.67791475  0.00589607 -0.00032685
  -0.00559171  0.66523180  0.00024584
   0.32926833  0.00508054 -0.00044891
   1.01325583  0.32693291  0.00010675
   0.00686715  0.01747150  0.00005611
   0.31841751  0.33363628 -0.00011232
   0.32772983  0.64780835 -0.00028899
   0.66801821  0.33889613  0.00030436
   0.66403854  0.66079821  0.00026844
   0.11121739  0.22200694  0.94396189
   0.22493312  0.10907615  0.05262608
   0.10806564  0.55665210  0.94874100
   0.22162448  0.44412034  0.05585223
   0.11279811  0.88689948  0.95016887
   0.22040499  0.77915951  0.04865209
   0.44145175  0.21833548  0.94905700
   0.55295890  0.10591754  0.04942480
   0.44436952  0.55396705  0.94612167
   0.55275578  0.44277470  0.05238092
   0.44589545  0.89116421  0.95245683
   0.55690860  0.78272572  0.05052858
   0.77667296  0.21845427  0.94952736
   0.88355675  0.10897619  0.05333003
   0.78394233  0.55907873  0.94782276
   0.89253213  0.44831041  0.05033446
   0.77577519  0.89144015  0.94902191
   0.89243289  0.77740371  0.05018699
unknown system                          
           1
     8.291950    4.769623    0.000000
    -8.295822    4.776327    0.000000
     0.000000    0.000000   30.000000
   V    Mo   W    S 
   3   3   3  18
Direct configuration=    10
   0.67876013  0.00641527 -0.00032673
  -0.00630265  0.66509599  0.00025397
   0.32907022  0.00537029 -0.00045561
   1.01349368  0.32663420  0.00010854
   0.00703367  0.01805654  0.00004142
   0.31829979  0.33391797 -0.00013548
   0.32758874  0.64685589 -0.00027128
   0.66816817  0.33952473  0.00031343
   0.66373438  0.66003528  0.00027300
   0.11130705  0.22202768  0.94376107
   0.22486713  0.10930820  0.05272555
   0.10802820  0.55641819  0.94871211
   0.22145731  0.44391276  0.05608123
   0.11261221  0.88693558  0.95013451
   0.22038643  0.77896657  0.04859232
   0.44143739  0.21858359  0.94901947
   0.55303842  0.10598626  0.04942578
   0.44438651  0.55379535  0.94595224
   0.55240604  0.44256067  0.05248445
   0.44584396  0.89085023  0.95258368
   0.55682791  0.78262713  0.05052800
   0.77695771  0.21871576  0.94952556
   0.88369463  0.10911326  0.05348315
   0.78401530  0.55918985  0.94765589
   0.89268912  0.44816816  0.05033632
   0.77593056  0.89143716  0.94901144
   0.89248244  0.77771190  0.05018586
unknown system                          
           1
     8.293791    4.771255    0.000000
    -8.297458    4.777604    0.000000
     0.000000    0.000000   30.000000
   V    Mo   W    S 
   3   3   3  18
Direct configuration=    11
   0.68105706  0.00824661 -0.00033426
  -0.00777293  0.66527237  0.00026642
   0.32842813  0.00657734 -0.00047015
   1.01361259  0.32561787  0.00005750
   0.00798723  0.01952802 -0.00003308
   0.31877219  0.33443907 -0.00016210
   0.32749174  0.64484666 -0.00023185
   0.66782553  0.34077452  0.00036819
   0.66231014  0.65734373  0.00026371
   0.11159919  0.22214611  0.94365378
   0.22476038  0.10966783  0.05268996
   0.10809810  0.55598205  0.94888758
   0.22110229  0.44340916  0.05627867
   0.11240050  0.88715854  0.95025327
   0.22046449  0.77863413  0.04819885
   0.44157917  0.21887586  0.94908134
   0.55320288  0.10627404  0.04920103
   0.44461779  0.55369976  0.94571678
   0.55193262  0.44215563  0.05266579
   0.44570629  0.89027386  0.95316106
   0.55672722  0.78217559  0.05030538
   0.77743952  0.21939889  0.94964687
   0.88397978  0.10927134  0.05367968
   0.78383238  0.55923789  0.94740767
   0.89280077  0.44783419  0.05016985
   0.77611359  0.89113551  0.94926446
   0.89214580  0.77823785  0.05001352
unknown system                          
           1
     8.312411    4.783693    0.000000
    -8.315373    4.788815    0.000000
     0.000000    0.000000   30.000000
   V    Mo   W    S 
   3   3   3  18
Direct configuration=    12
   0.68052831  0.00787834 -0.00033012
  -0.00741996  0.66529614  0.00026064
   0.32853381  0.00635935 -0.00046712
   1.01357263  0.32585871  0.00006020
   0.00788028  0.01920162 -0.00002104
   0.31873454  0.33428661 -0.00015296
   0.32750600  0.64530410 -0.00023967
   0.66781820  0.34047591  0.00035672
   0.66257632  0.65785251  0.00026315
   0.11154412  0.22212723  0.94370407
   0.22479420  0.10958054  0.05267033
   0.10808181  0.55607471  0.94886571
   0.22117339  0.44350393  0.05621859
   0.11246997  0.88712568  0.95024899
   0.22046028  0.77872586  0.04826275
   0.44155045  0.21878473  0.94908576
   0.55315187  0.10621988  0.04923273
   0.44459363  0.55374292  0.94577367
   0.55204612  0.44224204  0.05262429
   0.44571439  0.89040567  0.95305604
   0.55675889  0.78224899  0.05034114
   0.77734518  0.21928527  0.94962513
   0.88392829  0.10923716  0.05363067
   0.78385235  0.55922163  0.94746965
   0.89277017  0.44789808  0.05019485
   0.77606392  0.89115871  0.94922747
   0.89218528  0.77811814  0.05003827
unknown system                          
           1
     8.312950    4.784688    0.000000
    -8.315197    4.788566    0.000000
     0.000000    0.000000   30.000000
   V    Mo   W    S 
   3   3   3  18
Direct configuration=    13
   0.68023557  0.00780826 -0.00034144
  -0.00700202  0.66546543  0.00026910
   0.32859397  0.00587914 -0.00045986
   1.01323058  0.32564887  0.00009414
   0.00752290  0.01891547  0.00001045
   0.31874086  0.33416050 -0.00015149
   0.32746590  0.64591199 -0.00026531
   0.66797493  0.34014855  0.00035593
   0.66297475  0.65839394  0.00026226
   0.11152706  0.22211138  0.94386355
   0.22482470  0.10952695  0.05258097
   0.10806025  0.55628662  0.94896144
   0.22127931  0.44361226  0.05603206
   0.11246202  0.88697843  0.95032302
   0.22029629  0.77871253  0.04825166
   0.44157637  0.21873910  0.94914961
   0.55321227  0.10622044  0.04916053
   0.44455663  0.55383452  0.94594096
   0.55227036  0.44240658  0.05251875
   0.44586859  0.89058498  0.95304731
   0.55687732  0.78233539  0.05023162
   0.77713750  0.21907882  0.94972425
   0.88386067  0.10914227  0.05341617
   0.78388288  0.55919938  0.94765896
   0.89266484  0.44804517  0.05007138
   0.77596017  0.89116059  0.94936892
   0.89215975  0.77790689  0.04992494
unknown system                          
           1
     8.312989    4.782778    0.000000
    -8.315809    4.787641    0.000000
     0.000000    0.000000   30.000000
   V    Mo   W    S 
   3   3   3  18
Direct configuration=    14
   0.67959024  0.00736070 -0.00033834
  -0.00648499  0.66553210  0.00025130
   0.32873609  0.00535930 -0.00046402
   1.01317053  0.32580409  0.00009238
   0.00724216  0.01852985  0.00002456
   0.31848375  0.33396318 -0.00013995
   0.32740616  0.64653105 -0.00028764
   0.66808706  0.33972931  0.00034413
   0.66347590  0.65922348  0.00027476
   0.11141746  0.22205076  0.94397728
   0.22483525  0.10944579  0.05250288
   0.10805285  0.55641462  0.94898348
   0.22140005  0.44378380  0.05590571
   0.11250724  0.88690867  0.95036310
   0.22022550  0.77877218  0.04832958
   0.44156649  0.21868371  0.94921956
   0.55321352  0.10619240  0.04915701
   0.44450855  0.55390689  0.94609045
   0.55247370  0.44257289  0.05238006
   0.44594003  0.89073611  0.95292925
   0.55691968  0.78243611  0.05021442
   0.77699070  0.21888433  0.94974841
   0.88377900  0.10908824  0.05329710
   0.78393025  0.55919319  0.94780211
   0.89260806  0.44813224  0.05005871
   0.77589770  0.89122257  0.94936989
   0.89224151  0.77775691  0.04991372
unknown system                          
           1
     8.312103    4.779663    0.000000
    -8.316584    4.787408    0.000000
     0.000000    0.000000   30.000000
   V    Mo   W    S 
   3   3   3  18
Direct configuration=    15
   0.67906799  0.00737750 -0.00031560
  -0.00602054  0.66592658  0.00020432
   0.32880133  0.00452683 -0.00050200
   1.01348757  0.32588800  0.00011411
   0.00738280  0.01854458  0.00003627
   0.31795586  0.33409715 -0.00010736
   0.32699226  0.64653371 -0.00030738
   0.66819127  0.33943201  0.00034270
   0.66391357  0.65952132  0.00029228
   0.11138760  0.22198915  0.94397711
   0.22486014  0.10947554  0.05230319
   0.10795246  0.55626007  0.94905396
   0.22135474  0.44387734  0.05579803
   0.11258790  0.88695539  0.95046450
   0.22020394  0.77886099  0.04838677
   0.44152069  0.21868751  0.94948544
   0.55321053  0.10614640  0.04908504
   0.44450630  0.55397517  0.94629153
   0.55244753  0.44257814  0.05214256
   0.44599701  0.89077409  0.95290067
   0.55688084  0.78253085  0.05008887
   0.77702052  0.21886308  0.94975204
   0.88368322  0.10909447  0.05330466
   0.78399464  0.55923782  0.94791591
   0.89265517  0.44802981  0.04999454
   0.77581337  0.89120906  0.94938163
   0.89236575  0.77782189  0.04991610
unknown system                          
           1
     8.306855    4.777694    0.000000
    -8.310339    4.783709    0.000000
     0.000000    0.000000   30.000000
   V    Mo   W    S 
   3   3   3  18
Direct configuration=    16
   0.68082185  0.00923636 -0.00034151
  -0.00707946  0.66638611  0.00025897
   0.32829056  0.00493716 -0.00051082
   1.01360381  0.32498977  0.00008837
   0.00811986  0.01968392 -0.00000324
   0.31809076  0.33468269 -0.00018180
   0.32672177  0.64500657 -0.00026919
   0.66820269  0.34042444  0.00036236
   0.66300845  0.65728161  0.00026183
   0.11170655  0.22211019  0.94376322
   0.22489776  0.10976147  0.05236055
   0.10783433  0.55576060  0.94912358
   0.22099656  0.44351150  0.05609076
   0.11245193  0.88715620  0.95043503
   0.22030356  0.77868172  0.04817274
   0.44156729  0.21888859  0.94950954
   0.55321484  0.10622552  0.04902516
   0.44468769  0.55389209  0.94605164
   0.55190301  0.44210924  0.05237778
   0.44586866  0.89030930  0.95327149
   0.55671764  0.78218515  0.04992780
   0.77748094  0.21943487  0.94973961
   0.88393671  0.10919878  0.05353770
   0.78388850  0.55924644  0.94765704
   0.89285685  0.44782451  0.04987108
   0.77593931  0.89101759  0.94955830
   0.89218203  0.77827207  0.04986190
unknown system                          
           1
     8.307374    4.780213    0.000000
    -8.308143    4.781517    0.000000
     0.000000    0.000000   30.000000
   V    Mo   W    S 
   3   3   3  18
Direct configuration=    17
   0.68003317  0.00805689 -0.00034251
  -0.00666225  0.66592933  0.00024434
   0.32857729  0.00507443 -0.00050304
   1.01356519  0.32550702  0.00008089
   0.00773326  0.01915299  0.00000786
   0.31805343  0.33427791 -0.00016982
   0.32700408  0.64575359 -0.00028342
   0.66809902  0.33998736  0.00034098
   0.66337023  0.65850720  0.00026823
   0.11154038  0.22206133  0.94387973
   0.22482804  0.10959465  0.05236176
   0.10796849  0.55602026  0.94906803
   0.22119871  0.44368915  0.05597992
   0.11252791  0.88709821  0.95045438
   0.22031199  0.77876431  0.04824603
   0.44156183  0.21880904  0.94945855
   0.55320936  0.10621426  0.04904915
   0.44460731  0.55388682  0.94613909
   0.55218473  0.44237467  0.05228639
   0.44588081  0.89050500  0.95311041
   0.55677490  0.78232483  0.05005911
   0.77723777  0.21915180  0.94977623
   0.88383838  0.10918008  0.05343655
   0.78387607  0.55923150  0.94776817
   0.89271058  0.44787745  0.04996492
   0.77591963  0.89111577  0.94943533
   0.89226414  0.77806860  0.04988267
unknown system                          
           1
     8.300983    4.776272    0.000000
    -8.303450    4.780530    0.000000
     0.000000    0.000000   30.000000
   V    Mo   W    S 
   3   3   3  18
Direct configuration=    18
   0.67832417  0.00537007 -0.00034146
  -0.00562167  0.66495228  0.00022251
   0.32929709  0.00511539 -0.00047902
   1.01346777  0.32657568  0.00008739
   0.00670463  0.01797203  0.00004864
   0.31769420  0.33338817 -0.00014013
   0.32752825  0.64741127 -0.00029808
   0.66798429  0.33893482  0.00028498
   0.66442918  0.66157673  0.00027872
   0.11116774  0.22193413  0.94403279
   0.22472744  0.10928632  0.05235407
   0.10816150  0.55646125  0.94888686
   0.22161095  0.44408679  0.05581518
   0.11270602  0.88701667  0.95047852
   0.22036793  0.77898163  0.04846390
   0.44147427  0.21870805  0.94937924
   0.55317058  0.10611955  0.04911093
   0.44446408  0.55383636  0.94631545
   0.55266123  0.44291261  0.05205290
   0.44591969  0.89090206  0.95272356
   0.55688433  0.78270324  0.05037280
   0.77674537  0.21852072  0.94984168
   0.88357857  0.10916278  0.05325489
   0.78387499  0.55925645  0.94798121
   0.89245537  0.44790914  0.05020244
   0.77586728  0.89137299  0.94909594
   0.89256921  0.77774728  0.04997398
unknown system                          
           1
     8.304606    4.777356    0.000000
    -8.307931    4.783102    0.000000
     0.000000    0.000000   30.000000
   V    Mo   W    S 
   3   3   3  18
Direct configuration=    19
   0.67922878  0.00531488 -0.00032641
  -0.00642305  0.66450179  0.00026436
   0.32898795  0.00610069 -0.00047380
   1.01398905  0.32665903  0.00011433
   0.00712206  0.01867213  0.00002308
   0.31752681  0.33332334 -0.00011997
   0.32746941  0.64625384 -0.00027345
   0.66786031  0.33978405  0.00034088
   0.66404071  0.66097992  0.00027650
   0.11123562  0.22199272  0.94386693
   0.22465216  0.10942076  0.05242801
   0.10822270  0.55622042  0.94889715
   0.22143373  0.44377805  0.05596547
   0.11260122  0.88716357  0.95051531
   0.22052513  0.77885835  0.04827027
   0.44145372  0.21884394  0.94929891
   0.55317517  0.10619504  0.04903945
   0.44455635  0.55374124  0.94614922
   0.55237184  0.44277099  0.05213223
   0.44571888  0.89056239  0.95297387
   0.55679026  0.78249116  0.05041604
   0.77700782  0.21888765  0.94986882
   0.88377890  0.10930862  0.05340597
   0.78382146  0.55935154  0.94783760
   0.89248265  0.44771063  0.05016100
   0.77606727  0.89131291  0.94903501
   0.89251754  0.77801481  0.04991313
unknown system                          
           1
     8.300431    4.778849    0.000000
    -8.300464    4.778883    0.000000
     0.000000    0.000000   30.000000
   V    Mo   W    S 
   3   3   3  18
Direct configuration=    20
   0.68030665  0.00665153 -0.00033655
  -0.00705391  0.66487213  0.00027667
   0.32864050  0.00636522 -0.00048242
   1.01391915  0.32603627  0.00010459
   0.00758723  0.01931330 -0.00000166
   0.31790446  0.33377412 -0.00014822
   0.32733240  0.64538018 -0.00026026
   0.66781490  0.34037090  0.00036157
   0.66333760  0.65934265  0.00026703
   0.11143681  0.22207795  0.94377192
   0.22468998  0.10956902  0.05248277
   0.10813724  0.55602200  0.94896967
   0.22124050  0.44355662  0.05607776
   0.11249333  0.88719459  0.95048402
   0.22051350  0.77873350  0.04814583
   0.44151234  0.21890142  0.94928200
   0.55321177  0.10625457  0.04900583
   0.44462293  0.55372155  0.94601661
   0.55212511  0.44251261  0.05230286
   0.44571181  0.89036972  0.95319572
   0.55674714  0.78231294  0.05028604
   0.77722347  0.21918346  0.94985714
   0.88389688  0.10931519  0.05350922
   0.78379727  0.55932097  0.94769811
   0.89260033  0.44767894  0.05006730
   0.77611488  0.89118792  0.94919418
   0.89235016  0.77819521  0.04987221
unknown system                          
           1
     8.293434    4.774058    0.000000
    -8.293710    4.774517    0.000000
     0.000000    0.000000   30.000000
   V    Mo   W    S 
   3   3   3  18
Direct configuration=    21
   0.67815617  0.00269707 -0.00032427
  -0.00612805  0.66319536  0.00026393
   0.32951251  0.00665383 -0.00047873
   1.01429123  0.32781897  0.00009050
   0.00630701  0.01798547  0.00000772
   0.31681335  0.33243393 -0.00017020
   0.32773799  0.64682350 -0.00027567
   0.66789383  0.33953753  0.00026951
   0.66516660  0.66364542  0.00025227
   0.11091211  0.22193197  0.94381356
   0.22458357  0.10929628  0.05252269
   0.10834415  0.55631261  0.94870370
   0.22163918  0.44396224  0.05608341
   0.11267404  0.88718937  0.95055144
   0.22069635  0.77896588  0.04837130
   0.44134502  0.21893108  0.94924919
   0.55315753  0.10616205  0.04905280
   0.44450415  0.55357640  0.94620796
   0.55243422  0.44307682  0.05197036
   0.44557362  0.89058216  0.95279627
   0.55677946  0.78267526  0.05074073
   0.77682600  0.21865755  0.94996375
   0.88373659  0.10947105  0.05340186
   0.78387047  0.55948390  0.94789133
   0.89237082  0.44758369  0.05037455
   0.77613632  0.89154874  0.94865314
   0.89288022  0.77801632  0.05001679
unknown system                          
           1
     8.300735    4.776490    0.000000
    -8.302480    4.779497    0.000000
     0.000000    0.000000   30.000000
   V    Mo   W    S 
   3   3   3  18
Direct configuration=    22
   0.67833031  0.00068612 -0.00027471
  -0.00676701  0.66170023  0.00030158
   0.32950666  0.00813411 -0.00044937
   1.01517101  0.32863943  0.00013024
   0.00605936  0.01828869  0.00000713
   0.31593838  0.33155117 -0.00013197
   0.32782974  0.64597659 -0.00020994
   0.66780730  0.34033335  0.00030706
   0.66585174  0.66512959  0.00027661
   0.11072265  0.22199153  0.94374549
   0.22435293  0.10934770  0.05257477
   0.10856053  0.55633303  0.94863920
   0.22167898  0.44374653  0.05613166
   0.11256606  0.88720935  0.95066226
   0.22085919  0.77882983  0.04816763
   0.44132040  0.21917962  0.94913533
   0.55331285  0.10630684  0.04888124
   0.44455943  0.55336343  0.94619968
   0.55231330  0.44334049  0.05183618
   0.44536566  0.89028298  0.95300062
   0.55674789  0.78259888  0.05089518
   0.77676036  0.21866616  0.95018450
   0.88384390  0.10968282  0.05337538
   0.78393878  0.55971158  0.94783151
   0.89223480  0.44737949  0.05043402
   0.77632007  0.89164338  0.94840160
   0.89302919  0.77816152  0.04994701
unknown system                          
           1
     8.305270    4.778309    0.000000
    -8.307445    4.782064    0.000000
     0.000000    0.000000   30.000000
   V    Mo   W    S 
   3   3   3  18
Direct configuration=    23
   0.67981211  0.00288108 -0.00030706
  -0.00750441  0.66249484  0.00030653
   0.32896249  0.00831998 -0.00046993
   1.01489398  0.32758725  0.00009963
   0.00681498  0.01912804 -0.00003161
   0.31672175  0.33227729 -0.00017799
   0.32768965  0.64502305 -0.00022268
   0.66764778  0.34101743  0.00033522
   0.66469039  0.66251953  0.00025704
   0.11104449  0.22209837  0.94367966
   0.22439045  0.10949831  0.05263320
   0.10844541  0.55612718  0.94878233
   0.22143463  0.44346528  0.05623130
   0.11243547  0.88723437  0.95061769
   0.22080101  0.77868398  0.04800664
   0.44142345  0.21917740  0.94911194
   0.55334117  0.10636643  0.04884958
   0.44462582  0.55338526  0.94604352
   0.55207252  0.44300176  0.05210452
   0.44541108  0.89012623  0.95329161
   0.55670967  0.78237398  0.05068196
   0.77700772  0.21901793  0.95015239
   0.88396600  0.10962181  0.05350430
   0.78387061  0.55961557  0.94767494
   0.89238079  0.44738788  0.05028191
   0.77637298  0.89144074  0.94868930
   0.89275245  0.77834348  0.04987398
unknown system                          
           1
     8.304621    4.778292    0.000000
    -8.306749    4.781965    0.000000
     0.000000    0.000000   30.000000
   V    Mo   W    S 
   3   3   3  18
Direct configuration=    24
   0.68091894  0.00268373 -0.00032104
  -0.00850289  0.66182663  0.00032731
   0.32861638  0.00967442 -0.00048094
   1.01514323  0.32744240  0.00007261
   0.00712344  0.01980011 -0.00008230
   0.31687263  0.33206041 -0.00023011
   0.32777839  0.64399707 -0.00021605
   0.66732182  0.34213680  0.00035371
   0.66443075  0.66185338  0.00024223
   0.11112574  0.22221692  0.94358085
   0.22423053  0.10957496  0.05276717
   0.10853035  0.55604155  0.94882693
   0.22133682  0.44313560  0.05637657
   0.11229496  0.88726694  0.95066460
   0.22090355  0.77852872  0.04775514
   0.44148583  0.21931877  0.94898412
   0.55344892  0.10651536  0.04870218
   0.44467850  0.55320890  0.94593417
   0.55186335  0.44301115  0.05223743
   0.44528093  0.88987895  0.95363817