<?xml version="1.0" encoding="ISO-8859-1"?>
<modeling>
 <generator>
  <i name="program" type="string">vasp </i>
  <i name="version" type="string">5.4.1  </i>
  <i name="subversion" type="string">05Feb16 (build Jul 05 2020 17:13:04) complex                          parallel </i>
  <i name="platform" type="string">IFC91_ompi </i>
  <i name="date" type="string">2024 04 23 </i>
  <i name="time" type="string">04:16:32 </i>
 </generator>
 <incar>
  <i type="int" name="ISTART">     0</i>
  <i type="string" name="PREC">normal</i>
  <i type="string" name="ALGO"> Normal</i>
  <i type="int" name="ISPIN">     1</i>
  <i type="int" name="ICHARG">     2</i>
  <i type="int" name="IBRION">     1</i>
  <i type="int" name="NSW">   100</i>
  <i type="int" name="ISIF">     3</i>
  <i type="int" name="ISYM">     0</i>
  <i name="SYMPREC">      0.00000001</i>
  <i name="POTIM">      0.50000000</i>
  <i type="logical" name="LREAL"> F  </i>
  <i type="logical" name="LPLANE"> F  </i>
  <i type="int" name="ISMEAR">     0</i>
  <i type="logical" name="LWAVE"> F  </i>
  <i type="logical" name="LCHARG"> F  </i>
  <v type="int" name="KPOINT_BSE">    -1     0     0     0</v>
 </incar>
 <kpoints>
  <generation param="Gamma">
   <v type="int" name="divisions">       8        8        1 </v>
   <v name="usershift">      0.00000000       0.00000000       0.00000000 </v>
   <v name="genvec1">      0.12500000       0.00000000       0.00000000 </v>
   <v name="genvec2">     -0.00000000       0.12500000       0.00000000 </v>
   <v name="genvec3">      0.00000000       0.00000000       1.00000000 </v>
   <v name="shift">      0.00000000       0.00000000       0.00000000 </v>
  </generation>
  <varray name="kpointlist" >
   <v>       0.00000000       0.00000000       0.00000000 </v>
   <v>       0.12500000       0.00000000       0.00000000 </v>
   <v>       0.25000000       0.00000000       0.00000000 </v>
   <v>       0.37500000       0.00000000       0.00000000 </v>
   <v>       0.50000000       0.00000000       0.00000000 </v>
   <v>       0.00000000       0.12500000       0.00000000 </v>
   <v>       0.12500000       0.12500000       0.00000000 </v>
   <v>       0.25000000       0.12500000       0.00000000 </v>
   <v>       0.37500000       0.12500000       0.00000000 </v>
   <v>       0.50000000       0.12500000       0.00000000 </v>
   <v>      -0.37500000       0.12500000       0.00000000 </v>
   <v>      -0.25000000       0.12500000       0.00000000 </v>
   <v>      -0.12500000       0.12500000       0.00000000 </v>
   <v>       0.00000000       0.25000000       0.00000000 </v>
   <v>       0.12500000       0.25000000       0.00000000 </v>
   <v>       0.25000000       0.25000000       0.00000000 </v>
   <v>       0.37500000       0.25000000       0.00000000 </v>
   <v>       0.50000000       0.25000000       0.00000000 </v>
   <v>      -0.37500000       0.25000000       0.00000000 </v>
   <v>      -0.25000000       0.25000000       0.00000000 </v>
   <v>      -0.12500000       0.25000000       0.00000000 </v>
   <v>      -0.00000000       0.37500000       0.00000000 </v>
   <v>       0.12500000       0.37500000       0.00000000 </v>
   <v>       0.25000000       0.37500000       0.00000000 </v>
   <v>       0.37500000       0.37500000       0.00000000 </v>
   <v>       0.50000000       0.37500000       0.00000000 </v>
   <v>      -0.37500000       0.37500000       0.00000000 </v>
   <v>      -0.25000000       0.37500000       0.00000000 </v>
   <v>      -0.12500000       0.37500000       0.00000000 </v>
   <v>       0.00000000       0.50000000       0.00000000 </v>
   <v>       0.12500000       0.50000000       0.00000000 </v>
   <v>       0.25000000       0.50000000       0.00000000 </v>
   <v>       0.37500000       0.50000000       0.00000000 </v>
   <v>       0.50000000       0.50000000       0.00000000 </v>
  </varray>
  <varray name="weights" >
   <v>       0.01562500 </v>
   <v>       0.03125000 </v>
   <v>       0.03125000 </v>
   <v>       0.03125000 </v>
   <v>       0.01562500 </v>
   <v>       0.03125000 </v>
   <v>       0.03125000 </v>
   <v>       0.03125000 </v>
   <v>       0.03125000 </v>
   <v>       0.03125000 </v>
   <v>       0.03125000 </v>
   <v>       0.03125000 </v>
   <v>       0.03125000 </v>
   <v>       0.03125000 </v>
   <v>       0.03125000 </v>
   <v>       0.03125000 </v>
   <v>       0.03125000 </v>
   <v>       0.03125000 </v>
   <v>       0.03125000 </v>
   <v>       0.03125000 </v>
   <v>       0.03125000 </v>
   <v>       0.03125000 </v>
   <v>       0.03125000 </v>
   <v>       0.03125000 </v>
   <v>       0.03125000 </v>
   <v>       0.03125000 </v>
   <v>       0.03125000 </v>
   <v>       0.03125000 </v>
   <v>       0.03125000 </v>
   <v>       0.01562500 </v>
   <v>       0.03125000 </v>
   <v>       0.03125000 </v>
   <v>       0.03125000 </v>
   <v>       0.01562500 </v>
  </varray>
 </kpoints>
 <parameters>
  <separator name="general" >
   <i type="string" name="SYSTEM">unknown system</i>
   <i type="logical" name="LCOMPAT"> F  </i>
  </separator>
  <separator name="electronic" >
   <i type="string" name="PREC">normal</i>
   <i name="ENMAX">    280.00000000</i>
   <i name="ENAUG">    373.43800000</i>
   <i name="EDIFF">      0.00010000</i>
   <i type="int" name="IALGO">    38</i>
   <i type="int" name="IWAVPR">    11</i>
   <i type="int" name="NBANDS">   120</i>
   <i name="NELECT">    159.00000000</i>
   <i type="int" name="TURBO">     0</i>
   <i type="int" name="IRESTART">     0</i>
   <i type="int" name="NREBOOT">     0</i>
   <i type="int" name="NMIN">     0</i>
   <i name="EREF">      0.00000000</i>
   <separator name="electronic smearing" >
    <i type="int" name="ISMEAR">     0</i>
    <i name="SIGMA">      0.20000000</i>
    <i name="KSPACING">      0.50000000</i>
    <i type="logical" name="KGAMMA"> T  </i>
   </separator>
   <separator name="electronic projectors" >
    <i type="logical" name="LREAL"> F  </i>
    <v name="ROPT">      0.00000000      0.00000000      0.00000000      0.00000000</v>
    <i type="int" name="LMAXPAW">  -100</i>
    <i type="int" name="LMAXMIX">     2</i>
    <i type="logical" name="NLSPLINE"> F  </i>
   </separator>
   <separator name="electronic startup" >
    <i type="int" name="ISTART">     0</i>
    <i type="int" name="ICHARG">     2</i>
    <i type="int" name="INIWAV">     1</i>
   </separator>
   <separator name="electronic spin" >
    <i type="int" name="ISPIN">     1</i>
    <i type="logical" name="LNONCOLLINEAR"> F  </i>
    <v name="MAGMOM">      1.00000000      1.00000000      1.00000000      1.00000000      1.00000000      1.00000000      1.00000000      1.00000000      1.00000000      1.00000000      1.00000000      1.00000000      1.00000000      1.00000000      1.00000000      1.00000000      1.00000000      1.00000000      1.00000000      1.00000000
      1.00000000      1.00000000      1.00000000      1.00000000      1.00000000      1.00000000      1.00000000</v>
    <i name="NUPDOWN">     -1.00000000</i>
    <i type="logical" name="LSORBIT"> F  </i>
    <v name="SAXIS">      0.00000000      0.00000000      1.00000000</v>
    <i type="logical" name="LSPIRAL"> F  </i>
    <v name="QSPIRAL">      0.00000000      0.00000000      0.00000000</v>
    <i type="logical" name="LZEROZ"> F  </i>
   </separator>
   <separator name="electronic exchange-correlation" >
    <i type="logical" name="LASPH"> F  </i>
    <i type="logical" name="LMETAGGA"> F  </i>
   </separator>
   <separator name="electronic convergence" >
    <i type="int" name="NELM">    60</i>
    <i type="int" name="NELMDL">    -5</i>
    <i type="int" name="NELMIN">     2</i>
    <i name="ENINI">    280.00000000</i>
    <separator name="electronic convergence detail" >
     <i type="logical" name="LDIAG"> T  </i>
     <i type="logical" name="LSUBROT"> F  </i>
     <i name="WEIMIN">      0.00100000</i>
     <i name="EBREAK">      0.00000021</i>
     <i name="DEPER">      0.30000000</i>
     <i type="int" name="NRMM">     4</i>
     <i name="TIME">      0.40000000</i>
    </separator>
   </separator>
   <separator name="electronic mixer" >
    <i name="AMIX">      0.40000000</i>
    <i name="BMIX">      1.00000000</i>
    <i name="AMIN">      0.10000000</i>
    <i name="AMIX_MAG">      1.60000000</i>
    <i name="BMIX_MAG">      1.00000000</i>
    <separator name="electronic mixer details" >
     <i type="int" name="IMIX">     4</i>
     <i type="logical" name="MIXFIRST"> F  </i>
     <i type="int" name="MAXMIX">   -45</i>
     <i name="WC">    100.00000000</i>
     <i type="int" name="INIMIX">     1</i>
     <i type="int" name="MIXPRE">     1</i>
     <i type="int" name="MREMOVE">     5</i>
    </separator>
   </separator>
   <separator name="electronic dipolcorrection" >
    <i type="logical" name="LDIPOL"> F  </i>
    <i type="logical" name="LMONO"> F  </i>
    <i type="int" name="IDIPOL">     0</i>
    <i name="EPSILON">      1.00000000</i>
    <v name="DIPOL">   -100.00000000   -100.00000000   -100.00000000</v>
    <i name="EFIELD">      0.00000000</i>
   </separator>
  </separator>
  <separator name="grids" >
   <i type="int" name="NGX">    42</i>
   <i type="int" name="NGY">    42</i>
   <i type="int" name="NGZ">   126</i>
   <i type="int" name="NGXF">    84</i>
   <i type="int" name="NGYF">    84</i>
   <i type="int" name="NGZF">   252</i>
   <i type="logical" name="ADDGRID"> F  </i>
  </separator>
  <separator name="ionic" >
   <i type="int" name="NSW">   100</i>
   <i type="int" name="IBRION">     1</i>
   <i type="int" name="ISIF">     3</i>
   <i name="PSTRESS">      0.00000000</i>
   <i name="EDIFFG">      0.00100000</i>
   <i type="int" name="NFREE">     0</i>
   <i name="POTIM">      0.50000000</i>
   <i name="SMASS">     -3.00000000</i>
   <i name="SCALEE">      1.00000000</i>
  </separator>
  <separator name="ionic md" >
   <i name="TEBEG">      0.00010000</i>
   <i name="TEEND">      0.00010000</i>
   <i type="int" name="NBLOCK">     1</i>
   <i type="int" name="KBLOCK">   100</i>
   <i type="int" name="NPACO">   256</i>
   <i name="APACO">     16.00000000</i>
  </separator>
  <separator name="symmetry" >
   <i type="int" name="ISYM">     0</i>
   <i name="SYMPREC">      0.00000001</i>
  </separator>
  <separator name="dos" >
   <i type="logical" name="LORBIT"> F  </i>
   <v name="RWIGS">     -1.00000000     -1.00000000     -1.00000000     -1.00000000</v>
   <i type="int" name="NEDOS">   301</i>
   <i name="EMIN">     10.00000000</i>
   <i name="EMAX">    -10.00000000</i>
   <i name="EFERMI">      0.00000000</i>
  </separator>
  <separator name="writing" >
   <i type="int" name="NWRITE">     2</i>
   <i type="logical" name="LWAVE"> F  </i>
   <i type="logical" name="LCHARG"> F  </i>
   <i type="logical" name="LPARD"> F  </i>
   <i type="logical" name="LVTOT"> F  </i>
   <i type="logical" name="LVHAR"> F  </i>
   <i type="logical" name="LELF"> F  </i>
   <i type="logical" name="LOPTICS"> F  </i>
   <v name="STM">      0.00000000      0.00000000      0.00000000      0.00000000      0.00000000      0.00000000      0.00000000</v>
  </separator>
  <separator name="performance" >
   <i type="int" name="NPAR">    40</i>
   <i type="int" name="NSIM">     4</i>
   <i type="int" name="NBLK">    -1</i>
   <i type="logical" name="LPLANE"> F  </i>
   <i type="logical" name="LSCALAPACK"> T  </i>
   <i type="logical" name="LSCAAWARE"> F  </i>
   <i type="logical" name="LSCALU"> F  </i>
   <i type="logical" name="LASYNC"> F  </i>
   <i type="logical" name="LORBITALREAL"> F  </i>
  </separator>
  <separator name="miscellaneous" >
   <i type="int" name="IDIOT">     3</i>
   <i type="logical" name="LMUSIC"> F  </i>
   <v name="POMASS">     50.94100000     95.94000000    183.85000000     32.06600000</v>
   <v name="DARWINR">      0.00000000      0.00000000      0.00000000      0.00000000</v>
   <v name="DARWINV">      1.00000000      1.00000000      1.00000000      1.00000000</v>
   <i type="logical" name="LCORR"> T  </i>
  </separator>
  <i type="logical" name="GGA_COMPAT"> T  </i>
  <i type="logical" name="LBERRY"> F  </i>
  <i type="int" name="ICORELEVEL">     0</i>
  <i type="logical" name="LDAU"> F  </i>
  <i type="int" name="I_CONSTRAINED_M">     0</i>
  <separator name="electronic exchange-correlation" >
   <i type="string" name="GGA">--</i>
   <i type="int" name="VOSKOWN">     0</i>
   <i type="logical" name="LHFCALC"> F  </i>
   <i type="string" name="PRECFOCK"></i>
   <i type="logical" name="LSYMGRAD"> F  </i>
   <i type="logical" name="LHFONE"> F  </i>
   <i type="logical" name="LRHFCALC"> F  </i>
   <i type="logical" name="LTHOMAS"> F  </i>
   <i type="logical" name="LMODELHF"> F  </i>
   <i name="ENCUT4O">     -1.00000000</i>
   <i type="int" name="EXXOEP">     0</i>
   <i type="int" name="FOURORBIT">     0</i>
   <i name="AEXX">      0.00000000</i>
   <i name="HFALPHA">      0.00000000</i>
   <i name="MCALPHA">      0.00000000</i>
   <i name="ALDAX">      1.00000000</i>
   <i name="AGGAX">      1.00000000</i>
   <i name="ALDAC">      1.00000000</i>
   <i name="AGGAC">      1.00000000</i>
   <i type="int" name="NKREDX">     1</i>
   <i type="int" name="NKREDY">     1</i>
   <i type="int" name="NKREDZ">     1</i>
   <i type="logical" name="SHIFTRED"> F  </i>
   <i type="logical" name="ODDONLY"> F  </i>
   <i type="logical" name="EVENONLY"> F  </i>
   <i type="int" name="LMAXFOCK">     0</i>
   <i type="int" name="NMAXFOCKAE">     0</i>
   <i type="logical" name="LFOCKAEDFT"> F  </i>
   <i name="HFSCREEN">      0.00000000</i>
   <i name="HFSCREENC">      0.00000000</i>
   <i type="int" name="NBANDSGWLOW">     0</i>
  </separator>
  <separator name="vdW DFT" >
   <i type="logical" name="LUSE_VDW"> F  </i>
   <i name="Zab_VDW">     -0.84910000</i>
   <i name="PARAM1">      0.12340000</i>
   <i name="PARAM2">      1.00000000</i>
   <i name="PARAM3">      0.00000000</i>
  </separator>
  <separator name="model GW" >
   <i type="int" name="MODEL_GW">     0</i>
   <i name="MODEL_EPS0">     58.26239943</i>
   <i name="MODEL_ALPHA">      1.00000000</i>
  </separator>
  <separator name="linear response parameters" >
   <i type="logical" name="LEPSILON"> F  </i>
   <i type="logical" name="LRPA"> F  </i>
   <i type="logical" name="LNABLA"> F  </i>
   <i type="logical" name="LVEL"> F  </i>
   <i type="int" name="KINTER">     0</i>
   <i name="CSHIFT">      0.10000000</i>
   <i name="OMEGAMAX">     -1.00000000</i>
   <i name="DEG_THRESHOLD">      0.00200000</i>
  </separator>
  <separator name="orbital magnetization" >
   <i type="logical" name="NUCIND"> F  </i>
   <v name="MAGPOS">      0.00000000      0.00000000      0.00000000</v>
   <i type="logical" name="LNICSALL"> T  </i>
   <i type="logical" name="ORBITALMAG"> F  </i>
   <i type="logical" name="LMAGBLOCH"> F  </i>
   <i type="logical" name="LCHIMAG"> F  </i>
   <i type="logical" name="LGAUGE"> T  </i>
   <i type="int" name="MAGATOM">     0</i>
   <v name="MAGDIPOL">      0.00000000      0.00000000      0.00000000</v>
   <v name="AVECCONST">      0.00000000      0.00000000      0.00000000</v>
  </separator>
  <separator name="response functions" >
   <i type="logical" name="LADDER"> F  </i>
   <i type="logical" name="LFXC"> F  </i>
   <i type="logical" name="LHARTREE"> T  </i>
   <i type="int" name="IBSE">     0</i>
   <v type="int" name="KPOINT">    -1     0     0     0</v>
   <i type="logical" name="LTCTE"> F  </i>
   <i type="logical" name="LTETE"> F  </i>
   <i type="logical" name="LTRIPLET"> F  </i>
   <i type="logical" name="LFXCEPS"> F  </i>
   <i type="logical" name="LFXHEG"> F  </i>
   <i type="int" name="NATURALO">     0</i>
   <i type="logical" name="L2ORDER"> F  </i>
   <i type="logical" name="LUSEW"> F  </i>
   <i name="ENCUTGW">     -2.00000000</i>
   <i name="ENCUTGWSOFT">     -2.00000000</i>
   <i name="ENCUTLF">     -1.00000000</i>
   <i type="int" name="LMAXMP2">    -1</i>
   <i name="SCISSOR">      0.00000000</i>
   <i type="int" name="NOMEGA">     0</i>
   <i type="int" name="NOMEGAR">     0</i>
   <i type="int" name="NBANDSGW">    -1</i>
   <i type="int" name="NBANDSO">    -1</i>
   <i type="int" name="NBANDSV">    -1</i>
   <i type="int" name="NELM">     1</i>
   <i type="int" name="NELMHF">     1</i>
   <i type="int" name="DIM">     3</i>
   <i type="int" name="ANTIRES">     0</i>
   <i name="OMEGAMAX">    -30.00000000</i>
   <i name="OMEGAMIN">    -30.00000000</i>
   <i name="OMEGATL">   -200.00000000</i>
   <i type="int" name="OMEGAGRID">     0</i>
   <i name="CSHIFT">     -0.10000000</i>
   <i type="logical" name="SELFENERGY"> F  </i>
   <i type="logical" name="LSPECTRAL"> F  </i>
   <i type="logical" name="LSPECTRALGW"> F  </i>
   <i type="logical" name="LSINGLES"> F  </i>
   <i type="logical" name="LFERMIGW"> F  </i>
   <i type="logical" name="ODDONLYGW"> F  </i>
   <i type="logical" name="EVENONLYGW"> F  </i>
   <i type="int" name="NKREDLFX">     1</i>
   <i type="int" name="NKREDLFY">     1</i>
   <i type="int" name="NKREDLFZ">     1</i>
   <i type="int" name="MAXMEM">  1800</i>
   <i type="int" name="TELESCOPE">     0</i>
   <i type="int" name="TAUPAR">     1</i>
   <i type="int" name="OMEGAPAR">    -1</i>
   <i name="LAMBDA">      1.00000000</i>
  </separator>
  <separator name="External order field" >
   <i name="OFIELD_KAPPA">      0.00000000</i>
   <v name="OFIELD_K">      0.00000000      0.00000000      0.00000000</v>
   <i name="OFIELD_Q6_NEAR">      0.00000000</i>
   <i name="OFIELD_Q6_FAR">      0.00000000</i>
   <i name="OFIELD_A">      0.00000000</i>
  </separator>
 </parameters>
 <atominfo>
  <atoms>      27 </atoms>
  <types>       4 </types>
  <array name="atoms" >
   <dimension dim="1">ion</dimension>
   <field type="string">element</field>
   <field type="int">atomtype</field>
   <set>
    <rc><c>V </c><c>   1</c></rc>
    <rc><c>V </c><c>   1</c></rc>
    <rc><c>V </c><c>   1</c></rc>
    <rc><c>Mo</c><c>   2</c></rc>
    <rc><c>Mo</c><c>   2</c></rc>
    <rc><c>Mo</c><c>   2</c></rc>
    <rc><c>W </c><c>   3</c></rc>
    <rc><c>W </c><c>   3</c></rc>
    <rc><c>W </c><c>   3</c></rc>
    <rc><c>S </c><c>   4</c></rc>
    <rc><c>S </c><c>   4</c></rc>
    <rc><c>S </c><c>   4</c></rc>
    <rc><c>S </c><c>   4</c></rc>
    <rc><c>S </c><c>   4</c></rc>
    <rc><c>S </c><c>   4</c></rc>
    <rc><c>S </c><c>   4</c></rc>
    <rc><c>S </c><c>   4</c></rc>
    <rc><c>S </c><c>   4</c></rc>
    <rc><c>S </c><c>   4</c></rc>
    <rc><c>S </c><c>   4</c></rc>
    <rc><c>S </c><c>   4</c></rc>
    <rc><c>S </c><c>   4</c></rc>
    <rc><c>S </c><c>   4</c></rc>
    <rc><c>S </c><c>   4</c></rc>
    <rc><c>S </c><c>   4</c></rc>
    <rc><c>S </c><c>   4</c></rc>
    <rc><c>S </c><c>   4</c></rc>
   </set>
  </array>
  <array name="atomtypes" >
   <dimension dim="1">type</dimension>
   <field type="int">atomspertype</field>
   <field type="string">element</field>
   <field>mass</field>
   <field>valence</field>
   <field type="string">pseudopotential</field>
   <set>
    <rc><c>   3</c><c>V </c><c>     50.94100000</c><c>      5.00000000</c><c> PAW_PBE V 08Apr2002                    </c></rc>
    <rc><c>   3</c><c>Mo</c><c>     95.94000000</c><c>      6.00000000</c><c> PAW_PBE Mo 08Apr2002                   </c></rc>
    <rc><c>   3</c><c>W </c><c>    183.85000000</c><c>      6.00000000</c><c> PAW_PBE W 08Apr2002                    </c></rc>
    <rc><c>  18</c><c>S </c><c>     32.06600000</c><c>      6.00000000</c><c>  PAW_PBE S 17Jan2003                   </c></rc>
   </set>
  </array>
 </atominfo>
 <structure name="initialpos" >
  <crystal>
   <varray name="basis" >
    <v>       8.66999996       5.03999989       0.00000000 </v>
    <v>      -8.66999982       5.04000013       0.00000000 </v>
    <v>       0.00000000       0.00000000      30.00000000 </v>
   </varray>
   <i name="volume">   2621.80797419 </i>
   <varray name="rec_basis" >
    <v>       0.05767013       0.09920635       0.00000000 </v>
    <v>      -0.05767013       0.09920635       0.00000000 </v>
    <v>       0.00000000       0.00000000       0.03333333 </v>
   </varray>
  </crystal>
  <varray name="positions" >
   <v>       0.66666669       0.33333334       0.00000000 </v>
   <v>       0.33333334       0.33333334       0.00000000 </v>
   <v>       0.33333334       0.66666669       0.00000000 </v>
   <v>       0.66666669       0.66666669       0.00000000 </v>
   <v>       0.00000000       0.00000000       0.00000000 </v>
   <v>       0.66666669       0.00000000       0.00000000 </v>
   <v>       1.00000000       0.33333334       0.00000000 </v>
   <v>       0.00000000       0.66666669       0.00000000 </v>
   <v>       0.33333334       0.00000000       0.00000000 </v>
   <v>       0.11068511       0.22244981       0.95539999 </v>
   <v>       0.22244981       0.11068511       0.04460000 </v>
   <v>       0.11068511       0.55578315       0.95539999 </v>
   <v>       0.22244981       0.44401845       0.04460000 </v>
   <v>       0.11068511       0.88911647       0.95539999 </v>
   <v>       0.22244981       0.77735180       0.04460000 </v>
   <v>       0.44401845       0.22244981       0.95539999 </v>
   <v>       0.55578315       0.11068511       0.04460000 </v>
   <v>       0.44401845       0.55578315       0.95539999 </v>
   <v>       0.55578315       0.44401845       0.04460000 </v>
   <v>       0.44401845       0.88911647       0.95539999 </v>
   <v>       0.55578315       0.77735180       0.04460000 </v>
   <v>       0.77735180       0.22244981       0.95539999 </v>
   <v>       0.88911647       0.11068511       0.04460000 </v>
   <v>       0.77735180       0.55578315       0.95539999 </v>
   <v>       0.88911647       0.44401845       0.04460000 </v>
   <v>       0.77735180       0.88911647       0.95539999 </v>
   <v>       0.88911647       0.77735180       0.04460000 </v>
  </varray>
 </structure>
 <calculation>
  <scstep>
   <time name="dav">   21.77   21.82</time>
   <time name="total">   21.82   21.87</time>
   <energy>
    <i name="alphaZ">     81.65567618 </i>
    <i name="ewald">  41890.25211670 </i>
    <i name="hartreedc"> -47722.88014882 </i>
    <i name="XCdc">   -242.92957529 </i>
    <i name="pawpsdc">   3467.42045192 </i>
    <i name="pawaedc">  -2871.19716117 </i>
    <i name="eentropy">     -0.52970805 </i>
    <i name="bandstr">   -238.76898773 </i>
    <i name="atom">   6761.44252427 </i>
    <i name="e_fr_energy">   1124.46518802 </i>
    <i name="e_wo_entrp">   1124.99489607 </i>
    <i name="e_0_energy">   1124.73004204 </i>
   </energy>
  </scstep>
  <scstep>
   <time name="dav">   28.38   28.45</time>
   <time name="total">   28.39   28.46</time>
   <energy>
    <i name="e_fr_energy">     -3.99052881 </i>
    <i name="e_wo_entrp">     -3.80380656 </i>
    <i name="e_0_energy">     -3.89716769 </i>
   </energy>
  </scstep>
  <scstep>
   <time name="dav">   27.55   27.62</time>
   <time name="total">   27.56   27.63</time>
   <energy>
    <i name="e_fr_energy">   -199.70980520 </i>
    <i name="e_wo_entrp">   -199.41651852 </i>
    <i name="e_0_energy">   -199.56316186 </i>
   </energy>
  </scstep>
  <scstep>
   <time name="dav">   30.45   30.52</time>
   <time name="total">   30.45   30.53</time>
   <energy>
    <i name="e_fr_energy">   -208.93057807 </i>
    <i name="e_wo_entrp">   -208.60724097 </i>
    <i name="e_0_energy">   -208.76890952 </i>
   </energy>
  </scstep>
  <scstep>
   <time name="dav">   28.30   28.37</time>
   <time name="total">   28.77   28.84</time>
   <energy>
    <i name="e_fr_energy">   -209.22050951 </i>
    <i name="e_wo_entrp">   -208.89969983 </i>
    <i name="e_0_energy">   -209.06010467 </i>
   </energy>
  </scstep>
  <scstep>
   <time name="dav">   30.56   30.63</time>
   <time name="total">   31.06   31.14</time>
   <energy>
    <i name="e_fr_energy">   -236.28657595 </i>
    <i name="e_wo_entrp">   -236.01012269 </i>
    <i name="e_0_energy">   -236.14834932 </i>
   </energy>
  </scstep>
  <scstep>
   <time name="dav">   32.48   32.55</time>
   <time name="total">   32.99   33.07</time>
   <energy>
    <i name="e_fr_energy">   -196.85551405 </i>
    <i name="e_wo_entrp">   -196.52385776 </i>
    <i name="e_0_energy">   -196.68968590 </i>
   </energy>
  </scstep>
  <scstep>
   <time name="dav">   29.47   29.54</time>
   <time name="total">   29.97   30.05</time>
   <energy>
    <i name="e_fr_energy">   -190.31781535 </i>
    <i name="e_wo_entrp">   -190.05028408 </i>
    <i name="e_0_energy">   -190.18404972 </i>
   </energy>
  </scstep>
  <scstep>
   <time name="dav">   30.09   30.16</time>
   <time name="total">   30.61   30.69</time>
   <energy>
    <i name="e_fr_energy">   -188.29910775 </i>
    <i name="e_wo_entrp">   -187.96310621 </i>
    <i name="e_0_energy">   -188.13110698 </i>
   </energy>
  </scstep>
  <scstep>
   <time name="dav">   32.41   32.49</time>
   <time name="total">   32.94   33.03</time>
   <energy>
    <i name="e_fr_energy">   -187.09543217 </i>
    <i name="e_wo_entrp">   -186.74935937 </i>
    <i name="e_0_energy">   -186.92239577 </i>
   </energy>
  </scstep>
  <scstep>
   <time name="dav">   30.59   30.66</time>
   <time name="total">   31.13   31.21</time>
   <energy>
    <i name="e_fr_energy">   -187.02001617 </i>
    <i name="e_wo_entrp">   -186.67335058 </i>
    <i name="e_0_energy">   -186.84668338 </i>
   </energy>
  </scstep>
  <scstep>
   <time name="dav">   30.46   30.53</time>
   <time name="total">   31.00   31.08</time>
   <energy>
    <i name="e_fr_energy">   -187.04927914 </i>
    <i name="e_wo_entrp">   -186.71379592 </i>
    <i name="e_0_energy">   -186.88153753 </i>
   </energy>
  </scstep>
  <scstep>
   <time name="dav">   32.33   32.41</time>
   <time name="total">   32.87   32.96</time>
   <energy>
    <i name="e_fr_energy">   -186.92406631 </i>
    <i name="e_wo_entrp">   -186.58600473 </i>
    <i name="e_0_energy">   -186.75503552 </i>
   </energy>
  </scstep>
  <scstep>
   <time name="dav">   31.17   31.25</time>
   <time name="total">   31.71   31.79</time>
   <energy>
    <i name="e_fr_energy">   -186.89589432 </i>
    <i name="e_wo_entrp">   -186.55276533 </i>
    <i name="e_0_energy">   -186.72432982 </i>
   </energy>
  </scstep>
  <scstep>
   <time name="dav">   31.46   31.54</time>
   <time name="total">   32.00   32.08</time>
   <energy>
    <i name="e_fr_energy">   -186.89236850 </i>
    <i name="e_wo_entrp">   -186.54833131 </i>
    <i name="e_0_energy">   -186.72034991 </i>
   </energy>
  </scstep>
  <scstep>
   <time name="dav">   32.30   32.38</time>
   <time name="total">   32.84   32.92</time>
   <energy>
    <i name="e_fr_energy">   -186.88736810 </i>
    <i name="e_wo_entrp">   -186.54343415 </i>
    <i name="e_0_energy">   -186.71540112 </i>
   </energy>
  </scstep>
  <scstep>
   <time name="dav">   31.42   31.50</time>
   <time name="total">   31.96   32.05</time>
   <energy>
    <i name="e_fr_energy">   -186.88575695 </i>
    <i name="e_wo_entrp">   -186.54286373 </i>
    <i name="e_0_energy">   -186.71431034 </i>
   </energy>
  </scstep>
  <scstep>
   <time name="dav">   29.98   30.05</time>
   <time name="total">   30.52   30.60</time>
   <energy>
    <i name="e_fr_energy">   -186.88492921 </i>
    <i name="e_wo_entrp">   -186.54253488 </i>
    <i name="e_0_energy">   -186.71373204 </i>
   </energy>
  </scstep>
  <scstep>
   <time name="dav">   27.90   27.97</time>
   <time name="total">   28.44   28.52</time>
   <energy>
    <i name="e_fr_energy">   -186.88473989 </i>
    <i name="e_wo_entrp">   -186.54186341 </i>
    <i name="e_0_energy">   -186.71330165 </i>
   </energy>
  </scstep>
  <scstep>
   <time name="dav">   23.93   23.99</time>
   <time name="total">   24.47   24.53</time>
   <energy>
    <i name="e_fr_energy">   -186.88558282 </i>
    <i name="e_wo_entrp">   -186.54303640 </i>
    <i name="e_0_energy">   -186.71430961 </i>
   </energy>
  </scstep>
  <scstep>
   <time name="dav">   21.42   21.47</time>
   <time name="total">   21.96   22.02</time>
   <energy>
    <i name="e_fr_energy">   -186.88644499 </i>
    <i name="e_wo_entrp">   -186.54378872 </i>
    <i name="e_0_energy">   -186.71511685 </i>
   </energy>
  </scstep>
  <scstep>
   <time name="dav">   19.58   19.62</time>
   <time name="total">   20.12   20.17</time>
   <energy>
    <i name="e_fr_energy">   -186.88725423 </i>
    <i name="e_wo_entrp">   -186.54462238 </i>
    <i name="e_0_energy">   -186.71593831 </i>
   </energy>
  </scstep>
  <scstep>
   <time name="dav">   20.48   20.52</time>
   <time name="total">   21.02   21.08</time>
   <energy>
    <i name="e_fr_energy">   -186.88846056 </i>
    <i name="e_wo_entrp">   -186.54594493 </i>
    <i name="e_0_energy">   -186.71720274 </i>
   </energy>
  </scstep>
  <scstep>
   <time name="dav">   18.90   18.95</time>
   <time name="total">   19.44   19.50</time>
   <energy>
    <i name="e_fr_energy">   -186.88900596 </i>
    <i name="e_wo_entrp">   -186.54641939 </i>
    <i name="e_0_energy">   -186.71771267 </i>
   </energy>
  </scstep>
  <scstep>
   <time name="dav">   16.33   16.37</time>
   <time name="total">   16.87   16.92</time>
   <energy>
    <i name="e_fr_energy">   -186.88939271 </i>
    <i name="e_wo_entrp">   -186.54678953 </i>
    <i name="e_0_energy">   -186.71809112 </i>
   </energy>
  </scstep>
  <scstep>
   <time name="dav">   18.98   19.02</time>
   <time name="total">   19.52   19.57</time>
   <energy>
    <i name="e_fr_energy">   -186.88963195 </i>
    <i name="e_wo_entrp">   -186.54704641 </i>
    <i name="e_0_energy">   -186.71833918 </i>
   </energy>
  </scstep>
  <scstep>
   <time name="dav">   20.30   20.35</time>
   <time name="total">   20.34   20.40</time>
   <energy>
    <i name="alphaZ">     81.65567618 </i>
    <i name="ewald">  41890.25211670 </i>
    <i name="hartreedc"> -47833.16951408 </i>
    <i name="XCdc">   -231.59828042 </i>
    <i name="pawpsdc">   4192.18770815 </i>
    <i name="pawaedc">  -3610.21333560 </i>
    <i name="eentropy">     -0.34258590 </i>
    <i name="bandstr">  -1437.10402147 </i>
    <i name="atom">   6761.44252427 </i>
    <i name="e_fr_energy">   -186.88971217 </i>
    <i name="e_wo_entrp">   -186.54712627 </i>
    <i name="e_0_energy">   -186.71841922 </i>
   </energy>
  </scstep>
  <structure>
   <crystal>
    <varray name="basis" >
     <v>       8.66999996       5.03999989       0.00000000 </v>
     <v>      -8.66999982       5.04000013       0.00000000 </v>
     <v>       0.00000000       0.00000000      30.00000000 </v>
    </varray>
    <i name="volume">   2621.80797419 </i>
    <varray name="rec_basis" >
     <v>       0.05767013       0.09920635       0.00000000 </v>
     <v>      -0.05767013       0.09920635       0.00000000 </v>
     <v>       0.00000000       0.00000000       0.03333333 </v>
    </varray>
   </crystal>
   <varray name="positions" >
    <v>       0.66666669       0.33333334       0.00000000 </v>
    <v>       0.33333334       0.33333334       0.00000000 </v>
    <v>       0.33333334       0.66666669       0.00000000 </v>
    <v>       0.66666669       0.66666669       0.00000000 </v>
    <v>       0.00000000       0.00000000       0.00000000 </v>
    <v>       0.66666669       0.00000000       0.00000000 </v>
    <v>       1.00000000       0.33333334       0.00000000 </v>
    <v>       0.00000000       0.66666669       0.00000000 </v>
    <v>       0.33333334       0.00000000       0.00000000 </v>
    <v>       0.11068511       0.22244981       0.95539999 </v>
    <v>       0.22244981       0.11068511       0.04460000 </v>
    <v>       0.11068511       0.55578315       0.95539999 </v>
    <v>       0.22244981       0.44401845       0.04460000 </v>
    <v>       0.11068511       0.88911647       0.95539999 </v>
    <v>       0.22244981       0.77735180       0.04460000 </v>
    <v>       0.44401845       0.22244981       0.95539999 </v>
    <v>       0.55578315       0.11068511       0.04460000 </v>
    <v>       0.44401845       0.55578315       0.95539999 </v>
    <v>       0.55578315       0.44401845       0.04460000 </v>
    <v>       0.44401845       0.88911647       0.95539999 </v>
    <v>       0.55578315       0.77735180       0.04460000 </v>
    <v>       0.77735180       0.22244981       0.95539999 </v>
    <v>       0.88911647       0.11068511       0.04460000 </v>
    <v>       0.77735180       0.55578315       0.95539999 </v>
    <v>       0.88911647       0.44401845       0.04460000 </v>
    <v>       0.77735180       0.88911647       0.95539999 </v>
    <v>       0.88911647       0.77735180       0.04460000 </v>
   </varray>
  </structure>
  <varray name="forces" >
   <v>      -0.07365265      -0.02816608      -0.05477200 </v>
   <v>      -0.00948506       0.09396363       0.02652556 </v>
   <v>       0.28129783       0.32258868       0.05499517 </v>
   <v>      -0.25832333       0.33584273       0.02876963 </v>
   <v>      -0.25821356      -0.45196021       0.00955272 </v>
   <v>       0.52961059       0.00977212      -0.09227511 </v>
   <v>       0.32590169      -0.42729825      -0.02906191 </v>
   <v>      -0.55059463      -0.01625682       0.07299924 </v>
   <v>      -0.01971558       0.05708833       0.01245205 </v>
   <v>       0.36107022       0.69491525      -2.15812875 </v>
   <v>      -0.35846567       0.68393284       2.11905133 </v>
   <v>       0.47130154       0.57479700      -2.08229751 </v>
   <v>       0.22951775       0.54883462       1.43455606 </v>
   <v>       0.25719893       0.02172662      -2.89339995 </v>
   <v>       0.62751705      -0.00836869       2.15122962 </v>
   <v>      -0.22693702       0.54575734      -1.45430353 </v>
   <v>      -0.61764615       0.54425491       2.09839158 </v>
   <v>      -0.31930534      -0.66636841      -1.41521614 </v>
   <v>       0.31999277      -0.66704125       1.38561768 </v>
   <v>       0.36662585      -0.67891080      -2.14124665 </v>
   <v>      -0.52989598      -0.72502247       2.17662291 </v>
   <v>      -0.68559460       0.15232407      -2.13470062 </v>
   <v>      -0.19476180       0.17220993       2.91716498 </v>
   <v>       0.63469629      -0.57681030      -2.16375748 </v>
   <v>      -0.46928691      -0.54536457       2.14269984 </v>
   <v>       0.09711955       0.01219718      -2.94925788 </v>
   <v>       0.07002824       0.02136260       2.93778916 </v>
  </varray>
  <varray name="stress" >
   <v>       7.26180824      -0.04347988      -1.53352123 </v>
   <v>      -0.04348001       4.52070650      -0.04475541 </v>
   <v>      -1.53352124      -0.04475552      30.27525169 </v>
  </varray>
  <energy>
   <i name="e_fr_energy">   -186.88971217 </i>
   <i name="e_wo_entrp">   -186.71841922 </i>
   <i name="e_0_energy">     -0.34258590 </i>
  </energy>
  <time name="totalsc">  782.64  784.73</time>
 </calculation>
 <calculation>
  <scstep>
   <time name="dav">   21.81   21.86</time>
   <time name="total">   22.35   22.41</time>
   <energy>
    <i name="alphaZ">     78.91487185 </i>
    <i name="ewald">  39377.21367305 </i>
    <i name="hartreedc"> -45334.76027562 </i>
    <i name="XCdc">   -239.05809898 </i>
    <i name="pawpsdc">   4192.17157325 </i>
    <i name="pawaedc">  -3610.19727223 </i>
    <i name="eentropy">     -0.28317196 </i>
    <i name="bandstr">  -1412.98796149 </i>
    <i name="atom">   6761.44252427 </i>
    <i name="e_fr_energy">   -187.54413784 </i>
    <i name="e_wo_entrp">   -187.26096588 </i>
    <i name="e_0_energy">   -187.40255186 </i>
   </energy>
  </scstep>
  <scstep>
   <time name="dav">   30.50   30.57</time>
   <time name="total">   31.04   31.12</time>
   <energy>
    <i name="e_fr_energy">   -189.53421633 </i>
    <i name="e_wo_entrp">   -189.20174287 </i>
    <i name="e_0_energy">   -189.36797960 </i>
   </energy>
  </scstep>
  <scstep>
   <time name="dav">   30.38   30.46</time>
   <time name="total">   30.94   31.02</time>
   <energy>
    <i name="e_fr_energy">   -189.37697769 </i>
    <i name="e_wo_entrp">   -189.10129484 </i>
    <i name="e_0_energy">   -189.23913626 </i>
   </energy>
  </scstep>
  <scstep>
   <time name="dav">   30.53   30.61</time>
   <time name="total">   31.08   31.16</time>
   <energy>
    <i name="e_fr_energy">   -188.80409102 </i>
    <i name="e_wo_entrp">   -188.52280059 </i>
    <i name="e_0_energy">   -188.66344580 </i>
   </energy>
  </scstep>
  <scstep>
   <time name="dav">   30.49   30.57</time>
   <time name="total">   31.04   31.12</time>
   <energy>
    <i name="e_fr_energy">   -188.94888857 </i>
    <i name="e_wo_entrp">   -188.65574333 </i>
    <i name="e_0_energy">   -188.80231595 </i>
   </energy>
  </scstep>
  <scstep>
   <time name="dav">   31.20   31.27</time>
   <time name="total">   31.75   31.84</time>
   <energy>
    <i name="e_fr_energy">   -188.77338286 </i>
    <i name="e_wo_entrp">   -188.49349651 </i>
    <i name="e_0_energy">   -188.63343968 </i>
   </energy>
  </scstep>
  <scstep>
   <time name="dav">   27.91   27.97</time>
   <time name="total">   28.45   28.53</time>
   <energy>
    <i name="e_fr_energy">   -188.74388768 </i>
    <i name="e_wo_entrp">   -188.46302582 </i>
    <i name="e_0_energy">   -188.60345675 </i>
   </energy>
  </scstep>
  <scstep>
   <time name="dav">   29.85   29.92</time>
   <time name="total">   30.40   30.48</time>
   <energy>
    <i name="e_fr_energy">   -188.72011704 </i>
    <i name="e_wo_entrp">   -188.43984152 </i>
    <i name="e_0_energy">   -188.57997928 </i>
   </energy>
  </scstep>
  <scstep>
   <time name="dav">   28.51   28.58</time>
   <time name="total">   29.06   29.14</time>
   <energy>
    <i name="e_fr_energy">   -188.71726812 </i>
    <i name="e_wo_entrp">   -188.43737739 </i>
    <i name="e_0_energy">   -188.57732275 </i>
   </energy>
  </scstep>
  <scstep>
   <time name="dav">   32.88   32.96</time>
   <time name="total">   33.44   33.52</time>
   <energy>
    <i name="e_fr_energy">   -188.71617262 </i>
    <i name="e_wo_entrp">   -188.43653758 </i>
    <i name="e_0_energy">   -188.57635510 </i>
   </energy>
  </scstep>
  <scstep>
   <time name="dav">   29.75   29.82</time>
   <time name="total">   30.30   30.38</time>
   <energy>
    <i name="e_fr_energy">   -188.71554800 </i>
    <i name="e_wo_entrp">   -188.43635193 </i>
    <i name="e_0_energy">   -188.57594996 </i>
   </energy>
  </scstep>
  <scstep>
   <time name="dav">   26.69   26.76</time>
   <time name="total">   27.25   27.32</time>
   <energy>
    <i name="e_fr_energy">   -188.71569542 </i>
    <i name="e_wo_entrp">   -188.43639214 </i>
    <i name="e_0_energy">   -188.57604378 </i>
   </energy>
  </scstep>
  <scstep>
   <time name="dav">   21.98   22.03</time>
   <time name="total">   22.01   22.07</time>
   <energy>
    <i name="alphaZ">     78.91487185 </i>
    <i name="ewald">  39377.21367305 </i>
    <i name="hartreedc"> -45345.50108001 </i>
    <i name="XCdc">   -237.96752957 </i>
    <i name="pawpsdc">   3950.57470634 </i>
    <i name="pawaedc">  -3365.09772503 </i>
    <i name="eentropy">     -0.27930332 </i>
    <i name="bandstr">  -1408.01577025 </i>
    <i name="atom">   6761.44252427 </i>
    <i name="e_fr_energy">   -188.71563265 </i>
    <i name="e_wo_entrp">   -188.43632934 </i>
    <i name="e_0_energy">   -188.57598099 </i>
   </energy>
  </scstep>
  <structure>
   <crystal>
    <varray name="basis" >
     <v>       8.85344559       5.10551614       0.00000000 </v>
     <v>      -8.85472691       5.10772081       0.00000000 </v>
     <v>       0.00000000       0.00000000      30.00000000 </v>
    </varray>
    <i name="volume">   2712.86638264 </i>
    <varray name="rec_basis" >
     <v>       0.05648329       0.09791924       0.00000000 </v>
     <v>      -0.05645891       0.09790507       0.00000000 </v>
     <v>       0.00000000       0.00000000       0.03333333 </v>
    </varray>
   </crystal>
   <varray name="positions" >
    <v>       0.66632697       0.33340345      -0.00008808 </v>
    <v>       0.33375666       0.33380944       0.00004266 </v>
    <v>       0.33565986       0.66742797       0.00008844 </v>
    <v>       0.66755533       0.66899272       0.00004626 </v>
    <v>      -0.00288146      -0.00144468       0.00001536 </v>
    <v>       0.66818692      -0.00142669      -0.00014839 </v>
    <v>       0.99886167       0.33038159      -0.00004673 </v>
    <v>      -0.00160965       0.66812072       0.00011739 </v>
    <v>       0.33355171       0.00032808       0.00002002 </v>
    <v>       0.11501551       0.22477110       0.95192953 </v>
    <v>       0.22472579       0.11495571       0.04800762 </v>
    <v>       0.11474731       0.55722288       0.95205147 </v>
    <v>       0.22571507       0.44600661       0.04690689 </v>
    <v>       0.11150466       0.88850488       0.95074715 </v>
    <v>       0.22415561       0.77556589       0.04805937 </v>
    <v>       0.44599906       0.22569317       0.95306134 </v>
    <v>       0.55666955       0.11500829       0.04797440 </v>
    <v>       0.43994087       0.55348229       0.95312420 </v>
    <v>       0.55348098       0.43993574       0.04682819 </v>
    <v>       0.44178921       0.88484720       0.95195668 </v>
    <v>       0.55083896       0.77535611       0.04810020 </v>
    <v>       0.77617338       0.22508626       0.95196720 </v>
    <v>       0.88939880       0.11205116       0.04929106 </v>
    <v>       0.77635702       0.55125672       0.95192048 </v>
    <v>       0.88520073       0.44271398       0.04804565 </v>
    <v>       0.77768037       0.88890464       0.95065732 </v>
    <v>       0.88941354       0.77725921       0.04932422 </v>
   </varray>
  </structure>
  <varray name="forces" >
   <v>      -0.02469148      -0.01755723       0.07341359 </v>
   <v>       0.00290420       0.05021867       0.08865151 </v>
   <v>       0.17424311       0.29465295      -0.06536594 </v>
   <v>      -0.17794623       0.62933577       0.00209799 </v>
   <v>      -0.24953841      -0.58045990      -0.00761198 </v>
   <v>       0.59018930       0.14478920      -0.03451506 </v>
   <v>       0.28428391      -0.48486171      -0.12263092 </v>
   <v>      -0.56127492       0.10863555      -0.06698006 </v>
   <v>       0.00110589      -0.08818805       0.11444555 </v>
   <v>      -0.11098517       0.04349559       0.04099220 </v>
   <v>       0.11175779       0.04249586      -0.14538546 </v>
   <v>      -0.05926742      -0.07156411       0.38693413 </v>
   <v>      -0.05476883      -0.07500483      -0.12895780 </v>
   <v>       0.08723532       0.00007614      -0.00152236 </v>
   <v>      -0.08522648      -0.01021739      -0.09609570 </v>
   <v>       0.05349005      -0.05823716       0.04051503 </v>
   <v>      -0.06692358      -0.05949753      -0.16867389 </v>
   <v>       0.00381339      -0.03710254       0.07526013 </v>
   <v>      -0.01067944      -0.03676990      -0.15653314 </v>
   <v>      -0.10488418      -0.04181872       0.04944192 </v>
   <v>      -0.02430720      -0.06805491       0.16840302 </v>
   <v>       0.03436791       0.09785535      -0.02068980 </v>
   <v>      -0.04787084       0.10076785       0.24465729 </v>
   <v>       0.06602382       0.05020878       0.02350566 </v>
   <v>       0.05372660       0.07113146      -0.17382030 </v>
   <v>      -0.00960087      -0.00950129      -0.40199629 </v>
   <v>       0.12482376       0.00517211       0.28246069 </v>
  </varray>
  <varray name="stress" >
   <v>     -19.88127761       0.00706498       0.02732704 </v>
   <v>       0.00706494     -19.47981601       0.00162194 </v>
   <v>       0.02732681       0.00162190      -1.75984741 </v>
  </varray>
  <energy>
   <i name="e_fr_energy">   -188.71563265 </i>
   <i name="e_wo_entrp">   -188.57598099 </i>
   <i name="e_0_energy">     -0.27930332 </i>
  </energy>
  <time name="totalsc">  421.32  422.43</time>
 </calculation>
 <calculation>
  <scstep>
   <time name="dav">   23.51   23.57</time>
   <time name="total">   24.05   24.11</time>
   <energy>
    <i name="alphaZ">     82.32752339 </i>
    <i name="ewald">  41294.08348402 </i>
    <i name="hartreedc"> -47292.79759960 </i>
    <i name="XCdc">   -233.85783473 </i>
    <i name="pawpsdc">   3950.03024070 </i>
    <i name="pawaedc">  -3364.54826025 </i>
    <i name="eentropy">     -0.23671835 </i>
    <i name="bandstr">  -1387.08421589 </i>
    <i name="atom">   6761.44252427 </i>
    <i name="e_fr_energy">   -190.64085644 </i>
    <i name="e_wo_entrp">   -190.40413809 </i>
    <i name="e_0_energy">   -190.52249726 </i>
   </energy>
  </scstep>
  <scstep>
   <time name="dav">   27.80   27.86</time>
   <time name="total">   28.32   28.40</time>
   <energy>
    <i name="e_fr_energy">   -190.55860832 </i>
    <i name="e_wo_entrp">   -190.32112648 </i>
    <i name="e_0_energy">   -190.43986740 </i>
   </energy>
  </scstep>
  <scstep>
   <time name="dav">   30.21   30.28</time>
   <time name="total">   30.74   30.82</time>
   <energy>
    <i name="e_fr_energy">   -190.13376443 </i>
    <i name="e_wo_entrp">   -189.88155655 </i>
    <i name="e_0_energy">   -190.00766049 </i>
   </energy>
  </scstep>
  <scstep>
   <time name="dav">   31.17   31.24</time>
   <time name="total">   31.70   31.79</time>
   <energy>
    <i name="e_fr_energy">   -189.92088788 </i>
    <i name="e_wo_entrp">   -189.68474081 </i>
    <i name="e_0_energy">   -189.80281435 </i>
   </energy>
  </scstep>
  <scstep>
   <time name="dav">   30.02   30.09</time>
   <time name="total">   30.55   30.63</time>
   <energy>
    <i name="e_fr_energy">   -189.89543789 </i>
    <i name="e_wo_entrp">   -189.65574433 </i>
    <i name="e_0_energy">   -189.77559111 </i>
   </energy>
  </scstep>
  <scstep>
   <time name="dav">   30.73   30.80</time>
   <time name="total">   31.26   31.35</time>
   <energy>
    <i name="e_fr_energy">   -189.82404702 </i>
    <i name="e_wo_entrp">   -189.58474245 </i>
    <i name="e_0_energy">   -189.70439473 </i>
   </energy>
  </scstep>
  <scstep>
   <time name="dav">   28.66   28.73</time>
   <time name="total">   29.20   29.28</time>
   <energy>
    <i name="e_fr_energy">   -189.81623804 </i>
    <i name="e_wo_entrp">   -189.57727542 </i>
    <i name="e_0_energy">   -189.69675673 </i>
   </energy>
  </scstep>
  <scstep>
   <time name="dav">   30.42   30.49</time>
   <time name="total">   30.95   31.03</time>
   <energy>
    <i name="e_fr_energy">   -189.81730800 </i>
    <i name="e_wo_entrp">   -189.57828192 </i>
    <i name="e_0_energy">   -189.69779496 </i>
   </energy>
  </scstep>
  <scstep>
   <time name="dav">   28.23   28.30</time>
   <time name="total">   28.77   28.85</time>
   <energy>
    <i name="e_fr_energy">   -189.81608018 </i>
    <i name="e_wo_entrp">   -189.57708565 </i>
    <i name="e_0_energy">   -189.69658291 </i>
   </energy>
  </scstep>
  <scstep>
   <time name="dav">   25.00   25.06</time>
   <time name="total">   25.54   25.60</time>
   <energy>
    <i name="e_fr_energy">   -189.81641178 </i>
    <i name="e_wo_entrp">   -189.57732512 </i>
    <i name="e_0_energy">   -189.69686845 </i>
   </energy>
  </scstep>
  <scstep>
   <time name="dav">   23.53   23.59</time>
   <time name="total">   24.07   24.14</time>
   <energy>
    <i name="e_fr_energy">   -189.81618974 </i>
    <i name="e_wo_entrp">   -189.57708624 </i>
    <i name="e_0_energy">   -189.69663799 </i>
   </energy>
  </scstep>
  <scstep>
   <time name="dav">   19.14   19.19</time>
   <time name="total">   19.18   19.23</time>
   <energy>
    <i name="alphaZ">     82.32752339 </i>
    <i name="ewald">  41294.08348402 </i>
    <i name="hartreedc"> -47266.31915631 </i>
    <i name="XCdc">   -235.24423949 </i>
    <i name="pawpsdc">   4038.75328788 </i>
    <i name="pawaedc">  -3454.46909985 </i>
    <i name="eentropy">     -0.23911674 </i>
    <i name="bandstr">  -1410.15141727 </i>
    <i name="atom">   6761.44252427 </i>
    <i name="e_fr_energy">   -189.81621010 </i>
    <i name="e_wo_entrp">   -189.57709336 </i>
    <i name="e_0_energy">   -189.69665173 </i>
   </energy>
  </scstep>
  <structure>
   <crystal>
    <varray name="basis" >
     <v>       8.66615365       4.99973633       0.00000000 </v>
     <v>      -8.66733107       5.00176215       0.00000000 </v>
     <v>       0.00000000       0.00000000      30.00000000 </v>
    </varray>
    <i name="volume">   2600.41228148 </i>
    <varray name="rec_basis" >
     <v>       0.05770349       0.09999181       0.00000000 </v>
     <v>      -0.05768012       0.09997823       0.00000000 </v>
     <v>       0.00000000       0.00000000       0.03333333 </v>
    </varray>
   </crystal>
   <varray name="positions" >
    <v>       0.66627413       0.33339794      -0.00004655 </v>
    <v>       0.33384290       0.33389010       0.00009280 </v>
    <v>       0.33631652       0.66775059       0.00005146 </v>
    <v>       0.66843055       0.67020886       0.00004745 </v>
    <v>      -0.00408524      -0.00217003       0.00001106 </v>
    <v>       0.66899325      -0.00175161      -0.00016791 </v>
    <v>       0.99832845       0.32930361      -0.00011610 </v>
    <v>      -0.00196714       0.66883900       0.00007950 </v>
    <v>       0.33340623       0.00018049       0.00008476 </v>
    <v>       0.11498141       0.22494971       0.95195272 </v>
    <v>       0.22490353       0.11491923       0.04792538 </v>
    <v>       0.11457158       0.55716076       0.95227036 </v>
    <v>       0.22553794       0.44593446       0.04683394 </v>
    <v>       0.11158841       0.88842142       0.95074629 </v>
    <v>       0.22405694       0.77563057       0.04800501 </v>
    <v>       0.44595356       0.22554515       0.95308426 </v>
    <v>       0.55650653       0.11497356       0.04787898 </v>
    <v>       0.43988287       0.55341699       0.95316677 </v>
    <v>       0.55340964       0.43988488       0.04673965 </v>
    <v>       0.44161918       0.88487821       0.95198464 </v>
    <v>       0.55070257       0.77526633       0.04819546 </v>
    <v>       0.77636894       0.22521592       0.95195550 </v>
    <v>       0.88952036       0.11226446       0.04942946 </v>
    <v>       0.77650374       0.55127689       0.95193377 </v>
    <v>       0.88537043       0.44278069       0.04794732 </v>
    <v>       0.77765538       0.88889805       0.95042992 </v>
    <v>       0.88954178       0.77714820       0.04948401 </v>
   </varray>
  </structure>
  <varray name="forces" >
   <v>       0.00437623      -0.00759439       0.08561316 </v>
   <v>       0.00688889       0.02713169       0.08341562 </v>
   <v>       0.12795624       0.29536881      -0.07784990 </v>
   <v>      -0.14400843       0.70411241      -0.00332997 </v>
   <v>      -0.23797748      -0.62367095      -0.00590525 </v>
   <v>       0.59761216       0.18402176      -0.00817055 </v>
   <v>       0.26496026      -0.50540391      -0.11020790 </v>
   <v>      -0.57171155       0.14727314      -0.08377907 </v>
   <v>       0.00810886      -0.14393999       0.10908198 </v>
   <v>       0.03477001       0.09207856      -0.45971102 </v>
   <v>      -0.02407748       0.08187929       0.33329487 </v>
   <v>       0.00592364       0.04145270      -0.07397478 </v>
   <v>       0.01062883       0.04877908       0.32220045 </v>
   <v>      -0.00306213       0.01527797      -0.55895164 </v>
   <v>       0.06480282      -0.02365018       0.41016242 </v>
   <v>      -0.02505956       0.07069559      -0.42115738 </v>
   <v>      -0.03340711       0.06890853       0.30517941 </v>
   <v>      -0.01587209      -0.07948800      -0.35890646 </v>
   <v>       0.00821643      -0.07182620       0.27155832 </v>
   <v>       0.01438287      -0.08513028      -0.43583274 </v>
   <v>      -0.05715620      -0.11589601       0.66262344 </v>
   <v>      -0.07872968       0.00347251      -0.52757942 </v>
   <v>      -0.00396661       0.02031682       0.81321232 </v>
   <v>       0.03762035      -0.08643601      -0.47431878 </v>
   <v>      -0.00968606      -0.04201747       0.31045488 </v>
   <v>      -0.00273519      -0.01687047      -0.97604347 </v>
   <v>       0.02120199       0.00115498       0.86892145 </v>
  </varray>
  <varray name="stress" >
   <v>     -10.15607066       0.02201251       0.00177210 </v>
   <v>       0.02201239      -9.84316492       0.01395420 </v>
   <v>       0.00177213       0.01395419       6.45731976 </v>
  </varray>
  <energy>
   <i name="e_fr_energy">   -189.81621010 </i>
   <i name="e_wo_entrp">   -189.69665173 </i>
   <i name="e_0_energy">     -0.23911674 </i>
  </energy>
  <time name="totalsc">  376.71  377.71</time>
 </calculation>
 <calculation>
  <scstep>
   <time name="dav">   21.71   21.76</time>
   <time name="total">   22.23   22.29</time>
   <energy>
    <i name="alphaZ">     85.80451051 </i>
    <i name="ewald">  42827.00284237 </i>
    <i name="hartreedc"> -48843.60264722 </i>
    <i name="XCdc">   -232.95204362 </i>
    <i name="pawpsdc">   4038.87980201 </i>
    <i name="pawaedc">  -3454.59386069 </i>
    <i name="eentropy">     -0.21099188 </i>
    <i name="bandstr">  -1373.19045148 </i>
    <i name="atom">   6761.44252427 </i>
    <i name="e_fr_energy">   -191.42031573 </i>
    <i name="e_wo_entrp">   -191.20932385 </i>
    <i name="e_0_energy">   -191.31481979 </i>
   </energy>
  </scstep>
  <scstep>
   <time name="dav">   32.07   32.15</time>
   <time name="total">   32.59   32.67</time>
   <energy>
    <i name="e_fr_energy">   -191.22679761 </i>
    <i name="e_wo_entrp">   -191.01611976 </i>
    <i name="e_0_energy">   -191.12145868 </i>
   </energy>
  </scstep>
  <scstep>
   <time name="dav">   30.04   30.12</time>
   <time name="total">   30.56   30.64</time>
   <energy>
    <i name="e_fr_energy">   -191.37942885 </i>
    <i name="e_wo_entrp">   -191.14706706 </i>
    <i name="e_0_energy">   -191.26324796 </i>
   </energy>
  </scstep>
  <scstep>
   <time name="dav">   30.38   30.45</time>
   <time name="total">   30.90   30.98</time>
   <energy>
    <i name="e_fr_energy">   -190.99827134 </i>
    <i name="e_wo_entrp">   -190.78522822 </i>
    <i name="e_0_energy">   -190.89174978 </i>
   </energy>
  </scstep>
  <scstep>
   <time name="dav">   30.29   30.36</time>
   <time name="total">   30.81   30.89</time>
   <energy>
    <i name="e_fr_energy">   -190.90683402 </i>
    <i name="e_wo_entrp">   -190.69371288 </i>
    <i name="e_0_energy">   -190.80027345 </i>
   </energy>
  </scstep>
  <scstep>
   <time name="dav">   30.45   30.52</time>
   <time name="total">   30.97   31.05</time>
   <energy>
    <i name="e_fr_energy">   -190.87417381 </i>
    <i name="e_wo_entrp">   -190.65602953 </i>
    <i name="e_0_energy">   -190.76510167 </i>
   </energy>
  </scstep>
  <scstep>
   <time name="dav">   30.84   30.91</time>
   <time name="total">   31.36   31.45</time>
   <energy>
    <i name="e_fr_energy">   -190.84788008 </i>
    <i name="e_wo_entrp">   -190.63182679 </i>
    <i name="e_0_energy">   -190.73985344 </i>
   </energy>
  </scstep>
  <scstep>
   <time name="dav">   25.88   25.94</time>
   <time name="total">   26.40   26.47</time>
   <energy>
    <i name="e_fr_energy">   -190.84519634 </i>
    <i name="e_wo_entrp">   -190.62909899 </i>
    <i name="e_0_energy">   -190.73714766 </i>
   </energy>
  </scstep>
  <scstep>
   <time name="dav">   30.93   31.00</time>
   <time name="total">   31.45   31.53</time>
   <energy>
    <i name="e_fr_energy">   -190.84598425 </i>
    <i name="e_wo_entrp">   -190.62989333 </i>
    <i name="e_0_energy">   -190.73793879 </i>
   </energy>
  </scstep>
  <scstep>
   <time name="dav">   26.73   26.79</time>
   <time name="total">   27.25   27.32</time>
   <energy>
    <i name="e_fr_energy">   -190.84557790 </i>
    <i name="e_wo_entrp">   -190.62953007 </i>
    <i name="e_0_energy">   -190.73755399 </i>
   </energy>
  </scstep>
  <scstep>
   <time name="dav">   25.34   25.40</time>
   <time name="total">   25.86   25.93</time>
   <energy>
    <i name="e_fr_energy">   -190.84531880 </i>
    <i name="e_wo_entrp">   -190.62919695 </i>
    <i name="e_0_energy">   -190.73725788 </i>
   </energy>
  </scstep>
  <scstep>
   <time name="dav">   18.67   18.72</time>
   <time name="total">   18.71   18.76</time>
   <energy>
    <i name="alphaZ">     85.80451051 </i>
    <i name="ewald">  42827.00284237 </i>
    <i name="hartreedc"> -48815.06749040 </i>
    <i name="XCdc">   -234.27337905 </i>
    <i name="pawpsdc">   4064.78603217 </i>
    <i name="pawaedc">  -3480.69882481 </i>
    <i name="eentropy">     -0.21613615 </i>
    <i name="bandstr">  -1399.62540264 </i>
    <i name="atom">   6761.44252427 </i>
    <i name="e_fr_energy">   -190.84532374 </i>
    <i name="e_wo_entrp">   -190.62918759 </i>
    <i name="e_0_energy">   -190.73725566 </i>
   </energy>
  </scstep>
  <structure>
   <crystal>
    <varray name="basis" >
     <v>       8.48503733       4.90073711       0.00000000 </v>
     <v>      -8.48514751       4.90091558       0.00000000 </v>
     <v>       0.00000000       0.00000000      30.00000000 </v>
    </varray>
    <i name="volume">   2495.03786764 </i>
    <varray name="rec_basis" >
     <v>       0.05892795       0.10202427       0.00000000 </v>
     <v>      -0.05892580       0.10202295       0.00000000 </v>
     <v>       0.00000000       0.00000000       0.03333333 </v>
    </varray>
   </crystal>
   <varray name="positions" >
    <v>       0.66630934       0.33331751       0.00014116 </v>
    <v>       0.33398571       0.33397157       0.00026109 </v>
    <v>       0.33856473       0.66920706      -0.00012041 </v>
    <v>       0.67255769       0.67527865       0.00003593 </v>
    <v>      -0.00894489      -0.00534173       0.00000028 </v>
    <v>       0.67241634      -0.00267150      -0.00016236 </v>
    <v>       0.99604069       0.32515617      -0.00033374 </v>
    <v>      -0.00303014       0.67194010      -0.00010833 </v>
    <v>       0.33240415      -0.00090032       0.00030609 </v>
    <v>       0.11601642       0.22531200       0.95057363 </v>
    <v>       0.22523182       0.11581409       0.04902388 </v>
    <v>       0.11523009       0.55758798       0.95172405 </v>
    <v>       0.22628664       0.44641724       0.04788600 </v>
    <v>       0.11158064       0.88869673       0.94911330 </v>
    <v>       0.22432628       0.77499778       0.04928622 </v>
    <v>       0.44651538       0.22651508       0.95181831 </v>
    <v>       0.55718762       0.11579925       0.04891514 </v>
    <v>       0.43919281       0.55289867       0.95205319 </v>
    <v>       0.55292881       0.43929010       0.04766715 </v>
    <v>       0.44120168       0.88401213       0.95066817 </v>
    <v>       0.54960241       0.77467451       0.04998924 </v>
    <v>       0.77570606       0.22544921       0.95043058 </v>
    <v>       0.88949520       0.11214110       0.05159849 </v>
    <v>       0.77571483       0.55029814       0.95052689 </v>
    <v>       0.88469702       0.44236064       0.04900330 </v>
    <v>       0.77753125       0.88877387       0.94791898 </v>
    <v>       0.88946587       0.77721843       0.05178369 </v>
   </varray>
  </structure>
  <varray name="forces" >
   <v>       0.02872426      -0.00787206       0.07727977 </v>
   <v>       0.00625611       0.05717419       0.04587862 </v>
   <v>       0.12041211       0.32242003      -0.07684914 </v>
   <v>      -0.09322112       0.66833931      -0.00784485 </v>
   <v>      -0.20093960      -0.61656216      -0.01071194 </v>
   <v>       0.55204426       0.21660659       0.02521053 </v>
   <v>       0.31056580      -0.55181792      -0.06474201 </v>
   <v>      -0.64960577       0.19316840      -0.05602773 </v>
   <v>       0.01081554      -0.17328215       0.07079050 </v>
   <v>       0.07165310      -0.04697439      -0.30722413 </v>
   <v>      -0.06986335      -0.05376756       0.19500978 </v>
   <v>      -0.02738857      -0.03887195       0.08509085 </v>
   <v>      -0.01364340      -0.01427508       0.21408350 </v>
   <v>      -0.10194045       0.03043544      -0.40197328 </v>
   <v>       0.02715654      -0.06064984       0.28912558 </v>
   <v>      -0.00963451       0.01590666      -0.28877137 </v>
   <v>       0.07882430       0.00619137       0.15643240 </v>
   <v>       0.04758097       0.05774580      -0.25416076 </v>
   <v>      -0.06453329       0.07136939       0.19443853 </v>
   <v>       0.04098056       0.04276310      -0.27815577 </v>
   <v>       0.02141113       0.02262769       0.48021079 </v>
   <v>       0.00120557      -0.08532186      -0.39991415 </v>
   <v>       0.04474339      -0.04254368       0.60290300 </v>
   <v>      -0.07134237      -0.02233336      -0.32394696 </v>
   <v>       0.00176421       0.01826918       0.12161221 </v>
   <v>      -0.00400793      -0.01165012      -0.78501376 </v>
   <v>      -0.05801746       0.00290498       0.69726979 </v>
  </varray>
  <varray name="stress" >
   <v>      -5.70070471      -0.00179469       0.02334902 </v>
   <v>      -0.00179464      -5.55067927       0.00779547 </v>
   <v>       0.02334891       0.00779558       4.47796046 </v>
  </varray>
  <energy>
   <i name="e_fr_energy">   -190.84532374 </i>
   <i name="e_wo_entrp">   -190.73725566 </i>
   <i name="e_0_energy">     -0.21613615 </i>
  </energy>
  <time name="totalsc">  381.15  382.15</time>
 </calculation>
 <calculation>
  <scstep>
   <time name="dav">   21.71   21.76</time>
   <time name="total">   22.22   22.28</time>
   <energy>
    <i name="alphaZ">     89.96726899 </i>
    <i name="ewald">  44571.48046285 </i>
    <i name="hartreedc"> -50612.59936813 </i>
    <i name="XCdc">   -231.96209044 </i>
    <i name="pawpsdc">   4064.77109588 </i>
    <i name="pawaedc">  -3480.67986050 </i>
    <i name="eentropy">     -0.21480453 </i>
    <i name="bandstr">  -1354.35581844 </i>
    <i name="atom">   6761.44252427 </i>
    <i name="e_fr_energy">   -192.15059007 </i>
    <i name="e_wo_entrp">   -191.93578553 </i>
    <i name="e_0_energy">   -192.04318780 </i>
   </energy>
  </scstep>
  <scstep>
   <time name="dav">   27.28   27.34</time>
   <time name="total">   27.78   27.86</time>
   <energy>
    <i name="e_fr_energy">   -191.93444331 </i>
    <i name="e_wo_entrp">   -191.71767977 </i>
    <i name="e_0_energy">   -191.82606154 </i>
   </energy>
  </scstep>
  <scstep>
   <time name="dav">   28.92   28.99</time>
   <time name="total">   29.43   29.51</time>
   <energy>
    <i name="e_fr_energy">   -191.79860685 </i>
    <i name="e_wo_entrp">   -191.57191372 </i>
    <i name="e_0_energy">   -191.68526028 </i>
   </energy>
  </scstep>
  <scstep>
   <time name="dav">   30.49   30.56</time>
   <time name="total">   30.99   31.07</time>
   <energy>
    <i name="e_fr_energy">   -191.82711481 </i>
    <i name="e_wo_entrp">   -191.62210050 </i>
    <i name="e_0_energy">   -191.72460765 </i>
   </energy>
  </scstep>
  <scstep>
   <time name="dav">   30.28   30.35</time>
   <time name="total">   30.79   30.87</time>
   <energy>
    <i name="e_fr_energy">   -191.55677784 </i>
    <i name="e_wo_entrp">   -191.33428803 </i>
    <i name="e_0_energy">   -191.44553293 </i>
   </energy>
  </scstep>
  <scstep>
   <time name="dav">   28.98   29.05</time>
   <time name="total">   29.49   29.57</time>
   <energy>
    <i name="e_fr_energy">   -191.54745761 </i>
    <i name="e_wo_entrp">   -191.32613650 </i>
    <i name="e_0_energy">   -191.43679706 </i>
   </energy>
  </scstep>
  <scstep>
   <time name="dav">   29.77   29.84</time>
   <time name="total">   30.28   30.36</time>
   <energy>
    <i name="e_fr_energy">   -191.55368965 </i>
    <i name="e_wo_entrp">   -191.33095510 </i>
    <i name="e_0_energy">   -191.44232237 </i>
   </energy>
  </scstep>
  <scstep>
   <time name="dav">   28.95   29.02</time>
   <time name="total">   29.46   29.54</time>
   <energy>
    <i name="e_fr_energy">   -191.54185451 </i>
    <i name="e_wo_entrp">   -191.32051877 </i>
    <i name="e_0_energy">   -191.43118664 </i>
   </energy>
  </scstep>
  <scstep>
   <time name="dav">   28.68   28.75</time>
   <time name="total">   29.19   29.27</time>
   <energy>
    <i name="e_fr_energy">   -191.54300601 </i>
    <i name="e_wo_entrp">   -191.32129919 </i>
    <i name="e_0_energy">   -191.43215260 </i>
   </energy>
  </scstep>
  <scstep>
   <time name="dav">   28.97   29.04</time>
   <time name="total">   29.48   29.56</time>
   <energy>
    <i name="e_fr_energy">   -191.54207610 </i>
    <i name="e_wo_entrp">   -191.32064594 </i>
    <i name="e_0_energy">   -191.43136102 </i>
   </energy>
  </scstep>
  <scstep>
   <time name="dav">   25.45   25.51</time>
   <time name="total">   25.96   26.03</time>
   <energy>
    <i name="e_fr_energy">   -191.54190938 </i>
    <i name="e_wo_entrp">   -191.32034832 </i>
    <i name="e_0_energy">   -191.43112885 </i>
   </energy>
  </scstep>
  <scstep>
   <time name="dav">   20.16   20.21</time>
   <time name="total">   20.20   20.25</time>
   <energy>
    <i name="alphaZ">     89.96726899 </i>
    <i name="ewald">  44571.48046285 </i>
    <i name="hartreedc"> -50580.72863472 </i>
    <i name="XCdc">   -233.39582320 </i>
    <i name="pawpsdc">   4086.82025191 </i>
    <i name="pawaedc">  -3502.84744004 </i>
    <i name="eentropy">     -0.22158910 </i>
    <i name="bandstr">  -1384.05889706 </i>
    <i name="atom">   6761.44252427 </i>
    <i name="e_fr_energy">   -191.54187610 </i>
    <i name="e_wo_entrp">   -191.32028700 </i>
    <i name="e_0_energy">   -191.43108155 </i>
   </energy>
  </scstep>
  <structure>
   <crystal>
    <varray name="basis" >
     <v>       8.28253475       4.78864727       0.00000000 </v>
     <v>      -8.28230484       4.78823676       0.00000000 </v>
     <v>       0.00000000       0.00000000      30.00000000 </v>
    </varray>
    <i name="volume">   2379.59321578 </i>
    <varray name="rec_basis" >
     <v>       0.06036624       0.10441665       0.00000000 </v>
     <v>      -0.06037142       0.10441955       0.00000000 </v>
     <v>       0.00000000       0.00000000       0.03333333 </v>
    </varray>
   </crystal>
   <varray name="positions" >
    <v>       0.66646677       0.33302740       0.00046002 </v>
    <v>       0.33461084       0.33449575       0.00045535 </v>
    <v>       0.34316930       0.67227416      -0.00043407 </v>
    <v>       0.68022187       0.68422241       0.00000234 </v>
    <v>      -0.01790340      -0.01147718      -0.00003760 </v>
    <v>       0.67896731      -0.00389783      -0.00005570 </v>
    <v>       0.99150540       0.31645401      -0.00059920 </v>
    <v>      -0.00512944       0.67875348      -0.00035830 </v>
    <v>       0.33029546      -0.00317674       0.00059827 </v>
    <v>       0.11650976       0.22440826       0.94881375 </v>
    <v>       0.22425179       0.11615767       0.05031557 </v>
    <v>       0.11515390       0.55761997       0.95153655 </v>
    <v>       0.22659598       0.44665995       0.04921066 </v>
    <v>       0.11120292       0.88984264       0.94692566 </v>
    <v>       0.22408455       0.77382485       0.05096419 </v>
    <v>       0.44694749       0.22736303       0.95017831 </v>
    <v>       0.55821945       0.11583648       0.05005642 </v>
    <v>       0.43978762       0.55301397       0.95058934 </v>
    <v>       0.55310846       0.44017006       0.04887682 </v>
    <v>       0.44184135       0.88374720       0.94903424 </v>
    <v>       0.54954050       0.77456720       0.05243653 </v>
    <v>       0.77431049       0.22455037       0.94831428 </v>
    <v>       0.88919605       0.11116933       0.05461194 </v>
    <v>       0.77452078       0.54998435       0.94870529 </v>
    <v>       0.88440252       0.44226755       0.05003871 </v>
    <v>       0.77734656       0.88862035       0.94419638 </v>
    <v>       0.88899020       0.77773578       0.05516413 </v>
   </varray>
  </structure>
  <varray name="forces" >
   <v>       0.05166124      -0.03136633       0.02140872 </v>
   <v>      -0.02236468       0.13803889       0.04354658 </v>
   <v>       0.19154820       0.42564617      -0.00370960 </v>
   <v>       0.00422595       0.04236538      -0.03459866 </v>
   <v>       0.05299300      -0.01328754      -0.02656246 </v>
   <v>       0.06231256       0.06602872      -0.08038487 </v>
   <v>       0.31985284      -0.48625629      -0.02667239 </v>
   <v>      -0.51491766       0.18519556       0.07816448 </v>
   <v>      -0.04593570      -0.20550170       0.05357469 </v>
   <v>       0.09118346      -0.21820663      -0.02011432 </v>
   <v>      -0.06123812      -0.19070877      -0.09804767 </v>
   <v>      -0.12044252      -0.18348375       0.43220349 </v>
   <v>      -0.06629319      -0.07736033      -0.09677411 </v>
   <v>      -0.21716511       0.05106180      -0.16520483 </v>
   <v>      -0.03061226      -0.11790246      -0.00740231 </v>
   <v>       0.02213871      -0.03717250       0.01730883 </v>
   <v>       0.17984261      -0.09785596      -0.10188326 </v>
   <v>       0.09542873       0.19478798      -0.00968074 </v>
   <v>      -0.10273965       0.20626374      -0.03927761 </v>
   <v>       0.03324476       0.17741195       0.01613039 </v>
   <v>       0.09450675       0.14084226       0.11748684 </v>
   <v>       0.08456218      -0.14073601      -0.09117015 </v>
   <v>       0.12838885      -0.06772650       0.24316654 </v>
   <v>      -0.15913803       0.09115705      -0.02333096 </v>
   <v>       0.04156756       0.13005881      -0.21486166 </v>
   <v>      -0.03460407      -0.00566930      -0.26130018 </v>
   <v>      -0.07800639       0.02437578       0.27798523 </v>
  </varray>
  <varray name="stress" >
   <v>       0.06999449      -0.01018605       0.33655323 </v>
   <v>      -0.01018606       0.65723603       0.01510401 </v>
   <v>       0.33655299       0.01510405      -0.88446881 </v>
  </varray>
  <energy>
   <i name="e_fr_energy">   -191.54187610 </i>
   <i name="e_wo_entrp">   -191.43108155 </i>
   <i name="e_0_energy">     -0.22158910 </i>
  </energy>
  <time name="totalsc">  377.43  378.42</time>
 </calculation>
 <calculation>
  <scstep>
   <time name="dav">   21.78   21.84</time>
   <time name="total">   22.29   22.35</time>
   <energy>
    <i name="alphaZ">     89.74473335 </i>
    <i name="ewald">  44458.96620814 </i>
    <i name="hartreedc"> -50466.27121273 </i>
    <i name="XCdc">   -233.60121206 </i>
    <i name="pawpsdc">   4086.67835500 </i>
    <i name="pawaedc">  -3502.70025961 </i>
    <i name="eentropy">     -0.22210113 </i>
    <i name="bandstr">  -1385.65584806 </i>
    <i name="atom">   6761.44252427 </i>
    <i name="e_fr_energy">   -191.61881283 </i>
    <i name="e_wo_entrp">   -191.39671170 </i>
    <i name="e_0_energy">   -191.50776226 </i>
   </energy>
  </scstep>
  <scstep>
   <time name="dav">   33.01   33.09</time>
   <time name="total">   33.52   33.61</time>
   <energy>
    <i name="e_fr_energy">   -191.67641349 </i>
    <i name="e_wo_entrp">   -191.44703899 </i>
    <i name="e_0_energy">   -191.56172624 </i>
   </energy>
  </scstep>
  <scstep>
   <time name="dav">   30.62   30.69</time>
   <time name="total">   31.13   31.21</time>
   <energy>
    <i name="e_fr_energy">   -191.63190397 </i>
    <i name="e_wo_entrp">   -191.40910034 </i>
    <i name="e_0_energy">   -191.52050216 </i>
   </energy>
  </scstep>
  <scstep>
   <time name="dav">   26.07   26.13</time>
   <time name="total">   26.58   26.65</time>
   <energy>
    <i name="e_fr_energy">   -191.63472918 </i>
    <i name="e_wo_entrp">   -191.41273224 </i>
    <i name="e_0_energy">   -191.52373071 </i>
   </energy>
  </scstep>
  <scstep>
   <time name="dav">   28.18   28.24</time>
   <time name="total">   28.69   28.77</time>
   <energy>
    <i name="e_fr_energy">   -191.62864690 </i>
    <i name="e_wo_entrp">   -191.40459268 </i>
    <i name="e_0_energy">   -191.51661979 </i>
   </energy>
  </scstep>
  <scstep>
   <time name="dav">   27.86   27.92</time>
   <time name="total">   28.36   28.44</time>
   <energy>
    <i name="e_fr_energy">   -191.62976869 </i>
    <i name="e_wo_entrp">   -191.40668016 </i>
    <i name="e_0_energy">   -191.51822443 </i>
   </energy>
  </scstep>
  <scstep>
   <time name="dav">   27.92   27.99</time>
   <time name="total">   28.43   28.51</time>
   <energy>
    <i name="e_fr_energy">   -191.62841798 </i>
    <i name="e_wo_entrp">   -191.40522560 </i>
    <i name="e_0_energy">   -191.51682179 </i>
   </energy>
  </scstep>
  <scstep>
   <time name="dav">   25.48   25.54</time>
   <time name="total">   25.99   26.06</time>
   <energy>
    <i name="e_fr_energy">   -191.62791767 </i>
    <i name="e_wo_entrp">   -191.40470581 </i>
    <i name="e_0_energy">   -191.51631174 </i>
   </energy>
  </scstep>
  <scstep>
   <time name="dav">   18.93   18.98</time>
   <time name="total">   18.97   19.02</time>
   <energy>
    <i name="alphaZ">     89.74473335 </i>
    <i name="ewald">  44458.96620814 </i>
    <i name="hartreedc"> -50469.11454914 </i>
    <i name="XCdc">   -233.50636812 </i>
    <i name="pawpsdc">   4083.50507779 </i>
    <i name="pawaedc">  -3499.48385624 </i>
    <i name="eentropy">     -0.22325608 </i>
    <i name="bandstr">  -1382.95844406 </i>
    <i name="atom">   6761.44252427 </i>
    <i name="e_fr_energy">   -191.62793008 </i>
    <i name="e_wo_entrp">   -191.40467399 </i>
    <i name="e_0_energy">   -191.51630203 </i>
   </energy>
  </scstep>
  <structure>
   <crystal>
    <varray name="basis" >
     <v>       8.28655841       4.79788572       0.00000000 </v>
     <v>      -8.28659239       4.79793106       0.00000000 </v>
     <v>       0.00000000       0.00000000      30.00000000 </v>
    </varray>
    <i name="volume">   2385.49377700 </i>
    <varray name="rec_basis" >
     <v>       0.06033884       0.10421229       0.00000000 </v>
     <v>      -0.06033827       0.10421186       0.00000000 </v>
     <v>       0.00000000       0.00000000       0.03333333 </v>
    </varray>
   </crystal>
   <varray name="positions" >
    <v>       0.66645501       0.33273773       0.00048544 </v>
    <v>       0.33520345       0.33521610       0.00051788 </v>
    <v>       0.34565976       0.67372639      -0.00043232 </v>
    <v>       0.68025622       0.68420364      -0.00005029 </v>
    <v>      -0.01760892      -0.01154533      -0.00007782 </v>
    <v>       0.67930716      -0.00372420      -0.00018248 </v>
    <v>       0.99015343       0.31340664      -0.00063406 </v>
    <v>      -0.00562649       0.68093245      -0.00023126 </v>
    <v>       0.32922308      -0.00398793       0.00067402 </v>
    <v>       0.11568843       0.22311559       0.94883246 </v>
    <v>       0.22317791       0.11538999       0.05012563 </v>
    <v>       0.11392144       0.55706330       0.95221699 </v>
    <v>       0.22601970       0.44646028       0.04902260 </v>
    <v>       0.11085181       0.89066958       0.94673106 </v>
    <v>       0.22342916       0.77337129       0.05090505 </v>
    <v>       0.44681455       0.22709201       0.95025129 </v>
    <v>       0.55821847       0.11485065       0.04986403 </v>
    <v>       0.44099032       0.55369094       0.95061589 </v>
    <v>       0.55381872       0.44144212       0.04878087 </v>
    <v>       0.44278059       0.88452686       0.94910583 </v>
    <v>       0.55049567       0.77499056       0.05255215 </v>
    <v>       0.77390452       0.22365140       0.94823138 </v>
    <v>       0.88923603       0.11050734       0.05490721 </v>
    <v>       0.77455136       0.55088674       0.94872040 </v>
    <v>       0.88516351       0.44278765       0.04967376 </v>
    <v>       0.77722687       0.88869396       0.94388948 </v>
    <v>       0.88890270       0.77805870       0.05550472 </v>
   </varray>
  </structure>
  <varray name="forces" >
   <v>       0.05107517      -0.01291045       0.03301919 </v>
   <v>      -0.03864276       0.16275952       0.05820487 </v>
   <v>       0.25602011       0.49061166      -0.00157738 </v>
   <v>      -0.04029673       0.12716245      -0.02994203 </v>
   <v>       0.02472595      -0.12051439      -0.02850787 </v>
   <v>       0.15409661       0.09900546      -0.01387649 </v>
   <v>       0.33439255      -0.52813498      -0.02501910 </v>
   <v>      -0.54607122       0.19100890      -0.00378594 </v>
   <v>      -0.09245619      -0.25376684       0.04573961 </v>
   <v>       0.07942376      -0.12015113      -0.04325185 </v>
   <v>      -0.04056658      -0.07919243      -0.07470248 </v>
   <v>      -0.07467157      -0.13755322       0.49769825 </v>
   <v>      -0.06030228      -0.05368272      -0.13654145 </v>
   <v>      -0.11409500       0.03394396      -0.14706693 </v>
   <v>      -0.01387586      -0.08687887      -0.03094907 </v>
   <v>       0.01826848      -0.02615637       0.05324518 </v>
   <v>       0.07975371      -0.08526784      -0.11653238 </v>
   <v>       0.04814998       0.11279447      -0.03154276 </v>
   <v>      -0.04259090       0.10286019      -0.04416533 </v>
   <v>       0.00662482       0.10279297       0.00079366 </v>
   <v>       0.03228100       0.08147288       0.10991313 </v>
   <v>       0.04129989      -0.09062201      -0.09496471 </v>
   <v>       0.07770525      -0.08075145       0.17399266 </v>
   <v>      -0.07636978       0.07316345      -0.00411444 </v>
   <v>       0.03586281       0.09285556      -0.22565966 </v>
   <v>      -0.00458993      -0.00020627      -0.13782131 </v>
   <v>      -0.09515129       0.00535749       0.21741460 </v>
  </varray>
  <varray name="stress" >
   <v>      -0.05472491      -0.10382418       0.04318213 </v>
   <v>      -0.10382409      -0.09959141      -0.06309894 </v>
   <v>       0.04318203      -0.06309865      -1.46282295 </v>
  </varray>
  <energy>
   <i name="e_fr_energy">   -191.62793008 </i>
   <i name="e_wo_entrp">   -191.51630203 </i>
   <i name="e_0_energy">     -0.22325608 </i>
  </energy>
  <time name="totalsc">  286.10  286.86</time>
 </calculation>
 <calculation>
  <scstep>
   <time name="dav">   21.76   21.81</time>
   <time name="total">   22.26   22.32</time>
   <energy>
    <i name="alphaZ">     89.78251471 </i>
    <i name="ewald">  44481.50351980 </i>
    <i name="hartreedc"> -50491.76615494 </i>
    <i name="XCdc">   -233.46275037 </i>
    <i name="pawpsdc">   4083.21267860 </i>
    <i name="pawaedc">  -3499.18858067 </i>
    <i name="eentropy">     -0.22144865 </i>
    <i name="bandstr">  -1382.99978094 </i>
    <i name="atom">   6761.44252427 </i>
    <i name="e_fr_energy">   -191.69747819 </i>
    <i name="e_wo_entrp">   -191.47602954 </i>
    <i name="e_0_energy">   -191.58675387 </i>
   </energy>
  </scstep>
  <scstep>
   <time name="dav">   31.30   31.37</time>
   <time name="total">   31.81   31.89</time>
   <energy>
    <i name="e_fr_energy">   -191.72999891 </i>
    <i name="e_wo_entrp">   -191.50180552 </i>
    <i name="e_0_energy">   -191.61590221 </i>
   </energy>
  </scstep>
  <scstep>
   <time name="dav">   30.70   30.78</time>
   <time name="total">   31.21   31.30</time>
   <energy>
    <i name="e_fr_energy">   -191.70376317 </i>
    <i name="e_wo_entrp">   -191.48179677 </i>
    <i name="e_0_energy">   -191.59277997 </i>
   </energy>
  </scstep>
  <scstep>
   <time name="dav">   28.00   28.07</time>
   <time name="total">   28.51   28.59</time>
   <energy>
    <i name="e_fr_energy">   -191.70448151 </i>
    <i name="e_wo_entrp">   -191.48355251 </i>
    <i name="e_0_energy">   -191.59401701 </i>
   </energy>
  </scstep>
  <scstep>
   <time name="dav">   28.30   28.37</time>
   <time name="total">   28.81   28.89</time>
   <energy>
    <i name="e_fr_energy">   -191.70159374 </i>
    <i name="e_wo_entrp">   -191.47857226 </i>
    <i name="e_0_energy">   -191.59008300 </i>
   </energy>
  </scstep>
  <scstep>
   <time name="dav">   27.76   27.82</time>
   <time name="total">   28.26   28.34</time>
   <energy>
    <i name="e_fr_energy">   -191.70186324 </i>
    <i name="e_wo_entrp">   -191.47941157 </i>
    <i name="e_0_energy">   -191.59063741 </i>
   </energy>
  </scstep>
  <scstep>
   <time name="dav">   25.48   25.54</time>
   <time name="total">   25.99   26.06</time>
   <energy>
    <i name="e_fr_energy">   -191.70157542 </i>
    <i name="e_wo_entrp">   -191.47905328 </i>
    <i name="e_0_energy">   -191.59031435 </i>
   </energy>
  </scstep>
  <scstep>
[...]
      <set comment="kpoint 31">
       <r>  -17.4777    1.0000 </r>
       <r>  -17.2862    1.0000 </r>
       <r>  -16.9064    1.0000 </r>
       <r>  -16.6109    1.0000 </r>
       <r>  -16.4972    1.0000 </r>
       <r>  -16.3896    1.0000 </r>
       <r>  -16.3146    1.0000 </r>
       <r>  -16.1881    1.0000 </r>
       <r>  -16.1026    1.0000 </r>
       <r>  -16.0455    1.0000 </r>
       <r>  -15.9217    1.0000 </r>
       <r>  -15.9124    1.0000 </r>
       <r>  -15.8065    1.0000 </r>
       <r>  -15.7593    1.0000 </r>
       <r>  -15.5929    1.0000 </r>
       <r>  -15.5100    1.0000 </r>
       <r>  -15.3934    1.0000 </r>
       <r>  -15.2881    1.0000 </r>
       <r>   -9.7142    1.0000 </r>
       <r>   -9.4176    1.0000 </r>
       <r>   -9.2949    1.0000 </r>
       <r>   -8.9435    1.0000 </r>
       <r>   -8.7938    1.0000 </r>
       <r>   -8.7352    1.0000 </r>
       <r>   -8.5384    1.0000 </r>
       <r>   -8.4443    1.0000 </r>
       <r>   -8.4072    1.0000 </r>
       <r>   -8.3225    1.0000 </r>
       <r>   -8.3124    1.0000 </r>
       <r>   -8.1674    1.0000 </r>
       <r>   -8.1219    1.0000 </r>
       <r>   -8.0793    1.0000 </r>
       <r>   -8.0084    1.0000 </r>
       <r>   -7.8598    1.0000 </r>
       <r>   -7.8099    1.0000 </r>
       <r>   -7.6484    1.0000 </r>
       <r>   -7.5792    1.0000 </r>
       <r>   -7.4927    1.0000 </r>
       <r>   -7.2824    1.0000 </r>
       <r>   -7.2315    1.0000 </r>
       <r>   -7.1452    1.0000 </r>
       <r>   -7.1267    1.0000 </r>
       <r>   -7.0321    1.0000 </r>
       <r>   -6.9801    1.0000 </r>
       <r>   -6.8390    1.0000 </r>
       <r>   -6.7905    1.0000 </r>
       <r>   -6.6448    1.0000 </r>
       <r>   -6.5837    1.0000 </r>
       <r>   -6.5312    1.0000 </r>
       <r>   -6.4834    1.0000 </r>
       <r>   -6.4213    1.0000 </r>
       <r>   -6.3716    1.0000 </r>
       <r>   -6.2968    1.0000 </r>
       <r>   -6.2307    1.0000 </r>
       <r>   -6.1952    1.0000 </r>
       <r>   -6.0693    1.0000 </r>
       <r>   -6.0056    1.0000 </r>
       <r>   -5.9235    1.0000 </r>
       <r>   -5.8667    1.0000 </r>
       <r>   -5.7948    1.0000 </r>
       <r>   -5.7453    1.0000 </r>
       <r>   -5.6481    1.0000 </r>
       <r>   -5.5977    1.0000 </r>
       <r>   -5.3963    1.0000 </r>
       <r>   -5.2700    1.0000 </r>
       <r>   -5.1768    1.0000 </r>
       <r>   -5.0611    1.0000 </r>
       <r>   -4.9110    1.0000 </r>
       <r>   -4.8018    1.0000 </r>
       <r>   -4.7623    1.0000 </r>
       <r>   -4.5340    1.0000 </r>
       <r>   -4.4575    1.0000 </r>
       <r>   -4.3331    1.0000 </r>
       <r>   -4.2353    1.0000 </r>
       <r>   -4.1630    1.0000 </r>
       <r>   -4.0456    1.0000 </r>
       <r>   -3.8983    1.0000 </r>
       <r>   -3.6497    0.9974 </r>
       <r>   -3.4906    0.9528 </r>
       <r>   -3.2760    0.5619 </r>
       <r>   -2.9037    0.0066 </r>
       <r>   -2.7192    0.0001 </r>
       <r>   -2.6159    0.0000 </r>
       <r>   -2.5231    0.0000 </r>
       <r>   -2.3997    0.0000 </r>
       <r>   -2.3438    0.0000 </r>
       <r>   -2.2769    0.0000 </r>
       <r>   -2.1007    0.0000 </r>
       <r>   -1.9991    0.0000 </r>
       <r>   -1.9722    0.0000 </r>
       <r>   -1.8833    0.0000 </r>
       <r>   -1.7631    0.0000 </r>
       <r>   -1.4979    0.0000 </r>
       <r>   -1.2775    0.0000 </r>
       <r>   -1.2197    0.0000 </r>
       <r>   -1.1066    0.0000 </r>
       <r>   -1.0742    0.0000 </r>
       <r>   -1.0028    0.0000 </r>
       <r>   -0.9600    0.0000 </r>
       <r>   -0.8918    0.0000 </r>
       <r>   -0.8661    0.0000 </r>
       <r>   -0.7540    0.0000 </r>
       <r>   -0.7232    0.0000 </r>
       <r>   -0.5925    0.0000 </r>
       <r>   -0.5239    0.0000 </r>
       <r>   -0.3988    0.0000 </r>
       <r>   -0.2522    0.0000 </r>
       <r>   -0.1653    0.0000 </r>
       <r>    0.0525    0.0000 </r>
       <r>    0.2255    0.0000 </r>
       <r>    0.4245    0.0000 </r>
       <r>    0.6101    0.0000 </r>
       <r>    0.7501    0.0000 </r>
       <r>    0.9839    0.0000 </r>
       <r>    1.0718    0.0000 </r>
       <r>    1.2088    0.0000 </r>
       <r>    1.4083    0.0000 </r>
       <r>    2.1179    0.0000 </r>
       <r>    2.2749    0.0000 </r>
       <r>    2.3726    0.0000 </r>
      </set>
      <set comment="kpoint 32">
       <r>  -17.4997    1.0000 </r>
       <r>  -17.1975    1.0000 </r>
       <r>  -17.0251    1.0000 </r>
       <r>  -16.6125    1.0000 </r>
       <r>  -16.4073    1.0000 </r>
       <r>  -16.3545    1.0000 </r>
       <r>  -16.2942    1.0000 </r>
       <r>  -16.2426    1.0000 </r>
       <r>  -16.1213    1.0000 </r>
       <r>  -16.0783    1.0000 </r>
       <r>  -15.9510    1.0000 </r>
       <r>  -15.8954    1.0000 </r>
       <r>  -15.8085    1.0000 </r>
       <r>  -15.7296    1.0000 </r>
       <r>  -15.5992    1.0000 </r>
       <r>  -15.5041    1.0000 </r>
       <r>  -15.4080    1.0000 </r>
       <r>  -15.2720    1.0000 </r>
       <r>   -9.6722    1.0000 </r>
       <r>   -9.5124    1.0000 </r>
       <r>   -9.3543    1.0000 </r>
       <r>   -8.9174    1.0000 </r>
       <r>   -8.7158    1.0000 </r>
       <r>   -8.5911    1.0000 </r>
       <r>   -8.5446    1.0000 </r>
       <r>   -8.4615    1.0000 </r>
       <r>   -8.3855    1.0000 </r>
       <r>   -8.3633    1.0000 </r>
       <r>   -8.2887    1.0000 </r>
       <r>   -8.2381    1.0000 </r>
       <r>   -8.1345    1.0000 </r>
       <r>   -8.1036    1.0000 </r>
       <r>   -8.0250    1.0000 </r>
       <r>   -7.9200    1.0000 </r>
       <r>   -7.7669    1.0000 </r>
       <r>   -7.7115    1.0000 </r>
       <r>   -7.5434    1.0000 </r>
       <r>   -7.4489    1.0000 </r>
       <r>   -7.3194    1.0000 </r>
       <r>   -7.2560    1.0000 </r>
       <r>   -7.1950    1.0000 </r>
       <r>   -7.0827    1.0000 </r>
       <r>   -7.0010    1.0000 </r>
       <r>   -6.9070    1.0000 </r>
       <r>   -6.8691    1.0000 </r>
       <r>   -6.7503    1.0000 </r>
       <r>   -6.6912    1.0000 </r>
       <r>   -6.6108    1.0000 </r>
       <r>   -6.4991    1.0000 </r>
       <r>   -6.4639    1.0000 </r>
       <r>   -6.4426    1.0000 </r>
       <r>   -6.3754    1.0000 </r>
       <r>   -6.2957    1.0000 </r>
       <r>   -6.2513    1.0000 </r>
       <r>   -6.1739    1.0000 </r>
       <r>   -6.0553    1.0000 </r>
       <r>   -5.9649    1.0000 </r>
       <r>   -5.9220    1.0000 </r>
       <r>   -5.8825    1.0000 </r>
       <r>   -5.7636    1.0000 </r>
       <r>   -5.6906    1.0000 </r>
       <r>   -5.6152    1.0000 </r>
       <r>   -5.5466    1.0000 </r>
       <r>   -5.4559    1.0000 </r>
       <r>   -5.3118    1.0000 </r>
       <r>   -5.2092    1.0000 </r>
       <r>   -5.0862    1.0000 </r>
       <r>   -4.9494    1.0000 </r>
       <r>   -4.9020    1.0000 </r>
       <r>   -4.6847    1.0000 </r>
       <r>   -4.5676    1.0000 </r>
       <r>   -4.4929    1.0000 </r>
       <r>   -4.3810    1.0000 </r>
       <r>   -4.2120    1.0000 </r>
       <r>   -4.1631    1.0000 </r>
       <r>   -4.0316    1.0000 </r>
       <r>   -3.8890    1.0000 </r>
       <r>   -3.6392    0.9968 </r>
       <r>   -3.4865    0.9499 </r>
       <r>   -3.1541    0.2399 </r>
       <r>   -2.9129    0.0079 </r>
       <r>   -2.7402    0.0001 </r>
       <r>   -2.6116    0.0000 </r>
       <r>   -2.5039    0.0000 </r>
       <r>   -2.4331    0.0000 </r>
       <r>   -2.3589    0.0000 </r>
       <r>   -2.2637    0.0000 </r>
       <r>   -2.1305    0.0000 </r>
       <r>   -2.0312    0.0000 </r>
       <r>   -1.9840    0.0000 </r>
       <r>   -1.8912    0.0000 </r>
       <r>   -1.7286    0.0000 </r>
       <r>   -1.4985    0.0000 </r>
       <r>   -1.2897    0.0000 </r>
       <r>   -1.1875    0.0000 </r>
       <r>   -1.1383    0.0000 </r>
       <r>   -1.0686    0.0000 </r>
       <r>   -1.0148    0.0000 </r>
       <r>   -0.9853    0.0000 </r>
       <r>   -0.9042    0.0000 </r>
       <r>   -0.8293    0.0000 </r>
       <r>   -0.7845    0.0000 </r>
       <r>   -0.6540    0.0000 </r>
       <r>   -0.6213    0.0000 </r>
       <r>   -0.5141    0.0000 </r>
       <r>   -0.3514    0.0000 </r>
       <r>   -0.2057    0.0000 </r>
       <r>   -0.1170    0.0000 </r>
       <r>    0.0573    0.0000 </r>
       <r>    0.2520    0.0000 </r>
       <r>    0.4380    0.0000 </r>
       <r>    0.6122    0.0000 </r>
       <r>    0.7852    0.0000 </r>
       <r>    0.9511    0.0000 </r>
       <r>    1.0137    0.0000 </r>
       <r>    1.1617    0.0000 </r>
       <r>    1.3267    0.0000 </r>
       <r>    2.0862    0.0000 </r>
       <r>    2.2451    0.0000 </r>
       <r>    2.5434    0.0000 </r>
      </set>
      <set comment="kpoint 33">
       <r>  -17.4845    1.0000 </r>
       <r>  -17.2714    1.0000 </r>
       <r>  -16.9117    1.0000 </r>
       <r>  -16.6150    1.0000 </r>
       <r>  -16.5079    1.0000 </r>
       <r>  -16.3707    1.0000 </r>
       <r>  -16.3093    1.0000 </r>
       <r>  -16.2206    1.0000 </r>
       <r>  -16.0947    1.0000 </r>
       <r>  -16.0494    1.0000 </r>
       <r>  -15.9784    1.0000 </r>
       <r>  -15.8604    1.0000 </r>
       <r>  -15.8073    1.0000 </r>
       <r>  -15.6964    1.0000 </r>
       <r>  -15.6129    1.0000 </r>
       <r>  -15.5035    1.0000 </r>
       <r>  -15.4462    1.0000 </r>
       <r>  -15.2594    1.0000 </r>
       <r>   -9.7357    1.0000 </r>
       <r>   -9.4303    1.0000 </r>
       <r>   -9.2733    1.0000 </r>
       <r>   -8.9549    1.0000 </r>
       <r>   -8.8192    1.0000 </r>
       <r>   -8.7258    1.0000 </r>
       <r>   -8.5660    1.0000 </r>
       <r>   -8.4781    1.0000 </r>
       <r>   -8.3816    1.0000 </r>
       <r>   -8.3060    1.0000 </r>
       <r>   -8.2692    1.0000 </r>
       <r>   -8.2030    1.0000 </r>
       <r>   -8.1556    1.0000 </r>
       <r>   -8.0785    1.0000 </r>
       <r>   -7.9148    1.0000 </r>
       <r>   -7.8777    1.0000 </r>
       <r>   -7.7997    1.0000 </r>
       <r>   -7.7391    1.0000 </r>
       <r>   -7.5417    1.0000 </r>
       <r>   -7.4184    1.0000 </r>
       <r>   -7.3302    1.0000 </r>
       <r>   -7.2673    1.0000 </r>
       <r>   -7.1167    1.0000 </r>
       <r>   -7.0723    1.0000 </r>
       <r>   -7.0061    1.0000 </r>
       <r>   -6.8869    1.0000 </r>
       <r>   -6.8592    1.0000 </r>
       <r>   -6.7841    1.0000 </r>
       <r>   -6.7410    1.0000 </r>
       <r>   -6.6013    1.0000 </r>
       <r>   -6.5337    1.0000 </r>
       <r>   -6.4388    1.0000 </r>
       <r>   -6.4063    1.0000 </r>
       <r>   -6.3058    1.0000 </r>
       <r>   -6.2813    1.0000 </r>
       <r>   -6.2332    1.0000 </r>
       <r>   -6.1832    1.0000 </r>
       <r>   -6.0776    1.0000 </r>
       <r>   -6.0065    1.0000 </r>
       <r>   -5.9524    1.0000 </r>
       <r>   -5.8849    1.0000 </r>
       <r>   -5.8459    1.0000 </r>
       <r>   -5.7625    1.0000 </r>
       <r>   -5.6874    1.0000 </r>
       <r>   -5.5893    1.0000 </r>
       <r>   -5.3522    1.0000 </r>
       <r>   -5.2827    1.0000 </r>
       <r>   -5.1470    1.0000 </r>
       <r>   -5.0979    1.0000 </r>
       <r>   -4.9491    1.0000 </r>
       <r>   -4.9142    1.0000 </r>
       <r>   -4.6568    1.0000 </r>
       <r>   -4.5436    1.0000 </r>
       <r>   -4.4988    1.0000 </r>
       <r>   -4.4009    1.0000 </r>
       <r>   -4.2199    1.0000 </r>
       <r>   -4.1863    1.0000 </r>
       <r>   -4.0414    1.0000 </r>
       <r>   -3.8807    1.0000 </r>
       <r>   -3.6342    0.9964 </r>
       <r>   -3.5304    0.9747 </r>
       <r>   -3.0109    0.0428 </r>
       <r>   -2.9032    0.0066 </r>
       <r>   -2.7756    0.0004 </r>
       <r>   -2.5971    0.0000 </r>
       <r>   -2.5303    0.0000 </r>
       <r>   -2.4610    0.0000 </r>
       <r>   -2.4093    0.0000 </r>
       <r>   -2.2368    0.0000 </r>
       <r>   -2.1585    0.0000 </r>
       <r>   -2.0468    0.0000 </r>
       <r>   -1.9838    0.0000 </r>
       <r>   -1.9214    0.0000 </r>
       <r>   -1.6254    0.0000 </r>
       <r>   -1.4793    0.0000 </r>
       <r>   -1.3003    0.0000 </r>
       <r>   -1.2078    0.0000 </r>
       <r>   -1.1498    0.0000 </r>
       <r>   -1.0997    0.0000 </r>
       <r>   -1.0660    0.0000 </r>
       <r>   -0.9750    0.0000 </r>
       <r>   -0.9146    0.0000 </r>
       <r>   -0.8167    0.0000 </r>
       <r>   -0.7735    0.0000 </r>
       <r>   -0.6652    0.0000 </r>
       <r>   -0.5527    0.0000 </r>
       <r>   -0.4977    0.0000 </r>
       <r>   -0.2634    0.0000 </r>
       <r>   -0.2032    0.0000 </r>
       <r>   -0.1314    0.0000 </r>
       <r>    0.0048    0.0000 </r>
       <r>    0.2680    0.0000 </r>
       <r>    0.5197    0.0000 </r>
       <r>    0.6370    0.0000 </r>
       <r>    0.8044    0.0000 </r>
       <r>    0.9007    0.0000 </r>
       <r>    1.0094    0.0000 </r>
       <r>    1.0940    0.0000 </r>
       <r>    1.3051    0.0000 </r>
       <r>    2.1156    0.0000 </r>
       <r>    2.2771    0.0000 </r>
       <r>    2.3772    0.0000 </r>
      </set>
      <set comment="kpoint 34">
       <r>  -17.4596    1.0000 </r>
       <r>  -17.3326    1.0000 </r>
       <r>  -16.7443    1.0000 </r>
       <r>  -16.6823    1.0000 </r>
       <r>  -16.6153    1.0000 </r>
       <r>  -16.3817    1.0000 </r>
       <r>  -16.2697    1.0000 </r>
       <r>  -16.2513    1.0000 </r>
       <r>  -16.0709    1.0000 </r>
       <r>  -16.0287    1.0000 </r>
       <r>  -15.9938    1.0000 </r>
       <r>  -15.8232    1.0000 </r>
       <r>  -15.8140    1.0000 </r>
       <r>  -15.6668    1.0000 </r>
       <r>  -15.6323    1.0000 </r>
       <r>  -15.5060    1.0000 </r>
       <r>  -15.4714    1.0000 </r>
       <r>  -15.2554    1.0000 </r>
       <r>   -9.7709    1.0000 </r>
       <r>   -9.3410    1.0000 </r>
       <r>   -9.1643    1.0000 </r>
       <r>   -9.0652    1.0000 </r>
       <r>   -8.8713    1.0000 </r>
       <r>   -8.8247    1.0000 </r>
       <r>   -8.5889    1.0000 </r>
       <r>   -8.4922    1.0000 </r>
       <r>   -8.3805    1.0000 </r>
       <r>   -8.3433    1.0000 </r>
       <r>   -8.2386    1.0000 </r>
       <r>   -8.1507    1.0000 </r>
       <r>   -8.1307    1.0000 </r>
       <r>   -8.0437    1.0000 </r>
       <r>   -7.8938    1.0000 </r>
       <r>   -7.8184    1.0000 </r>
       <r>   -7.8076    1.0000 </r>
       <r>   -7.7802    1.0000 </r>
       <r>   -7.5160    1.0000 </r>
       <r>   -7.4452    1.0000 </r>
       <r>   -7.2724    1.0000 </r>
       <r>   -7.2590    1.0000 </r>
       <r>   -7.1214    1.0000 </r>
       <r>   -7.0242    1.0000 </r>
       <r>   -7.0053    1.0000 </r>
       <r>   -6.9116    1.0000 </r>
       <r>   -6.8939    1.0000 </r>
       <r>   -6.7988    1.0000 </r>
       <r>   -6.7460    1.0000 </r>
       <r>   -6.5732    1.0000 </r>
       <r>   -6.5418    1.0000 </r>
       <r>   -6.4291    1.0000 </r>
       <r>   -6.3749    1.0000 </r>
       <r>   -6.3461    1.0000 </r>
       <r>   -6.2671    1.0000 </r>
       <r>   -6.1589    1.0000 </r>
       <r>   -6.1453    1.0000 </r>
       <r>   -6.1156    1.0000 </r>
       <r>   -6.1036    1.0000 </r>
       <r>   -5.9848    1.0000 </r>
       <r>   -5.9154    1.0000 </r>
       <r>   -5.8482    1.0000 </r>
       <r>   -5.8314    1.0000 </r>
       <r>   -5.7140    1.0000 </r>
       <r>   -5.5646    1.0000 </r>
       <r>   -5.3564    1.0000 </r>
       <r>   -5.3031    1.0000 </r>
       <r>   -5.1009    1.0000 </r>
       <r>   -5.0825    1.0000 </r>
       <r>   -4.9442    1.0000 </r>
       <r>   -4.7849    1.0000 </r>
       <r>   -4.7536    1.0000 </r>
       <r>   -4.5117    1.0000 </r>
       <r>   -4.4677    1.0000 </r>
       <r>   -4.3843    1.0000 </r>
       <r>   -4.2648    1.0000 </r>
       <r>   -4.2061    1.0000 </r>
       <r>   -4.0463    1.0000 </r>
       <r>   -3.8759    1.0000 </r>
       <r>   -3.6329    0.9963 </r>
       <r>   -3.5563    0.9837 </r>
       <r>   -2.9336    0.0117 </r>
       <r>   -2.8999    0.0061 </r>
       <r>   -2.8032    0.0007 </r>
       <r>   -2.5786    0.0000 </r>
       <r>   -2.5583    0.0000 </r>
       <r>   -2.4664    0.0000 </r>
       <r>   -2.4491    0.0000 </r>
       <r>   -2.2235    0.0000 </r>
       <r>   -2.1679    0.0000 </r>
       <r>   -2.0419    0.0000 </r>
       <r>   -1.9872    0.0000 </r>
       <r>   -1.9353    0.0000 </r>
       <r>   -1.5677    0.0000 </r>
       <r>   -1.4545    0.0000 </r>
       <r>   -1.3067    0.0000 </r>
       <r>   -1.2513    0.0000 </r>
       <r>   -1.1472    0.0000 </r>
       <r>   -1.1253    0.0000 </r>
       <r>   -1.0812    0.0000 </r>
       <r>   -0.9439    0.0000 </r>
       <r>   -0.9280    0.0000 </r>
       <r>   -0.8240    0.0000 </r>
       <r>   -0.7724    0.0000 </r>
       <r>   -0.6684    0.0000 </r>
       <r>   -0.5253    0.0000 </r>
       <r>   -0.4674    0.0000 </r>
       <r>   -0.2307    0.0000 </r>
       <r>   -0.2185    0.0000 </r>
       <r>   -0.1390    0.0000 </r>
       <r>   -0.0319    0.0000 </r>
       <r>    0.2632    0.0000 </r>
       <r>    0.5817    0.0000 </r>
       <r>    0.6526    0.0000 </r>
       <r>    0.8008    0.0000 </r>
       <r>    0.8692    0.0000 </r>
       <r>    1.0302    0.0000 </r>
       <r>    1.0583    0.0000 </r>
       <r>    1.3125    0.0000 </r>
       <r>    2.1841    0.0000 </r>
       <r>    2.2451    0.0000 </r>
       <r>    2.3671    0.0000 </r>
      </set>
     </set>
    </set>
   </array>
  </eigenvalues>
  <separator name="orbital magnetization" >
   <v name="MAGDIPOLOUT">      0.00000000      0.00000000      0.00000000</v>
  </separator>
 </calculation>
 <structure name="finalpos" >
  <crystal>
   <varray name="basis" >
    <v>       8.37339647       4.84566698       0.00000000 </v>
    <v>      -8.37130255       4.84213554       0.00000000 </v>
    <v>       0.00000000       0.00000000      30.00000000 </v>
   </varray>
   <i name="volume">   2433.28994958 </i>
   <varray name="rec_basis" >
    <v>       0.05969863       0.10320968       0.00000000 </v>
    <v>      -0.05974216       0.10323550       0.00000000 </v>
    <v>       0.00000000       0.00000000       0.03333333 </v>
   </varray>
  </crystal>
  <varray name="positions" >
   <v>       0.68457377       0.36819465       0.00069805 </v>
   <v>       0.35820253       0.35769809      -0.00023398 </v>
   <v>       0.36996264       0.68492044      -0.00060594 </v>
   <v>       0.67267924       0.67420012      -0.00000785 </v>
   <v>      -0.02119969      -0.01986264      -0.00005294 </v>
   <v>       0.68626422      -0.01415291       0.00023031 </v>
   <v>       0.98318821       0.29341921      -0.00166454 </v>
   <v>      -0.01387567       0.68549865      -0.00006672 </v>
   <v>       0.29399437      -0.01652336       0.00178134 </v>
   <v>       0.11913207       0.21832696       0.95038521 </v>
   <v>       0.21885102       0.12034486       0.04935517 </v>
   <v>       0.11324517       0.55423208       0.95972060 </v>
   <v>       0.22752382       0.44881064       0.04586598 </v>
   <v>       0.10361781       0.88664599       0.94401108 </v>
   <v>       0.21811800       0.76950726       0.04980069 </v>
   <v>       0.44845433       0.22676725       0.95379460 </v>
   <v>       0.55343550       0.11320678       0.04039831 </v>
   <v>       0.44376118       0.55812823       0.94832233 </v>
   <v>       0.55728498       0.44331512       0.05133249 </v>
   <v>       0.44320867       0.88961949       0.95163634 </v>
   <v>       0.55484893       0.77594240       0.05454403 </v>
   <v>       0.77026518       0.21875848       0.95029597 </v>
   <v>       0.88780886       0.10453111       0.05618955 </v>
   <v>       0.77637258       0.55448715       0.94574814 </v>
   <v>       0.88957614       0.44345058       0.04853574 </v>
   <v>       0.77581027       0.88284113       0.94313591 </v>
   <v>       0.88311031       0.77590669       0.05685004 </v>
  </varray>
 </structure>
</modeling>
