unknown system                          
           1
     8.853446    5.105516    0.000000
    -8.854727    5.107721    0.000000
     0.000000    0.000000   30.000000
   V    Mo   W    S 
   3   3   3  18
Direct configuration=     1
   0.66666669  0.33333334  0.00000000
   0.33333334  0.33333334  0.00000000
   0.33333334  0.66666669  0.00000000
   0.66666669  0.66666669  0.00000000
   0.00000000  0.00000000  0.00000000
   0.66666669  0.00000000  0.00000000
   1.00000000  0.33333334  0.00000000
   0.00000000  0.66666669  0.00000000
   0.33333334  0.00000000  0.00000000
   0.11068511  0.22244981  0.95539999
   0.22244981  0.11068511  0.04460000
   0.11068511  0.55578315  0.95539999
   0.22244981  0.44401845  0.04460000
   0.11068511  0.88911647  0.95539999
   0.22244981  0.77735180  0.04460000
   0.44401845  0.22244981  0.95539999
   0.55578315  0.11068511  0.04460000
   0.44401845  0.55578315  0.95539999
   0.55578315  0.44401845  0.04460000
   0.44401845  0.88911647  0.95539999
   0.55578315  0.77735180  0.04460000
   0.77735180  0.22244981  0.95539999
   0.88911647  0.11068511  0.04460000
   0.77735180  0.55578315  0.95539999
   0.88911647  0.44401845  0.04460000
   0.77735180  0.88911647  0.95539999
   0.88911647  0.77735180  0.04460000
unknown system                          
           1
     8.666154    4.999736    0.000000
    -8.667331    5.001762    0.000000
     0.000000    0.000000   30.000000
   V    Mo   W    S 
   3   3   3  18
Direct configuration=     2
   0.66632697  0.33340345 -0.00008808
   0.33375666  0.33380944  0.00004266
   0.33565986  0.66742797  0.00008844
   0.66755533  0.66899272  0.00004626
  -0.00288146 -0.00144468  0.00001536
   0.66818692 -0.00142669 -0.00014839
   0.99886167  0.33038159 -0.00004673
  -0.00160965  0.66812072  0.00011739
   0.33355171  0.00032808  0.00002002
   0.11501551  0.22477110  0.95192953
   0.22472579  0.11495571  0.04800762
   0.11474731  0.55722288  0.95205147
   0.22571507  0.44600661  0.04690689
   0.11150466  0.88850488  0.95074715
   0.22415561  0.77556589  0.04805937
   0.44599906  0.22569317  0.95306134
   0.55666955  0.11500829  0.04797440
   0.43994087  0.55348229  0.95312420
   0.55348098  0.43993574  0.04682819
   0.44178921  0.88484720  0.95195668
   0.55083896  0.77535611  0.04810020
   0.77617338  0.22508626  0.95196720
   0.88939880  0.11205116  0.04929106
   0.77635702  0.55125672  0.95192048
   0.88520073  0.44271398  0.04804565
   0.77768037  0.88890464  0.95065732
   0.88941354  0.77725921  0.04932422
unknown system                          
           1
     8.485037    4.900737    0.000000
    -8.485148    4.900916    0.000000
     0.000000    0.000000   30.000000
   V    Mo   W    S 
   3   3   3  18
Direct configuration=     3
   0.66627413  0.33339794 -0.00004655
   0.33384290  0.33389010  0.00009280
   0.33631652  0.66775059  0.00005146
   0.66843055  0.67020886  0.00004745
  -0.00408524 -0.00217003  0.00001106
   0.66899325 -0.00175161 -0.00016791
   0.99832845  0.32930361 -0.00011610
  -0.00196714  0.66883900  0.00007950
   0.33340623  0.00018049  0.00008476
   0.11498141  0.22494971  0.95195272
   0.22490353  0.11491923  0.04792538
   0.11457158  0.55716076  0.95227036
   0.22553794  0.44593446  0.04683394
   0.11158841  0.88842142  0.95074629
   0.22405694  0.77563057  0.04800501
   0.44595356  0.22554515  0.95308426
   0.55650653  0.11497356  0.04787898
   0.43988287  0.55341699  0.95316677
   0.55340964  0.43988488  0.04673965
   0.44161918  0.88487821  0.95198464
   0.55070257  0.77526633  0.04819546
   0.77636894  0.22521592  0.95195550
   0.88952036  0.11226446  0.04942946
   0.77650374  0.55127689  0.95193377
   0.88537043  0.44278069  0.04794732
   0.77765538  0.88889805  0.95042992
   0.88954178  0.77714820  0.04948401
unknown system                          
           1
     8.282535    4.788647    0.000000
    -8.282305    4.788237    0.000000
     0.000000    0.000000   30.000000
   V    Mo   W    S 
   3   3   3  18
Direct configuration=     4
   0.66630934  0.33331751  0.00014116
   0.33398571  0.33397157  0.00026109
   0.33856473  0.66920706 -0.00012041
   0.67255769  0.67527865  0.00003593
  -0.00894489 -0.00534173  0.00000028
   0.67241634 -0.00267150 -0.00016236
   0.99604069  0.32515617 -0.00033374
  -0.00303014  0.67194010 -0.00010833
   0.33240415 -0.00090032  0.00030609
   0.11601642  0.22531200  0.95057363
   0.22523182  0.11581409  0.04902388
   0.11523009  0.55758798  0.95172405
   0.22628664  0.44641724  0.04788600
   0.11158064  0.88869673  0.94911330
   0.22432628  0.77499778  0.04928622
   0.44651538  0.22651508  0.95181831
   0.55718762  0.11579925  0.04891514
   0.43919281  0.55289867  0.95205319
   0.55292881  0.43929010  0.04766715
   0.44120168  0.88401213  0.95066817
   0.54960241  0.77467451  0.04998924
   0.77570606  0.22544921  0.95043058
   0.88949520  0.11214110  0.05159849
   0.77571483  0.55029814  0.95052689
   0.88469702  0.44236064  0.04900330
   0.77753125  0.88877387  0.94791898
   0.88946587  0.77721843  0.05178369
unknown system                          
           1
     8.286558    4.797886    0.000000
    -8.286592    4.797931    0.000000
     0.000000    0.000000   30.000000
   V    Mo   W    S 
   3   3   3  18
Direct configuration=     5
   0.66646677  0.33302740  0.00046002
   0.33461084  0.33449575  0.00045535
   0.34316930  0.67227416 -0.00043407
   0.68022187  0.68422241  0.00000234
  -0.01790340 -0.01147718 -0.00003760
   0.67896731 -0.00389783 -0.00005570
   0.99150540  0.31645401 -0.00059920
  -0.00512944  0.67875348 -0.00035830
   0.33029546 -0.00317674  0.00059827
   0.11650976  0.22440826  0.94881375
   0.22425179  0.11615767  0.05031557
   0.11515390  0.55761997  0.95153655
   0.22659598  0.44665995  0.04921066
   0.11120292  0.88984264  0.94692566
   0.22408455  0.77382485  0.05096419
   0.44694749  0.22736303  0.95017831
   0.55821945  0.11583648  0.05005642
   0.43978762  0.55301397  0.95058934
   0.55310846  0.44017006  0.04887682
   0.44184135  0.88374720  0.94903424
   0.54954050  0.77456720  0.05243653
   0.77431049  0.22455037  0.94831428
   0.88919605  0.11116933  0.05461194
   0.77452078  0.54998435  0.94870529
   0.88440252  0.44226755  0.05003871
   0.77734656  0.88862035  0.94419638
   0.88899020  0.77773578  0.05516413
unknown system                          
           1
     8.284094    4.794856    0.000000
    -8.286242    4.798553    0.000000
     0.000000    0.000000   30.000000
   V    Mo   W    S 
   3   3   3  18
Direct configuration=     6
   0.66645501  0.33273773  0.00048544
   0.33520345  0.33521610  0.00051788
   0.34565976  0.67372639 -0.00043232
   0.68025622  0.68420364 -0.00005029
  -0.01760892 -0.01154533 -0.00007782
   0.67930716 -0.00372420 -0.00018248
   0.99015343  0.31340664 -0.00063406
  -0.00562649  0.68093245 -0.00023126
   0.32922308 -0.00398793  0.00067402
   0.11568843  0.22311559  0.94883246
   0.22317791  0.11538999  0.05012563
   0.11392144  0.55706330  0.95221699
   0.22601970  0.44646028  0.04902260
   0.11085181  0.89066958  0.94673106
   0.22342916  0.77337129  0.05090505
   0.44681455  0.22709201  0.95025129
   0.55821847  0.11485065  0.04986403
   0.44099032  0.55369094  0.95061589
   0.55381872  0.44144212  0.04878087
   0.44278059  0.88452686  0.94910583
   0.55049567  0.77499056  0.05255215
   0.77390452  0.22365140  0.94823138
   0.88923603  0.11050734  0.05490721
   0.77455136  0.55088674  0.94872040
   0.88516351  0.44278765  0.04967376
   0.77722687  0.88869396  0.94388948
   0.88890270  0.77805870  0.05550472
unknown system                          
           1
     8.287676    4.797164    0.000000
    -8.291540    4.803827    0.000000
     0.000000    0.000000   30.000000
   V    Mo   W    S 
   3   3   3  18
Direct configuration=     7
   0.66652257  0.33256412  0.00052934
   0.33577300  0.33596559  0.00059384
   0.34825848  0.67512264 -0.00043566
   0.68070529  0.68484475 -0.00008922
  -0.01807016 -0.01211225 -0.00011483
   0.68009187 -0.00368878 -0.00020071
   0.98878326  0.31045459 -0.00066753
  -0.00614044  0.68301015 -0.00023634
   0.32797392 -0.00480652  0.00073448
   0.11538882  0.22243687  0.94876828
   0.22275493  0.11516404  0.05003527
   0.11318896  0.55668208  0.95285808
   0.22566319  0.44638551  0.04885292
   0.11071887  0.89108142  0.94653027
   0.22304371  0.77304629  0.05087337
   0.44675378  0.22694793  0.95031193
   0.55806707  0.11431811  0.04971936
   0.44156423  0.55403606  0.95056825
   0.55413745  0.44196493  0.04872978
   0.44321705  0.88492676  0.94909909
   0.55090250  0.77524426  0.05270565
   0.77362727  0.22318237  0.94809870
   0.88909135  0.10999389  0.05514675
   0.77466155  0.55136107  0.94870617
   0.88562188  0.44307922  0.04938751
   0.77721374  0.88870356  0.94369337
   0.88870032  0.77830580  0.05580179
unknown system                          
           1
     8.289958    4.798643    0.000000
    -8.298731    4.813785    0.000000
     0.000000    0.000000   30.000000
   V    Mo   W    S 
   3   3   3  18
Direct configuration=     8
   0.66662019  0.33242717  0.00057607
   0.33629350  0.33666597  0.00065605
   0.35050188  0.67627373 -0.00045264
   0.68080992  0.68516057 -0.00010630
  -0.01818845 -0.01243558 -0.00012973
   0.68059602 -0.00366952 -0.00022776
   0.98775824  0.30827164 -0.00073280
  -0.00653427  0.68445377 -0.00022579
   0.32679374 -0.00546215  0.00079358
   0.11521897  0.22197796  0.94872021
   0.22254427  0.11509086  0.04996512
   0.11267591  0.55639423  0.95344059
   0.22540097  0.44636377  0.04869313
   0.11064446  0.89140012  0.94633601
   0.22274048  0.77277466  0.05081991
   0.44669927  0.22685432  0.95037865
   0.55787858  0.11392670  0.04958254
   0.44193273  0.55429111  0.95051340
   0.55435704  0.44225105  0.04868806
   0.44350028  0.88522594  0.94910755
   0.55116923  0.77542358  0.05285041
   0.77340206  0.22282904  0.94799874
   0.88895369  0.10952571  0.05535130
   0.77473992  0.55170096  0.94869126
   0.88599863  0.44329369  0.04913854
   0.77720121  0.88872056  0.94355391
   0.88850599  0.77848459  0.05601987
unknown system                          
           1
     8.302843    4.807098    0.000000
    -8.312784    4.824261    0.000000
     0.000000    0.000000   30.000000
   V    Mo   W    S 
   3   3   3  18
Direct configuration=     9
   0.66710798  0.33215407  0.00071803
   0.33806947  0.33905075  0.00082476
   0.35733260  0.67958612 -0.00051313
   0.68072549  0.68593098 -0.00014320
  -0.01830211 -0.01337209 -0.00016805
   0.68215272 -0.00376672 -0.00027195
   0.98490333  0.30229873 -0.00094090
  -0.00778074  0.68815093 -0.00022193
   0.32259178 -0.00739112  0.00094857
   0.11489752  0.22082773  0.94863514
   0.22221725  0.11517419  0.04975547
   0.11145385  0.55561368  0.95530325
   0.22466391  0.44638876  0.04812400
   0.11046043  0.89212250  0.94580460
   0.22189910  0.77203600  0.05055334
   0.44650712  0.22656786  0.95067086
   0.55707118  0.11280166  0.04907185
   0.44286050  0.55502512  0.95032989
   0.55493931  0.44278734  0.04854932
   0.44418933  0.88611345  0.94922047
   0.55188963  0.77598561  0.05326599
   0.77274880  0.22181759  0.94776159
   0.88847338  0.10813994  0.05582626
   0.77500772  0.55264980  0.94871248
   0.88707299  0.44382689  0.04835565
   0.77724356  0.88876077  0.94328964
   0.88781834  0.77893390  0.05653790
unknown system                          
           1
     8.303343    4.808906    0.000000
    -8.314361    4.827935    0.000000
     0.000000    0.000000   30.000000
   V    Mo   W    S 
   3   3   3  18
Direct configuration=    10
   0.66766118  0.33226411  0.00078213
   0.33917323  0.34048314  0.00085139
   0.35979303  0.68063254 -0.00055849
   0.68031869  0.68600893 -0.00012053
  -0.01796144 -0.01370623 -0.00015838
   0.68289181 -0.00398406 -0.00026080
   0.98413639  0.30069627 -0.00103874
  -0.00838031  0.68885701 -0.00019996
   0.31974317 -0.00830229  0.00097979
   0.11497276  0.22041434  0.94858806
   0.22220347  0.11557236  0.04975721
   0.11129507  0.55539180  0.95617784
   0.22444107  0.44654916  0.04785198
   0.11034310  0.89230839  0.94548534
   0.22155461  0.77167000  0.05041179
   0.44640463  0.22648517  0.95082465
   0.55646285  0.11221604  0.04876504
   0.44326672  0.55537282  0.95015095
   0.55523562  0.44285910  0.04854817
   0.44451449  0.88661495  0.94932525
   0.55234845  0.77635835  0.05352756
   0.77234086  0.22127048  0.94764215
   0.88821682  0.10742820  0.05601774
   0.77503490  0.55296530  0.94868157
   0.88750123  0.44396178  0.04804452
   0.77734042  0.88873870  0.94318406
   0.88736164  0.77908809  0.05673961
unknown system                          
           1
     8.308479    4.813046    0.000000
    -8.318182    4.829809    0.000000
     0.000000    0.000000   30.000000
   V    Mo   W    S 
   3   3   3  18
Direct configuration=    11
   0.66862882  0.33266639  0.00085995
   0.34083290  0.34256703  0.00085931
   0.36324501  0.68208837 -0.00061032
   0.67978385  0.68622850 -0.00010073
  -0.01760350 -0.01425663 -0.00015977
   0.68419383 -0.00433448 -0.00023864
   0.98291782  0.29809220 -0.00117665
  -0.00932583  0.69005017 -0.00018813
   0.31545087 -0.00966793  0.00103218
   0.11499959  0.21990751  0.94861798
   0.22217548  0.11610791  0.04972244
   0.11111025  0.55510771  0.95735515
   0.22419359  0.44676587  0.04745432
   0.11004915  0.89234016  0.94513103
   0.22110467  0.77130321  0.05017168
   0.44623928  0.22632312  0.95109625
   0.55550193  0.11130522  0.04822869
   0.44385942  0.55590564  0.94996213
   0.55565758  0.44296744  0.04850655
   0.44494075  0.88734233  0.94957716
   0.55296351  0.77687393  0.05378607
   0.77190885  0.22052004  0.94757159
   0.88796333  0.10662831  0.05616468
   0.77507941  0.55339181  0.94868798
   0.88803472  0.44407225  0.04762394
   0.77752014  0.88868452  0.94314199
   0.88678905  0.77923388  0.05692307
unknown system                          
           1
     8.312895    4.817115    0.000000
    -8.321667    4.832276    0.000000
     0.000000    0.000000   30.000000
   V    Mo   W    S 
   3   3   3  18
Direct configuration=    12
   0.66930666  0.33329629  0.00086626
   0.34142333  0.34317813  0.00079344
   0.36315411  0.68194525 -0.00061648
   0.67945275  0.68603238 -0.00007849
  -0.01731611 -0.01426573 -0.00014147
   0.68451723 -0.00454549 -0.00020737
   0.98309118  0.29833866 -0.00118456
  -0.00956601  0.68959988 -0.00018231
   0.31398084 -0.01000533  0.00102215
   0.11514407  0.21993662  0.94864942
   0.22217099  0.11644320  0.04979745
   0.11136968  0.55518497  0.95745974
   0.22432292  0.44690863  0.04740969
   0.10980166  0.89206860  0.94502970
   0.22105322  0.77129240  0.05013922
   0.44618278  0.22628067  0.95116915
   0.55506993  0.11100304  0.04800136
   0.44398329  0.55602941  0.94988729
   0.55577152  0.44292146  0.04854378
   0.44501103  0.88757594  0.94971662
   0.55314054  0.77703681  0.05382483
   0.77184052  0.22033296  0.94759379
   0.88803048  0.10659893  0.05614472
   0.77496320  0.55329317  0.94864542
   0.88802759  0.44394875  0.04765276
   0.77764110  0.88859856  0.94315371
   0.88664593  0.77918628  0.05691008
unknown system                          
           1
     8.313992    4.819007    0.000000
    -8.321720    4.832371    0.000000
     0.000000    0.000000   30.000000
   V    Mo   W    S 
   3   3   3  18
Direct configuration=    13
   0.67031699  0.33425760  0.00089170
   0.34243228  0.34427582  0.00073284
   0.36409950  0.68223596 -0.00062984
   0.67900130  0.68583240 -0.00005981
  -0.01698457 -0.01440701 -0.00012587
   0.68522680 -0.00482772 -0.00017980
   0.98289306  0.29773429 -0.00123518
  -0.01007037  0.68958479 -0.00017492
   0.31147567 -0.01070093  0.00104253
   0.11528661  0.21984072  0.94869445
   0.22212777  0.11687732  0.04985084
   0.11148917  0.55515489  0.95783965
   0.22439687  0.44708489  0.04727270
   0.10942981  0.89177672  0.94483682
   0.22083096  0.77117365  0.05005580
   0.44606897  0.22617864  0.95131156
   0.55440684  0.11046693  0.04761872
   0.44423487  0.55628033  0.94977282
   0.55595818  0.44290978  0.04857157
   0.44517551  0.88800019  0.94991951
   0.55342439  0.77730089  0.05392385
   0.77170081  0.21996230  0.94760705
   0.88806066  0.10639692  0.05618096
   0.77485272  0.55328386  0.94858884
   0.88819623  0.44387625  0.04759414
   0.77779968  0.88849514  0.94314759
   0.88638373  0.77916982  0.05695139
unknown system                          
           1
     8.311974    4.817235    0.000000
    -8.320624    4.832189    0.000000
     0.000000    0.000000   30.000000
   V    Mo   W    S 
   3   3   3  18
Direct configuration=    14
   0.67125351  0.33531921  0.00090381
   0.34315847  0.34498074  0.00067218
   0.36455593  0.68235692 -0.00063266
   0.67866015  0.68557250 -0.00004903
  -0.01676254 -0.01447396 -0.00011236
   0.68569314 -0.00507469 -0.00015595
   0.98284090  0.29751241 -0.00126232
  -0.01044220  0.68940147 -0.00017771
   0.30978649 -0.01118825  0.00106396
   0.11539342  0.21982881  0.94874151
   0.22206990  0.11716780  0.04989687
   0.11161201  0.55516595  0.95800925
   0.22450302  0.44721588  0.04720248
   0.10908689  0.89145930  0.94472554
   0.22067224  0.77111900  0.05000746
   0.44599531  0.22607723  0.95141699
   0.55392560  0.11012541  0.04730661
   0.44437157  0.55646158  0.94970193
   0.55608097  0.44288529  0.04860717
   0.44523700  0.88826990  0.95008428
   0.55356073  0.77744909  0.05396057
   0.77166332  0.21974651  0.94764981
   0.88814184  0.10635874  0.05618525
   0.77474160  0.55318161  0.94853425
   0.88826548  0.44377813  0.04761048
   0.77791606  0.88839209  0.94315864
   0.88623364  0.77912578  0.05695089
unknown system                          
           1
     8.320590    4.824742    0.000000
    -8.327669    4.836993    0.000000
     0.000000    0.000000   30.000000
   V    Mo   W    S 
   3   3   3  18
Direct configuration=    15
   0.67067799  0.33441819  0.00090923
   0.34288432  0.34480955  0.00070969
   0.36458340  0.68241576 -0.00063507
   0.67877541  0.68582399 -0.00005063
  -0.01677454 -0.01451338 -0.00012250
   0.68548874 -0.00496197 -0.00016829
   0.98277677  0.29747680 -0.00126066
  -0.01028779  0.68961592 -0.00017652
   0.31030862 -0.01104129  0.00104977
   0.11532123  0.21979953  0.94871749
   0.22213284  0.11705021  0.04986720
   0.11157926  0.55516782  0.95801577
   0.22441819  0.44717219  0.04720893
   0.10928991  0.89165837  0.94476847
   0.22079722  0.77116764  0.05000385
   0.44603655  0.22614687  0.95137185
   0.55410692  0.11021723  0.04747124
   0.44434679  0.55642861  0.94974202
   0.55606269  0.44290738  0.04856090
   0.44524189  0.88814054  0.95002477
   0.55349802  0.77739838  0.05393990
   0.77166183  0.21983053  0.94761673
   0.88807177  0.10631514  0.05617889
   0.77483982  0.55331764  0.94860186
   0.88821133  0.44381291  0.04753976
   0.77788050  0.88847813  0.94316105
   0.88628479  0.77916175  0.05695420
unknown system                          
           1
     8.319785    4.825019    0.000000
    -8.325675    4.835220    0.000000
     0.000000    0.000000   30.000000
   V    Mo   W    S 
   3   3   3  18
Direct configuration=    16
   0.67228894  0.33612173  0.00092535
   0.34409450  0.34598111  0.00061676
   0.36541744  0.68270271 -0.00063738
   0.67814593  0.68535845 -0.00003502
  -0.01641314 -0.01456061 -0.00009400
   0.68611184 -0.00535088 -0.00012272
   0.98266485  0.29714910 -0.00129305
  -0.01097405  0.68917629 -0.00018308
   0.30778729 -0.01179478  0.00108466
   0.11552528  0.21976328  0.94876511
   0.22199586  0.11753238  0.04996660
   0.11181325  0.55520505  0.95829549
   0.22459874  0.44743268  0.04709990
   0.10868553  0.89114156  0.94454153
   0.22052245  0.77100972  0.04994377
   0.44594568  0.22595687  0.95154476
   0.55328663  0.10969165  0.04695098
   0.44459408  0.55677654  0.94959983
   0.55632623  0.44288140  0.04863129
   0.44531169  0.88856560  0.95027721
   0.55369550  0.77762979  0.05403329
   0.77154791  0.21949353  0.94766208
   0.88822448  0.10623910  0.05622065
   0.77460794  0.55308460  0.94849577
   0.88832065  0.44365066  0.04758246
   0.77808255  0.88828671  0.94313832
   0.88600639  0.77909017  0.05698934
unknown system                          
           1
     8.317429    4.823686    0.000000
    -8.323083    4.833481    0.000000
     0.000000    0.000000   30.000000
   V    Mo   W    S 
   3   3   3  18
Direct configuration=    17
   0.67312120  0.33726923  0.00092411
   0.34463201  0.34643389  0.00056949
   0.36567591  0.68276411 -0.00063734
   0.67793849  0.68508458 -0.00003050
  -0.01636154 -0.01461846 -0.00008346
   0.68645503 -0.00555906 -0.00010599
   0.98267460  0.29702024 -0.00131118
  -0.01122644  0.68903393 -0.00019171
   0.30668004 -0.01215166  0.00111044
   0.11559778  0.21976968  0.94881363
   0.22192379  0.11771524  0.04998430
   0.11186801  0.55519931  0.95838831
   0.22469589  0.44750489  0.04704789
   0.10838712  0.89086090  0.94448671
   0.22034787  0.77095216  0.04991180
   0.44587672  0.22584379  0.95163634
   0.55294958  0.10948896  0.04668989
   0.44466558  0.55688185  0.94954991
   0.55639026  0.44286167  0.04867212
   0.44532785  0.88876558  0.95038878
   0.55380720  0.77773252  0.05405997
   0.77154434  0.21933572  0.94771053
   0.88829244  0.10624383  0.05622119
   0.77449790  0.55295210  0.94843261
   0.88840291  0.44359024  0.04763142
   0.77814526  0.88818543  0.94315369
   0.88590464  0.77905378  0.05697695
unknown system                          
           1
     8.322971    4.828973    0.000000
    -8.326153    4.834511    0.000000
     0.000000    0.000000   30.000000
   V    Mo   W    S 
   3   3   3  18
Direct configuration=    18
   0.67311810  0.33701867  0.00092985
   0.34478559  0.34664902  0.00057997
   0.36580149  0.68274720 -0.00063828
   0.67784968  0.68513671 -0.00003392
  -0.01628507 -0.01465320 -0.00008692
   0.68661643 -0.00549063 -0.00010901
   0.98266430  0.29691072 -0.00132933
  -0.01130553  0.68908806 -0.00020765
   0.30632447 -0.01219369  0.00111500
   0.11559457  0.21979056  0.94885194
   0.22196478  0.11778487  0.04996370
   0.11188564  0.55519029  0.95845248
   0.22472194  0.44750230  0.04700640
   0.10834318  0.89079610  0.94449658
   0.22037066  0.77102690  0.04987243
   0.44583610  0.22585264  0.95167047
   0.55281220  0.10937122  0.04666327
   0.44469624  0.55690260  0.94955951
   0.55638170  0.44283173  0.04862450
   0.44534846  0.88881237  0.95042987
   0.55384333  0.77778790  0.05406257
   0.77157155  0.21930131  0.94771853
   0.88829178  0.10623000  0.05619268
   0.77450090  0.55299115  0.94847476
   0.88839653  0.44355248  0.04759874
   0.77819928  0.88821888  0.94318942
   0.88588615  0.77905829  0.05695234
unknown system                          
           1
     8.321454    4.827500    0.000000
    -8.325328    4.834229    0.000000
     0.000000    0.000000   30.000000
   V    Mo   W    S 
   3   3   3  18
Direct configuration=    19
   0.67520975  0.34009230  0.00091944
   0.34598302  0.34756934  0.00044839
   0.36637810  0.68298908 -0.00063494
   0.67737480  0.68437577 -0.00001320
  -0.01622279 -0.01473883 -0.00005126
   0.68716187 -0.00609978 -0.00005758
   0.98267917  0.29675510 -0.00134355
  -0.01188498  0.68857772 -0.00020030
   0.30408390 -0.01301728  0.00116784
   0.11581411  0.21976262  0.94889766
   0.22171511  0.11818218  0.05005488
   0.11204452  0.55521524  0.95861227
   0.22493437  0.44772595  0.04693593
   0.10763955  0.89019753  0.94431146
   0.21991078  0.77073856  0.04985329
   0.44574563  0.22556552  0.95185123
   0.55213160  0.10902755  0.04604807
   0.44484648  0.55717237  0.94940659
   0.55659875  0.44282108  0.04879322
   0.44535433  0.88923428  0.95065197
   0.55405114  0.77796680  0.05413751
   0.77148691  0.21896467  0.94780840
   0.88847216  0.10624138  0.05625443
   0.77419173  0.55257661  0.94825752
   0.88858599  0.44343995  0.04776094
   0.77829354  0.88792032  0.94315394
   0.88563491  0.77895840  0.05697577
unknown system                          
           1
     8.312059    4.824309    0.000000
    -8.316346    4.831753    0.000000
     0.000000    0.000000   30.000000
   V    Mo   W    S 
   3   3   3  18
Direct configuration=    20
   0.67448587  0.33885124  0.00092996
   0.34553304  0.34722638  0.00049263
   0.36616748  0.68291950 -0.00063346
   0.67758587  0.68473803 -0.00001605
  -0.01621822 -0.01471210 -0.00006004
   0.68698944 -0.00584380 -0.00007628
   0.98264063  0.29681919 -0.00133017
  -0.01168479  0.68875728 -0.00019584
   0.30482447 -0.01275433  0.00114152
   0.11574859  0.21976697  0.94886272
   0.22180402  0.11805370  0.05004280
   0.11198810  0.55520943  0.95855695
   0.22483767  0.44766113  0.04697322
   0.10790845  0.89042882  0.94435710
   0.22007907  0.77084170  0.04986267
   0.44577144  0.22565770  0.95177293
   0.55233327  0.10910352  0.04628488
   0.44482087  0.55709269  0.94944780
   0.55656193  0.44285361  0.04873378
   0.44536430  0.88910672  0.95057288
   0.55398329  0.77791557  0.05411791
   0.77149896  0.21907199  0.94775455
   0.88841792  0.10622853  0.05624221
   0.77427612  0.55271700  0.94833960
   0.88851040  0.44347244  0.04769510
   0.77827127  0.88803776  0.94315525
   0.88571500  0.77899378  0.05697530
unknown system                          
           1
     8.323777    4.831131    0.000000
    -8.325855    4.834768    0.000000
     0.000000    0.000000   30.000000
   V    Mo   W    S 
   3   3   3  18
Direct configuration=    21
   0.67458098  0.33786082  0.00091629
   0.34540809  0.34722530  0.00049913
   0.36633769  0.68312192 -0.00062426
   0.67775683  0.68537984 -0.00001415
  -0.01617504 -0.01465565 -0.00007070
   0.68723297 -0.00563506 -0.00007329
   0.98244592  0.29664082 -0.00132852
  -0.01173909  0.68881947 -0.00022135
   0.30451738 -0.01288268  0.00111113
   0.11562499  0.21974918  0.94885038
   0.22176574  0.11802245  0.05010130
   0.11202814  0.55521132  0.95861947
   0.22471278  0.44776486  0.04698812
   0.10780338  0.89034674  0.94430079
   0.22006424  0.77082814  0.04985323
   0.44569661  0.22551322  0.95174979
   0.55202396  0.10878610  0.04629570
   0.44500151  0.55736440  0.94940514
   0.55682470  0.44302318  0.04872470
   0.44539123  0.88919431  0.95062423
   0.55397049  0.77800343  0.05412582
   0.77154092  0.21901692  0.94768518
   0.88848435  0.10622029  0.05625133
   0.77419859  0.55272009  0.94838320
   0.88862168  0.44343193  0.04770243
   0.77841143  0.88813972  0.94315508
   0.88568399  0.77900338  0.05698973
unknown system                          
           1
     8.331139    4.836422    0.000000
    -8.331130    4.836462    0.000000
     0.000000    0.000000   30.000000
   V    Mo   W    S 
   3   3   3  18
Direct configuration=    22
   0.67650147  0.34196190  0.00089809
   0.34675736  0.34819332  0.00037350
   0.36680478  0.68316329 -0.00063463
   0.67703363  0.68391089 -0.00000704
  -0.01620830 -0.01476460 -0.00003805
   0.68753246 -0.00647734 -0.00002337
   0.98269247  0.29659507 -0.00136660
  -0.01226773  0.68826183 -0.00021457
   0.30269582 -0.01350385  0.00120495
   0.11590371  0.21975082  0.94895462
   0.22154967  0.11841267  0.05009428
   0.11215941  0.55522773  0.95872942
   0.22507437  0.44787068  0.04687359
   0.10713480  0.88976851  0.94421114
   0.21961521  0.77055513  0.04983336
   0.44568080  0.22537051  0.95198356
   0.55168396  0.10880146  0.04563548
   0.44494192  0.55738541  0.94932068
   0.55673586  0.44280389  0.04889212
   0.44534502  0.88948320  0.95080694
   0.55416701  0.77808502  0.05417597
   0.77147438  0.21876237  0.94788148
   0.88858753  0.10625917  0.05627995
   0.77401649  0.55232683  0.94812671
   0.88874349  0.44336633  0.04787632
   0.77837645  0.88774487  0.94314990
   0.88548239  0.77889936  0.05698212
unknown system                          
           1
     8.332448    4.837523    0.000000
    -8.331222    4.835467    0.000000
     0.000000    0.000000   30.000000
   V    Mo   W    S 
   3   3   3  18
Direct configuration=    23
   0.67840954  0.34550413  0.00087076
   0.34802276  0.34914297  0.00026083
   0.36734695  0.68333530 -0.00063865
   0.67640701  0.68276556  0.00000295
  -0.01626971 -0.01486122 -0.00000619
   0.68787362 -0.00721790  0.00002949
   0.98283721  0.29649437 -0.00138450
  -0.01280630  0.68773053 -0.00021242
   0.30085667 -0.01416686  0.00127909
   0.11613203  0.21973253  0.94903819
   0.22129762  0.11876568  0.05011655
   0.11232962  0.55524043  0.95886271
   0.22536838  0.44804196  0.04676725
   0.10640587  0.88914536  0.94409837
   0.21914866  0.77025573  0.04981139
   0.44564823  0.22514775  0.95220277
   0.55124342  0.10871583  0.04498322
   0.44497010  0.55756247  0.94921072
   0.55680910  0.44268339  0.04905703
   0.44530172  0.88979332  0.95100440
   0.55434688  0.77819889  0.05423366
   0.77142196  0.21849306  0.94804103
   0.88872843  0.10631063  0.05631887
   0.77379480  0.55192864  0.94788309
   0.88891916  0.44328659  0.04805883
   0.77839615  0.88738822  0.94313449
   0.88527457  0.77879710  0.05697594
unknown system                          
           1
     8.340517    4.841766    0.000000
    -8.338182    4.837801    0.000000
     0.000000    0.000000   30.000000
   V    Mo   W    S 
   3   3   3  18
Direct configuration=    24
   0.67992070  0.34887744  0.00083187
   0.34910345  0.34994579  0.00014954
   0.36783014  0.68353931 -0.00064252
   0.67590252  0.68168853  0.00000920
  -0.01650210 -0.01503312  0.00000599
   0.68812282 -0.00799942  0.00007390
   0.98292166  0.29630387 -0.00142311
  -0.01322056  0.68731973 -0.00020398
   0.29943243 -0.01470431  0.00135236
   0.11630817  0.21971033  0.94914657
   0.22105048  0.11901290  0.05010370
   0.11247922  0.55525565  0.95897624
   0.22564243  0.44817748  0.04666333
   0.10578851  0.88860492  0.94404919
   0.21874686  0.77000093  0.04978116
   0.44568962  0.22498482  0.95241511
   0.55104274  0.10881256  0.04437197
   0.44494221  0.55767661  0.94911967
   0.55686718  0.44257488  0.04924348
   0.44521616  0.88997996  0.95117510