       N       E                     dE             d eps       ncg     rms          rms(c)
DAV:   1     0.112380181668E+04    0.11238E+04   -0.35862E+04  8160   0.577E+02
DAV:   2    -0.365764516415E+01   -0.11275E+04   -0.10866E+04 11120   0.173E+02
DAV:   3    -0.199947294218E+03   -0.19629E+03   -0.18851E+03 10960   0.819E+01
DAV:   4    -0.209070952178E+03   -0.91237E+01   -0.88072E+01 12080   0.258E+01
DAV:   5    -0.209402049873E+03   -0.33110E+00   -0.33013E+00 11440   0.365E+00    0.278E+01
DAV:   6    -0.241497131473E+03   -0.32095E+02   -0.11401E+02 12560   0.600E+01    0.607E+01
DAV:   7    -0.196130191287E+03    0.45367E+02   -0.18047E+02 13200   0.151E+02    0.198E+01
DAV:   8    -0.189338482405E+03    0.67917E+01   -0.18351E+01 12080   0.126E+01    0.122E+01
DAV:   9    -0.188073033687E+03    0.12654E+01   -0.30398E+00 13160   0.616E+00    0.886E+00
DAV:  10    -0.186953260689E+03    0.11198E+01   -0.15860E+00 13400   0.719E+00    0.207E+00
DAV:  11    -0.187073855382E+03   -0.12059E+00   -0.60884E-01 13560   0.348E+00    0.439E+00
DAV:  12    -0.186953819896E+03    0.12004E+00   -0.64804E-01 12840   0.430E+00    0.293E+00
DAV:  13    -0.186876922788E+03    0.76897E-01   -0.19570E-01 12640   0.233E+00    0.135E+00
DAV:  14    -0.186856298116E+03    0.20625E-01   -0.77690E-02 12240   0.132E+00    0.922E-01
DAV:  15    -0.186852947798E+03    0.33503E-02   -0.25250E-02 12480   0.802E-01    0.725E-01
DAV:  16    -0.186848477914E+03    0.44699E-02   -0.10707E-02 12920   0.448E-01    0.300E-01
DAV:  17    -0.186847319422E+03    0.11585E-02   -0.55509E-03 12680   0.336E-01    0.236E-01
DAV:  18    -0.186846715397E+03    0.60402E-03   -0.17997E-03 12640   0.201E-01    0.771E-02
DAV:  19    -0.186846902236E+03   -0.18684E-03   -0.55190E-04  8920   0.653E-02    0.793E-02
DAV:  20    -0.186847591315E+03   -0.68908E-03   -0.71893E-04  9160   0.835E-02    0.577E-02
DAV:  21    -0.186848581664E+03   -0.99035E-03   -0.26299E-04  8200   0.492E-02    0.321E-02
DAV:  22    -0.186849358118E+03   -0.77645E-03   -0.11451E-04  6720   0.367E-02    0.245E-02
DAV:  23    -0.186850436206E+03   -0.10781E-02   -0.97081E-05  7480   0.237E-02    0.103E-02
DAV:  24    -0.186851061982E+03   -0.62578E-03   -0.24851E-05  6280   0.153E-02    0.665E-03
DAV:  25    -0.186851445777E+03   -0.38379E-03   -0.15438E-05  5960   0.113E-02    0.252E-03
DAV:  26    -0.186851648688E+03   -0.20291E-03   -0.74892E-06  6880   0.622E-03    0.143E-03
DAV:  27    -0.186851733173E+03   -0.84485E-04   -0.37097E-06  6840   0.429E-03
   1 F= -.18685173E+03 E0= -.18667861E+03  d E =-.186852E+03
       N       E                     dE             d eps       ncg     rms          rms(c)
DAV:   1    -0.187532024229E+03   -0.68038E+00   -0.27391E+02  8160   0.351E+01    0.466E+00
DAV:   2    -0.189602589928E+03   -0.20706E+01   -0.20313E+01 12200   0.156E+01    0.104E+01
DAV:   3    -0.189338456315E+03    0.26413E+00   -0.49771E+00 12440   0.127E+01    0.622E+00
DAV:   4    -0.188803667558E+03    0.53479E+00   -0.63359E-01 12520   0.443E+00    0.240E+00
DAV:   5    -0.188905388350E+03   -0.10172E+00   -0.49076E-01 11200   0.389E+00    0.540E+00
DAV:   6    -0.188771216546E+03    0.13417E+00   -0.77001E-01 12720   0.407E+00    0.237E+00
DAV:   7    -0.188730425219E+03    0.40791E-01   -0.23660E-01 11840   0.209E+00    0.206E+00
DAV:   8    -0.188721223037E+03    0.92022E-02   -0.16135E-01 12240   0.214E+00    0.202E+00
DAV:   9    -0.188690398802E+03    0.30824E-01   -0.73076E-02 12520   0.126E+00    0.594E-01
DAV:  10    -0.188687805360E+03    0.25934E-02   -0.72068E-03 10880   0.292E-01    0.309E-01
DAV:  11    -0.188687040656E+03    0.76470E-03   -0.27854E-03 13160   0.226E-01    0.117E-01
DAV:  12    -0.188687027433E+03    0.13223E-04   -0.10680E-03 11840   0.103E-01    0.905E-02
DAV:  13    -0.188687054970E+03   -0.27537E-04   -0.32962E-04  8600   0.608E-02
   2 F= -.18868705E+03 E0= -.18854502E+03  d E =-.183532E+01
       N       E                     dE             d eps       ncg     rms          rms(c)
DAV:   1    -0.190621851730E+03   -0.19348E+01   -0.31441E+01  8960   0.143E+01    0.444E+00
DAV:   2    -0.190552696677E+03    0.69155E-01   -0.27795E+00 11600   0.913E+00    0.722E+00
DAV:   3    -0.190118140913E+03    0.43456E+00   -0.15138E+00 12280   0.841E+00    0.435E+00
DAV:   4    -0.189890130133E+03    0.22801E+00   -0.71860E-01 12680   0.435E+00    0.247E+00
DAV:   5    -0.189867885644E+03    0.22244E-01   -0.37291E-01 12240   0.307E+00    0.288E+00
DAV:   6    -0.189792621530E+03    0.75264E-01   -0.15767E-01 12560   0.246E+00    0.703E-01
DAV:   7    -0.189787802865E+03    0.48187E-02   -0.14904E-02 11720   0.596E-01    0.418E-01
DAV:   8    -0.189787588107E+03    0.21476E-03   -0.66515E-03 12720   0.480E-01    0.360E-01
DAV:   9    -0.189786620032E+03    0.96808E-03   -0.23563E-03 11360   0.249E-01    0.121E-01
DAV:  10    -0.189787054320E+03   -0.43429E-03   -0.96867E-04 10480   0.107E-01    0.127E-01
DAV:  11    -0.189786755004E+03    0.29932E-03   -0.49336E-04  9160   0.776E-02    0.203E-02
DAV:  12    -0.189786775321E+03   -0.20318E-04   -0.66059E-05  6920   0.265E-02
   3 F= -.18978678E+03 E0= -.18966635E+03  d E =-.109972E+01
       N       E                     dE             d eps       ncg     rms          rms(c)
DAV:   1    -0.191399654148E+03   -0.16129E+01   -0.80918E+01  8160   0.205E+01    0.463E+00
DAV:   2    -0.191136547698E+03    0.26311E+00   -0.53838E+00 13280   0.675E+00    0.378E+00
DAV:   3    -0.191450584707E+03   -0.31404E+00   -0.15346E+00 12120   0.863E+00    0.809E+00
DAV:   4    -0.191004613802E+03    0.44597E+00   -0.21409E+00 11320   0.930E+00    0.370E+00
DAV:   5    -0.190995419634E+03    0.91942E-02   -0.73676E-01 11920   0.542E+00    0.368E+00
DAV:   6    -0.190815282792E+03    0.18014E+00   -0.23338E-01 12080   0.326E+00    0.719E-01
DAV:   7    -0.190815141814E+03    0.14098E-03   -0.36526E-02 12440   0.836E-01    0.655E-01
DAV:   8    -0.190813366332E+03    0.17755E-02   -0.18076E-02 11800   0.849E-01    0.617E-01
DAV:   9    -0.190809747232E+03    0.36191E-02   -0.64822E-03 11560   0.519E-01    0.178E-01
DAV:  10    -0.190810044976E+03   -0.29774E-03   -0.16271E-03 11200   0.153E-01    0.123E-01
DAV:  11    -0.190809829212E+03    0.21576E-03   -0.66504E-04 10640   0.997E-02    0.434E-02
DAV:  12    -0.190809836603E+03   -0.73914E-05   -0.96791E-05  7240   0.344E-02
   4 F= -.19080984E+03 E0= -.19070657E+03  d E =-.102306E+01
       N       E                     dE             d eps       ncg     rms          rms(c)
DAV:   1    -0.192260226685E+03   -0.14504E+01   -0.18560E+02  8160   0.303E+01    0.592E+00
DAV:   2    -0.192011697804E+03    0.24853E+00   -0.10216E+01 11080   0.790E+00    0.409E+00
DAV:   3    -0.192461590959E+03   -0.44989E+00   -0.32373E+00 12080   0.113E+01    0.737E+00
DAV:   4    -0.191700511209E+03    0.76108E+00   -0.11206E+00 12240   0.840E+00    0.286E+00
DAV:   5    -0.191752141570E+03   -0.51630E-01   -0.61478E-01 12040   0.554E+00    0.488E+00
DAV:   6    -0.191549578238E+03    0.20256E+00   -0.59922E-01 12240   0.500E+00    0.109E+00
DAV:   7    -0.191542043317E+03    0.75349E-02   -0.58411E-02 11880   0.122E+00    0.726E-01
DAV:   8    -0.191539695136E+03    0.23482E-02   -0.28841E-02 12320   0.105E+00    0.699E-01
DAV:   9    -0.191535045843E+03    0.46493E-02   -0.11130E-02 11440   0.642E-01    0.178E-01
DAV:  10    -0.191535044971E+03    0.87275E-06   -0.25142E-03 11560   0.167E-01    0.822E-02
DAV:  11    -0.191535063049E+03   -0.18078E-04   -0.40476E-04  9080   0.886E-02
   5 F= -.19153506E+03 E0= -.19143733E+03  d E =-.725226E+00
       N       E                     dE             d eps       ncg     rms          rms(c)
DAV:   1    -0.191603162775E+03   -0.68118E-01   -0.58561E+00  8160   0.513E+00    0.780E-01
DAV:   2    -0.191701150743E+03   -0.97988E-01   -0.36957E-01 12720   0.360E+00    0.283E+00
DAV:   3    -0.191616204560E+03    0.84946E-01   -0.14786E-01 12440   0.286E+00    0.427E-01
DAV:   4    -0.191620401965E+03   -0.41974E-02   -0.21499E-02 11560   0.901E-01    0.839E-01
DAV:   5    -0.191613751947E+03    0.66500E-02   -0.14837E-02 11600   0.778E-01    0.207E-01
DAV:   6    -0.191615091075E+03   -0.13391E-02   -0.57055E-03 11440   0.417E-01    0.419E-01
DAV:   7    -0.191613581048E+03    0.15100E-02   -0.50199E-03 11240   0.444E-01    0.163E-01
DAV:   8    -0.191613270794E+03    0.31025E-03   -0.73170E-04  9520   0.139E-01    0.378E-02
DAV:   9    -0.191613284435E+03   -0.13641E-04   -0.10730E-04  6280   0.382E-02
   6 F= -.19161328E+03 E0= -.19151338E+03  d E =-.782214E-01
       N       E                     dE             d eps       ncg     rms          rms(c)
DAV:   1    -0.191681826148E+03   -0.68555E-01   -0.65553E+00  8160   0.539E+00    0.704E-01
DAV:   2    -0.191751078579E+03   -0.69252E-01   -0.25409E-01 13360   0.278E+00    0.241E+00
DAV:   3    -0.191689798540E+03    0.61280E-01   -0.12101E-01 12400   0.253E+00    0.512E-01
DAV:   4    -0.191693135031E+03   -0.33365E-02   -0.23053E-02 11560   0.906E-01    0.802E-01
DAV:   5    -0.191686963944E+03    0.61711E-02   -0.14016E-02 11640   0.741E-01    0.194E-01
DAV:   6    -0.191687307796E+03   -0.34385E-03   -0.31600E-03 11560   0.281E-01    0.255E-01
DAV:   7    -0.191687121990E+03    0.18581E-03   -0.35930E-03 11440   0.382E-01    0.237E-01
DAV:   8    -0.191686581875E+03    0.54012E-03   -0.12501E-03 10080   0.211E-01    0.462E-02
DAV:   9    -0.191686566038E+03    0.15837E-04   -0.10753E-04  6000   0.430E-02
   7 F= -.19168657E+03 E0= -.19158599E+03  d E =-.732816E-01
       N       E                     dE             d eps       ncg     rms          rms(c)
DAV:   1    -0.191727712224E+03   -0.41130E-01   -0.18751E+00  8160   0.293E+00    0.413E-01
DAV:   2    -0.191750440438E+03   -0.22728E-01   -0.89738E-02 13240   0.175E+00    0.142E+00
DAV:   3    -0.191729980114E+03    0.20460E-01   -0.38757E-02 12240   0.141E+00    0.298E-01
DAV:   4    -0.191731547573E+03   -0.15675E-02   -0.95170E-03 11400   0.590E-01    0.510E-01
DAV:   5    -0.191728908064E+03    0.26395E-02   -0.54236E-03 11200   0.460E-01    0.102E-01
DAV:   6    -0.191728985040E+03   -0.76976E-04   -0.11082E-03 10040   0.125E-01    0.964E-02
DAV:   7    -0.191728889560E+03    0.95481E-04   -0.61132E-04  9720   0.142E-01
   8 F= -.19172889E+03 E0= -.19162824E+03  d E =-.423235E-01
       N       E                     dE             d eps       ncg     rms          rms(c)
DAV:   1    -0.191781290187E+03   -0.52305E-01   -0.28943E+00  8160   0.365E+00    0.477E-01
DAV:   2    -0.191807791517E+03   -0.26501E-01   -0.12033E-01 13360   0.187E+00    0.154E+00
DAV:   3    -0.191785394234E+03    0.22397E-01   -0.49993E-02 12360   0.155E+00    0.402E-01
DAV:   4    -0.191787215060E+03   -0.18208E-02   -0.13423E-02 11280   0.730E-01    0.591E-01
DAV:   5    -0.191783494154E+03    0.37209E-02   -0.70162E-03 11120   0.559E-01    0.127E-01
DAV:   6    -0.191783594420E+03   -0.10027E-03   -0.15744E-03 10360   0.148E-01    0.113E-01
DAV:   7    -0.191783317871E+03    0.27655E-03   -0.56525E-04 11480   0.104E-01    0.524E-02
DAV:   8    -0.191783317299E+03    0.57257E-06   -0.15027E-04  6200   0.821E-02
   9 F= -.19178332E+03 E0= -.19168397E+03  d E =-.544277E-01
       N       E                     dE             d eps       ncg     rms          rms(c)
DAV:   1    -0.191796507343E+03   -0.13189E-01   -0.16525E-01  8160   0.881E-01    0.105E-01
DAV:   2    -0.191797140577E+03   -0.63323E-03   -0.54292E-03 11520   0.279E-01    0.230E-01
DAV:   3    -0.191796766207E+03    0.37437E-03   -0.18452E-03 10360   0.272E-01    0.120E-01
DAV:   4    -0.191796658901E+03    0.10731E-03   -0.34271E-04  7160   0.111E-01    0.602E-02
DAV:   5    -0.191796673883E+03   -0.14982E-04   -0.24283E-04  7800   0.110E-01
  10 F= -.19179667E+03 E0= -.19169782E+03  d E =-.133566E-01
       N       E                     dE             d eps       ncg     rms          rms(c)
DAV:   1    -0.191743440382E+03    0.53219E-01   -0.37078E+00  8160   0.422E+00    0.597E-01
DAV:   2    -0.191755098302E+03   -0.11658E-01   -0.13268E-01 12680   0.140E+00    0.115E+00
DAV:   3    -0.191747255383E+03    0.78429E-02   -0.60860E-02 12120   0.147E+00    0.773E-01
DAV:   4    -0.191741341027E+03    0.59144E-02   -0.16663E-02 11440   0.687E-01    0.261E-01
DAV:   5    -0.191741953688E+03   -0.61266E-03   -0.68607E-03 11480   0.516E-01    0.421E-01
DAV:   6    -0.191740525071E+03    0.14286E-02   -0.58485E-03 11600   0.503E-01    0.209E-01
DAV:   7    -0.191740267039E+03    0.25803E-03   -0.16608E-03  9960   0.252E-01    0.141E-01
DAV:   8    -0.191740083210E+03    0.18383E-03   -0.52832E-04  9920   0.168E-01    0.607E-02
DAV:   9    -0.191740041460E+03    0.41750E-04   -0.87922E-05  5840   0.581E-02
  11 F= -.19174004E+03 E0= -.19163923E+03  d E =0.566324E-01
       N       E                     dE             d eps       ncg     rms          rms(c)
DAV:   1    -0.191854492926E+03   -0.11441E+00   -0.11581E+01  8160   0.748E+00    0.999E-01
DAV:   2    -0.191921746156E+03   -0.67253E-01   -0.44006E-01 13000   0.301E+00    0.275E+00
DAV:   3    -0.191867299780E+03    0.54446E-01   -0.19549E-01 12280   0.280E+00    0.954E-01
DAV:   4    -0.191870473516E+03   -0.31737E-02   -0.52111E-02 12280   0.159E+00    0.116E+00
DAV:   5    -0.191854747716E+03    0.15726E-01   -0.29495E-02 11000   0.132E+00    0.376E-01
DAV:   6    -0.191853753444E+03    0.99427E-03   -0.10003E-02 11600   0.461E-01    0.258E-01
DAV:   7    -0.191853625780E+03    0.12766E-03   -0.45628E-03 12000   0.440E-01    0.319E-01
DAV:   8    -0.191852664135E+03    0.96164E-03   -0.21954E-03  9880   0.321E-01    0.821E-02
DAV:   9    -0.191852568533E+03    0.95603E-04   -0.21521E-04  6000   0.722E-02
  12 F= -.19185257E+03 E0= -.19175591E+03  d E =-.112527E+00
       N       E                     dE             d eps       ncg     rms          rms(c)
DAV:   1    -0.191879909126E+03   -0.27245E-01   -0.77533E-01  8160   0.188E+00    0.214E-01
DAV:   2    -0.191884597722E+03   -0.46886E-02   -0.27272E-02 11640   0.718E-01    0.613E-01
DAV:   3    -0.191881254812E+03    0.33429E-02   -0.89004E-03 11800   0.642E-01    0.197E-01
DAV:   4    -0.191881420879E+03   -0.16607E-03   -0.19006E-03 10240   0.291E-01    0.226E-01
DAV:   5    -0.191880864858E+03    0.55602E-03   -0.10237E-03  9720   0.249E-01    0.695E-02
DAV:   6    -0.191880970427E+03   -0.10557E-03   -0.44979E-04  9080   0.123E-01    0.112E-01
DAV:   7    -0.191880867470E+03    0.10296E-03   -0.40874E-04  8120   0.149E-01    0.648E-02
DAV:   8    -0.191880826128E+03    0.41342E-04   -0.90664E-05  5800   0.629E-02
  13 F= -.19188083E+03 E0= -.19178532E+03  d E =-.282576E-01
       N       E                     dE             d eps       ncg     rms          rms(c)
DAV:   1    -0.191938041723E+03   -0.57174E-01   -0.28043E+00  8160   0.361E+00    0.398E-01
DAV:   2    -0.191946378425E+03   -0.83367E-02   -0.80949E-02 11640   0.102E+00    0.765E-01
DAV:   3    -0.191942911117E+03    0.34673E-02   -0.21499E-02 12360   0.100E+00    0.472E-01
DAV:   4    -0.191940658318E+03    0.22528E-02   -0.38989E-03 11160   0.401E-01    0.178E-01
DAV:   5    -0.191941181373E+03   -0.52306E-03   -0.28368E-03 12400   0.400E-01    0.303E-01
DAV:   6    -0.191940546517E+03    0.63486E-03   -0.24960E-03 11600   0.364E-01    0.154E-01
DAV:   7    -0.191940314855E+03    0.23166E-03   -0.77441E-04  9720   0.195E-01    0.982E-02
DAV:   8    -0.191940203706E+03    0.11115E-03   -0.17218E-04  7400   0.106E-01    0.207E-02
DAV:   9    -0.191940204334E+03   -0.62813E-06   -0.36898E-05  6120   0.266E-02
  14 F= -.19194020E+03 E0= -.19184813E+03  d E =-.593782E-01
       N       E                     dE             d eps       ncg     rms          rms(c)
DAV:   1    -0.191919966849E+03    0.20237E-01   -0.38139E-01  8160   0.134E+00    0.164E-01
DAV:   2    -0.191921155713E+03   -0.11889E-02   -0.10074E-02 11880   0.424E-01    0.295E-01
DAV:   3    -0.191920326129E+03    0.82958E-03   -0.26849E-03 12360   0.415E-01    0.142E-01
DAV:   4    -0.191920116480E+03    0.20965E-03   -0.53163E-04  8760   0.151E-01    0.924E-02
DAV:   5    -0.191920159141E+03   -0.42661E-04   -0.55011E-04  8880   0.168E-01
  15 F= -.19192016E+03 E0= -.19182642E+03  d E =0.200452E-01
       N       E                     dE             d eps       ncg     rms          rms(c)
DAV:   1    -0.191818157127E+03    0.10196E+00   -0.28326E+01  8160   0.117E+01    0.146E+00
DAV:   2    -0.191968235999E+03   -0.15008E+00   -0.92631E-01 12240   0.458E+00    0.360E+00
DAV:   3    -0.191854829643E+03    0.11341E+00   -0.39958E-01 12120   0.424E+00    0.125E+00
DAV:   4    -0.191873394085E+03   -0.18564E-01   -0.13686E-01 10920   0.224E+00    0.193E+00
DAV:   5    -0.191832168526E+03    0.41226E-01   -0.70911E-02 11360   0.182E+00    0.403E-01
DAV:   6    -0.191839638745E+03   -0.74702E-02   -0.26801E-02 11800   0.992E-01    0.958E-01
DAV:   7    -0.191830918781E+03    0.87200E-02   -0.21034E-02 11360   0.963E-01    0.259E-01
DAV:   8    -0.191829977996E+03    0.94078E-03   -0.22560E-03 11040   0.231E-01    0.576E-02
DAV:   9    -0.191829942779E+03    0.35217E-04   -0.41148E-04 10680   0.614E-02
  16 F= -.19182994E+03 E0= -.19172859E+03  d E =0.902164E-01
       N       E                     dE             d eps       ncg     rms          rms(c)
DAV:   1    -0.191889942199E+03   -0.59964E-01   -0.59381E+00  8160   0.527E+00    0.722E-01
DAV:   2    -0.191975858565E+03   -0.85916E-01   -0.33622E-01 11360   0.290E+00    0.324E+00
DAV:   3    -0.191897375209E+03    0.78483E-01   -0.22331E-01 12280   0.266E+00    0.516E-01
DAV:   4    -0.191899902175E+03   -0.25270E-02   -0.18447E-02 10440   0.940E-01    0.803E-01
DAV:   5    -0.191893711244E+03    0.61909E-02   -0.17028E-02 12160   0.875E-01    0.294E-01
DAV:   6    -0.191894279769E+03   -0.56853E-03   -0.56592E-03 10280   0.513E-01    0.376E-01
DAV:   7    -0.191893096389E+03    0.11834E-02   -0.35365E-03 10800   0.452E-01    0.161E-01
DAV:   8    -0.191892645004E+03    0.45138E-03   -0.75170E-04 10000   0.153E-01    0.282E-02
DAV:   9    -0.191892647841E+03   -0.28368E-05   -0.99707E-05  7200   0.335E-02
  17 F= -.19189265E+03 E0= -.19179335E+03  d E =-.627051E-01
       N       E                     dE             d eps       ncg     rms          rms(c)
DAV:   1    -0.191924849563E+03   -0.32205E-01   -0.14108E+00  8160   0.257E+00    0.312E-01
DAV:   2    -0.191932684178E+03   -0.78346E-02   -0.56027E-02 11760   0.951E-01    0.836E-01
DAV:   3    -0.191927255282E+03    0.54289E-02   -0.21433E-02 12520   0.881E-01    0.295E-01
DAV:   4    -0.191926514290E+03    0.74099E-03   -0.28380E-03 11440   0.283E-01    0.189E-01
DAV:   5    -0.191926486030E+03    0.28260E-04   -0.21440E-03 11800   0.321E-01    0.209E-01
DAV:   6    -0.191926181950E+03    0.30408E-03   -0.13271E-03  9760   0.233E-01    0.962E-02
DAV:   7    -0.191926110628E+03    0.71321E-04   -0.45992E-04  8600   0.137E-01
  18 F= -.19192611E+03 E0= -.19182790E+03  d E =-.334628E-01
       N       E                     dE             d eps       ncg     rms          rms(c)
DAV:   1    -0.191926208814E+03   -0.26864E-04   -0.18314E-04  7720   0.106E-01    0.263E-02
DAV:   2    -0.191926307163E+03   -0.98349E-04   -0.19589E-04  7400   0.118E-01
  19 F= -.19192631E+03 E0= -.19182800E+03  d E =-.196534E-03
       N       E                     dE             d eps       ncg     rms          rms(c)
DAV:   1    -0.191869355109E+03    0.56854E-01   -0.30785E+00  8160   0.375E+00    0.487E-01
DAV:   2    -0.191901383361E+03   -0.32028E-01   -0.17348E-01 12600   0.185E+00    0.164E+00
DAV:   3    -0.191876106533E+03    0.25277E-01   -0.68319E-02 12400   0.162E+00    0.353E-01
DAV:   4    -0.191874949106E+03    0.11574E-02   -0.49556E-03 11520   0.345E-01    0.229E-01
DAV:   5    -0.191875122238E+03   -0.17313E-03   -0.35039E-03 11800   0.408E-01    0.304E-01
DAV:   6    -0.191874529828E+03    0.59241E-03   -0.30264E-03 11480   0.346E-01    0.159E-01
DAV:   7    -0.191874420260E+03    0.10957E-03   -0.13576E-03 10440   0.232E-01    0.148E-01
DAV:   8    -0.191874168442E+03    0.25182E-03   -0.47469E-04  8600   0.160E-01    0.357E-02
DAV:   9    -0.191874160394E+03    0.80488E-05   -0.55795E-05  6560   0.397E-02
  20 F= -.19187416E+03 E0= -.19177390E+03  d E =0.521468E-01
       N       E                     dE             d eps       ncg     rms          rms(c)
DAV:   1    -0.191952558856E+03   -0.78390E-01   -0.94057E+00  8160   0.657E+00    0.784E-01
DAV:   2    -0.192021809716E+03   -0.69251E-01   -0.41339E-01 11600   0.269E+00    0.251E+00
DAV:   3    -0.191973149080E+03    0.48661E-01   -0.17112E-01 12400   0.246E+00    0.703E-01
DAV:   4    -0.191972793782E+03    0.35530E-03   -0.19422E-02 11200   0.102E+00    0.742E-01
DAV:   5    -0.191967003753E+03    0.57900E-02   -0.14622E-02 12400   0.916E-01    0.313E-01
DAV:   6    -0.191967705939E+03   -0.70219E-03   -0.65723E-03 12120   0.525E-01    0.406E-01
DAV:   7    -0.191966786146E+03    0.91979E-03   -0.56729E-03 12160   0.566E-01    0.274E-01
DAV:   8    -0.191965783352E+03    0.10028E-02   -0.15610E-03 10000   0.250E-01    0.372E-02
DAV:   9    -0.191965787788E+03   -0.44363E-05   -0.18272E-04  7760   0.444E-02
  21 F= -.19196579E+03 E0= -.19186996E+03  d E =-.916274E-01
       N       E                     dE             d eps       ncg     rms          rms(c)
DAV:   1    -0.192000338073E+03   -0.34555E-01   -0.17135E+00  8160   0.282E+00    0.346E-01
DAV:   2    -0.192010989212E+03   -0.10651E-01   -0.70699E-02 11480   0.112E+00    0.929E-01
DAV:   3    -0.192003669072E+03    0.73201E-02   -0.25904E-02 12520   0.103E+00    0.329E-01
DAV:   4    -0.192003519978E+03    0.14909E-03   -0.41281E-03 11280   0.435E-01    0.320E-01
DAV:   5    -0.192002368888E+03    0.11511E-02   -0.22681E-03 12520   0.382E-01    0.116E-01
DAV:   6    -0.192002357204E+03    0.11684E-04   -0.79857E-04 10400   0.150E-01
  22 F= -.19200236E+03 E0= -.19190797E+03  d E =-.365694E-01
       N       E                     dE             d eps       ncg     rms          rms(c)
DAV:   1    -0.192092126895E+03   -0.89758E-01   -0.23802E+01  8160   0.106E+01    0.125E+00
DAV:   2    -0.192191471577E+03   -0.99345E-01   -0.89092E-01 11800   0.344E+00    0.231E+00
DAV:   3    -0.192146415139E+03    0.45056E-01   -0.20733E-01 12360   0.331E+00    0.132E+00
DAV:   4    -0.192136944552E+03    0.94706E-02   -0.52760E-02 12040   0.165E+00    0.110E+00
DAV:   5    -0.192125201120E+03    0.11743E-01   -0.29979E-02 12080   0.139E+00    0.488E-01
DAV:   6    -0.192123744502E+03    0.14566E-02   -0.11229E-02 12720   0.592E-01    0.290E-01
DAV:   7    -0.192122715766E+03    0.10287E-02   -0.57969E-03 12200   0.467E-01    0.284E-01
DAV:   8    -0.192121929868E+03    0.78590E-03   -0.19410E-03 11120   0.341E-01    0.910E-02
DAV:   9    -0.192121838452E+03    0.91416E-04   -0.29828E-04  7640   0.921E-02
  23 F= -.19212184E+03 E0= -.19203216E+03  d E =-.119481E+00
       N       E                     dE             d eps       ncg     rms          rms(c)
DAV:   1    -0.192145978773E+03   -0.24049E-01   -0.19022E+00  8160   0.295E+00    0.354E-01
DAV:   2    -0.192157211678E+03   -0.11233E-01   -0.75557E-02 12480   0.126E+00    0.805E-01
DAV:   3    -0.192149920889E+03    0.72908E-02   -0.14934E-02 11960   0.102E+00    0.269E-01
DAV:   4    -0.192149582051E+03    0.33884E-03   -0.31684E-03 11360   0.394E-01    0.245E-01
DAV:   5    -0.192149168888E+03    0.41316E-03   -0.20621E-03 11080   0.366E-01    0.174E-01
DAV:   6    -0.192148921315E+03    0.24757E-03   -0.10604E-03 10400   0.210E-01    0.767E-02
DAV:   7    -0.192148884906E+03    0.36409E-04   -0.38596E-04  8840   0.112E-01
  24 F= -.19214888E+03 E0= -.19206042E+03  d E =-.270465E-01
       N       E                     dE             d eps       ncg     rms          rms(c)
DAV:   1    -0.192160067034E+03   -0.11146E-01   -0.32505E-01  8160   0.126E+00    0.185E-01
DAV:   2    -0.192160824727E+03   -0.75769E-03   -0.13875E-02 11160   0.379E-01    0.239E-01
DAV:   3    -0.192160889357E+03   -0.64630E-04   -0.38100E-03 12480   0.463E-01    0.269E-01
DAV:   4    -0.192160125215E+03    0.76414E-03   -0.13536E-03 10120   0.268E-01    0.933E-02
DAV:   5    -0.192160151173E+03   -0.25958E-04   -0.51317E-04  8960   0.188E-01
  25 F= -.19216015E+03 E0= -.19207229E+03  d E =-.112663E-01
       N       E                     dE             d eps       ncg     rms          rms(c)
DAV:   1    -0.192183684482E+03   -0.23559E-01   -0.18530E+00  8160   0.292E+00    0.340E-01
DAV:   2    -0.192191142094E+03   -0.74576E-02   -0.66482E-02 12120   0.973E-01    0.592E-01
DAV:   3    -0.192187693028E+03    0.34491E-02   -0.11473E-02 12240   0.892E-01    0.303E-01
DAV:   4    -0.192186787600E+03    0.90543E-03   -0.24279E-03 11440   0.348E-01    0.180E-01
DAV:   5    -0.192186747082E+03    0.40519E-04   -0.14678E-03 11440   0.325E-01    0.185E-01
DAV:   6    -0.192186526064E+03    0.22102E-03   -0.10997E-03 10160   0.233E-01    0.882E-02
DAV:   7    -0.192186384880E+03    0.14118E-03   -0.34725E-04  8760   0.860E-02    0.240E-02
DAV:   8    -0.192186392126E+03   -0.72457E-05   -0.62213E-05  7480   0.503E-02
  26 F= -.19218639E+03 E0= -.19209917E+03  d E =-.262410E-01
       N       E                     dE             d eps       ncg     rms          rms(c)
DAV:   1    -0.192208432577E+03   -0.22048E-01   -0.17608E+00  8160   0.286E+00    0.349E-01
DAV:   2    -0.192214397968E+03   -0.59654E-02   -0.63685E-02 12200   0.847E-01    0.518E-01
DAV:   3    -0.192212507009E+03    0.18910E-02   -0.11712E-02 12200   0.882E-01    0.393E-01
DAV:   4    -0.192210982890E+03    0.15241E-02   -0.33627E-03 11480   0.437E-01    0.196E-01
DAV:   5    -0.192210908995E+03    0.73895E-04   -0.18836E-03 11640   0.358E-01    0.200E-01
DAV:   6    -0.192210557858E+03    0.35114E-03   -0.11153E-03  9920   0.239E-01    0.763E-02
DAV:   7    -0.192210518258E+03    0.39599E-04   -0.36429E-04  8640   0.122E-01
  27 F= -.19221052E+03 E0= -.19212398E+03  d E =-.241261E-01
       N       E                     dE             d eps       ncg     rms          rms(c)
DAV:   1    -0.192225327428E+03   -0.14770E-01   -0.86934E-01  8160   0.200E+00    0.253E-01
DAV:   2    -0.192229563739E+03   -0.42363E-02   -0.34520E-02 12000   0.827E-01    0.494E-01
DAV:   3    -0.192226962016E+03    0.26017E-02   -0.65250E-03 12360   0.683E-01    0.193E-01
DAV:   4    -0.192226708467E+03    0.25355E-03   -0.14112E-03 10720   0.262E-01    0.157E-01
DAV:   5    -0.192226609064E+03    0.99403E-04   -0.97278E-04 11280   0.262E-01
  28 F= -.19222661E+03 E0= -.19214134E+03  d E =-.160908E-01
       N       E                     dE             d eps       ncg     rms          rms(c)
DAV:   1    -0.192244138909E+03   -0.17430E-01   -0.14106E+00  8160   0.255E+00    0.311E-01
DAV:   2    -0.192249526381E+03   -0.53875E-02   -0.48820E-02 12640   0.841E-01    0.538E-01
DAV:   3    -0.192246808795E+03    0.27176E-02   -0.87156E-03 12120   0.790E-01    0.280E-01
DAV:   4    -0.192246190592E+03    0.61820E-03   -0.20839E-03 11480   0.350E-01    0.197E-01
DAV:   5    -0.192245964349E+03    0.22624E-03   -0.13369E-03 10880   0.315E-01    0.143E-01
DAV:   6    -0.192245799645E+03    0.16470E-03   -0.62508E-04 10200   0.161E-01    0.502E-02
DAV:   7    -0.192245787812E+03    0.11833E-04   -0.15871E-04  7520   0.997E-02
  29 F= -.19224579E+03 E0= -.19216166E+03  d E =-.191787E-01
       N       E                     dE             d eps       ncg     rms          rms(c)
DAV:   1    -0.192263509932E+03   -0.17710E-01   -0.18030E+00  8160   0.288E+00    0.343E-01
DAV:   2    -0.192268325440E+03   -0.48155E-02   -0.63915E-02 11440   0.764E-01    0.409E-01
DAV:   3    -0.192268315682E+03    0.97580E-05   -0.10382E-02 12360   0.823E-01    0.452E-01
DAV:   4    -0.192266148649E+03    0.21670E-02   -0.36482E-03 11880   0.486E-01    0.168E-01
DAV:   5    -0.192266234931E+03   -0.86281E-04   -0.16484E-03 11080   0.346E-01    0.208E-01
DAV:   6    -0.192265835470E+03    0.39946E-03   -0.11095E-03  9960   0.261E-01    0.764E-02
DAV:   7    -0.192265744874E+03    0.90596E-04   -0.28644E-04  8080   0.837E-02
  30 F= -.19226574E+03 E0= -.19218282E+03  d E =-.199571E-01
       N       E                     dE             d eps       ncg     rms          rms(c)
DAV:   1    -0.192271558792E+03   -0.57233E-02   -0.17661E-01  8160   0.911E-01    0.149E-01
DAV:   2    -0.192272759216E+03   -0.12004E-02   -0.89106E-03 11560   0.510E-01    0.321E-01
DAV:   3    -0.192271622150E+03    0.11371E-02   -0.22277E-03 11800   0.407E-01    0.940E-02
DAV:   4    -0.192271577705E+03    0.44445E-04   -0.44875E-04  8680   0.153E-01
  31 F= -.19227158E+03 E0= -.19218941E+03  d E =-.583283E-02
       N       E                     dE             d eps       ncg     rms          rms(c)
DAV:   1    -0.192284092985E+03   -0.12471E-01   -0.11078E+00  8160   0.225E+00    0.272E-01
DAV:   2    -0.192288258588E+03   -0.41656E-02   -0.39784E-02 12280   0.751E-01    0.470E-01
DAV:   3    -0.192286313389E+03    0.19452E-02   -0.70243E-03 12160   0.701E-01    0.266E-01
DAV:   4    -0.192285696626E+03    0.61676E-03   -0.18541E-03 11280   0.317E-01    0.145E-01
DAV:   5    -0.192285648692E+03    0.47934E-04   -0.11039E-03 11320   0.279E-01    0.151E-01
DAV:   6    -0.192285489364E+03    0.15933E-03   -0.71715E-04 10520   0.206E-01    0.730E-02
DAV:   7    -0.192285398149E+03    0.91216E-04   -0.17797E-04  6480   0.666E-02
  32 F= -.19228540E+03 E0= -.19220465E+03  d E =-.138204E-01
       N       E                     dE             d eps       ncg     rms          rms(c)
DAV:   1    -0.192292440484E+03   -0.69511E-02   -0.33347E-01  8160   0.124E+00    0.160E-01
DAV:   2    -0.192293611754E+03   -0.11713E-02   -0.13473E-02 12040   0.430E-01    0.251E-01
DAV:   3    -0.192293241361E+03    0.37039E-03   -0.24628E-03 12440   0.414E-01    0.182E-01
DAV:   4    -0.192292843582E+03    0.39778E-03   -0.60075E-04  9400   0.193E-01    0.515E-02
DAV:   5    -0.192292846622E+03   -0.30396E-05   -0.22227E-04  6760   0.878E-02
  33 F= -.19229285E+03 E0= -.19221250E+03  d E =-.744847E-02
       N       E                     dE             d eps       ncg     rms          rms(c)
DAV:   1    -0.192301671066E+03   -0.88275E-02   -0.65402E-01  8160   0.172E+00    0.213E-01
DAV:   2    -0.192304912056E+03   -0.32410E-02   -0.24176E-02 11760   0.681E-01    0.433E-01
DAV:   3    -0.192302830864E+03    0.20812E-02   -0.47078E-03 12480   0.588E-01    0.153E-01
DAV:   4    -0.192302682461E+03    0.14840E-03   -0.76418E-04  9960   0.208E-01    0.127E-01
DAV:   5    -0.192302600202E+03    0.82259E-04   -0.53375E-04  9640   0.210E-01
  34 F= -.19230260E+03 E0= -.19222328E+03  d E =-.975358E-02
       N       E                     dE             d eps       ncg     rms          rms(c)
DAV:   1    -0.192317992329E+03   -0.15310E-01   -0.43563E+00  8160   0.444E+00    0.522E-01
DAV:   2    -0.192336104563E+03   -0.18112E-01   -0.15206E-01 12640   0.162E+00    0.976E-01
DAV:   3    -0.192325974431E+03    0.10130E-01   -0.25825E-02 12320   0.137E+00    0.408E-01
DAV:   4    -0.192324529619E+03    0.14448E-02   -0.52420E-03 12320   0.545E-01    0.305E-01
DAV:   5    -0.192324052289E+03    0.47733E-03   -0.35287E-03 12280   0.524E-01    0.250E-01
DAV:   6    -0.192323607333E+03    0.44496E-03   -0.20817E-03 11840   0.313E-01    0.112E-01
DAV:   7    -0.192323324885E+03    0.28245E-03   -0.62845E-04 10960   0.106E-01    0.276E-02
DAV:   8    -0.192323326352E+03   -0.14663E-05   -0.72251E-05  7680   0.477E-02
  35 F= -.19232333E+03 E0= -.19224643E+03  d E =-.207261E-01
       N       E                     dE             d eps       ncg     rms          rms(c)
DAV:   1    -0.192329833437E+03   -0.65086E-02   -0.10192E+00  8160   0.215E+00    0.246E-01
DAV:   2    -0.192332578397E+03   -0.27450E-02   -0.37375E-02 11440   0.566E-01    0.266E-01
DAV:   3    -0.192332862244E+03   -0.28385E-03   -0.50394E-03 12560   0.581E-01    0.333E-01
DAV:   4    -0.192331595347E+03    0.12669E-02   -0.17816E-03 12040   0.369E-01    0.999E-02
DAV:   5    -0.192331698238E+03   -0.10289E-03   -0.76051E-04 10040   0.222E-01    0.146E-01
DAV:   6    -0.192331503559E+03    0.19468E-03   -0.58923E-04  9920   0.206E-01    0.655E-02
DAV:   7    -0.192331444203E+03    0.59356E-04   -0.12658E-04  6640   0.750E-02
  36 F= -.19233144E+03 E0= -.19225523E+03  d E =-.811785E-02
       N       E                     dE             d eps       ncg     rms          rms(c)
DAV:   1    -0.192334040483E+03   -0.25369E-02   -0.17515E-01  8160   0.878E-01    0.108E-01
DAV:   2    -0.192334899373E+03   -0.85889E-03   -0.88503E-03 11560   0.371E-01    0.174E-01
DAV:   3    -0.192334643690E+03    0.25568E-03   -0.10681E-03 11040   0.274E-01    0.928E-02
DAV:   4    -0.192334529244E+03    0.11445E-03   -0.19728E-04  7120   0.118E-01    0.453E-02
DAV:   5    -0.192334568368E+03   -0.39124E-04   -0.13196E-04  7080   0.102E-01
  37 F= -.19233457E+03 E0= -.19225864E+03  d E =-.312417E-02
       N       E                     dE             d eps       ncg     rms          rms(c)
DAV:   1    -0.192337763046E+03   -0.32338E-02   -0.37477E-01  8160   0.129E+00    0.144E-01
DAV:   2    -0.192339018364E+03   -0.12553E-02   -0.13686E-02 11960   0.420E-01    0.208E-01
DAV:   3    -0.192338738424E+03    0.27994E-03   -0.17719E-03 12600   0.360E-01    0.151E-01
DAV:   4    -0.192338467554E+03    0.27087E-03   -0.37990E-04  8920   0.172E-01    0.587E-02
DAV:   5    -0.192338527991E+03   -0.60437E-04   -0.26165E-04  8880   0.139E-01
  38 F= -.19233853E+03 E0= -.19226311E+03  d E =-.395962E-02
       N       E                     dE             d eps       ncg     rms          rms(c)
DAV:   1    -0.192342327389E+03   -0.38598E-02   -0.17046E+00  8160   0.276E+00    0.302E-01
DAV:   2    -0.192347264663E+03   -0.49373E-02   -0.60121E-02 12120   0.804E-01    0.368E-01
DAV:   3    -0.192347072566E+03    0.19210E-03   -0.67295E-03 11680   0.721E-01    0.362E-01
DAV:   4    -0.192345502787E+03    0.15698E-02   -0.21953E-03 11480   0.409E-01    0.122E-01
DAV:   5    -0.192345763844E+03   -0.26106E-03   -0.11832E-03 11320   0.293E-01    0.189E-01
DAV:   6    -0.192345424441E+03    0.33940E-03   -0.91958E-04  9840   0.244E-01    0.706E-02
DAV:   7    -0.192345335259E+03    0.89182E-04   -0.17533E-04  6840   0.764E-02
  39 F= -.19234534E+03 E0= -.19227100E+03  d E =-.680727E-02
       N       E                     dE             d eps       ncg     rms          rms(c)
DAV:   1    -0.192347358763E+03   -0.19343E-02   -0.10952E+00  8160   0.221E+00    0.238E-01
DAV:   2    -0.192350323574E+03   -0.29648E-02   -0.38962E-02 12040   0.585E-01    0.242E-01
DAV:   3    -0.192350677934E+03   -0.35436E-03   -0.42703E-03 11920   0.546E-01    0.320E-01
DAV:   4    -0.192349506066E+03    0.11719E-02   -0.16294E-03 11200   0.361E-01    0.976E-02
DAV:   5    -0.192349545972E+03   -0.39906E-04   -0.64953E-04  9480   0.191E-01
  40 F= -.19234955E+03 E0= -.19227573E+03  d E =-.421071E-02
       N       E                     dE             d eps       ncg     rms          rms(c)
DAV:   1    -0.192348910721E+03    0.59535E-03   -0.47393E-02  8160   0.492E-01    0.104E-01
DAV:   2    -0.192350282095E+03   -0.13714E-02   -0.44065E-03 11760   0.437E-01    0.322E-01
DAV:   3    -0.192348930618E+03    0.13515E-02   -0.18552E-03 11520   0.389E-01    0.708E-02
DAV:   4    -0.192348880914E+03    0.49704E-04   -0.18446E-04  6840   0.930E-02
  41 F= -.19234888E+03 E0= -.19227503E+03  d E =0.665058E-03
