       N       E                     dE             d eps       ncg     rms          rms(c)
DAV:   1     0.112590091530E+04    0.11259E+04   -0.35982E+04  8160   0.577E+02
DAV:   2    -0.206305718784E+01   -0.11280E+04   -0.10873E+04 11040   0.173E+02
DAV:   3    -0.199476204770E+03   -0.19741E+03   -0.18931E+03 10880   0.821E+01
DAV:   4    -0.208943269142E+03   -0.94671E+01   -0.91414E+01 12200   0.263E+01
DAV:   5    -0.209271757464E+03   -0.32849E+00   -0.32730E+00 11480   0.355E+00    0.275E+01
DAV:   6    -0.237498681546E+03   -0.28227E+02   -0.10933E+02 12400   0.599E+01    0.594E+01
DAV:   7    -0.196683001594E+03    0.40816E+02   -0.17476E+02 13520   0.152E+02    0.202E+01
DAV:   8    -0.189729749378E+03    0.69533E+01   -0.18387E+01 12040   0.130E+01    0.130E+01
DAV:   9    -0.188205318830E+03    0.15244E+01   -0.32746E+00 12920   0.622E+00    0.938E+00
DAV:  10    -0.186933798634E+03    0.12715E+01   -0.17648E+00 13480   0.804E+00    0.213E+00
DAV:  11    -0.187006259096E+03   -0.72460E-01   -0.53487E-01 13400   0.242E+00    0.322E+00
DAV:  12    -0.186911326805E+03    0.94932E-01   -0.41578E-01 12920   0.310E+00    0.278E+00
DAV:  13    -0.186868992546E+03    0.42334E-01   -0.23932E-01 13200   0.278E+00    0.215E+00
DAV:  14    -0.186827486512E+03    0.41506E-01   -0.10538E-01 13000   0.174E+00    0.612E-01
DAV:  15    -0.186822219795E+03    0.52667E-02   -0.12285E-02 11800   0.390E-01    0.356E-01
DAV:  16    -0.186820339592E+03    0.18802E-02   -0.60688E-03 12720   0.357E-01    0.186E-01
DAV:  17    -0.186819856014E+03    0.48358E-03   -0.14993E-03 12800   0.178E-01    0.853E-02
DAV:  18    -0.186820275188E+03   -0.41917E-03   -0.10800E-03 10280   0.178E-01    0.207E-01
DAV:  19    -0.186820448608E+03   -0.17342E-03   -0.12028E-03 10840   0.162E-01    0.790E-02
DAV:  20    -0.186821098294E+03   -0.64969E-03   -0.34219E-04  8120   0.567E-02    0.646E-02
DAV:  21    -0.186821934801E+03   -0.83651E-03   -0.27131E-04  7680   0.558E-02    0.353E-02
DAV:  22    -0.186823238380E+03   -0.13036E-02   -0.14366E-04  7480   0.369E-02    0.983E-03
DAV:  23    -0.186823971943E+03   -0.73356E-03   -0.43437E-05  7040   0.154E-02    0.819E-03
DAV:  24    -0.186824319956E+03   -0.34801E-03   -0.13048E-05  6000   0.107E-02    0.619E-03
DAV:  25    -0.186824558875E+03   -0.23892E-03   -0.94725E-06  6360   0.783E-03    0.282E-03
DAV:  26    -0.186824799225E+03   -0.24035E-03   -0.73297E-06  6760   0.603E-03    0.177E-03
DAV:  27    -0.186824885790E+03   -0.86566E-04   -0.31552E-06  7360   0.369E-03
   1 F= -.18682489E+03 E0= -.18665370E+03  d E =-.186825E+03
       N       E                     dE             d eps       ncg     rms          rms(c)
DAV:   1    -0.187493799051E+03   -0.66900E+00   -0.27469E+02  8160   0.352E+01    0.462E+00
DAV:   2    -0.189371637890E+03   -0.18778E+01   -0.20027E+01 12240   0.152E+01    0.856E+00
DAV:   3    -0.189333084072E+03    0.38554E-01   -0.35701E+00 12440   0.119E+01    0.651E+00
DAV:   4    -0.188748580779E+03    0.58450E+00   -0.65339E-01 12560   0.470E+00    0.177E+00
DAV:   5    -0.188746425740E+03    0.21550E-02   -0.28982E-01 10120   0.158E+00    0.226E+00
DAV:   6    -0.188712418516E+03    0.34007E-01   -0.33157E-01 12280   0.237E+00    0.231E+00
DAV:   7    -0.188703223592E+03    0.91949E-02   -0.20730E-01 12800   0.263E+00    0.225E+00
DAV:   8    -0.188660993328E+03    0.42230E-01   -0.85527E-02 12800   0.154E+00    0.455E-01
DAV:   9    -0.188658244521E+03    0.27488E-02   -0.78751E-03 10120   0.294E-01    0.187E-01
DAV:  10    -0.188658021655E+03    0.22287E-03   -0.27055E-03 12280   0.181E-01    0.158E-01
DAV:  11    -0.188658118817E+03   -0.97162E-04   -0.19548E-03 13520   0.225E-01    0.225E-01
DAV:  12    -0.188657914680E+03    0.20414E-03   -0.12189E-03 10440   0.195E-01    0.110E-01
DAV:  13    -0.188657857519E+03    0.57161E-04   -0.22751E-04  7280   0.717E-02
   2 F= -.18865786E+03 E0= -.18851836E+03  d E =-.183297E+01
       N       E                     dE             d eps       ncg     rms          rms(c)
DAV:   1    -0.190579471618E+03   -0.19216E+01   -0.31277E+01  9160   0.142E+01    0.442E+00
DAV:   2    -0.190511822936E+03    0.67649E-01   -0.27201E+00 11480   0.933E+00    0.706E+00
DAV:   3    -0.190066627134E+03    0.44520E+00   -0.12872E+00 12360   0.854E+00    0.417E+00
DAV:   4    -0.189855633791E+03    0.21099E+00   -0.67597E-01 13080   0.430E+00    0.243E+00
DAV:   5    -0.189766415764E+03    0.89218E-01   -0.28720E-01 11840   0.197E+00    0.850E-01
DAV:   6    -0.189756427716E+03    0.99880E-02   -0.44633E-02 11680   0.101E+00    0.694E-01
DAV:   7    -0.189753489146E+03    0.29386E-02   -0.12774E-02 11760   0.641E-01    0.271E-01
DAV:   8    -0.189752935073E+03    0.55407E-03   -0.19316E-03 12360   0.183E-01    0.119E-01
DAV:   9    -0.189753390379E+03   -0.45531E-03   -0.96825E-04 10320   0.106E-01    0.129E-01
DAV:  10    -0.189753095074E+03    0.29530E-03   -0.51747E-04 10640   0.770E-02    0.273E-02
DAV:  11    -0.189753131190E+03   -0.36115E-04   -0.89482E-05  7280   0.481E-02
   3 F= -.18975313E+03 E0= -.18963472E+03  d E =-.109527E+01
       N       E                     dE             d eps       ncg     rms          rms(c)
DAV:   1    -0.191359128185E+03   -0.16060E+01   -0.79823E+01  8160   0.203E+01    0.463E+00
DAV:   2    -0.191163112317E+03    0.19602E+00   -0.54011E+00 13040   0.761E+00    0.451E+00
DAV:   3    -0.191301738000E+03   -0.13863E+00   -0.15089E+00 12240   0.908E+00    0.650E+00
DAV:   4    -0.190904426897E+03    0.39731E+00   -0.12585E+00 13040   0.768E+00    0.276E+00
DAV:   5    -0.190783890437E+03    0.12054E+00   -0.30768E-01 11640   0.229E+00    0.910E-01
DAV:   6    -0.190768577972E+03    0.15312E-01   -0.72948E-02 10640   0.106E+00    0.631E-01
DAV:   7    -0.190774561281E+03   -0.59833E-02   -0.38021E-02 11920   0.125E+00    0.101E+00
DAV:   8    -0.190764342595E+03    0.10219E-01   -0.13652E-02 11760   0.802E-01    0.149E-01
DAV:   9    -0.190764675821E+03   -0.33323E-03   -0.16456E-03 10320   0.129E-01    0.139E-01
DAV:  10    -0.190764482058E+03    0.19376E-03   -0.10174E-03 10480   0.109E-01    0.489E-02
DAV:  11    -0.190764490446E+03   -0.83876E-05   -0.16688E-04  7120   0.458E-02
   4 F= -.19076449E+03 E0= -.19066093E+03  d E =-.101136E+01
       N       E                     dE             d eps       ncg     rms          rms(c)
DAV:   1    -0.192102126901E+03   -0.13376E+01   -0.17410E+02  8160   0.293E+01    0.567E+00
DAV:   2    -0.191847405308E+03    0.25472E+00   -0.95685E+00 11240   0.805E+00    0.375E+00
DAV:   3    -0.191969546125E+03   -0.12214E+00   -0.19524E+00 11840   0.797E+00    0.756E+00
DAV:   4    -0.191781880080E+03    0.18767E+00   -0.25341E+00 11080   0.106E+01    0.462E+00
DAV:   5    -0.191577472776E+03    0.20441E+00   -0.65606E-01 12600   0.572E+00    0.329E+00
DAV:   6    -0.191443283312E+03    0.13419E+00   -0.27041E-01 12400   0.390E+00    0.140E+00
DAV:   7    -0.191425935915E+03    0.17347E-01   -0.60713E-02 12320   0.133E+00    0.558E-01
DAV:   8    -0.191421238364E+03    0.46976E-02   -0.11021E-02 10680   0.485E-01    0.267E-01
DAV:   9    -0.191422895683E+03   -0.16573E-02   -0.55362E-03 12640   0.513E-01    0.461E-01
DAV:  10    -0.191421254769E+03    0.16409E-02   -0.42559E-03 11360   0.434E-01    0.121E-01
DAV:  11    -0.191421106722E+03    0.14805E-03   -0.74211E-04 10560   0.115E-01    0.530E-02
DAV:  12    -0.191421093075E+03    0.13647E-04   -0.11778E-04  7400   0.476E-02
   5 F= -.19142109E+03 E0= -.19131922E+03  d E =-.656603E+00
       N       E                     dE             d eps       ncg     rms          rms(c)
DAV:   1    -0.191463767063E+03   -0.42660E-01   -0.36466E+00  8160   0.403E+00    0.539E-01
DAV:   2    -0.191501540116E+03   -0.37773E-01   -0.21310E-01 13600   0.233E+00    0.161E+00
DAV:   3    -0.191474792337E+03    0.26748E-01   -0.56118E-02 12560   0.174E+00    0.383E-01
DAV:   4    -0.191475936923E+03   -0.11446E-02   -0.10804E-02 11320   0.683E-01    0.565E-01
DAV:   5    -0.191472785892E+03    0.31510E-02   -0.71966E-03 10440   0.566E-01    0.198E-01
DAV:   6    -0.191472545751E+03    0.24014E-03   -0.21623E-03 11160   0.200E-01    0.946E-02
DAV:   7    -0.191472326715E+03    0.21904E-03   -0.73305E-04  9760   0.977E-02    0.348E-02
DAV:   8    -0.191472329150E+03   -0.24345E-05   -0.11559E-04  6760   0.489E-02
   6 F= -.19147233E+03 E0= -.19136868E+03  d E =-.512361E-01
       N       E                     dE             d eps       ncg     rms          rms(c)
DAV:   1    -0.191517273187E+03   -0.44946E-01   -0.44995E+00  8160   0.447E+00    0.500E-01
DAV:   2    -0.191535268240E+03   -0.17995E-01   -0.13493E-01 13520   0.143E+00    0.106E+00
DAV:   3    -0.191524437295E+03    0.10831E-01   -0.37545E-02 12440   0.140E+00    0.503E-01
DAV:   4    -0.191523805504E+03    0.63179E-03   -0.98159E-03 11560   0.633E-01    0.481E-01
DAV:   5    -0.191521797152E+03    0.20084E-02   -0.66253E-03 10520   0.551E-01    0.241E-01
DAV:   6    -0.191521399054E+03    0.39810E-03   -0.22168E-03 10320   0.242E-01    0.114E-01
DAV:   7    -0.191521305860E+03    0.93193E-04   -0.98864E-04 10280   0.167E-01
   7 F= -.19152131E+03 E0= -.19141621E+03  d E =-.489767E-01
       N       E                     dE             d eps       ncg     rms          rms(c)
DAV:   1    -0.191538109997E+03   -0.16711E-01   -0.46215E-01  8160   0.147E+00    0.219E-01
DAV:   2    -0.191540658543E+03   -0.25485E-02   -0.19595E-02 13360   0.663E-01    0.481E-01
DAV:   3    -0.191538378711E+03    0.22798E-02   -0.68947E-03 11600   0.587E-01    0.187E-01
DAV:   4    -0.191538433972E+03   -0.55261E-04   -0.21593E-03 10760   0.298E-01    0.229E-01
DAV:   5    -0.191537995667E+03    0.43830E-03   -0.14330E-03  9840   0.269E-01    0.115E-01
DAV:   6    -0.191537880196E+03    0.11547E-03   -0.48719E-04  8520   0.133E-01    0.555E-02
DAV:   7    -0.191537908674E+03   -0.28479E-04   -0.29424E-04  7720   0.112E-01
   8 F= -.19153791E+03 E0= -.19143254E+03  d E =-.166028E-01
       N       E                     dE             d eps       ncg     rms          rms(c)
DAV:   1    -0.191502488379E+03    0.35392E-01   -0.20709E+00  8160   0.303E+00    0.316E-01
DAV:   2    -0.191509876196E+03   -0.73878E-02   -0.55394E-02 13600   0.969E-01    0.670E-01
DAV:   3    -0.191505076715E+03    0.47995E-02   -0.14060E-02 12440   0.832E-01    0.274E-01
DAV:   4    -0.191505140175E+03   -0.63460E-04   -0.42248E-03 11200   0.382E-01    0.319E-01
DAV:   5    -0.191504260358E+03    0.87982E-03   -0.25352E-03 10320   0.351E-01    0.145E-01
DAV:   6    -0.191504148400E+03    0.11196E-03   -0.86360E-04 10200   0.166E-01    0.695E-02
DAV:   7    -0.191504069306E+03    0.79094E-04   -0.29650E-04  9080   0.759E-02
   9 F= -.19150407E+03 E0= -.19139912E+03  d E =0.338394E-01
       N       E                     dE             d eps       ncg     rms          rms(c)
DAV:   1    -0.191461338595E+03    0.42810E-01   -0.59405E+00  8160   0.514E+00    0.574E-01
DAV:   2    -0.191485698624E+03   -0.24360E-01   -0.16774E-01 12880   0.184E+00    0.129E+00
DAV:   3    -0.191468865510E+03    0.16833E-01   -0.50457E-02 11760   0.154E+00    0.594E-01
DAV:   4    -0.191468211446E+03    0.65406E-03   -0.16975E-02 11480   0.779E-01    0.555E-01
DAV:   5    -0.191465650690E+03    0.25608E-02   -0.84476E-03 11080   0.651E-01    0.299E-01
DAV:   6    -0.191464700524E+03    0.95017E-03   -0.30970E-03 11640   0.358E-01    0.120E-01
DAV:   7    -0.191464677099E+03    0.23425E-04   -0.11659E-03 11640   0.164E-01    0.112E-01
DAV:   8    -0.191464611582E+03    0.65517E-04   -0.63079E-04  9000   0.171E-01
  10 F= -.19146461E+03 E0= -.19135975E+03  d E =0.394577E-01
       N       E                     dE             d eps       ncg     rms          rms(c)
DAV:   1    -0.191450569571E+03    0.14108E-01   -0.32962E+00  8160   0.379E+00    0.372E-01
DAV:   2    -0.191459919565E+03   -0.93500E-02   -0.72832E-02 12720   0.987E-01    0.775E-01
DAV:   3    -0.191455695588E+03    0.42240E-02   -0.24009E-02 12320   0.101E+00    0.520E-01
DAV:   4    -0.191453491808E+03    0.22038E-02   -0.70231E-03 11360   0.469E-01    0.194E-01
DAV:   5    -0.191452918474E+03    0.57333E-03   -0.14516E-03 10320   0.161E-01    0.102E-01
DAV:   6    -0.191453329450E+03   -0.41098E-03   -0.14644E-03 11480   0.257E-01    0.217E-01
DAV:   7    -0.191452914190E+03    0.41526E-03   -0.12103E-03  9960   0.243E-01    0.870E-02
DAV:   8    -0.191452852532E+03    0.61658E-04   -0.25154E-04  6680   0.107E-01
  11 F= -.19145285E+03 E0= -.19134716E+03  d E =0.117590E-01
       N       E                     dE             d eps       ncg     rms          rms(c)
DAV:   1    -0.191473754562E+03   -0.20840E-01   -0.16615E+00  8160   0.273E+00    0.323E-01
DAV:   2    -0.191485383231E+03   -0.11629E-01   -0.67243E-02 12240   0.114E+00    0.935E-01
DAV:   3    -0.191477562611E+03    0.78206E-02   -0.24890E-02 12360   0.105E+00    0.356E-01
DAV:   4    -0.191477002376E+03    0.56023E-03   -0.47747E-03 10280   0.403E-01    0.270E-01
DAV:   5    -0.191476328934E+03    0.67344E-03   -0.21398E-03 10480   0.325E-01    0.142E-01
DAV:   6    -0.191476119944E+03    0.20899E-03   -0.72027E-04 10800   0.143E-01    0.645E-02
DAV:   7    -0.191476085421E+03    0.34523E-04   -0.24292E-04  6720   0.742E-02
  12 F= -.19147609E+03 E0= -.19136756E+03  d E =-.232329E-01
       N       E                     dE             d eps       ncg     rms          rms(c)
DAV:   1    -0.191482824780E+03   -0.67048E-02   -0.17594E-01  8160   0.910E-01    0.133E-01
DAV:   2    -0.191483757303E+03   -0.93252E-03   -0.72126E-03 13600   0.398E-01    0.296E-01
DAV:   3    -0.191482915009E+03    0.84229E-03   -0.26107E-03 11040   0.356E-01    0.118E-01
DAV:   4    -0.191482914487E+03    0.52163E-06   -0.79011E-04  8560   0.180E-01
  13 F= -.19148291E+03 E0= -.19137385E+03  d E =-.682907E-02
       N       E                     dE             d eps       ncg     rms          rms(c)
DAV:   1    -0.191511113414E+03   -0.28198E-01   -0.20279E+00  8160   0.310E+00    0.451E-01
DAV:   2    -0.191520384759E+03   -0.92713E-02   -0.80605E-02 13600   0.122E+00    0.957E-01
DAV:   3    -0.191513368219E+03    0.70165E-02   -0.32684E-02 12200   0.121E+00    0.526E-01
DAV:   4    -0.191512272653E+03    0.10956E-02   -0.11541E-02 11800   0.660E-01    0.453E-01
DAV:   5    -0.191510608071E+03    0.16646E-02   -0.75062E-03 10320   0.562E-01    0.273E-01
DAV:   6    -0.191509714867E+03    0.89320E-03   -0.26547E-03 11600   0.280E-01    0.850E-02
DAV:   7    -0.191509682676E+03    0.32192E-04   -0.75744E-04 10120   0.128E-01
  14 F= -.19150968E+03 E0= -.19139769E+03  d E =-.267682E-01
       N       E                     dE             d eps       ncg     rms          rms(c)
DAV:   1    -0.191523046203E+03   -0.13331E-01   -0.49001E-01  8160   0.150E+00    0.199E-01
DAV:   2    -0.191526261754E+03   -0.32156E-02   -0.20830E-02 12080   0.630E-01    0.528E-01
DAV:   3    -0.191523914810E+03    0.23469E-02   -0.83058E-03 11480   0.589E-01    0.216E-01
DAV:   4    -0.191523535782E+03    0.37903E-03   -0.13827E-03  9560   0.203E-01    0.980E-02
DAV:   5    -0.191523585714E+03   -0.49932E-04   -0.84525E-04  9600   0.184E-01
  15 F= -.19152359E+03 E0= -.19141085E+03  d E =-.139030E-01
       N       E                     dE             d eps       ncg     rms          rms(c)
DAV:   1    -0.191540736077E+03   -0.17200E-01   -0.79930E-01  8160   0.192E+00    0.218E-01
DAV:   2    -0.191542390079E+03   -0.16540E-02   -0.22079E-02 12120   0.492E-01    0.314E-01
DAV:   3    -0.191542409902E+03   -0.19823E-04   -0.63110E-03 12120   0.523E-01    0.327E-01
DAV:   4    -0.191541460004E+03    0.94990E-03   -0.22355E-03  9920   0.302E-01    0.143E-01
DAV:   5    -0.191541410329E+03    0.49675E-04   -0.11479E-03  9720   0.222E-01    0.134E-01
DAV:   6    -0.191541347260E+03    0.63070E-04   -0.72616E-04  9520   0.164E-01
  16 F= -.19154135E+03 E0= -.19142719E+03  d E =-.177615E-01
       N       E                     dE             d eps       ncg     rms          rms(c)
DAV:   1    -0.191547187864E+03   -0.57775E-02   -0.91466E-02  8160   0.664E-01    0.149E-01
DAV:   2    -0.191552192471E+03   -0.50046E-02   -0.12819E-02 12200   0.709E-01    0.730E-01
DAV:   3    -0.191547101329E+03    0.50911E-02   -0.90942E-03 10360   0.632E-01    0.816E-02
DAV:   4    -0.191547202657E+03   -0.10133E-03   -0.50121E-04  8600   0.143E-01    0.100E-01
DAV:   5    -0.191547091204E+03    0.11145E-03   -0.25466E-04  7800   0.108E-01    0.309E-02
DAV:   6    -0.191547115231E+03   -0.24027E-04   -0.10329E-04  6120   0.657E-02
  17 F= -.19154712E+03 E0= -.19143264E+03  d E =-.576797E-02
       N       E                     dE             d eps       ncg     rms          rms(c)
DAV:   1    -0.191524351440E+03    0.22740E-01   -0.14840E+00  8160   0.260E+00    0.345E-01
DAV:   2    -0.191537304347E+03   -0.12953E-01   -0.60204E-02 13480   0.122E+00    0.110E+00
DAV:   3    -0.191525760341E+03    0.11544E-01   -0.26870E-02 11840   0.111E+00    0.292E-01
DAV:   4    -0.191525825782E+03   -0.65441E-04   -0.45690E-03 10040   0.407E-01    0.323E-01
DAV:   5    -0.191524977305E+03    0.84848E-03   -0.36974E-03 11000   0.403E-01    0.191E-01
DAV:   6    -0.191524809881E+03    0.16742E-03   -0.14378E-03  9520   0.232E-01    0.149E-01
DAV:   7    -0.191524700599E+03    0.10928E-03   -0.96843E-04  9880   0.214E-01    0.101E-01
DAV:   8    -0.191524567313E+03    0.13329E-03   -0.25096E-04  7840   0.100E-01    0.177E-02
DAV:   9    -0.191524570022E+03   -0.27090E-05   -0.38950E-05  6640   0.234E-02
  18 F= -.19152457E+03 E0= -.19141176E+03  d E =0.225452E-01
       N       E                     dE             d eps       ncg     rms          rms(c)
DAV:   1    -0.191541583727E+03   -0.17016E-01   -0.62811E-01  8160   0.177E+00    0.316E-01
DAV:   2    -0.191544550907E+03   -0.29672E-02   -0.31819E-02 12800   0.827E-01    0.647E-01
DAV:   3    -0.191541113773E+03    0.34371E-02   -0.14539E-02 11360   0.798E-01    0.316E-01
DAV:   4    -0.191540959491E+03    0.15428E-03   -0.56680E-03 11000   0.469E-01    0.356E-01
DAV:   5    -0.191539967938E+03    0.99155E-03   -0.38350E-03 10720   0.422E-01    0.191E-01
DAV:   6    -0.191539632950E+03    0.33499E-03   -0.16132E-03  9760   0.227E-01    0.123E-01
DAV:   7    -0.191539553423E+03    0.79527E-04   -0.72106E-04  8160   0.175E-01
  19 F= -.19153955E+03 E0= -.19142567E+03  d E =-.149834E-01
       N       E                     dE             d eps       ncg     rms          rms(c)
DAV:   1    -0.191560168034E+03   -0.20535E-01   -0.11248E+00  8160   0.226E+00    0.269E-01
DAV:   2    -0.191564661847E+03   -0.44938E-02   -0.35968E-02 12240   0.769E-01    0.599E-01
DAV:   3    -0.191562069785E+03    0.25921E-02   -0.13068E-02 11800   0.736E-01    0.342E-01
DAV:   4    -0.191561080985E+03    0.98880E-03   -0.32596E-03 10840   0.318E-01    0.140E-01
DAV:   5    -0.191561045241E+03    0.35744E-04   -0.15547E-03 10160   0.234E-01    0.187E-01
DAV:   6    -0.191560815114E+03    0.23013E-03   -0.11893E-03  9120   0.231E-01    0.103E-01
DAV:   7    -0.191560736371E+03    0.78743E-04   -0.34018E-04  7600   0.108E-01
  20 F= -.19156074E+03 E0= -.19144572E+03  d E =-.211829E-01
       N       E                     dE             d eps       ncg     rms          rms(c)
DAV:   1    -0.191575930890E+03   -0.15116E-01   -0.53635E-01  8160   0.156E+00    0.180E-01
DAV:   2    -0.191576791807E+03   -0.86092E-03   -0.14866E-02 12200   0.357E-01    0.183E-01
DAV:   3    -0.191576928216E+03   -0.13641E-03   -0.31272E-03 12640   0.367E-01    0.237E-01
DAV:   4    -0.191576361862E+03    0.56635E-03   -0.14189E-03 10240   0.269E-01    0.101E-01
DAV:   5    -0.191576322032E+03    0.39830E-04   -0.67690E-04  8680   0.151E-01
  21 F= -.19157632E+03 E0= -.19146103E+03  d E =-.155857E-01
       N       E                     dE             d eps       ncg     rms          rms(c)
DAV:   1    -0.191531556733E+03    0.44805E-01   -0.45414E+00  8160   0.455E+00    0.526E-01
DAV:   2    -0.191546216129E+03   -0.14659E-01   -0.13635E-01 12400   0.125E+00    0.107E+00
DAV:   3    -0.191540117384E+03    0.60987E-02   -0.49936E-02 12360   0.139E+00    0.745E-01
DAV:   4    -0.191535162402E+03    0.49550E-02   -0.12804E-02 11440   0.637E-01    0.256E-01
DAV:   5    -0.191534337146E+03    0.82526E-03   -0.41288E-03 10880   0.330E-01    0.241E-01
DAV:   6    -0.191534430956E+03   -0.93810E-04   -0.38066E-03 11560   0.417E-01    0.258E-01
DAV:   7    -0.191533910084E+03    0.52087E-03   -0.19680E-03 10000   0.281E-01    0.137E-01
DAV:   8    -0.191533743091E+03    0.16699E-03   -0.63122E-04  9080   0.171E-01    0.686E-02
DAV:   9    -0.191533693565E+03    0.49527E-04   -0.12703E-04  6680   0.728E-02
  22 F= -.19153369E+03 E0= -.19141989E+03  d E =0.426285E-01
       N       E                     dE             d eps       ncg     rms          rms(c)
DAV:   1    -0.191464905211E+03    0.68838E-01   -0.15199E+01  8160   0.830E+00    0.937E-01
DAV:   2    -0.191513217869E+03   -0.48313E-01   -0.43813E-01 13080   0.225E+00    0.193E+00
DAV:   3    -0.191493697708E+03    0.19520E-01   -0.15446E-01 12400   0.249E+00    0.133E+00
DAV:   4    -0.191477887297E+03    0.15810E-01   -0.38368E-02 12560   0.112E+00    0.480E-01
DAV:   5    -0.191476120590E+03    0.17667E-02   -0.13874E-02 11040   0.710E-01    0.516E-01
DAV:   6    -0.191474613124E+03    0.15075E-02   -0.10920E-02 11680   0.736E-01    0.366E-01
DAV:   7    -0.191474213787E+03    0.39934E-03   -0.60567E-03 11840   0.481E-01    0.333E-01
DAV:   8    -0.191473182148E+03    0.10316E-02   -0.28903E-03 10640   0.362E-01    0.122E-01
DAV:   9    -0.191473016572E+03    0.16558E-03   -0.44656E-04  8720   0.116E-01    0.340E-02
DAV:  10    -0.191473012940E+03    0.36322E-05   -0.10487E-04  7480   0.386E-02
  23 F= -.19147301E+03 E0= -.19136339E+03  d E =0.606806E-01
       N       E                     dE             d eps       ncg     rms          rms(c)
DAV:   1    -0.191494090610E+03   -0.21074E-01   -0.12663E+00  8160   0.244E+00    0.359E-01
DAV:   2    -0.191503336284E+03   -0.92457E-02   -0.60474E-02 13120   0.111E+00    0.952E-01
DAV:   3    -0.191495923516E+03    0.74128E-02   -0.26094E-02 11840   0.104E+00    0.389E-01
DAV:   4    -0.191495513742E+03    0.40977E-03   -0.65899E-03 10200   0.494E-01    0.349E-01
DAV:   5    -0.191494385114E+03    0.11286E-02   -0.38746E-03 11480   0.426E-01    0.180E-01
DAV:   6    -0.191493987913E+03    0.39720E-03   -0.13468E-03 10520   0.188E-01    0.609E-02
DAV:   7    -0.191493946293E+03    0.41621E-04   -0.36953E-04  8400   0.843E-02
  24 F= -.19149395E+03 E0= -.19138199E+03  d E =-.209334E-01
       N       E                     dE             d eps       ncg     rms          rms(c)
DAV:   1    -0.191507716967E+03   -0.13729E-01   -0.50597E-01  8160   0.152E+00    0.187E-01
DAV:   2    -0.191510129771E+03   -0.24128E-02   -0.17157E-02 11480   0.526E-01    0.448E-01
DAV:   3    -0.191508614530E+03    0.15152E-02   -0.70000E-03 11720   0.528E-01    0.238E-01
DAV:   4    -0.191508170513E+03    0.44402E-03   -0.15845E-03 10000   0.214E-01    0.102E-01
DAV:   5    -0.191508221641E+03   -0.51127E-04   -0.89257E-04  9400   0.184E-01
  25 F= -.19150822E+03 E0= -.19139536E+03  d E =-.142753E-01
       N       E                     dE             d eps       ncg     rms          rms(c)
DAV:   1    -0.191504614528E+03    0.35560E-02   -0.59136E-02  8160   0.577E-01    0.135E-01
DAV:   2    -0.191506662735E+03   -0.20482E-02   -0.74863E-03 11360   0.509E-01    0.482E-01
DAV:   3    -0.191504433749E+03    0.22290E-02   -0.45896E-03 10600   0.449E-01    0.107E-01
DAV:   4    -0.191504476205E+03   -0.42457E-04   -0.67625E-04  8560   0.161E-01
  26 F= -.19150448E+03 E0= -.19139165E+03  d E =0.374544E-02
       N       E                     dE             d eps       ncg     rms          rms(c)
DAV:   1    -0.191535632383E+03   -0.31199E-01   -0.21823E+00  8160   0.319E+00    0.402E-01
DAV:   2    -0.191543907298E+03   -0.82749E-02   -0.73893E-02 12480   0.110E+00    0.850E-01
DAV:   3    -0.191538991576E+03    0.49157E-02   -0.27890E-02 11760   0.107E+00    0.477E-01
DAV:   4    -0.191537834387E+03    0.11572E-02   -0.86215E-03 11200   0.566E-01    0.379E-01
DAV:   5    -0.191536784305E+03    0.10501E-02   -0.59585E-03 10520   0.488E-01    0.259E-01
DAV:   6    -0.191536385411E+03    0.39889E-03   -0.28010E-03 11600   0.299E-01    0.199E-01
DAV:   7    -0.191536293943E+03    0.91468E-04   -0.20602E-03 10120   0.291E-01    0.165E-01
DAV:   8    -0.191535972023E+03    0.32192E-03   -0.56655E-04  8800   0.144E-01    0.223E-02
DAV:   9    -0.191535974242E+03   -0.22198E-05   -0.52925E-05  6480   0.263E-02
  27 F= -.19153597E+03 E0= -.19142169E+03  d E =-.314980E-01
       N       E                     dE             d eps       ncg     rms          rms(c)
DAV:   1    -0.191534527187E+03    0.14448E-02   -0.34567E-02  8160   0.406E-01    0.732E-02
DAV:   2    -0.191535252107E+03   -0.72492E-03   -0.27558E-03 11960   0.298E-01    0.279E-01
DAV:   3    -0.191534498852E+03    0.75325E-03   -0.15772E-03  9360   0.260E-01    0.525E-02
DAV:   4    -0.191534509720E+03   -0.10868E-04   -0.14894E-04  5720   0.727E-02
  28 F= -.19153451E+03 E0= -.19142029E+03  d E =0.146452E-02
       N       E                     dE             d eps       ncg     rms          rms(c)
DAV:   1    -0.191570155185E+03   -0.35656E-01   -0.23870E+00  8160   0.331E+00    0.352E-01
DAV:   2    -0.191574377497E+03   -0.42223E-02   -0.60085E-02 12240   0.743E-01    0.426E-01
DAV:   3    -0.191574731995E+03   -0.35450E-03   -0.15043E-02 12320   0.784E-01    0.529E-01
DAV:   4    -0.191572511996E+03    0.22200E-02   -0.78603E-03 11400   0.564E-01    0.249E-01
DAV:   5    -0.191572332958E+03    0.17904E-03   -0.39055E-03 10520   0.390E-01    0.270E-01
DAV:   6    -0.191571780995E+03    0.55196E-03   -0.21851E-03  9760   0.302E-01    0.130E-01
DAV:   7    -0.191572023340E+03   -0.24234E-03   -0.15406E-03  9880   0.242E-01    0.206E-01
DAV:   8    -0.191571587783E+03    0.43556E-03   -0.79835E-04  8440   0.180E-01    0.234E-02
DAV:   9    -0.191571602908E+03   -0.15125E-04   -0.45275E-05  6200   0.262E-02
  29 F= -.19157160E+03 E0= -.19145750E+03  d E =-.370932E-01
       N       E                     dE             d eps       ncg     rms          rms(c)
DAV:   1    -0.191502498337E+03    0.69089E-01   -0.88672E+00  8160   0.637E+00    0.703E-01
DAV:   2    -0.191516132211E+03   -0.13634E-01   -0.22465E-01 12320   0.134E+00    0.716E-01
DAV:   3    -0.191520574201E+03   -0.44420E-02   -0.53522E-02 12120   0.151E+00    0.104E+00
DAV:   4    -0.191509827890E+03    0.10746E-01   -0.25087E-02 12120   0.108E+00    0.417E-01
DAV:   5    -0.191510071746E+03   -0.24386E-03   -0.13006E-02 10320   0.726E-01    0.562E-01
DAV:   6    -0.191507709351E+03    0.23624E-02   -0.90816E-03 10680   0.610E-01    0.219E-01
DAV:   7    -0.191507617825E+03    0.91526E-04   -0.28209E-03 11800   0.304E-01    0.246E-01
DAV:   8    -0.191507085051E+03    0.53277E-03   -0.14242E-03  9840   0.236E-01    0.695E-02
DAV:   9    -0.191507055420E+03    0.29632E-04   -0.15332E-04  5800   0.613E-02
  30 F= -.19150706E+03 E0= -.19139395E+03  d E =0.645475E-01
       N       E                     dE             d eps       ncg     rms          rms(c)
DAV:   1    -0.191476449723E+03    0.30635E-01   -0.54471E+00  8160   0.496E+00    0.522E-01
DAV:   2    -0.191492507340E+03   -0.16058E-01   -0.13638E-01 13440   0.147E+00    0.103E+00
DAV:   3    -0.191484814647E+03    0.76927E-02   -0.39963E-02 12040   0.134E+00    0.626E-01
DAV:   4    -0.191483397513E+03    0.14171E-02   -0.14966E-02 12480   0.746E-01    0.538E-01
DAV:   5    -0.191481175849E+03    0.22217E-02   -0.92382E-03 11080   0.667E-01    0.318E-01
DAV:   6    -0.191480168669E+03    0.10072E-02   -0.28943E-03 11520   0.311E-01    0.108E-01
DAV:   7    -0.191480480599E+03   -0.31193E-03   -0.15934E-03 11080   0.241E-01    0.221E-01
DAV:   8    -0.191479997338E+03    0.48326E-03   -0.92198E-04  8840   0.203E-01    0.365E-02
DAV:   9    -0.191480005656E+03   -0.83178E-05   -0.68556E-05  6080   0.388E-02
  31 F= -.19148001E+03 E0= -.19137043E+03  d E =0.270498E-01
       N       E                     dE             d eps       ncg     rms          rms(c)
DAV:   1    -0.191495587682E+03   -0.15590E-01   -0.10164E+00  8160   0.214E+00    0.241E-01
DAV:   2    -0.191499278087E+03   -0.36904E-02   -0.32101E-02 12600   0.634E-01    0.490E-01
DAV:   3    -0.191497860355E+03    0.14177E-02   -0.10425E-02 12400   0.658E-01    0.354E-01
DAV:   4    -0.191496995208E+03    0.86515E-03   -0.30251E-03 10680   0.323E-01    0.179E-01
DAV:   5    -0.191496751902E+03    0.24331E-03   -0.12365E-03 10000   0.242E-01    0.135E-01
DAV:   6    -0.191496588310E+03    0.16359E-03   -0.61404E-04  9320   0.163E-01    0.632E-02
DAV:   7    -0.191496616497E+03   -0.28188E-04   -0.30912E-04  7280   0.103E-01
  32 F= -.19149662E+03 E0= -.19138567E+03  d E =-.166108E-01
       N       E                     dE             d eps       ncg     rms          rms(c)
DAV:   1    -0.191480851835E+03    0.15736E-01   -0.10974E+00  8160   0.223E+00    0.259E-01
DAV:   2    -0.191485302543E+03   -0.44507E-02   -0.33644E-02 13400   0.744E-01    0.567E-01
DAV:   3    -0.191482451733E+03    0.28508E-02   -0.10630E-02 11880   0.705E-01    0.305E-01
DAV:   4    -0.191482131953E+03    0.31978E-03   -0.35432E-03 10720   0.365E-01    0.260E-01
DAV:   5    -0.191481581325E+03    0.55063E-03   -0.20356E-03  9560   0.303E-01    0.139E-01
DAV:   6    -0.191481414291E+03    0.16703E-03   -0.74279E-04  9880   0.156E-01    0.833E-02
DAV:   7    -0.191481526259E+03   -0.11197E-03   -0.69373E-04  9000   0.171E-01    0.137E-01
DAV:   8    -0.191481340244E+03    0.18602E-03   -0.35458E-04  7120   0.126E-01    0.230E-02
DAV:   9    -0.191481345292E+03   -0.50488E-05   -0.30834E-05  5640   0.237E-02
  33 F= -.19148135E+03 E0= -.19137136E+03  d E =0.152712E-01
       N       E                     dE             d eps       ncg     rms          rms(c)
DAV:   1    -0.191454273820E+03    0.27066E-01   -0.46973E+00  8160   0.459E+00    0.489E-01
DAV:   2    -0.191469341861E+03   -0.15068E-01   -0.12813E-01 13120   0.127E+00    0.986E-01
DAV:   3    -0.191463031398E+03    0.63105E-02   -0.40229E-02 12520   0.131E+00    0.705E-01
DAV:   4    -0.191459587270E+03    0.34441E-02   -0.12745E-02 11920   0.667E-01    0.362E-01
DAV:   5    -0.191458677377E+03    0.90989E-03   -0.51439E-03 11040   0.494E-01    0.295E-01
DAV:   6    -0.191457897542E+03    0.77984E-03   -0.28066E-03 11760   0.360E-01    0.148E-01
DAV:   7    -0.191458295375E+03   -0.39783E-03   -0.20939E-03 10760   0.285E-01    0.255E-01
DAV:   8    -0.191457685290E+03    0.61009E-03   -0.13328E-03  9600   0.246E-01    0.634E-02
DAV:   9    -0.191457647199E+03    0.38091E-04   -0.10355E-04  5800   0.532E-02
  34 F= -.19145765E+03 E0= -.19134900E+03  d E =0.236981E-01
       N       E                     dE             d eps       ncg     rms          rms(c)
DAV:   1    -0.191473212562E+03   -0.15527E-01   -0.98533E-01  8160   0.213E+00    0.277E-01
DAV:   2    -0.191479461073E+03   -0.62485E-02   -0.38940E-02 12960   0.858E-01    0.745E-01
DAV:   3    -0.191474868260E+03    0.45928E-02   -0.16147E-02 11760   0.824E-01    0.318E-01
DAV:   4    -0.191474488705E+03    0.37956E-03   -0.37873E-03 10000   0.367E-01    0.251E-01
DAV:   5    -0.191473940481E+03    0.54822E-03   -0.20413E-03 10400   0.319E-01    0.149E-01
DAV:   6    -0.191473681164E+03    0.25932E-03   -0.75273E-04 10120   0.154E-01    0.570E-02
DAV:   7    -0.191473768979E+03   -0.87814E-04   -0.44218E-04  8760   0.128E-01
  35 F= -.19147377E+03 E0= -.19136302E+03  d E =-.161218E-01
       N       E                     dE             d eps       ncg     rms          rms(c)
DAV:   1    -0.191466374631E+03    0.73065E-02   -0.19054E-01  8160   0.940E-01    0.108E-01
DAV:   2    -0.191467562461E+03   -0.11878E-02   -0.66420E-03 12920   0.331E-01    0.323E-01
DAV:   3    -0.191466658948E+03    0.90351E-03   -0.25952E-03  9840   0.329E-01    0.109E-01
DAV:   4    -0.191466578754E+03    0.80194E-04   -0.35016E-04  8120   0.969E-02
  36 F= -.19146658E+03 E0= -.19135662E+03  d E =0.719022E-02
       N       E                     dE             d eps       ncg     rms          rms(c)
DAV:   1    -0.191458489587E+03    0.81694E-02   -0.61446E-01  8160   0.170E+00    0.258E-01
DAV:   2    -0.191462408738E+03   -0.39192E-02   -0.25084E-02 12720   0.772E-01    0.643E-01
DAV:   3    -0.191458850415E+03    0.35583E-02   -0.11145E-02 11320   0.714E-01    0.275E-01
DAV:   4    -0.191458310968E+03    0.53945E-03   -0.27069E-03 10920   0.317E-01    0.181E-01
DAV:   5    -0.191458330033E+03   -0.19065E-04   -0.19450E-03 10120   0.306E-01    0.207E-01
DAV:   6    -0.191457925042E+03    0.40499E-03   -0.11725E-03  9560   0.215E-01    0.103E-01
DAV:   7    -0.191457945472E+03   -0.20430E-04   -0.60676E-04  8280   0.162E-01
  37 F= -.19145795E+03 E0= -.19134927E+03  d E =0.863328E-02
       N       E                     dE             d eps       ncg     rms          rms(c)
DAV:   1    -0.191480673920E+03   -0.22749E-01   -0.21842E+00  8160   0.319E+00    0.417E-01
DAV:   2    -0.191495035020E+03   -0.14361E-01   -0.84845E-02 13000   0.131E+00    0.120E+00
DAV:   3    -0.191483507253E+03    0.11528E-01   -0.39389E-02 11640   0.125E+00    0.429E-01
DAV:   4    -0.191482518514E+03    0.98874E-03   -0.71230E-03 11200   0.508E-01    0.333E-01
DAV:   5    -0.191481732144E+03    0.78637E-03   -0.45649E-03 11600   0.472E-01    0.254E-01
DAV:   6    -0.191481130556E+03    0.60159E-03   -0.22393E-03 11480   0.279E-01    0.146E-01
DAV:   7    -0.191481339179E+03   -0.20862E-03   -0.18039E-03  9920   0.272E-01    0.209E-01
DAV:   8    -0.191480887078E+03    0.45210E-03   -0.79366E-04  8560   0.181E-01    0.283E-02
DAV:   9    -0.191480891035E+03   -0.39570E-05   -0.53485E-05  5960   0.292E-02
  38 F= -.19148089E+03 E0= -.19136924E+03  d E =-.229456E-01
       N       E                     dE             d eps       ncg     rms          rms(c)
DAV:   1    -0.191490402509E+03   -0.95154E-02   -0.30553E-01  8160   0.120E+00    0.164E-01
DAV:   2    -0.191491971268E+03   -0.15688E-02   -0.11909E-02 12400   0.460E-01    0.384E-01
DAV:   3    -0.191490850658E+03    0.11206E-02   -0.49938E-03 11720   0.455E-01    0.204E-01
DAV:   4    -0.191490660718E+03    0.18994E-03   -0.14477E-03  9760   0.229E-01    0.153E-01
DAV:   5    -0.191490483314E+03    0.17740E-03   -0.82694E-04  9240   0.198E-01    0.980E-02
DAV:   6    -0.191490382275E+03    0.10104E-03   -0.32641E-04  7720   0.107E-01    0.437E-02
DAV:   7    -0.191490409252E+03   -0.26977E-04   -0.19627E-04  6200   0.890E-02
  39 F= -.19149041E+03 E0= -.19137768E+03  d E =-.951822E-02
       N       E                     dE             d eps       ncg     rms          rms(c)
DAV:   1    -0.191485973259E+03    0.44090E-02   -0.10657E-01  8160   0.701E-01    0.904E-02
DAV:   2    -0.191486617675E+03   -0.64442E-03   -0.44079E-03 13000   0.269E-01    0.238E-01
DAV:   3    -0.191486158216E+03    0.45946E-03   -0.17116E-03  9840   0.266E-01    0.109E-01
DAV:   4    -0.191486099782E+03    0.58434E-04   -0.36216E-04  8120   0.115E-01
  40 F= -.19148610E+03 E0= -.19137361E+03  d E =0.430947E-02
       N       E                     dE             d eps       ncg     rms          rms(c)
DAV:   1    -0.191492035437E+03   -0.58772E-02   -0.11796E+00  8160   0.224E+00    0.226E-01
DAV:   2    -0.191495042930E+03   -0.30075E-02   -0.24104E-02 12400   0.643E-01    0.479E-01
DAV:   3    -0.191493279696E+03    0.17632E-02   -0.83560E-03 12160   0.590E-01    0.278E-01
DAV:   4    -0.191493064970E+03    0.21473E-03   -0.28334E-03  9840   0.320E-01    0.231E-01
DAV:   5    -0.191492704088E+03    0.36088E-03   -0.17465E-03  9960   0.285E-01    0.138E-01
DAV:   6    -0.191492536546E+03    0.16754E-03   -0.63856E-04 10480   0.147E-01    0.632E-02
DAV:   7    -0.191492642700E+03   -0.10615E-03   -0.49956E-04  8480   0.146E-01    0.122E-01
DAV:   8    -0.191492492458E+03    0.15024E-03   -0.25004E-04  6120   0.108E-01    0.157E-02
DAV:   9    -0.191492501669E+03   -0.92113E-05   -0.22092E-05  5560   0.187E-02
  41 F= -.19149250E+03 E0= -.19137987E+03  d E =-.640189E-02
       N       E                     dE             d eps       ncg     rms          rms(c)
DAV:   1    -0.191497263265E+03   -0.47708E-02   -0.50678E+00  8160   0.467E+00    0.494E-01
DAV:   2    -0.191520713795E+03   -0.23451E-01   -0.13561E-01 13360   0.158E+00    0.143E+00
DAV:   3    -0.191503563001E+03    0.17151E-01   -0.58779E-02 12720   0.151E+00    0.534E-01
DAV:   4    -0.191502203122E+03    0.13599E-02   -0.98381E-03 10640   0.540E-01    0.376E-01
DAV:   5    -0.191501075014E+03    0.11281E-02   -0.52014E-03 11560   0.499E-01    0.263E-01
DAV:   6    -0.191500381139E+03    0.69388E-03   -0.23722E-03 12400   0.308E-01    0.101E-01
DAV:   7    -0.191500378636E+03    0.25024E-05   -0.78333E-04 10800   0.132E-01
  42 F= -.19150038E+03 E0= -.19138696E+03  d E =-.787697E-02
       N       E                     dE             d eps       ncg     rms          rms(c)
DAV:   1    -0.191520863952E+03   -0.20483E-01   -0.14058E+00  8160   0.258E+00    0.335E-01
DAV:   2    -0.191522596406E+03   -0.17325E-02   -0.41168E-02 13520   0.680E-01    0.390E-01
DAV:   3    -0.191522927716E+03   -0.33131E-03   -0.12508E-02 12040   0.733E-01    0.483E-01
DAV:   4    -0.191520895817E+03    0.20319E-02   -0.71936E-03 11800   0.544E-01    0.247E-01
DAV:   5    -0.191520810503E+03    0.85314E-04   -0.36282E-03 10520   0.378E-01    0.267E-01
DAV:   6    -0.191520090303E+03    0.72020E-03   -0.21361E-03 10280   0.300E-01    0.855E-02
DAV:   7    -0.191520010306E+03    0.79997E-04   -0.34997E-04  7520   0.886E-02
  43 F= -.19152001E+03 E0= -.19140488E+03  d E =-.196317E-01
       N       E                     dE             d eps       ncg     rms          rms(c)
DAV:   1    -0.191530348989E+03   -0.10259E-01   -0.35211E-01  8160   0.127E+00    0.177E-01
DAV:   2    -0.191534382615E+03   -0.40336E-02   -0.17005E-02 11560   0.626E-01    0.632E-01
DAV:   3    -0.191530721117E+03    0.36615E-02   -0.90140E-03 11160   0.585E-01    0.149E-01
DAV:   4    -0.191530614492E+03    0.10662E-03   -0.79224E-04  8960   0.146E-01    0.855E-02
DAV:   5    -0.191530574475E+03    0.40017E-04   -0.46281E-04  9880   0.148E-01
  44 F= -.19153057E+03 E0= -.19141525E+03  d E =-.105642E-01
       N       E                     dE             d eps       ncg     rms          rms(c)
DAV:   1    -0.191537690469E+03   -0.70760E-02   -0.82403E-01  8160   0.188E+00    0.233E-01
DAV:   2    -0.191542933227E+03   -0.52428E-02   -0.25532E-02 12760   0.888E-01    0.667E-01
DAV:   3    -0.191538023911E+03    0.49093E-02   -0.10244E-02 11200   0.702E-01    0.176E-01
DAV:   4    -0.191538475364E+03   -0.45145E-03   -0.28608E-03  9600   0.315E-01    0.293E-01
DAV:   5    -0.191537796014E+03    0.67935E-03   -0.22034E-03  9560   0.278E-01    0.107E-01
DAV:   6    -0.191537697541E+03    0.98474E-04   -0.48142E-04  9680   0.108E-01
  45 F= -.19153770E+03 E0= -.19142236E+03  d E =-.712307E-02
       N       E                     dE             d eps       ncg     rms          rms(c)
DAV:   1    -0.191558346316E+03   -0.20550E-01   -0.16175E+00  8160   0.272E+00    0.323E-01
DAV:   2    -0.191566183216E+03   -0.78369E-02   -0.53846E-02 12480   0.926E-01    0.829E-01
DAV:   3    -0.191560792974E+03    0.53902E-02   -0.23060E-02 11880   0.928E-01    0.367E-01
DAV:   4    -0.191559724893E+03    0.10681E-02   -0.37758E-03 10960   0.318E-01    0.182E-01
DAV:   5    -0.191559802433E+03   -0.77540E-04   -0.26717E-03 10560   0.322E-01    0.251E-01
DAV:   6    -0.191559268767E+03    0.53367E-03   -0.16990E-03  9680   0.259E-01    0.841E-02
DAV:   7    -0.191559238352E+03    0.30415E-04   -0.39676E-04  7840   0.994E-02
  46 F= -.19155924E+03 E0= -.19144350E+03  d E =-.215408E-01
       N       E                     dE             d eps       ncg     rms          rms(c)
DAV:   1    -0.191523027874E+03    0.36241E-01   -0.13221E+01  8160   0.768E+00    0.844E-01
DAV:   2    -0.191588393458E+03   -0.65366E-01   -0.41253E-01 12760   0.263E+00    0.257E+00
DAV:   3    -0.191543485638E+03    0.44908E-01   -0.15964E-01 12000   0.248E+00    0.921E-01
DAV:   4    -0.191534994844E+03    0.84908E-02   -0.24153E-02 11040   0.712E-01    0.375E-01
DAV:   5    -0.191533771774E+03    0.12231E-02   -0.10020E-02 12520   0.536E-01    0.443E-01
DAV:   6    -0.191533773092E+03   -0.13184E-05   -0.11636E-02 11920   0.702E-01    0.445E-01
DAV:   7    -0.191532132925E+03    0.16402E-02   -0.50833E-03 11360   0.427E-01    0.169E-01
DAV:   8    -0.191531841260E+03    0.29166E-03   -0.11107E-03 10600   0.220E-01    0.102E-01
DAV:   9    -0.191531733482E+03    0.10778E-03   -0.30554E-04  8440   0.112E-01    0.320E-02
DAV:  10    -0.191531717126E+03    0.16356E-04   -0.68279E-05  6600   0.350E-02
  47 F= -.19153172E+03 E0= -.19141735E+03  d E =0.275212E-01
       N       E                     dE             d eps       ncg     rms          rms(c)
DAV:   1    -0.191525455026E+03    0.62785E-02   -0.70057E-02  8160   0.567E-01    0.672E-02
DAV:   2    -0.191525754806E+03   -0.29978E-03   -0.24658E-03 11560   0.194E-01    0.153E-01
DAV:   3    -0.191525602472E+03    0.15233E-03   -0.91663E-04  8920   0.181E-01    0.975E-02
DAV:   4    -0.191525533512E+03    0.68959E-04   -0.24554E-04  6040   0.914E-02
  48 F= -.19152553E+03 E0= -.19141137E+03  d E =0.618361E-02
       N       E                     dE             d eps       ncg     rms          rms(c)
DAV:   1    -0.191519681278E+03    0.59212E-02   -0.14802E+00  8160   0.267E+00    0.433E-01
DAV:   2    -0.191521967017E+03   -0.22857E-02   -0.60246E-02 12440   0.930E-01    0.588E-01
DAV:   3    -0.191521803913E+03    0.16310E-03   -0.23123E-02 12200   0.995E-01    0.662E-01
DAV:   4    -0.191518703695E+03    0.31002E-02   -0.14775E-02 11480   0.716E-01    0.419E-01
DAV:   5    -0.191518139918E+03    0.56378E-03   -0.78664E-03  9920   0.547E-01    0.340E-01
DAV:   6    -0.191516860084E+03    0.12798E-02   -0.32192E-03 11160   0.339E-01    0.965E-02
DAV:   7    -0.191516856818E+03    0.32658E-05   -0.93104E-04 10080   0.156E-01
  49 F= -.19151686E+03 E0= -.19140334E+03  d E =0.867669E-02
       N       E                     dE             d eps       ncg     rms          rms(c)
DAV:   1    -0.191573110722E+03   -0.56251E-01   -0.44674E+00  8160   0.458E+00    0.545E-01
DAV:   2    -0.191580590247E+03   -0.74795E-02   -0.13506E-01 12200   0.111E+00    0.608E-01
DAV:   3    -0.191585349067E+03   -0.47588E-02   -0.39579E-02 12000   0.126E+00    0.983E-01
DAV:   4    -0.191577084910E+03    0.82642E-02   -0.21597E-02 10960   0.907E-01    0.395E-01
DAV:   5    -0.191577029707E+03    0.55203E-04   -0.99640E-03 10120   0.619E-01    0.450E-01
DAV:   6    -0.191575555246E+03    0.14745E-02   -0.64232E-03 11280   0.476E-01    0.237E-01
DAV:   7    -0.191575622802E+03   -0.67556E-04   -0.35449E-03  9920   0.378E-01    0.245E-01
DAV:   8    -0.191574930294E+03    0.69251E-03   -0.12273E-03  9880   0.225E-01    0.366E-02
DAV:   9    -0.191574921095E+03    0.91994E-05   -0.10042E-04  6440   0.397E-02
  50 F= -.19157492E+03 E0= -.19146131E+03  d E =-.580643E-01
       N       E                     dE             d eps       ncg     rms          rms(c)
DAV:   1    -0.191584929161E+03   -0.99989E-02   -0.10630E+00  8160   0.220E+00    0.299E-01
DAV:   2    -0.191591523213E+03   -0.65941E-02   -0.41663E-02 13600   0.101E+00    0.827E-01
DAV:   3    -0.191585760929E+03    0.57623E-02   -0.17289E-02 11200   0.826E-01    0.315E-01
DAV:   4    -0.191585903220E+03   -0.14229E-03   -0.61923E-03 10840   0.470E-01    0.361E-01
DAV:   5    -0.191584783046E+03    0.11202E-02   -0.38580E-03 10560   0.394E-01    0.169E-01
DAV:   6    -0.191584441736E+03    0.34131E-03   -0.12020E-03  9680   0.164E-01    0.669E-02
DAV:   7    -0.191584530392E+03   -0.88656E-04   -0.63695E-04  9600   0.154E-01
  51 F= -.19158453E+03 E0= -.19147099E+03  d E =-.960930E-02
       N       E                     dE             d eps       ncg     rms          rms(c)
DAV:   1    -0.191651911256E+03   -0.67470E-01   -0.43729E+00  8160   0.448E+00    0.475E-01
DAV:   2    -0.191658735639E+03   -0.68244E-02   -0.10890E-01 12200   0.104E+00    0.526E-01
DAV:   3    -0.191660259383E+03   -0.15237E-02   -0.22104E-02 12160   0.994E-01    0.710E-01
DAV:   4    -0.191657182035E+03    0.30773E-02   -0.16012E-02 10520   0.759E-01    0.485E-01
DAV:   5    -0.191655829169E+03    0.13529E-02   -0.96987E-03 10520   0.599E-01    0.338E-01
DAV:   6    -0.191654945550E+03    0.88362E-03   -0.34531E-03 12360   0.337E-01    0.131E-01
DAV:   7    -0.191654870932E+03    0.74618E-04   -0.12785E-03 10520   0.200E-01    0.155E-01
DAV:   8    -0.191654633352E+03    0.23758E-03   -0.56195E-04  8720   0.158E-01    0.379E-02
DAV:   9    -0.191654635239E+03   -0.18873E-05   -0.65008E-05  6120   0.407E-02
  52 F= -.19165464E+03 E0= -.19154480E+03  d E =-.701048E-01
       N       E                     dE             d eps       ncg     rms          rms(c)
DAV:   1    -0.191647855071E+03    0.67783E-02   -0.21474E+00  8160   0.318E+00    0.438E-01
DAV:   2    -0.191651307521E+03   -0.34524E-02   -0.72908E-02 12440   0.889E-01    0.594E-01
DAV:   3    -0.191653402474E+03   -0.20950E-02   -0.31286E-02 12000   0.107E+00    0.831E-01
DAV:   4    -0.191647158730E+03    0.62437E-02   -0.14816E-02 11360   0.691E-01    0.212E-01
DAV:   5    -0.191648309592E+03   -0.11509E-02   -0.64521E-03 11440   0.475E-01    0.450E-01
DAV:   6    -0.191646540598E+03    0.17690E-02   -0.48445E-03 10920   0.434E-01    0.121E-01
DAV:   7    -0.191646462695E+03    0.77903E-04   -0.81073E-04  9840   0.144E-01
  53 F= -.19164646E+03 E0= -.19153587E+03  d E =0.817254E-02
       N       E                     dE             d eps       ncg     rms          rms(c)
DAV:   1    -0.191772461411E+03   -0.12592E+00   -0.10928E+01  8160   0.716E+00    0.795E-01
DAV:   2    -0.191788028912E+03   -0.15568E-01   -0.29676E-01 12280   0.171E+00    0.879E-01
DAV:   3    -0.191796472832E+03   -0.84439E-02   -0.69786E-02 11960   0.171E+00    0.127E+00
DAV:   4    -0.191782918893E+03    0.13554E-01   -0.48056E-02 11000   0.131E+00    0.720E-01
DAV:   5    -0.191780073036E+03    0.28459E-02   -0.18511E-02 11400   0.938E-01    0.512E-01
DAV:   6    -0.191778503020E+03    0.15700E-02   -0.11171E-02 11080   0.641E-01    0.345E-01
DAV:   7    -0.191777937119E+03    0.56590E-03   -0.53559E-03 12000   0.517E-01    0.286E-01
DAV:   8    -0.191776998391E+03    0.93873E-03   -0.17506E-03  9800   0.278E-01    0.524E-02
DAV:   9    -0.191776975785E+03    0.22606E-04   -0.20023E-04  7200   0.536E-02
  54 F= -.19177698E+03 E0= -.19167537E+03  d E =-.130513E+00
       N       E                     dE             d eps       ncg     rms          rms(c)
DAV:   1    -0.191852537844E+03   -0.75539E-01   -0.45156E+00  8160   0.447E+00    0.505E-01
DAV:   2    -0.191877497343E+03   -0.24959E-01   -0.13527E-01 13440   0.177E+00    0.169E+00
DAV:   3    -0.191855439460E+03    0.22058E-01   -0.53827E-02 11480   0.146E+00    0.487E-01
DAV:   4    -0.191855970462E+03   -0.53100E-03   -0.14258E-02 10880   0.792E-01    0.550E-01
DAV:   5    -0.191852791640E+03    0.31788E-02   -0.77842E-03 10160   0.637E-01    0.231E-01
DAV:   6    -0.191852158864E+03    0.63278E-03   -0.28047E-03 11240   0.258E-01    0.102E-01
DAV:   7    -0.191852211234E+03   -0.52370E-04   -0.10639E-03 11480   0.205E-01    0.158E-01
DAV:   8    -0.191851951676E+03    0.25956E-03   -0.46926E-04  8600   0.159E-01    0.297E-02
DAV:   9    -0.191851946521E+03    0.51554E-05   -0.38200E-05  5760   0.287E-02
  55 F= -.19185195E+03 E0= -.19175425E+03  d E =-.749707E-01
       N       E                     dE             d eps       ncg     rms          rms(c)
DAV:   1    -0.191936501642E+03   -0.84550E-01   -0.39551E+00  8160   0.425E+00    0.434E-01
DAV:   2    -0.191944875358E+03   -0.83737E-02   -0.99844E-02 11400   0.107E+00    0.707E-01
DAV:   3    -0.191942989303E+03    0.18861E-02   -0.24040E-02 12280   0.102E+00    0.592E-01
DAV:   4    -0.191941652888E+03    0.13364E-02   -0.11964E-02 11080   0.670E-01    0.483E-01
DAV:   5    -0.191939605927E+03    0.20470E-02   -0.55565E-03 10600   0.544E-01    0.204E-01
DAV:   6    -0.191939433664E+03    0.17226E-03   -0.21296E-03 11640   0.237E-01    0.127E-01
DAV:   7    -0.191939252187E+03    0.18148E-03   -0.87248E-04 10680   0.181E-01    0.115E-01
DAV:   8    -0.191939128336E+03    0.12385E-03   -0.32586E-04  8560   0.135E-01    0.407E-02
DAV:   9    -0.191939114247E+03    0.14089E-04   -0.48904E-05  6000   0.411E-02
  56 F= -.19193911E+03 E0= -.19184728E+03  d E =-.871677E-01
       N       E                     dE             d eps       ncg     rms          rms(c)
DAV:   1    -0.192070128963E+03   -0.13100E+00   -0.10786E+01  8160   0.693E+00    0.650E-01
DAV:   2    -0.192109255554E+03   -0.39127E-01   -0.26934E-01 12120   0.211E+00    0.193E+00
DAV:   3    -0.192082210172E+03    0.27045E-01   -0.76517E-02 12360   0.176E+00    0.552E-01
DAV:   4    -0.192078805728E+03    0.34044E-02   -0.89669E-03 11400   0.492E-01    0.286E-01
DAV:   5    -0.192079621401E+03   -0.81567E-03   -0.70065E-03 12960   0.625E-01    0.425E-01
DAV:   6    -0.192077970516E+03    0.16509E-02   -0.49263E-03 12000   0.558E-01    0.176E-01
DAV:   7    -0.192077382849E+03    0.58767E-03   -0.94802E-04 10520   0.173E-01    0.361E-02
DAV:   8    -0.192077375083E+03    0.77659E-05   -0.13432E-04  6760   0.443E-02
  57 F= -.19207738E+03 E0= -.19199213E+03  d E =-.138261E+00
       N       E                     dE             d eps       ncg     rms          rms(c)
DAV:   1    -0.192182555584E+03   -0.10517E+00   -0.14647E+02  8160   0.259E+01    0.242E+00
DAV:   2    -0.192573696404E+03   -0.39114E+00   -0.41560E+00 10800   0.661E+00    0.478E+00
DAV:   3    -0.192476908351E+03    0.96788E-01   -0.82542E-01 12200   0.593E+00    0.267E+00
DAV:   4    -0.192373795781E+03    0.10311E+00   -0.14653E-01 12280   0.227E+00    0.883E-01
DAV:   5    -0.192401203277E+03   -0.27407E-01   -0.98349E-02 12760   0.256E+00    0.188E+00
DAV:   6    -0.192360830743E+03    0.40373E-01   -0.77781E-02 12400   0.229E+00    0.487E-01
DAV:   7    -0.192357787240E+03    0.30435E-02   -0.10295E-02 12720   0.697E-01    0.356E-01
DAV:   8    -0.192356773159E+03    0.10141E-02   -0.41381E-03 12880   0.503E-01    0.193E-01
DAV:   9    -0.192356219212E+03    0.55395E-03   -0.14035E-03 11640   0.209E-01    0.823E-02
DAV:  10    -0.192356200301E+03    0.18911E-04   -0.55226E-04  9480   0.773E-02
  58 F= -.19235620E+03 E0= -.19227671E+03  d E =-.278825E+00
       N       E                     dE             d eps       ncg     rms          rms(c)
DAV:   1    -0.192221786411E+03    0.13443E+00   -0.69365E+01  8160   0.176E+01    0.162E+00
DAV:   2    -0.192392978601E+03   -0.17119E+00   -0.14762E+00 11040   0.493E+00    0.333E+00
DAV:   3    -0.192286653822E+03    0.10632E+00   -0.31112E-01 12000   0.385E+00    0.169E+00
DAV:   4    -0.192263684030E+03    0.22970E-01   -0.87975E-02 12400   0.190E+00    0.100E+00
DAV:   5    -0.192258067186E+03    0.56168E-02   -0.50429E-02 12720   0.168E+00    0.958E-01
DAV:   6    -0.192249138090E+03    0.89291E-02   -0.27160E-02 12720   0.130E+00    0.393E-01
DAV:   7    -0.192246366086E+03    0.27720E-02   -0.53525E-03 11360   0.422E-01    0.137E-01
DAV:   8    -0.192246549236E+03   -0.18315E-03   -0.15429E-03 12800   0.293E-01    0.189E-01
DAV:   9    -0.192246184622E+03    0.36461E-03   -0.76998E-04  9960   0.220E-01    0.580E-02
DAV:  10    -0.192246149850E+03    0.34772E-04   -0.16035E-04  6360   0.630E-02
  59 F= -.19224615E+03 E0= -.19216597E+03  d E =0.110050E+00
       N       E                     dE             d eps       ncg     rms          rms(c)
DAV:   1    -0.192349006879E+03   -0.10282E+00   -0.29458E+01  8160   0.115E+01    0.108E+00
DAV:   2    -0.192428601719E+03   -0.79595E-01   -0.74247E-01 11160   0.313E+00    0.245E+00
DAV:   3    -0.192390810986E+03    0.37791E-01   -0.16921E-01 12320   0.267E+00    0.109E+00
DAV:   4    -0.192375429798E+03    0.15381E-01   -0.28618E-02 12240   0.982E-01    0.448E-01
DAV:   5    -0.192378313214E+03   -0.28834E-02   -0.18986E-02 12760   0.110E+00    0.727E-01
DAV:   6    -0.192372738196E+03    0.55750E-02   -0.13628E-02 12600   0.947E-01    0.248E-01
DAV:   7    -0.192371427390E+03    0.13108E-02   -0.21519E-03 10520   0.244E-01    0.688E-02
DAV:   8    -0.192371544581E+03   -0.11719E-03   -0.60738E-04 11560   0.172E-01    0.123E-01
DAV:   9    -0.192371363368E+03    0.18121E-03   -0.32806E-04  9080   0.143E-01    0.371E-02
DAV:  10    -0.192371351538E+03    0.11830E-04   -0.85345E-05  6440   0.428E-02
  60 F= -.19237135E+03 E0= -.19229198E+03  d E =-.125202E+00
       N       E                     dE             d eps       ncg     rms          rms(c)
DAV:   1    -0.192384603679E+03   -0.13240E-01   -0.38790E+00  8160   0.414E+00    0.431E-01
DAV:   2    -0.192396598002E+03   -0.11994E-01   -0.13380E-01 11080   0.115E+00    0.724E-01
DAV:   3    -0.192395227434E+03    0.13706E-02   -0.24491E-02 12680   0.105E+00    0.602E-01
DAV:   4    -0.192391372103E+03    0.38553E-02   -0.67557E-03 11040   0.501E-01    0.178E-01
DAV:   5    -0.192391848197E+03   -0.47609E-03   -0.24960E-03 11680   0.416E-01    0.264E-01
DAV:   6    -0.192390973346E+03    0.87485E-03   -0.17441E-03 11440   0.304E-01    0.539E-02
DAV:   7    -0.192390939432E+03    0.33914E-04   -0.22501E-04  8120   0.805E-02
  61 F= -.19239094E+03 E0= -.19231051E+03  d E =-.195879E-01
       N       E                     dE             d eps       ncg     rms          rms(c)
DAV:   1    -0.192394674584E+03   -0.37012E-02   -0.43413E-01  8160   0.140E+00    0.208E-01
DAV:   2    -0.192396006330E+03   -0.13317E-02   -0.23300E-02 11360   0.475E-01    0.245E-01
DAV:   3    -0.192396433290E+03   -0.42696E-03   -0.47637E-03 12280   0.484E-01    0.331E-01
DAV:   4    -0.192395436648E+03    0.99664E-03   -0.25383E-03 10080   0.338E-01    0.152E-01
DAV:   5    -0.192395362602E+03    0.74046E-04   -0.91996E-04  9720   0.241E-01
  62 F= -.19239536E+03 E0= -.19231424E+03  d E =-.442317E-02
       N       E                     dE             d eps       ncg     rms          rms(c)
DAV:   1    -0.192396972687E+03   -0.15360E-02   -0.12757E-01  8160   0.796E-01    0.154E-01
DAV:   2    -0.192397338229E+03   -0.36554E-03   -0.72063E-03 11520   0.328E-01    0.215E-01
DAV:   3    -0.192397153596E+03    0.18463E-03   -0.23432E-03 11600   0.382E-01    0.200E-01
DAV:   4    -0.192396899121E+03    0.25448E-03   -0.12220E-03  9960   0.233E-01    0.154E-01
DAV:   5    -0.192396696653E+03    0.20247E-03   -0.68242E-04  8800   0.184E-01    0.792E-02
DAV:   6    -0.192396657593E+03    0.39060E-04   -0.25900E-04  7600   0.108E-01
  63 F= -.19239666E+03 E0= -.19231471E+03  d E =-.129499E-02
       N       E                     dE             d eps       ncg     rms          rms(c)
DAV:   1    -0.192397678392E+03   -0.98174E-03   -0.99237E-02  8160   0.660E-01    0.936E-02
DAV:   2    -0.192398535988E+03   -0.85760E-03   -0.58530E-03 10320   0.373E-01    0.214E-01
DAV:   3    -0.192397995685E+03    0.54030E-03   -0.10849E-03 10840   0.278E-01    0.591E-02
DAV:   4    -0.192397992996E+03    0.26890E-05   -0.17759E-04  7200   0.939E-02
  64 F= -.19239799E+03 E0= -.19231568E+03  d E =-.133540E-02
       N       E                     dE             d eps       ncg     rms          rms(c)
DAV:   1    -0.192398552321E+03   -0.55664E-03   -0.65369E-02  8160   0.544E-01    0.683E-02
DAV:   2    -0.192398822187E+03   -0.26987E-03   -0.29101E-03 12200   0.168E-01    0.100E-01
DAV:   3    -0.192398796702E+03    0.25485E-04   -0.52523E-04  8960   0.164E-01
  65 F= -.19239880E+03 E0= -.19231684E+03  d E =-.803705E-03
