   27   27  100    1
  0.9710400E+02  0.1002848E-08  0.1002848E-08  0.3000000E-08  0.5000000E-15
  1.000000000000000E-004
  CAR 
 unknown system                          
    159     34    120
 
  0.0000000E+00  0.0000000E+00  0.0000000E+00  0.1562500E-01
    1      -17.826370   1.000000
    2      -16.630093   1.000000
    3      -16.607283   1.000000
    4      -16.555516   1.000000
    5      -16.478241   1.000000
    6      -16.418486   1.000000
    7      -16.389229   1.000000
    8      -16.351980   1.000000
    9      -16.062060   1.000000
   10      -16.055183   1.000000
   11      -16.035676   1.000000
   12      -15.991714   1.000000
   13      -15.969303   1.000000
   14      -15.894255   1.000000
   15      -15.540079   1.000000
   16      -15.471154   1.000000
   17      -15.420697   1.000000
   18      -15.390150   1.000000
   19       -9.373769   1.000000
   20       -8.910698   1.000000
   21       -8.827482   1.000000
   22       -8.808049   1.000000
   23       -8.754417   1.000000
   24       -8.642062   1.000000
   25       -8.515952   1.000000
   26       -8.493529   1.000000
   27       -8.479561   1.000000
   28       -8.418546   1.000000
   29       -8.404662   1.000000
   30       -8.272499   1.000000
   31       -8.255303   1.000000
   32       -8.211905   1.000000
   33       -8.198872   1.000000
   34       -8.064744   1.000000
   35       -7.853341   1.000000
   36       -7.795320   1.000000
   37       -7.770832   1.000000
   38       -7.603511   1.000000
   39       -7.516206   1.000000
   40       -7.448934   1.000000
   41       -7.306464   1.000000
   42       -7.273508   1.000000
   43       -7.140395   1.000000
   44       -6.847667   1.000000
   45       -6.747422   1.000000
   46       -6.727462   1.000000
   47       -6.707387   1.000000
   48       -6.637888   1.000000
   49       -6.591834   1.000000
   50       -6.559696   1.000000
   51       -6.522129   1.000000
   52       -6.432874   1.000000
   53       -6.316842   1.000000
   54       -6.272610   1.000000
   55       -6.176457   1.000000
   56       -6.159418   1.000000
   57       -6.088845   1.000000
   58       -5.821959   1.000000
   59       -5.715927   1.000000
   60       -5.637011   1.000000
   61       -5.617206   1.000000
   62       -5.338234   1.000000
   63       -5.280375   1.000000
   64       -5.082919   1.000000
   65       -4.907988   1.000000
   66       -4.812790   1.000000
   67       -4.789780   1.000000
   68       -4.736464   1.000000
   69       -4.683892   1.000000
   70       -4.633528   1.000000
   71       -4.566779   1.000000
   72       -4.501454   1.000000
   73       -4.469449   1.000000
   74       -4.330614   1.000000
   75       -4.164924   1.000000
   76       -4.098472   1.000000
   77       -3.539063   0.999783
   78       -3.514763   0.999591
   79       -3.477489   0.998976
   80       -3.047878   0.518141
   81       -3.019868   0.439368
   82       -2.719683   0.011447
   83       -2.626158   0.001660
   84       -2.541365   0.000203
   85       -2.427616   0.000007
   86       -2.415814   0.000005
   87       -2.400413   0.000003
   88       -2.092901   0.000000
   89       -2.004913   0.000000
   90       -1.928038   0.000000
   91       -1.881861   0.000000
   92       -1.773961   0.000000
   93       -1.623141   0.000000
   94       -1.545404   0.000000
   95       -1.498475   0.000000
   96       -1.492676   0.000000
   97       -1.309708   0.000000
   98       -1.000673   0.000000
   99       -0.737660   0.000000
  100       -0.474063   0.000000
  101       -0.427955   0.000000
  102       -0.377646   0.000000
  103       -0.218841   0.000000
  104       -0.067592   0.000000
  105       -0.053853   0.000000
  106        0.182131   0.000000
  107        0.231953   0.000000
  108        0.285516   0.000000
  109        0.303515   0.000000
  110        0.327677   0.000000
  111        0.420687   0.000000
  112        0.746127   0.000000
  113        0.811634   0.000000
  114        0.835676   0.000000
  115        0.898529   0.000000
  116        0.927795   0.000000
  117        0.974012   0.000000
  118        1.681658   0.000000
  119        1.835965   0.000000
  120        2.193673   0.000000
 
  0.1250000E+00  0.2775558E-16  0.0000000E+00  0.3125000E-01
    1      -17.800882   1.000000
    2      -16.739446   1.000000
    3      -16.618245   1.000000
    4      -16.595951   1.000000
    5      -16.517443   1.000000
    6      -16.379142   1.000000
    7      -16.354265   1.000000
    8      -16.293719   1.000000
    9      -16.129803   1.000000
   10      -16.069738   1.000000
   11      -16.010195   1.000000
   12      -15.944247   1.000000
   13      -15.933560   1.000000
   14      -15.818063   1.000000
   15      -15.560987   1.000000
   16      -15.488083   1.000000
   17      -15.431884   1.000000
   18      -15.387754   1.000000
   19       -9.364740   1.000000
   20       -9.122695   1.000000
   21       -8.953163   1.000000
   22       -8.853476   1.000000
   23       -8.755543   1.000000
   24       -8.722428   1.000000
   25       -8.557156   1.000000
   26       -8.510551   1.000000
   27       -8.477377   1.000000
   28       -8.395167   1.000000
   29       -8.375068   1.000000
   30       -8.255579   1.000000
   31       -8.195473   1.000000
   32       -8.143121   1.000000
   33       -8.030247   1.000000
   34       -7.905926   1.000000
   35       -7.801297   1.000000
   36       -7.749702   1.000000
   37       -7.664201   1.000000
   38       -7.595204   1.000000
   39       -7.537741   1.000000
   40       -7.449745   1.000000
   41       -7.284437   1.000000
   42       -7.240946   1.000000
   43       -7.153066   1.000000
   44       -6.907033   1.000000
   45       -6.819217   1.000000
   46       -6.807328   1.000000
   47       -6.728124   1.000000
   48       -6.635025   1.000000
   49       -6.625526   1.000000
   50       -6.565431   1.000000
   51       -6.420712   1.000000
   52       -6.372421   1.000000
   53       -6.344890   1.000000
   54       -6.284795   1.000000
   55       -6.206756   1.000000
   56       -6.176053   1.000000
   57       -6.083338   1.000000
   58       -5.780334   1.000000
   59       -5.727179   1.000000
   60       -5.614593   1.000000
   61       -5.519070   1.000000
   62       -5.315160   1.000000
   63       -5.244645   1.000000
   64       -5.104206   1.000000
   65       -5.026726   1.000000
   66       -4.992561   1.000000
   67       -4.968523   1.000000
   68       -4.905779   1.000000
   69       -4.695205   1.000000
   70       -4.659952   1.000000
   71       -4.615646   1.000000
   72       -4.370868   1.000000
   73       -4.266583   1.000000
   74       -4.213006   1.000000
   75       -4.037804   1.000000
   76       -3.907902   1.000000
   77       -3.746137   1.000000
   78       -3.639546   0.999988
   79       -3.516167   0.999606
   80       -2.958284   0.278255
   81       -2.900468   0.159417
   82       -2.743286   0.017503
   83       -2.666696   0.004026
   84       -2.580806   0.000563
   85       -2.443608   0.000012
   86       -2.404565   0.000003
   87       -2.376685   0.000001
   88       -2.165829   0.000000
   89       -2.105689   0.000000
   90       -1.923081   0.000000
   91       -1.843851   0.000000
   92       -1.766463   0.000000
   93       -1.617591   0.000000
   94       -1.495691   0.000000
   95       -1.468269   0.000000
   96       -1.392004   0.000000
   97       -1.279624   0.000000
   98       -0.983117   0.000000
   99       -0.727283   0.000000
  100       -0.552194   0.000000
  101       -0.465125   0.000000
  102       -0.436840   0.000000
  103       -0.259971   0.000000
  104       -0.139037   0.000000
  105       -0.092426   0.000000
  106       -0.011641   0.000000
  107        0.121187   0.000000
  108        0.159854   0.000000
  109        0.284216   0.000000
  110        0.356094   0.000000
  111        0.548342   0.000000
  112        0.678028   0.000000
  113        0.800995   0.000000
  114        0.891411   0.000000
  115        0.961438   0.000000
  116        1.012217   0.000000
  117        1.132215   0.000000
  118        1.724769   0.000000
  119        1.874652   0.000000
  120        2.229108   0.000000
 
  0.2500000E+00  0.5551115E-16  0.0000000E+00  0.3125000E-01
    1      -17.726204   1.000000
    2      -16.955000   1.000000
    3      -16.685226   1.000000
    4      -16.599888   1.000000
    5      -16.549571   1.000000
    6      -16.356458   1.000000
    7      -16.294678   1.000000
    8      -16.243946   1.000000
    9      -16.152675   1.000000
   10      -16.088973   1.000000
   11      -15.993148   1.000000
   12      -15.878716   1.000000
   13      -15.847235   1.000000
   14      -15.679724   1.000000
   15      -15.611010   1.000000
   16      -15.526163   1.000000
   17      -15.455799   1.000000
   18      -15.394568   1.000000
   19       -9.511028   1.000000
   20       -9.253333   1.000000
   21       -9.116129   1.000000
   22       -8.991989   1.000000
   23       -8.884910   1.000000
   24       -8.791743   1.000000
   25       -8.537162   1.000000
   26       -8.480860   1.000000
   27       -8.466124   1.000000
   28       -8.349709   1.000000
   29       -8.332313   1.000000
   30       -8.213339   1.000000
   31       -8.102911   1.000000
   32       -8.069225   1.000000
   33       -7.919896   1.000000
   34       -7.787130   1.000000
   35       -7.707512   1.000000
   36       -7.670202   1.000000
   37       -7.563117   1.000000
   38       -7.549165   1.000000
   39       -7.395923   1.000000
   40       -7.348776   1.000000
   41       -7.237291   1.000000
   42       -7.194541   1.000000
   43       -7.026973   1.000000
   44       -6.975544   1.000000
   45       -6.965379   1.000000
   46       -6.815995   1.000000
   47       -6.744838   1.000000
   48       -6.704402   1.000000
   49       -6.659515   1.000000
   50       -6.571340   1.000000
   51       -6.513357   1.000000
   52       -6.315202   1.000000
   53       -6.294559   1.000000
   54       -6.235227   1.000000
   55       -6.153378   1.000000
   56       -6.118143   1.000000
   57       -6.048088   1.000000
   58       -5.800828   1.000000
   59       -5.658123   1.000000
   60       -5.605768   1.000000
   61       -5.547776   1.000000
   62       -5.469084   1.000000
   63       -5.392730   1.000000
   64       -5.302038   1.000000
   65       -5.210391   1.000000
   66       -5.152149   1.000000
   67       -5.031392   1.000000
   68       -4.844836   1.000000
   69       -4.689771   1.000000
   70       -4.653083   1.000000
   71       -4.634223   1.000000
   72       -4.266998   1.000000
   73       -4.149276   1.000000
   74       -4.077022   1.000000
   75       -3.943118   1.000000
   76       -3.894642   1.000000
   77       -3.814330   1.000000
   78       -3.628156   0.999983
   79       -3.500057   0.999408
   80       -2.941066   0.238920
   81       -2.835652   0.072810
   82       -2.756695   0.022032
   83       -2.650814   0.002871
   84       -2.625928   0.001651
   85       -2.487753   0.000045
   86       -2.401338   0.000003
   87       -2.358441   0.000001
   88       -2.256685   0.000000
   89       -2.203841   0.000000
   90       -1.960355   0.000000
   91       -1.824568   0.000000
   92       -1.718761   0.000000
   93       -1.620547   0.000000
   94       -1.465361   0.000000
   95       -1.352921   0.000000
   96       -1.257193   0.000000
   97       -1.151928   0.000000
   98       -0.940405   0.000000
   99       -0.724704   0.000000
  100       -0.680633   0.000000
  101       -0.568026   0.000000
  102       -0.558387   0.000000
  103       -0.378980   0.000000
  104       -0.323705   0.000000
  105       -0.264279   0.000000
  106       -0.181472   0.000000
  107       -0.094161   0.000000
  108        0.000923   0.000000
  109        0.254678   0.000000
  110        0.339830   0.000000
  111        0.537897   0.000000
  112        0.647427   0.000000
  113        0.852818   0.000000
  114        0.987889   0.000000
  115        1.077602   0.000000
  116        1.181562   0.000000
  117        1.397935   0.000000
  118        1.846221   0.000000
  119        1.987464   0.000000
  120        2.334338   0.000000
 
  0.3750000E+00  0.0000000E+00  0.0000000E+00  0.3125000E-01
    1      -17.611065   1.000000
    2      -17.172109   1.000000
    3      -16.732344   1.000000
    4      -16.626978   1.000000
    5      -16.519217   1.000000
    6      -16.400230   1.000000
    7      -16.269045   1.000000
    8      -16.207015   1.000000
    9      -16.152887   1.000000
   10      -16.059571   1.000000
   11      -15.947933   1.000000
   12      -15.822642   1.000000
   13      -15.775899   1.000000
   14      -15.679160   1.000000
   15      -15.625778   1.000000
   16      -15.506517   1.000000
   17      -15.482998   1.000000
   18      -15.412155   1.000000
   19       -9.734868   1.000000
   20       -9.289299   1.000000
   21       -9.161408   1.000000
   22       -9.096074   1.000000
   23       -8.955539   1.000000
   24       -8.832678   1.000000
   25       -8.538943   1.000000
   26       -8.453038   1.000000
   27       -8.398803   1.000000
   28       -8.340357   1.000000
   29       -8.304792   1.000000
   30       -8.209745   1.000000
   31       -8.049942   1.000000
   32       -8.001248   1.000000
   33       -7.891793   1.000000
   34       -7.820534   1.000000
   35       -7.692162   1.000000
   36       -7.655340   1.000000
   37       -7.555472   1.000000
   38       -7.439489   1.000000
   39       -7.367986   1.000000
   40       -7.264818   1.000000
   41       -7.152645   1.000000
   42       -7.074194   1.000000
   43       -7.019423   1.000000
   44       -6.971919   1.000000
   45       -6.816195   1.000000
   46       -6.782814   1.000000
   47       -6.742229   1.000000
   48       -6.696712   1.000000
   49       -6.617692   1.000000
   50       -6.597805   1.000000
   51       -6.323556   1.000000
   52       -6.316446   1.000000
   53       -6.228558   1.000000
   54       -6.174596   1.000000
   55       -6.097978   1.000000
   56       -5.982502   1.000000
   57       -5.962076   1.000000
   58       -5.922593   1.000000
   59       -5.891243   1.000000
   60       -5.746258   1.000000
   61       -5.721580   1.000000
   62       -5.683646   1.000000
   63       -5.590141   1.000000
   64       -5.544417   1.000000
   65       -5.199146   1.000000
   66       -5.039772   1.000000
   67       -4.911940   1.000000
   68       -4.840401   1.000000
   69       -4.734463   1.000000
   70       -4.639136   1.000000
   71       -4.604649   1.000000
   72       -4.589714   1.000000
   73       -4.177246   1.000000
   74       -4.043081   1.000000
   75       -3.911741   1.000000
   76       -3.707686   0.999999
   77       -3.659604   0.999994
   78       -3.474296   0.998896
   79       -3.409906   0.995412
   80       -3.011188   0.415294
   81       -2.942017   0.241010
   82       -2.759436   0.023070
   83       -2.671527   0.004452
   84       -2.632976   0.001937
   85       -2.445484   0.000013
   86       -2.402284   0.000003
   87       -2.347927   0.000000
   88       -2.305595   0.000000
   89       -2.224071   0.000000
   90       -1.979158   0.000000
   91       -1.804206   0.000000
   92       -1.704292   0.000000
   93       -1.625205   0.000000
   94       -1.448766   0.000000
   95       -1.307599   0.000000
   96       -1.150794   0.000000
   97       -1.024922   0.000000
   98       -0.900579   0.000000
   99       -0.781019   0.000000
  100       -0.746040   0.000000
  101       -0.659675   0.000000
  102       -0.612461   0.000000
  103       -0.528645   0.000000
  104       -0.470822   0.000000
  105       -0.439057   0.000000
  106       -0.329127   0.000000
  107       -0.286518   0.000000
  108       -0.068618   0.000000
  109        0.225190   0.000000
  110        0.303145   0.000000
  111        0.459976   0.000000
  112        0.664917   0.000000
  113        0.918654   0.000000
  114        1.058627   0.000000
  115        1.175857   0.000000
  116        1.325935   0.000000
  117        1.593643   0.000000
  118        2.031057   0.000000
  119        2.167111   0.000000
  120        2.505228   0.000000
 
  0.5000000E+00  0.1110223E-15  0.0000000E+00  0.1562500E-01
    1      -17.518385   1.000000
    2      -17.300842   1.000000
    3      -16.748585   1.000000
    4      -16.638926   1.000000
    5      -16.481214   1.000000
    6      -16.444537   1.000000
    7      -16.262348   1.000000
    8      -16.204491   1.000000
    9      -16.148717   1.000000
   10      -16.027223   1.000000
   11      -15.925013   1.000000
   12      -15.800150   1.000000
   13      -15.740056   1.000000
   14      -15.706251   1.000000
   15      -15.652790   1.000000
   16      -15.507028   1.000000
   17      -15.455684   1.000000
   18      -15.426329   1.000000
   19       -9.818449   1.000000
   20       -9.324454   1.000000
   21       -9.177856   1.000000
   22       -9.111789   1.000000
   23       -8.968549   1.000000
   24       -8.814306   1.000000
   25       -8.591199   1.000000
   26       -8.461260   1.000000
   27       -8.362819   1.000000
   28       -8.337950   1.000000
   29       -8.292094   1.000000
   30       -8.155704   1.000000
   31       -8.057393   1.000000
   32       -7.924292   1.000000
   33       -7.913406   1.000000
   34       -7.796484   1.000000
   35       -7.731116   1.000000
   36       -7.665510   1.000000
   37       -7.638313   1.000000
   38       -7.435475   1.000000
   39       -7.376905   1.000000
   40       -7.283941   1.000000
   41       -7.100454   1.000000
   42       -7.027343   1.000000
   43       -6.901775   1.000000
   44       -6.853905   1.000000
   45       -6.814133   1.000000
   46       -6.770531   1.000000
   47       -6.675834   1.000000
   48       -6.660864   1.000000
   49       -6.587331   1.000000
   50       -6.526915   1.000000
   51       -6.383845   1.000000
   52       -6.312821   1.000000
   53       -6.276313   1.000000
   54       -6.113246   1.000000
   55       -6.084956   1.000000
   56       -6.012308   1.000000
   57       -5.968278   1.000000
   58       -5.929235   1.000000
   59       -5.853946   1.000000
   60       -5.796455   1.000000
   61       -5.715754   1.000000
   62       -5.660027   1.000000
   63       -5.641527   1.000000
   64       -5.612067   1.000000
   65       -5.510830   1.000000
   66       -4.991718   1.000000
   67       -4.964943   1.000000
   68       -4.859010   1.000000
   69       -4.776538   1.000000
   70       -4.624374   1.000000
   71       -4.582779   1.000000
   72       -4.515652   1.000000
   73       -4.329846   1.000000
   74       -3.998650   1.000000
   75       -3.830310   1.000000
   76       -3.647126   0.999991
   77       -3.593168   0.999952
   78       -3.447997   0.997978
   79       -3.322467   0.976546
   80       -3.052153   0.530180
   81       -2.991292   0.361434
   82       -2.774466   0.029525
   83       -2.722436   0.012044
   84       -2.634056   0.001984
   85       -2.419603   0.000005
   86       -2.390230   0.000002
   87       -2.328675   0.000000
   88       -2.320777   0.000000
   89       -2.224198   0.000000
   90       -1.979858   0.000000
   91       -1.792947   0.000000
   92       -1.707035   0.000000
   93       -1.626495   0.000000
   94       -1.446299   0.000000
   95       -1.304211   0.000000
   96       -1.110297   0.000000
   97       -0.999644   0.000000
   98       -0.882452   0.000000
   99       -0.814268   0.000000
  100       -0.740532   0.000000
  101       -0.676524   0.000000
  102       -0.622999   0.000000
  103       -0.590328   0.000000
  104       -0.552625   0.000000
  105       -0.509574   0.000000
  106       -0.386646   0.000000
  107       -0.358585   0.000000
  108       -0.087207   0.000000
  109        0.213514   0.000000
  110        0.287833   0.000000
  111        0.431983   0.000000
  112        0.669522   0.000000
  113        0.944069   0.000000
  114        1.085465   0.000000
  115        1.213313   0.000000
  116        1.378263   0.000000
  117        1.660974   0.000000
  118        2.261556   0.000000
  119        2.274871   0.000000
  120        2.398114   0.000000
 
  0.0000000E+00  0.1250000E+00  0.0000000E+00  0.3125000E-01
    1      -17.801064   1.000000
    2      -16.740845   1.000000
    3      -16.628714   1.000000
    4      -16.582626   1.000000
    5      -16.526307   1.000000
    6      -16.379857   1.000000
    7      -16.330331   1.000000
    8      -16.295556   1.000000
    9      -16.130712   1.000000
   10      -16.083115   1.000000
   11      -16.026407   1.000000
   12      -15.934028   1.000000
   13      -15.914000   1.000000
   14      -15.833052   1.000000
   15      -15.560769   1.000000
   16      -15.487992   1.000000
   17      -15.430784   1.000000
   18      -15.387675   1.000000
   19       -9.367157   1.000000
   20       -9.115399   1.000000
   21       -8.976986   1.000000
   22       -8.847696   1.000000
   23       -8.776562   1.000000
   24       -8.662009   1.000000
   25       -8.559405   1.000000
   26       -8.530438   1.000000
   27       -8.458903   1.000000
   28       -8.404743   1.000000
   29       -8.360384   1.000000
   30       -8.248682   1.000000
   31       -8.199353   1.000000
   32       -8.145819   1.000000
   33       -8.049463   1.000000
   34       -7.891551   1.000000
   35       -7.831524   1.000000
   36       -7.740591   1.000000
   37       -7.680708   1.000000
   38       -7.585929   1.000000
   39       -7.520806   1.000000
   40       -7.480168   1.000000
   41       -7.293702   1.000000
   42       -7.226740   1.000000
   43       -7.143120   1.000000
   44       -6.893620   1.000000
   45       -6.857531   1.000000
   46       -6.798001   1.000000
   47       -6.742995   1.000000
   48       -6.656350   1.000000
   49       -6.572842   1.000000
   50       -6.477950   1.000000
   51       -6.442307   1.000000
   52       -6.398662   1.000000
   53       -6.348553   1.000000
   54       -6.309270   1.000000
   55       -6.212766   1.000000
   56       -6.159440   1.000000
   57       -6.111215   1.000000
   58       -5.798324   1.000000
   59       -5.700962   1.000000
   60       -5.629761   1.000000
   61       -5.506580   1.000000
   62       -5.326588   1.000000
   63       -5.229847   1.000000
   64       -5.126168   1.000000
   65       -5.034564   1.000000
   66       -5.024958   1.000000
   67       -4.936862   1.000000
   68       -4.900107   1.000000
   69       -4.684912   1.000000
   70       -4.655511   1.000000
   71       -4.597124   1.000000
   72       -4.352879   1.000000
   73       -4.301456   1.000000
   74       -4.180574   1.000000
   75       -4.036390   1.000000
   76       -3.945958   1.000000
   77       -3.714114   0.999999
   78       -3.655462   0.999993
   79       -3.526546   0.999698
   80       -2.956499   0.274035
   81       -2.903693   0.165016
   82       -2.735350   0.015216
   83       -2.670255   0.004336
   84       -2.550156   0.000256
   85       -2.435491   0.000009
   86       -2.426592   0.000007
   87       -2.397886   0.000003
   88       -2.137972   0.000000
   89       -2.117311   0.000000
   90       -2.005605   0.000000
   91       -1.794579   0.000000
   92       -1.718029   0.000000
   93       -1.573988   0.000000
   94       -1.507912   0.000000
   95       -1.471327   0.000000
   96       -1.420454   0.000000
   97       -1.299963   0.000000
   98       -0.979589   0.000000
   99       -0.727809   0.000000
  100       -0.552689   0.000000
  101       -0.499407   0.000000
  102       -0.420313   0.000000
  103       -0.267531   0.000000
  104       -0.124827   0.000000
  105       -0.091870   0.000000
  106        0.021950   0.000000
  107        0.104030   0.000000
  108        0.236201   0.000000
  109        0.271635   0.000000
  110        0.345325   0.000000
  111        0.439916   0.000000
  112        0.671139   0.000000
  113        0.856088   0.000000
  114        0.891276   0.000000
  115        0.968374   0.000000
  116        1.031696   0.000000
  117        1.102144   0.000000
  118        1.724058   0.000000
  119        1.875775   0.000000
  120        2.228880   0.000000
 
  0.1250000E+00  0.1250000E+00  0.0000000E+00  0.3125000E-01
    1      -17.751776   1.000000
    2      -16.836291   1.000000
    3      -16.793821   1.000000
    4      -16.577648   1.000000
    5      -16.449052   1.000000
    6      -16.385311   1.000000
    7      -16.320610   1.000000
    8      -16.246664   1.000000
    9      -16.153660   1.000000
   10      -16.101468   1.000000
   11      -15.999018   1.000000
   12      -15.939442   1.000000
   13      -15.801768   1.000000
   14      -15.741637   1.000000
   15      -15.595314   1.000000
   16      -15.517118   1.000000
   17      -15.454668   1.000000
   18      -15.384505   1.000000
   19       -9.400157   1.000000
   20       -9.308202   1.000000
   21       -9.115525   1.000000
   22       -8.984907   1.000000
   23       -8.779806   1.000000
   24       -8.722510   1.000000
   25       -8.537073   1.000000
   26       -8.496688   1.000000
   27       -8.420208   1.000000
   28       -8.388791   1.000000
   29       -8.330329   1.000000
   30       -8.226473   1.000000
   31       -8.147423   1.000000
   32       -8.130013   1.000000
   33       -7.964407   1.000000
   34       -7.876493   1.000000
   35       -7.757428   1.000000
   36       -7.646642   1.000000
   37       -7.565882   1.000000
   38       -7.478928   1.000000
   39       -7.402944   1.000000
   40       -7.340063   1.000000
   41       -7.294530   1.000000
   42       -7.205540   1.000000
   43       -7.165635   1.000000
   44       -6.976826   1.000000
   45       -6.893853   1.000000
   46       -6.846546   1.000000
   47       -6.742454   1.000000
   48       -6.723940   1.000000
   49       -6.634985   1.000000
   50       -6.514763   1.000000
   51       -6.450380   1.000000
   52       -6.377111   1.000000
   53       -6.303110   1.000000
   54       -6.242941   1.000000
   55       -6.187350   1.000000
   56       -6.135069   1.000000
   57       -6.093585   1.000000
   58       -5.802668   1.000000
   59       -5.700253   1.000000
   60       -5.573751   1.000000
   61       -5.437206   1.000000
   62       -5.398009   1.000000
   63       -5.328968   1.000000
   64       -5.293833   1.000000
   65       -5.185108   1.000000
   66       -5.048609   1.000000
   67       -5.001969   1.000000
   68       -4.960562   1.000000
   69       -4.822732   1.000000
   70       -4.729361   1.000000
   71       -4.407340   1.000000
   72       -4.292421   1.000000
   73       -4.145576   1.000000
   74       -4.048901   1.000000
   75       -3.958070   1.000000
   76       -3.927623   1.000000
   77       -3.862675   1.000000
   78       -3.706935   0.999999
   79       -3.490653   0.999254
   80       -2.917616   0.190623
   81       -2.846495   0.084024
   82       -2.735287   0.015199
   83       -2.670263   0.004337
   84       -2.590628   0.000717
   85       -2.481199   0.000037
   86       -2.415836   0.000005
   87       -2.375116   0.000001
   88       -2.248324   0.000000
   89       -2.142387   0.000000
   90       -2.035531   0.000000
   91       -1.814019   0.000000
   92       -1.664398   0.000000
   93       -1.571960   0.000000
   94       -1.460872   0.000000
   95       -1.366754   0.000000
   96       -1.323372   0.000000
   97       -1.258681   0.000000
   98       -0.946534   0.000000
   99       -0.722976   0.000000
  100       -0.641539   0.000000
  101       -0.580994   0.000000
  102       -0.503304   0.000000
  103       -0.375797   0.000000
  104       -0.258582   0.000000
  105       -0.186974   0.000000
  106       -0.123399   0.000000
  107       -0.018431   0.000000
  108        0.084320   0.000000
  109        0.205505   0.000000
  110        0.344971   0.000000
  111        0.475954   0.000000
  112        0.708617   0.000000
  113        0.816455   0.000000
  114        0.973614   0.000000
  115        1.113482   0.000000
  116        1.163205   0.000000
  117        1.235752   0.000000
  118        1.805796   0.000000
  119        1.951871   0.000000
  120        2.299092   0.000000
 
  0.2500000E+00  0.1250000E+00  0.0000000E+00  0.3125000E-01
    1      -17.656521   1.000000
    2      -17.044752   1.000000
    3      -16.881646   1.000000
    4      -16.544914   1.000000
    5      -16.449546   1.000000
    6      -16.366049   1.000000
    7      -16.306505   1.000000
    8      -16.203274   1.000000
    9      -16.164601   1.000000
   10      -16.094195   1.000000
   11      -15.971298   1.000000
   12      -15.903965   1.000000
   13      -15.734634   1.000000
   14      -15.662971   1.000000
   15      -15.611747   1.000000
   16      -15.541894   1.000000
   17      -15.490899   1.000000
   18      -15.385037   1.000000
   19       -9.613053   1.000000
   20       -9.420516   1.000000
   21       -9.213361   1.000000
   22       -9.066791   1.000000
   23       -8.810754   1.000000
   24       -8.709157   1.000000
   25       -8.516665   1.000000
   26       -8.433283   1.000000
   27       -8.405400   1.000000
   28       -8.348249   1.000000
   29       -8.289557   1.000000
   30       -8.230688   1.000000
   31       -8.109294   1.000000
   32       -8.069261   1.000000
   33       -7.975483   1.000000
   34       -7.905119   1.000000
   35       -7.837170   1.000000
   36       -7.520033   1.000000
   37       -7.448776   1.000000
   38       -7.390488   1.000000
   39       -7.350637   1.000000
   40       -7.255132   1.000000
   41       -7.202514   1.000000
   42       -7.169207   1.000000
   43       -7.023987   1.000000
   44       -6.988021   1.000000
   45       -6.906450   1.000000
   46       -6.799710   1.000000
   47       -6.718079   1.000000