   27   27  100    1
  0.9710400E+02  0.1002848E-08  0.1002848E-08  0.3000000E-08  0.5000000E-15
  1.000000000000000E-004
  CAR 
 unknown system                          
    159     34    120
 
  0.0000000E+00  0.0000000E+00  0.0000000E+00  0.1562500E-01
    1      -17.828408   1.000000
    2      -16.632264   1.000000
    3      -16.607849   1.000000
    4      -16.545025   1.000000
    5      -16.463475   1.000000
    6      -16.425300   1.000000
    7      -16.392650   1.000000
    8      -16.352744   1.000000
    9      -16.069748   1.000000
   10      -16.063374   1.000000
   11      -16.041634   1.000000
   12      -15.992696   1.000000
   13      -15.970735   1.000000
   14      -15.883824   1.000000
   15      -15.554401   1.000000
   16      -15.469824   1.000000
   17      -15.426738   1.000000
   18      -15.394546   1.000000
   19       -9.365059   1.000000
   20       -8.912625   1.000000
   21       -8.821302   1.000000
   22       -8.808588   1.000000
   23       -8.758425   1.000000
   24       -8.656708   1.000000
   25       -8.512223   1.000000
   26       -8.503898   1.000000
   27       -8.487476   1.000000
   28       -8.419238   1.000000
   29       -8.402206   1.000000
   30       -8.277449   1.000000
   31       -8.256092   1.000000
   32       -8.210901   1.000000
   33       -8.193857   1.000000
   34       -8.067313   1.000000
   35       -7.854910   1.000000
   36       -7.804310   1.000000
   37       -7.778044   1.000000
   38       -7.603690   1.000000
   39       -7.508877   1.000000
   40       -7.448875   1.000000
   41       -7.308663   1.000000
   42       -7.276010   1.000000
   43       -7.144801   1.000000
   44       -6.848565   1.000000
   45       -6.748227   1.000000
   46       -6.742424   1.000000
   47       -6.709572   1.000000
   48       -6.632667   1.000000
   49       -6.592689   1.000000
   50       -6.556628   1.000000
   51       -6.521840   1.000000
   52       -6.424465   1.000000
   53       -6.318605   1.000000
   54       -6.269315   1.000000
   55       -6.178874   1.000000
   56       -6.148333   1.000000
   57       -6.078227   1.000000
   58       -5.840236   1.000000
   59       -5.671039   1.000000
   60       -5.630836   1.000000
   61       -5.624314   1.000000
   62       -5.335947   1.000000
   63       -5.308385   1.000000
   64       -5.093570   1.000000
   65       -4.900784   1.000000
   66       -4.828366   1.000000
   67       -4.793956   1.000000
   68       -4.734698   1.000000
   69       -4.664898   1.000000
   70       -4.631467   1.000000
   71       -4.578985   1.000000
   72       -4.495826   1.000000
   73       -4.477213   1.000000
   74       -4.318541   1.000000
   75       -4.159016   1.000000
   76       -4.097521   1.000000
   77       -3.532868   0.999819
   78       -3.505251   0.999625
   79       -3.463913   0.998959
   80       -3.039581   0.530999
   81       -3.017423   0.468557
   82       -2.706152   0.011306
   83       -2.618253   0.001857
   84       -2.520452   0.000163
   85       -2.415338   0.000007
   86       -2.394726   0.000004
   87       -2.369979   0.000002
   88       -2.128665   0.000000
   89       -2.027872   0.000000
   90       -1.970416   0.000000
   91       -1.841270   0.000000
   92       -1.777429   0.000000
   93       -1.591867   0.000000
   94       -1.527437   0.000000
   95       -1.501584   0.000000
   96       -1.448092   0.000000
   97       -1.327009   0.000000
   98       -0.994846   0.000000
   99       -0.738219   0.000000
  100       -0.447782   0.000000
  101       -0.408260   0.000000
  102       -0.358922   0.000000
  103       -0.216597   0.000000
  104       -0.051880   0.000000
  105       -0.050305   0.000000
  106        0.185399   0.000000
  107        0.226296   0.000000
  108        0.277109   0.000000
  109        0.300491   0.000000
  110        0.335505   0.000000
  111        0.424493   0.000000
  112        0.763357   0.000000
  113        0.809158   0.000000
  114        0.871907   0.000000
  115        0.899221   0.000000
  116        0.942835   0.000000
  117        0.987526   0.000000
  118        1.684065   0.000000
  119        1.836387   0.000000
  120        2.197218   0.000000
 
  0.1250000E+00  0.2775558E-16  0.0000000E+00  0.3125000E-01
    1      -17.802813   1.000000
    2      -16.733958   1.000000
    3      -16.626441   1.000000
    4      -16.597027   1.000000
    5      -16.506848   1.000000
    6      -16.375636   1.000000
    7      -16.352671   1.000000
    8      -16.292747   1.000000
    9      -16.135187   1.000000
   10      -16.078007   1.000000
   11      -16.010474   1.000000
   12      -15.951554   1.000000
   13      -15.933876   1.000000
   14      -15.810670   1.000000
   15      -15.574929   1.000000
   16      -15.490592   1.000000
   17      -15.433651   1.000000
   18      -15.394003   1.000000
   19       -9.355666   1.000000
   20       -9.120372   1.000000
   21       -8.948050   1.000000
   22       -8.856170   1.000000
   23       -8.764274   1.000000
   24       -8.735578   1.000000
   25       -8.559862   1.000000
   26       -8.529672   1.000000
   27       -8.474758   1.000000
   28       -8.399158   1.000000
   29       -8.367793   1.000000
   30       -8.252623   1.000000
   31       -8.198160   1.000000
   32       -8.140538   1.000000
   33       -8.035599   1.000000
   34       -7.905379   1.000000
   35       -7.796025   1.000000
   36       -7.753617   1.000000
   37       -7.664904   1.000000
   38       -7.607077   1.000000
   39       -7.535737   1.000000
   40       -7.451880   1.000000
   41       -7.283654   1.000000
   42       -7.240936   1.000000
   43       -7.157634   1.000000
   44       -6.920749   1.000000
   45       -6.811413   1.000000
   46       -6.806016   1.000000
   47       -6.718588   1.000000
   48       -6.643551   1.000000
   49       -6.627009   1.000000
   50       -6.562050   1.000000
   51       -6.425477   1.000000
   52       -6.375269   1.000000
   53       -6.343355   1.000000
   54       -6.283006   1.000000
   55       -6.196389   1.000000
   56       -6.175175   1.000000
   57       -6.071899   1.000000
   58       -5.779476   1.000000
   59       -5.717675   1.000000
   60       -5.621558   1.000000
   61       -5.498882   1.000000
   62       -5.323737   1.000000
   63       -5.253466   1.000000
   64       -5.096918   1.000000
   65       -5.037676   1.000000
   66       -4.997723   1.000000
   67       -4.963461   1.000000
   68       -4.917616   1.000000
   69       -4.692750   1.000000
   70       -4.664376   1.000000
   71       -4.615748   1.000000
   72       -4.366032   1.000000
   73       -4.259249   1.000000
   74       -4.220801   1.000000
   75       -4.030008   1.000000
   76       -3.903903   1.000000
   77       -3.741425   1.000000
   78       -3.629389   0.999989
   79       -3.505934   0.999631
   80       -2.944725   0.276607
   81       -2.892216   0.167462
   82       -2.732132   0.018032
   83       -2.663123   0.004881
   84       -2.566084   0.000537
   85       -2.425509   0.000010
   86       -2.379164   0.000002
   87       -2.354231   0.000001
   88       -2.182094   0.000000
   89       -2.123452   0.000000
   90       -1.951023   0.000000
   91       -1.855394   0.000000
   92       -1.730064   0.000000
   93       -1.602937   0.000000
   94       -1.490244   0.000000
   95       -1.459643   0.000000
   96       -1.362943   0.000000
   97       -1.286834   0.000000
   98       -0.976298   0.000000
   99       -0.727220   0.000000
  100       -0.531578   0.000000
  101       -0.448067   0.000000
  102       -0.419292   0.000000
  103       -0.254423   0.000000
  104       -0.125499   0.000000
  105       -0.087317   0.000000
  106       -0.006756   0.000000
  107        0.122850   0.000000
  108        0.164183   0.000000
  109        0.285046   0.000000
  110        0.353826   0.000000
  111        0.550433   0.000000
  112        0.692195   0.000000
  113        0.816463   0.000000
  114        0.903671   0.000000
  115        0.965342   0.000000
  116        1.018607   0.000000
  117        1.151761   0.000000
  118        1.727117   0.000000
  119        1.875261   0.000000
  120        2.232662   0.000000
 
  0.2500000E+00  0.5551115E-16  0.0000000E+00  0.3125000E-01
    1      -17.727795   1.000000
    2      -16.952177   1.000000
    3      -16.694361   1.000000
    4      -16.602799   1.000000
    5      -16.540720   1.000000
    6      -16.341144   1.000000
    7      -16.294710   1.000000
    8      -16.249622   1.000000
    9      -16.153114   1.000000
   10      -16.093885   1.000000
   11      -15.995128   1.000000
   12      -15.887902   1.000000
   13      -15.843329   1.000000
   14      -15.673381   1.000000
   15      -15.625919   1.000000
   16      -15.532892   1.000000
   17      -15.454983   1.000000
   18      -15.402585   1.000000
   19       -9.506994   1.000000
   20       -9.246777   1.000000
   21       -9.110342   1.000000
   22       -8.996226   1.000000
   23       -8.894559   1.000000
   24       -8.804567   1.000000
   25       -8.530976   1.000000
   26       -8.489828   1.000000
   27       -8.481699   1.000000
   28       -8.351703   1.000000
   29       -8.331935   1.000000
   30       -8.210551   1.000000
   31       -8.105246   1.000000
   32       -8.071615   1.000000
   33       -7.912952   1.000000
   34       -7.785690   1.000000
   35       -7.715363   1.000000
   36       -7.669499   1.000000
   37       -7.569096   1.000000
   38       -7.552816   1.000000
   39       -7.395605   1.000000
   40       -7.349545   1.000000
   41       -7.235170   1.000000
   42       -7.193107   1.000000
   43       -7.033845   1.000000
   44       -6.983291   1.000000
   45       -6.950819   1.000000
   46       -6.814468   1.000000
   47       -6.747833   1.000000
   48       -6.705323   1.000000
   49       -6.655920   1.000000
   50       -6.569738   1.000000
   51       -6.516206   1.000000
   52       -6.312315   1.000000
   53       -6.291569   1.000000
   54       -6.243989   1.000000
   55       -6.154533   1.000000
   56       -6.113144   1.000000
   57       -6.036232   1.000000
   58       -5.794545   1.000000
   59       -5.653706   1.000000
   60       -5.613898   1.000000
   61       -5.539350   1.000000
   62       -5.472360   1.000000
   63       -5.383824   1.000000
   64       -5.298565   1.000000
   65       -5.210177   1.000000
   66       -5.157394   1.000000
   67       -5.039939   1.000000
   68       -4.862060   1.000000
   69       -4.683274   1.000000
   70       -4.655911   1.000000
   71       -4.637441   1.000000
   72       -4.264765   1.000000
   73       -4.142277   1.000000
   74       -4.075891   1.000000
   75       -3.945349   1.000000
   76       -3.898429   1.000000
   77       -3.805458   1.000000
   78       -3.617338   0.999984
   79       -3.487731   0.999416
   80       -2.919447   0.220149
   81       -2.821419   0.071481
   82       -2.752296   0.025373
   83       -2.654794   0.004108
   84       -2.611775   0.001603
   85       -2.468574   0.000037
   86       -2.383501   0.000003
   87       -2.338298   0.000001
   88       -2.259584   0.000000
   89       -2.210606   0.000000
   90       -1.965716   0.000000
   91       -1.863957   0.000000
   92       -1.674119   0.000000
   93       -1.613131   0.000000
   94       -1.456738   0.000000
   95       -1.350084   0.000000
   96       -1.257362   0.000000
   97       -1.136160   0.000000
   98       -0.930452   0.000000
   99       -0.720856   0.000000
  100       -0.667880   0.000000
  101       -0.560243   0.000000
  102       -0.542495   0.000000
  103       -0.366443   0.000000
  104       -0.317657   0.000000
  105       -0.250556   0.000000
  106       -0.175587   0.000000
  107       -0.083499   0.000000
  108        0.003093   0.000000
  109        0.256669   0.000000
  110        0.341163   0.000000
  111        0.553929   0.000000
  112        0.650515   0.000000
  113        0.861958   0.000000
  114        1.006957   0.000000
  115        1.076549   0.000000
  116        1.189226   0.000000
  117        1.410010   0.000000
  118        1.848420   0.000000
  119        1.988677   0.000000
  120        2.337930   0.000000
 
  0.3750000E+00  0.0000000E+00  0.0000000E+00  0.3125000E-01
    1      -17.611992   1.000000
    2      -17.171584   1.000000
    3      -16.741629   1.000000
    4      -16.625533   1.000000
    5      -16.516110   1.000000
    6      -16.390197   1.000000
    7      -16.258833   1.000000
    8      -16.216998   1.000000
    9      -16.152534   1.000000
   10      -16.059670   1.000000
   11      -15.949926   1.000000
   12      -15.835099   1.000000
   13      -15.768956   1.000000
   14      -15.688607   1.000000
   15      -15.628545   1.000000
   16      -15.507877   1.000000
   17      -15.484831   1.000000
   18      -15.421865   1.000000
   19       -9.733169   1.000000
   20       -9.281906   1.000000
   21       -9.159588   1.000000
   22       -9.097403   1.000000
   23       -8.965016   1.000000
   24       -8.843854   1.000000
   25       -8.532679   1.000000
   26       -8.452067   1.000000
   27       -8.419260   1.000000
   28       -8.332782   1.000000
   29       -8.314219   1.000000
   30       -8.215264   1.000000
   31       -8.051405   1.000000
   32       -8.004812   1.000000
   33       -7.893539   1.000000
   34       -7.826052   1.000000
   35       -7.689713   1.000000
   36       -7.649303   1.000000
   37       -7.564194   1.000000
   38       -7.435599   1.000000
   39       -7.375491   1.000000
   40       -7.251063   1.000000
   41       -7.155167   1.000000
   42       -7.072868   1.000000
   43       -7.031768   1.000000
   44       -6.972946   1.000000
   45       -6.802645   1.000000
   46       -6.782441   1.000000
   47       -6.741671   1.000000
   48       -6.684716   1.000000
   49       -6.624023   1.000000
   50       -6.595903   1.000000
   51       -6.326346   1.000000
   52       -6.311686   1.000000
   53       -6.226467   1.000000
   54       -6.184754   1.000000
   55       -6.099141   1.000000
   56       -5.980012   1.000000
   57       -5.954584   1.000000
   58       -5.917053   1.000000
   59       -5.883765   1.000000
   60       -5.743603   1.000000
   61       -5.721448   1.000000
   62       -5.686784   1.000000
   63       -5.586304   1.000000
   64       -5.556222   1.000000
   65       -5.196400   1.000000
   66       -5.033157   1.000000
   67       -4.920799   1.000000
   68       -4.850687   1.000000
   69       -4.739469   1.000000
   70       -4.634672   1.000000
   71       -4.606841   1.000000
   72       -4.592702   1.000000
   73       -4.167965   1.000000
   74       -4.038382   1.000000
   75       -3.915444   1.000000
   76       -3.722357   1.000000
   77       -3.655547   0.999995
   78       -3.455986   0.998745
   79       -3.392341   0.994947
   80       -2.996904   0.411382
   81       -2.930074   0.243043
   82       -2.741911   0.021328
   83       -2.662694   0.004838
   84       -2.631990   0.002521
   85       -2.428035   0.000011
   86       -2.394848   0.000004
   87       -2.338732   0.000001
   88       -2.296558   0.000000
   89       -2.224289   0.000000
   90       -1.973240   0.000000
   91       -1.848063   0.000000
   92       -1.669162   0.000000
   93       -1.615099   0.000000
   94       -1.434456   0.000000
   95       -1.308920   0.000000
   96       -1.149964   0.000000
   97       -1.011747   0.000000
   98       -0.886415   0.000000
   99       -0.773881   0.000000
  100       -0.737580   0.000000
  101       -0.658654   0.000000
  102       -0.597543   0.000000
  103       -0.521018   0.000000
  104       -0.456398   0.000000
  105       -0.430929   0.000000
  106       -0.324619   0.000000
  107       -0.265665   0.000000
  108       -0.069338   0.000000
  109        0.225816   0.000000
  110        0.309516   0.000000
  111        0.476057   0.000000
  112        0.672065   0.000000
  113        0.926149   0.000000
  114        1.077070   0.000000
  115        1.174797   0.000000
  116        1.335908   0.000000
  117        1.599644   0.000000
  118        2.033137   0.000000
  119        2.168860   0.000000
  120        2.508946   0.000000
 
  0.5000000E+00  0.1110223E-15  0.0000000E+00  0.1562500E-01
    1      -17.518400   1.000000
    2      -17.301709   1.000000
    3      -16.757888   1.000000
    4      -16.636732   1.000000
    5      -16.482717   1.000000
    6      -16.432435   1.000000
    7      -16.249846   1.000000
    8      -16.213415   1.000000
    9      -16.149932   1.000000
   10      -16.024688   1.000000
   11      -15.925893   1.000000
   12      -15.818837   1.000000
   13      -15.733699   1.000000
   14      -15.707284   1.000000
   15      -15.661534   1.000000
   16      -15.502560   1.000000
   17      -15.460147   1.000000
   18      -15.437999   1.000000
   19       -9.817320   1.000000
   20       -9.317090   1.000000
   21       -9.180456   1.000000
   22       -9.111309   1.000000
   23       -8.977355   1.000000
   24       -8.824076   1.000000
   25       -8.584342   1.000000
   26       -8.456094   1.000000
   27       -8.385454   1.000000
   28       -8.329194   1.000000
   29       -8.304065   1.000000
   30       -8.160650   1.000000
   31       -8.062727   1.000000
   32       -7.931476   1.000000
   33       -7.916921   1.000000
   34       -7.811222   1.000000
   35       -7.716691   1.000000
   36       -7.669673   1.000000
   37       -7.630588   1.000000
   38       -7.421143   1.000000
   39       -7.372785   1.000000
   40       -7.297230   1.000000
   41       -7.106108   1.000000
   42       -7.039364   1.000000
   43       -6.903238   1.000000
   44       -6.844165   1.000000
   45       -6.802625   1.000000
   46       -6.768884   1.000000
   47       -6.678858   1.000000
   48       -6.662814   1.000000
   49       -6.564975   1.000000
   50       -6.522384   1.000000
   51       -6.391783   1.000000
   52       -6.313204   1.000000
   53       -6.272130   1.000000
   54       -6.123560   1.000000
   55       -6.083153   1.000000
   56       -6.007040   1.000000
   57       -5.972974   1.000000
   58       -5.915194   1.000000
   59       -5.857836   1.000000
   60       -5.786325   1.000000
   61       -5.715959   1.000000
   62       -5.663291   1.000000
   63       -5.645515   1.000000
   64       -5.621014   1.000000
   65       -5.508039   1.000000
   66       -5.000592   1.000000
   67       -4.950095   1.000000
   68       -4.867717   1.000000
   69       -4.787968   1.000000
   70       -4.622376   1.000000
   71       -4.589445   1.000000
   72       -4.516754   1.000000
   73       -4.317500   1.000000
   74       -3.995288   1.000000
   75       -3.836985   1.000000
   76       -3.648828   0.999994
   77       -3.604759   0.999977
   78       -3.426122   0.997531
   79       -3.298274   0.971741
   80       -3.041603   0.536683
   81       -2.981612   0.369900
   82       -2.751360   0.024983
   83       -2.716165   0.013583
   84       -2.630166   0.002422
   85       -2.420666   0.000009
   86       -2.365358   0.000001
   87       -2.333282   0.000000
   88       -2.302763   0.000000
   89       -2.223037   0.000000
   90       -1.970431   0.000000
   91       -1.836482   0.000000
   92       -1.675186   0.000000
   93       -1.617133   0.000000
   94       -1.430032   0.000000
   95       -1.305282   0.000000
   96       -1.108515   0.000000
   97       -0.986115   0.000000
   98       -0.866969   0.000000
   99       -0.807517   0.000000
  100       -0.738548   0.000000
  101       -0.671078   0.000000
  102       -0.612977   0.000000
  103       -0.580904   0.000000
  104       -0.536443   0.000000
  105       -0.504518   0.000000
  106       -0.382852   0.000000
  107       -0.333974   0.000000
  108       -0.088294   0.000000
  109        0.212878   0.000000
  110        0.296911   0.000000
  111        0.448015   0.000000
  112        0.678018   0.000000
  113        0.951810   0.000000
  114        1.103385   0.000000
  115        1.212470   0.000000
  116        1.388726   0.000000
  117        1.665250   0.000000
  118        2.264056   0.000000
  119        2.276690   0.000000
  120        2.398949   0.000000
 
  0.0000000E+00  0.1250000E+00  0.0000000E+00  0.3125000E-01
    1      -17.802865   1.000000
    2      -16.743371   1.000000
    3      -16.629095   1.000000
    4      -16.576678   1.000000
    5      -16.521802   1.000000
    6      -16.373481   1.000000
    7      -16.330705   1.000000
    8      -16.292750   1.000000
    9      -16.142224   1.000000
   10      -16.092777   1.000000
   11      -16.028364   1.000000
   12      -15.934981   1.000000
   13      -15.914311   1.000000
   14      -15.826726   1.000000
   15      -15.575521   1.000000
   16      -15.481673   1.000000
   17      -15.443275   1.000000
   18      -15.390881   1.000000
   19       -9.358380   1.000000
   20       -9.117623   1.000000
   21       -8.979697   1.000000
   22       -8.850393   1.000000
   23       -8.777582   1.000000
   24       -8.661360   1.000000
   25       -8.568327   1.000000
   26       -8.541682   1.000000
   27       -8.464702   1.000000
   28       -8.398140   1.000000
   29       -8.359386   1.000000
   30       -8.245616   1.000000
   31       -8.199784   1.000000
   32       -8.152272   1.000000
   33       -8.054533   1.000000
   34       -7.895668   1.000000
   35       -7.824975   1.000000
   36       -7.743645   1.000000
   37       -7.689449   1.000000
   38       -7.585522   1.000000
   39       -7.520638   1.000000
   40       -7.475304   1.000000
   41       -7.298556   1.000000
   42       -7.226790   1.000000
   43       -7.147648   1.000000
   44       -6.898238   1.000000
   45       -6.849554   1.000000
   46       -6.804964   1.000000
   47       -6.752474   1.000000
   48       -6.655668   1.000000
   49       -6.569480   1.000000
   50       -6.476532   1.000000
   51       -6.438136   1.000000
   52       -6.397454   1.000000
   53       -6.352694   1.000000
   54       -6.308384   1.000000
   55       -6.212424   1.000000
   56       -6.145333   1.000000
   57       -6.104970   1.000000
   58       -5.802489   1.000000
   59       -5.693592   1.000000
   60       -5.621746   1.000000
   61       -5.493092   1.000000
   62       -5.324132   1.000000
   63       -5.256629   1.000000
   64       -5.122917   1.000000
   65       -5.049199   1.000000
   66       -5.021255   1.000000
   67       -4.939716   1.000000
   68       -4.896720   1.000000
   69       -4.682142   1.000000
   70       -4.654089   1.000000
   71       -4.599191   1.000000
   72       -4.350454   1.000000
   73       -4.311226   1.000000
   74       -4.178898   1.000000
   75       -4.030542   1.000000
   76       -3.936229   1.000000
   77       -3.703891   0.999999
   78       -3.647791   0.999994
   79       -3.519092   0.999738
   80       -2.943379   0.273431
   81       -2.895950   0.174164
   82       -2.726772   0.016417
   83       -2.663812   0.004950
   84       -2.527714   0.000199
   85       -2.418344   0.000008
   86       -2.409142   0.000006
   87       -2.382854   0.000002
   88       -2.152409   0.000000
   89       -2.114932   0.000000
   90       -2.043431   0.000000
   91       -1.815276   0.000000
   92       -1.671420   0.000000
   93       -1.570185   0.000000
   94       -1.498366   0.000000
   95       -1.449717   0.000000
   96       -1.393508   0.000000
   97       -1.315388   0.000000
   98       -0.972832   0.000000
   99       -0.726962   0.000000
  100       -0.530605   0.000000
  101       -0.484364   0.000000
  102       -0.404414   0.000000
  103       -0.262955   0.000000
  104       -0.117388   0.000000
  105       -0.074504   0.000000
  106        0.019371   0.000000
  107        0.102894   0.000000
  108        0.233081   0.000000
  109        0.268285   0.000000
  110        0.352823   0.000000
  111        0.452612   0.000000
  112        0.697480   0.000000
  113        0.878828   0.000000
  114        0.895105   0.000000
  115        0.974956   0.000000
  116        1.044668   0.000000
  117        1.098684   0.000000
  118        1.726501   0.000000
  119        1.876266   0.000000
  120        2.232467   0.000000
 
  0.1250000E+00  0.1250000E+00  0.0000000E+00  0.3125000E-01
    1      -17.753208   1.000000
    2      -16.838045   1.000000
    3      -16.794464   1.000000
    4      -16.577795   1.000000
    5      -16.437723   1.000000
    6      -16.385635   1.000000
    7      -16.313345   1.000000
    8      -16.247585   1.000000
    9      -16.158350   1.000000
   10      -16.112218   1.000000
   11      -15.999737   1.000000
   12      -15.942692   1.000000
   13      -15.803385   1.000000
   14      -15.735663   1.000000
   15      -15.609635   1.000000
   16      -15.515655   1.000000
   17      -15.461581   1.000000
   18      -15.390547   1.000000
   19       -9.392299   1.000000
   20       -9.310379   1.000000
   21       -9.116167   1.000000
   22       -8.987766   1.000000
   23       -8.781914   1.000000
   24       -8.726046   1.000000
   25       -8.540907   1.000000
   26       -8.513950   1.000000
   27       -8.422682   1.000000
   28       -8.390146   1.000000
   29       -8.322178   1.000000
   30       -8.229274   1.000000
   31       -8.145038   1.000000
   32       -8.137159   1.000000
   33       -7.969114   1.000000
   34       -7.868283   1.000000
   35       -7.761757   1.000000
   36       -7.648062   1.000000
   37       -7.572078   1.000000
   38       -7.478253   1.000000
   39       -7.397198   1.000000
   40       -7.341287   1.000000
   41       -7.295401   1.000000
   42       -7.209440   1.000000
   43       -7.167124   1.000000
   44       -6.983150   1.000000
   45       -6.890726   1.000000
   46       -6.846359   1.000000
   47       -6.743100   1.000000
   48       -6.724746   1.000000
   49       -6.634708   1.000000
   50       -6.515625   1.000000
   51       -6.449886   1.000000
   52       -6.373689   1.000000
   53       -6.305374   1.000000
   54       -6.242228   1.000000
   55       -6.191743   1.000000
   56       -6.127016   1.000000
   57       -6.083186   1.000000
   58       -5.800446   1.000000
   59       -5.692443   1.000000
   60       -5.575908   1.000000
   61       -5.430669   1.000000
   62       -5.394001   1.000000
   63       -5.329509   1.000000
   64       -5.297030   1.000000
   65       -5.189087   1.000000
   66       -5.054973   1.000000
   67       -5.000709   1.000000
   68       -4.961034   1.000000
   69       -4.833883   1.000000
   70       -4.728992   1.000000
   71       -4.407969   1.000000
   72       -4.292905   1.000000
   73       -4.146486   1.000000
   74       -4.049752   1.000000
   75       -3.960371   1.000000
   76       -3.922508   1.000000
   77       -3.849028   1.000000
   78       -3.694266   0.999999
   79       -3.481647   0.999322
   80       -2.898631   0.179078
   81       -2.830959   0.081148
   82       -2.726639   0.016378
   83       -2.679074   0.006729
   84       -2.570749   0.000603
   85       -2.458812   0.000028
   86       -2.409043   0.000006
   87       -2.357858   0.000001
   88       -2.253961   0.000000
   89       -2.146519   0.000000
   90       -2.050941   0.000000
   91       -1.833293   0.000000
   92       -1.639028   0.000000
   93       -1.553970   0.000000
   94       -1.448993   0.000000
   95       -1.357844   0.000000
   96       -1.308701   0.000000
   97       -1.262084   0.000000
   98       -0.937989   0.000000
   99       -0.718751   0.000000
  100       -0.629029   0.000000
  101       -0.568681   0.000000
  102       -0.489638   0.000000
  103       -0.368348   0.000000
  104       -0.246682   0.000000
  105       -0.181879   0.000000
  106       -0.113505   0.000000
  107       -0.009246   0.000000
  108        0.085955   0.000000
  109        0.204445   0.000000
  110        0.351021   0.000000
  111        0.486923   0.000000
  112        0.726441   0.000000
  113        0.837325   0.000000
  114        0.977359   0.000000
  115        1.114188   0.000000
  116        1.168788   0.000000
  117        1.244121   0.000000
  118        1.808135   0.000000
  119        1.952647   0.000000
  120        2.302708   0.000000
 
  0.2500000E+00  0.1250000E+00  0.0000000E+00  0.3125000E-01
    1      -17.657267   1.000000
    2      -17.044275   1.000000
    3      -16.887333   1.000000
    4      -16.545054   1.000000
    5      -16.443667   1.000000
    6      -16.354190   1.000000
    7      -16.306766   1.000000
    8      -16.207676   1.000000
    9      -16.163984   1.000000
   10      -16.098616   1.000000
   11      -15.972369   1.000000
   12      -15.908681   1.000000
   13      -15.738869   1.000000
   14      -15.666759   1.000000
   15      -15.614558   1.000000
   16      -15.543752   1.000000
   17      -15.494864   1.000000
   18      -15.393035   1.000000
   19       -9.611111   1.000000
   20       -9.420887   1.000000
   21       -9.213404   1.000000
   22       -9.064731   1.000000
   23       -8.815321   1.000000
   24       -8.716435   1.000000
   25       -8.509424   1.000000
   26       -8.446089   1.000000
   27       -8.418147   1.000000
   28       -8.348731   1.000000
   29       -8.292152   1.000000
   30       -8.231763   1.000000
   31       -8.110579   1.000000
   32       -8.073932   1.000000
   33       -7.971312   1.000000
   34       -7.905989   1.000000
   35       -7.839364   1.000000
   36       -7.521160   1.000000
   37       -7.451414   1.000000
   38       -7.397109   1.000000
   39       -7.348147   1.000000
   40       -7.246620   1.000000
   41       -7.202852   1.000000
   42       -7.167200   1.000000
   43       -7.018103   1.000000
   44       -6.998177   1.000000
   45       -6.904613   1.000000
   46       -6.797537   1.000000
   47       -6.715639   1.000000