       N       E                     dE             d eps       ncg     rms          rms(c)
DAV:   1     0.112582513664E+04    0.11258E+04   -0.35983E+04  8160   0.577E+02
DAV:   2    -0.206430237527E+01   -0.11279E+04   -0.10867E+04 11120   0.173E+02
DAV:   3    -0.199606203533E+03   -0.19754E+03   -0.18948E+03 10880   0.821E+01
DAV:   4    -0.208969725141E+03   -0.93635E+01   -0.90667E+01 12120   0.263E+01
DAV:   5    -0.209299681984E+03   -0.32996E+00   -0.32906E+00 11120   0.363E+00    0.275E+01
DAV:   6    -0.237722000597E+03   -0.28422E+02   -0.10765E+02 12440   0.599E+01    0.595E+01
DAV:   7    -0.196622108357E+03    0.41100E+02   -0.17716E+02 13560   0.152E+02    0.201E+01
DAV:   8    -0.189638369559E+03    0.69837E+01   -0.17657E+01 11920   0.128E+01    0.128E+01
DAV:   9    -0.188218455655E+03    0.14199E+01   -0.31230E+00 13120   0.616E+00    0.940E+00
DAV:  10    -0.186951955605E+03    0.12665E+01   -0.17622E+00 13360   0.797E+00    0.215E+00
DAV:  11    -0.187042180783E+03   -0.90225E-01   -0.58400E-01 13520   0.294E+00    0.365E+00
DAV:  12    -0.186985368880E+03    0.56812E-01   -0.66167E-01 12720   0.434E+00    0.347E+00
DAV:  13    -0.186877825484E+03    0.10754E+00   -0.26186E-01 13160   0.299E+00    0.178E+00
DAV:  14    -0.186843658133E+03    0.34167E-01   -0.96892E-02 12880   0.153E+00    0.596E-01
DAV:  15    -0.186839527335E+03    0.41308E-02   -0.14773E-02 12440   0.493E-01    0.522E-01
DAV:  16    -0.186839504413E+03    0.22923E-04   -0.11102E-02 13240   0.553E-01    0.558E-01
DAV:  17    -0.186836385935E+03    0.31185E-02   -0.75018E-03 12680   0.437E-01    0.183E-01
DAV:  18    -0.186836124979E+03    0.26096E-03   -0.14211E-03 12160   0.154E-01    0.961E-02
DAV:  19    -0.186836143618E+03   -0.18639E-04   -0.59096E-04  9880   0.696E-02
   1 F= -.18683614E+03 E0= -.18666430E+03  d E =-.186836E+03
       N       E                     dE             d eps       ncg     rms          rms(c)
DAV:   1    -0.187493162781E+03   -0.65704E+00   -0.27427E+02  8160   0.351E+01    0.469E+00
DAV:   2    -0.189514893724E+03   -0.20217E+01   -0.20343E+01 11960   0.155E+01    0.102E+01
DAV:   3    -0.189330913457E+03    0.18398E+00   -0.55729E+00 12240   0.131E+01    0.616E+00
DAV:   4    -0.188766187702E+03    0.56473E+00   -0.57059E-01 11360   0.456E+00    0.246E+00
DAV:   5    -0.188850631745E+03   -0.84444E-01   -0.47943E-01 12160   0.403E+00    0.491E+00
DAV:   6    -0.188721485571E+03    0.12915E+00   -0.63330E-01 12200   0.394E+00    0.222E+00
DAV:   7    -0.188689607479E+03    0.31878E-01   -0.22060E-01 11920   0.203E+00    0.199E+00
DAV:   8    -0.188674128768E+03    0.15479E-01   -0.12628E-01 11880   0.208E+00    0.182E+00
DAV:   9    -0.188648673744E+03    0.25455E-01   -0.55503E-02 12040   0.120E+00    0.628E-01
DAV:  10    -0.188645540557E+03    0.31332E-02   -0.67132E-03 10520   0.302E-01    0.282E-01
DAV:  11    -0.188645231683E+03    0.30887E-03   -0.31509E-03 12960   0.256E-01    0.144E-01
DAV:  12    -0.188645347697E+03   -0.11601E-03   -0.95295E-04 10760   0.999E-02    0.113E-01
DAV:  13    -0.188645401219E+03   -0.53523E-04   -0.29081E-04  6800   0.720E-02
   2 F= -.18864540E+03 E0= -.18850526E+03  d E =-.180926E+01
       N       E                     dE             d eps       ncg     rms          rms(c)
DAV:   1    -0.190599632405E+03   -0.19543E+01   -0.31839E+01  9200   0.144E+01    0.448E+00
DAV:   2    -0.190532231203E+03    0.67401E-01   -0.28070E+00 12160   0.944E+00    0.715E+00
DAV:   3    -0.190076891387E+03    0.45534E+00   -0.13201E+00 12280   0.864E+00    0.428E+00
DAV:   4    -0.189859317670E+03    0.21757E+00   -0.70696E-01 13120   0.438E+00    0.251E+00
DAV:   5    -0.189813257795E+03    0.46060E-01   -0.35079E-01 12280   0.286E+00    0.240E+00
DAV:   6    -0.189757713699E+03    0.55544E-01   -0.11662E-01 12320   0.223E+00    0.707E-01
DAV:   7    -0.189752217047E+03    0.54967E-02   -0.13052E-02 11840   0.528E-01    0.243E-01
DAV:   8    -0.189752964805E+03   -0.74776E-03   -0.45103E-03 11720   0.362E-01    0.381E-01
DAV:   9    -0.189751962563E+03    0.10022E-02   -0.25946E-03 10480   0.318E-01    0.146E-01
DAV:  10    -0.189752329634E+03   -0.36707E-03   -0.10989E-03 10360   0.134E-01    0.140E-01
DAV:  11    -0.189752039624E+03    0.29001E-03   -0.58183E-04 10440   0.867E-02    0.188E-02
DAV:  12    -0.189752100132E+03   -0.60508E-04   -0.73554E-05  6480   0.249E-02
   3 F= -.18975210E+03 E0= -.18963412E+03  d E =-.110670E+01
       N       E                     dE             d eps       ncg     rms          rms(c)
DAV:   1    -0.191339123299E+03   -0.15871E+01   -0.77290E+01  8160   0.200E+01    0.463E+00
DAV:   2    -0.191160892661E+03    0.17823E+00   -0.54039E+00 13000   0.776E+00    0.462E+00
DAV:   3    -0.191317780857E+03   -0.15689E+00   -0.14939E+00 12200   0.910E+00    0.713E+00
DAV:   4    -0.190945580967E+03    0.37220E+00   -0.17222E+00 12160   0.847E+00    0.381E+00
DAV:   5    -0.190926533401E+03    0.19048E-01   -0.74794E-01 11200   0.558E+00    0.354E+00
DAV:   6    -0.190755373028E+03    0.17116E+00   -0.22015E-01 11560   0.318E+00    0.762E-01
DAV:   7    -0.190753436352E+03    0.19367E-02   -0.44437E-02 12600   0.987E-01    0.748E-01
DAV:   8    -0.190752200935E+03    0.12354E-02   -0.22492E-02 11960   0.102E+00    0.680E-01
DAV:   9    -0.190747269558E+03    0.49314E-02   -0.66674E-03 11080   0.563E-01    0.158E-01
DAV:  10    -0.190747625159E+03   -0.35560E-03   -0.15417E-03 10680   0.134E-01    0.133E-01
DAV:  11    -0.190747418835E+03    0.20632E-03   -0.83900E-04 10720   0.112E-01    0.419E-02
DAV:  12    -0.190747442131E+03   -0.23296E-04   -0.13282E-04  6600   0.417E-02
   4 F= -.19074744E+03 E0= -.19064629E+03  d E =-.995342E+00
       N       E                     dE             d eps       ncg     rms          rms(c)
DAV:   1    -0.192123969874E+03   -0.13766E+01   -0.16203E+02  8160   0.284E+01    0.571E+00
DAV:   2    -0.191882716138E+03    0.24125E+00   -0.93851E+00 11520   0.857E+00    0.435E+00
DAV:   3    -0.192377215436E+03   -0.49450E+00   -0.27243E+00 11880   0.104E+01    0.107E+01
DAV:   4    -0.191654440791E+03    0.72277E+00   -0.32442E+00 11760   0.123E+01    0.375E+00
DAV:   5    -0.191595977710E+03    0.58463E-01   -0.71631E-01 11920   0.576E+00    0.391E+00
DAV:   6    -0.191424295097E+03    0.17168E+00   -0.38320E-01 12560   0.433E+00    0.158E+00
DAV:   7    -0.191414318590E+03    0.99765E-02   -0.94290E-02 12440   0.203E+00    0.141E+00
DAV:   8    -0.191400616531E+03    0.13702E-01   -0.56733E-02 11400   0.164E+00    0.664E-01
DAV:   9    -0.191394891643E+03    0.57249E-02   -0.69900E-03 11720   0.485E-01    0.239E-01
DAV:  10    -0.191394853841E+03    0.37803E-04   -0.27472E-03 12160   0.241E-01    0.826E-02
DAV:  11    -0.191394914616E+03   -0.60776E-04   -0.52658E-04 10800   0.913E-02
   5 F= -.19139491E+03 E0= -.19129701E+03  d E =-.647472E+00
       N       E                     dE             d eps       ncg     rms          rms(c)
DAV:   1    -0.191429882377E+03   -0.35029E-01   -0.28838E+00  8160   0.359E+00    0.497E-01
DAV:   2    -0.191470101014E+03   -0.40219E-01   -0.19011E-01 12760   0.236E+00    0.177E+00
DAV:   3    -0.191439433112E+03    0.30668E-01   -0.61705E-02 12400   0.178E+00    0.355E-01
DAV:   4    -0.191439759946E+03   -0.32683E-03   -0.76071E-03 11080   0.600E-01    0.420E-01
DAV:   5    -0.191437916794E+03    0.18432E-02   -0.39762E-03 10720   0.468E-01    0.179E-01
DAV:   6    -0.191437866485E+03    0.50309E-04   -0.17016E-03 11480   0.213E-01    0.166E-01
DAV:   7    -0.191438093319E+03   -0.22683E-03   -0.22472E-03 10200   0.305E-01    0.233E-01
DAV:   8    -0.191437547041E+03    0.54628E-03   -0.95991E-04  8680   0.201E-01    0.270E-02
DAV:   9    -0.191437566026E+03   -0.18985E-04   -0.74767E-05  5880   0.321E-02
   6 F= -.19143757E+03 E0= -.19133756E+03  d E =-.426514E-01
       N       E                     dE             d eps       ncg     rms          rms(c)
DAV:   1    -0.191485229191E+03   -0.47682E-01   -0.74744E+00  8160   0.576E+00    0.708E-01
DAV:   2    -0.191536469303E+03   -0.51240E-01   -0.26684E-01 13200   0.233E+00    0.209E+00
DAV:   3    -0.191496200213E+03    0.40269E-01   -0.11228E-01 12440   0.231E+00    0.654E-01
DAV:   4    -0.191494001916E+03    0.21983E-02   -0.16369E-02 10880   0.748E-01    0.504E-01
DAV:   5    -0.191491886238E+03    0.21157E-02   -0.90637E-03 11360   0.714E-01    0.354E-01
DAV:   6    -0.191491032091E+03    0.85415E-03   -0.52086E-03 11360   0.437E-01    0.249E-01
DAV:   7    -0.191491592433E+03   -0.56034E-03   -0.50155E-03 11360   0.454E-01    0.351E-01
DAV:   8    -0.191490366468E+03    0.12260E-02   -0.21914E-03  9600   0.308E-01    0.407E-02
DAV:   9    -0.191490382838E+03   -0.16370E-04   -0.10798E-04  5560   0.432E-02
   7 F= -.19149038E+03 E0= -.19138821E+03  d E =-.528168E-01
       N       E                     dE             d eps       ncg     rms          rms(c)
DAV:   1    -0.191500036327E+03   -0.96699E-02   -0.29280E-01  8160   0.121E+00    0.243E-01
DAV:   2    -0.191500374982E+03   -0.33865E-03   -0.15175E-02 11560   0.495E-01    0.371E-01
DAV:   3    -0.191499758078E+03    0.61690E-03   -0.67671E-03 11480   0.578E-01    0.303E-01
DAV:   4    -0.191498992138E+03    0.76594E-03   -0.29565E-03 11040   0.361E-01    0.190E-01
DAV:   5    -0.191498850885E+03    0.14125E-03   -0.16715E-03  9800   0.293E-01    0.167E-01
DAV:   6    -0.191498506977E+03    0.34391E-03   -0.77025E-04  9800   0.184E-01    0.409E-02
DAV:   7    -0.191498496176E+03    0.10801E-04   -0.10366E-04  5880   0.481E-02
   8 F= -.19149850E+03 E0= -.19139590E+03  d E =-.811334E-02
       N       E                     dE             d eps       ncg     rms          rms(c)
DAV:   1    -0.191534966377E+03   -0.36459E-01   -0.32065E+00  8160   0.378E+00    0.448E-01
DAV:   2    -0.191561684757E+03   -0.26718E-01   -0.11538E-01 13600   0.181E+00    0.156E+00
DAV:   3    -0.191538870110E+03    0.22815E-01   -0.51020E-02 12400   0.156E+00    0.324E-01
DAV:   4    -0.191539125431E+03   -0.25532E-03   -0.59624E-03 11520   0.495E-01    0.380E-01
DAV:   5    -0.191537821127E+03    0.13043E-02   -0.43684E-03 11160   0.461E-01    0.212E-01
DAV:   6    -0.191537828328E+03   -0.72005E-05   -0.24861E-03 10360   0.295E-01    0.224E-01
DAV:   7    -0.191537639304E+03    0.18902E-03   -0.20334E-03  9720   0.303E-01    0.153E-01
DAV:   8    -0.191537337998E+03    0.30131E-03   -0.49182E-04  8240   0.138E-01    0.201E-02
DAV:   9    -0.191537348020E+03   -0.10021E-04   -0.58976E-05  6880   0.284E-02
   9 F= -.19153735E+03 E0= -.19143402E+03  d E =-.388518E-01
       N       E                     dE             d eps       ncg     rms          rms(c)
DAV:   1    -0.191452583882E+03    0.84754E-01   -0.14121E+01  8160   0.793E+00    0.924E-01
DAV:   2    -0.191547501111E+03   -0.94917E-01   -0.46546E-01 13600   0.353E+00    0.272E+00
DAV:   3    -0.191469283205E+03    0.78218E-01   -0.15920E-01 12240   0.290E+00    0.746E-01
DAV:   4    -0.191470425554E+03   -0.11423E-02   -0.29133E-02 11320   0.117E+00    0.871E-01
DAV:   5    -0.191463473196E+03    0.69524E-02   -0.22232E-02 11960   0.106E+00    0.448E-01
DAV:   6    -0.191463272266E+03    0.20093E-03   -0.10666E-02 11480   0.628E-01    0.469E-01
DAV:   7    -0.191462251774E+03    0.10205E-02   -0.83360E-03 11360   0.606E-01    0.300E-01
DAV:   8    -0.191461105705E+03    0.11461E-02   -0.20926E-03 11720   0.266E-01    0.469E-02
DAV:   9    -0.191461108931E+03   -0.32258E-05   -0.22348E-04  8080   0.520E-02
  10 F= -.19146111E+03 E0= -.19135977E+03  d E =0.762391E-01
       N       E                     dE             d eps       ncg     rms          rms(c)
DAV:   1    -0.191423873516E+03    0.37232E-01   -0.69370E+00  8160   0.553E+00    0.580E-01
DAV:   2    -0.191453905835E+03   -0.30032E-01   -0.17616E-01 13400   0.182E+00    0.156E+00
DAV:   3    -0.191432856289E+03    0.21050E-01   -0.65305E-02 12160   0.177E+00    0.615E-01
DAV:   4    -0.191429548256E+03    0.33080E-02   -0.11091E-02 11240   0.582E-01    0.301E-01
DAV:   5    -0.191429414116E+03    0.13414E-03   -0.61308E-03 11880   0.469E-01    0.412E-01
DAV:   6    -0.191428290302E+03    0.11238E-02   -0.55291E-03 11040   0.472E-01    0.211E-01
DAV:   7    -0.191428063642E+03    0.22666E-03   -0.14666E-03 10160   0.204E-01    0.971E-02
DAV:   8    -0.191427939879E+03    0.12376E-03   -0.43694E-04 10080   0.142E-01    0.730E-02
DAV:   9    -0.191427883800E+03    0.56079E-04   -0.13115E-04  6840   0.897E-02
  11 F= -.19142788E+03 E0= -.19132772E+03  d E =0.332251E-01
       N       E                     dE             d eps       ncg     rms          rms(c)
DAV:   1    -0.191432348670E+03   -0.44088E-02   -0.11320E+00  8160   0.225E+00    0.250E-01
DAV:   2    -0.191435203399E+03   -0.28547E-02   -0.37433E-02 12160   0.563E-01    0.295E-01
DAV:   3    -0.191435403101E+03   -0.19970E-03   -0.91331E-03 11120   0.575E-01    0.416E-01
DAV:   4    -0.191433900347E+03    0.15028E-02   -0.37538E-03 10840   0.388E-01    0.151E-01
DAV:   5    -0.191433813078E+03    0.87269E-04   -0.11240E-03  9600   0.228E-01    0.146E-01
DAV:   6    -0.191433717489E+03    0.95589E-04   -0.86833E-04  9680   0.208E-01
  12 F= -.19143372E+03 E0= -.19133277E+03  d E =-.583369E-02
       N       E                     dE             d eps       ncg     rms          rms(c)
DAV:   1    -0.191449310674E+03   -0.15498E-01   -0.12182E+00  8160   0.237E+00    0.308E-01
DAV:   2    -0.191457891365E+03   -0.85807E-02   -0.49098E-02 13600   0.108E+00    0.869E-01
DAV:   3    -0.191451122901E+03    0.67685E-02   -0.19890E-02 11760   0.950E-01    0.306E-01
DAV:   4    -0.191450873849E+03    0.24905E-03   -0.43761E-03 11040   0.423E-01    0.294E-01
DAV:   5    -0.191450183559E+03    0.69029E-03   -0.26640E-03 10120   0.362E-01    0.170E-01
DAV:   6    -0.191450015913E+03    0.16765E-03   -0.12445E-03  9680   0.208E-01    0.143E-01
DAV:   7    -0.191449953494E+03    0.62419E-04   -0.93321E-04  8480   0.211E-01
  13 F= -.19144995E+03 E0= -.19134723E+03  d E =-.162360E-01
       N       E                     dE             d eps       ncg     rms          rms(c)
DAV:   1    -0.191461650627E+03   -0.11635E-01   -0.63932E-01  8160   0.171E+00    0.227E-01
DAV:   2    -0.191468068283E+03   -0.64177E-02   -0.29068E-02 13600   0.874E-01    0.758E-01
DAV:   3    -0.191462660175E+03    0.54081E-02   -0.12814E-02 11520   0.772E-01    0.197E-01
DAV:   4    -0.191462578497E+03    0.81677E-04   -0.18572E-03 10080   0.261E-01    0.184E-01
DAV:   5    -0.191462346181E+03    0.23232E-03   -0.12116E-03 10400   0.240E-01    0.128E-01
DAV:   6    -0.191462237536E+03    0.10865E-03   -0.61986E-04  8320   0.150E-01    0.964E-02
DAV:   7    -0.191462229718E+03    0.78181E-05   -0.45064E-04  8280   0.147E-01
  14 F= -.19146223E+03 E0= -.19135818E+03  d E =-.122762E-01
       N       E                     dE             d eps       ncg     rms          rms(c)
DAV:   1    -0.191450623220E+03    0.11614E-01   -0.54703E-01  8160   0.157E+00    0.193E-01
DAV:   2    -0.191455717354E+03   -0.50941E-02   -0.22001E-02 13600   0.777E-01    0.673E-01
DAV:   3    -0.191451390943E+03    0.43264E-02   -0.92669E-03 11480   0.672E-01    0.153E-01
DAV:   4    -0.191451263469E+03    0.12747E-03   -0.98156E-04  9800   0.173E-01    0.116E-01
DAV:   5    -0.191451211610E+03    0.51859E-04   -0.65996E-04  9280   0.177E-01
  15 F= -.19145121E+03 E0= -.19134818E+03  d E =0.110181E-01
       N       E                     dE             d eps       ncg     rms          rms(c)
DAV:   1    -0.191454730500E+03   -0.34670E-02   -0.26222E-01  8160   0.110E+00    0.149E-01
DAV:   2    -0.191455488513E+03   -0.75801E-03   -0.88686E-03 12480   0.348E-01    0.262E-01
DAV:   3    -0.191455126392E+03    0.36212E-03   -0.31222E-03 11600   0.382E-01    0.213E-01
DAV:   4    -0.191454685714E+03    0.44068E-03   -0.98213E-04  9200   0.199E-01    0.722E-02
DAV:   5    -0.191454724481E+03   -0.38767E-04   -0.45390E-04  8240   0.135E-01
  16 F= -.19145472E+03 E0= -.19135147E+03  d E =-.351287E-02
       N       E                     dE             d eps       ncg     rms          rms(c)
DAV:   1    -0.191468386615E+03   -0.13701E-01   -0.83468E-01  8160   0.195E+00    0.294E-01
DAV:   2    -0.191482546115E+03   -0.14159E-01   -0.49297E-02 13320   0.123E+00    0.123E+00
DAV:   3    -0.191469150277E+03    0.13396E-01   -0.29863E-02 11200   0.109E+00    0.219E-01
DAV:   4    -0.191469467248E+03   -0.31697E-03   -0.34320E-03 11360   0.369E-01    0.292E-01
DAV:   5    -0.191468693008E+03    0.77424E-03   -0.21886E-03  9680   0.314E-01    0.130E-01
DAV:   6    -0.191468668044E+03    0.24964E-04   -0.88561E-04  9480   0.189E-01
  17 F= -.19146867E+03 E0= -.19136389E+03  d E =-.139436E-01
       N       E                     dE             d eps       ncg     rms          rms(c)
DAV:   1    -0.191422254837E+03    0.46438E-01   -0.12763E+01  8160   0.757E+00    0.976E-01
DAV:   2    -0.191549985194E+03   -0.12773E+00   -0.51564E-01 13520   0.369E+00    0.361E+00
DAV:   3    -0.191438049985E+03    0.11194E+00   -0.27250E-01 12120   0.348E+00    0.801E-01
DAV:   4    -0.191432629293E+03    0.54207E-02   -0.24419E-02 11240   0.944E-01    0.575E-01
DAV:   5    -0.191430855741E+03    0.17736E-02   -0.16062E-02 12800   0.927E-01    0.533E-01
DAV:   6    -0.191427743214E+03    0.31125E-02   -0.79947E-03 11600   0.584E-01    0.243E-01
DAV:   7    -0.191429604637E+03   -0.18614E-02   -0.73168E-03 11320   0.561E-01    0.499E-01
DAV:   8    -0.191427160340E+03    0.24443E-02   -0.41539E-03 10160   0.429E-01    0.490E-02
DAV:   9    -0.191427175686E+03   -0.15347E-04   -0.16598E-04  5920   0.508E-02
  18 F= -.19142718E+03 E0= -.19132856E+03  d E =0.414924E-01
       N       E                     dE             d eps       ncg     rms          rms(c)
DAV:   1    -0.191447509172E+03   -0.20349E-01   -0.16627E+00  8160   0.279E+00    0.480E-01
DAV:   2    -0.191471656706E+03   -0.24148E-01   -0.93939E-02 13360   0.179E+00    0.165E+00
DAV:   3    -0.191446791939E+03    0.24865E-01   -0.55699E-02 11760   0.159E+00    0.383E-01
DAV:   4    -0.191447795158E+03   -0.10032E-02   -0.10721E-02 11400   0.696E-01    0.535E-01
DAV:   5    -0.191445157916E+03    0.26372E-02   -0.74656E-03 11280   0.596E-01    0.249E-01
DAV:   6    -0.191445059088E+03    0.98828E-04   -0.36580E-03 11440   0.371E-01    0.275E-01
DAV:   7    -0.191444396376E+03    0.66271E-03   -0.19962E-03 10200   0.306E-01    0.970E-02
DAV:   8    -0.191444299334E+03    0.97042E-04   -0.28278E-04  7120   0.951E-02
  19 F= -.19144430E+03 E0= -.19134392E+03  d E =-.171236E-01
       N       E                     dE             d eps       ncg     rms          rms(c)
DAV:   1    -0.191452057766E+03   -0.76614E-02   -0.55277E-01  8160   0.156E+00    0.169E-01
DAV:   2    -0.191453187458E+03   -0.11297E-02   -0.14097E-02 12480   0.376E-01    0.241E-01
DAV:   3    -0.191453157924E+03    0.29534E-04   -0.38186E-03 12520   0.417E-01    0.271E-01
DAV:   4    -0.191452507149E+03    0.65078E-03   -0.14081E-03  9520   0.253E-01    0.954E-02
DAV:   5    -0.191452512754E+03   -0.56058E-05   -0.49897E-04  8240   0.153E-01
  20 F= -.19145251E+03 E0= -.19135242E+03  d E =-.821342E-02
       N       E                     dE             d eps       ncg     rms          rms(c)
DAV:   1    -0.191463975681E+03   -0.11469E-01   -0.69407E-01  8160   0.177E+00    0.237E-01
DAV:   2    -0.191471995070E+03   -0.80194E-02   -0.29315E-02 13600   0.938E-01    0.869E-01
DAV:   3    -0.191464659440E+03    0.73356E-02   -0.14117E-02 11560   0.847E-01    0.163E-01
DAV:   4    -0.191464781560E+03   -0.12212E-03   -0.15691E-03 10120   0.256E-01    0.192E-01
DAV:   5    -0.191464427220E+03    0.35434E-03   -0.10184E-03 10160   0.233E-01    0.967E-02
DAV:   6    -0.191464428503E+03   -0.12823E-05   -0.52855E-04  8200   0.136E-01
  21 F= -.19146443E+03 E0= -.19136382E+03  d E =-.119157E-01
       N       E                     dE             d eps       ncg     rms          rms(c)
DAV:   1    -0.191425367714E+03    0.39060E-01   -0.79870E+00  8160   0.601E+00    0.805E-01
DAV:   2    -0.191512057274E+03   -0.86690E-01   -0.35522E-01 13600   0.313E+00    0.283E+00
DAV:   3    -0.191435539706E+03    0.76518E-01   -0.16799E-01 12240   0.282E+00    0.666E-01
DAV:   4    -0.191433178749E+03    0.23610E-02   -0.18510E-02 11280   0.898E-01    0.563E-01
DAV:   5    -0.191430531428E+03    0.26473E-02   -0.11631E-02 12760   0.811E-01    0.388E-01
DAV:   6    -0.191428886284E+03    0.16451E-02   -0.48218E-03 11440   0.433E-01    0.214E-01
DAV:   7    -0.191429944821E+03   -0.10585E-02   -0.50343E-03 10880   0.469E-01    0.390E-01
DAV:   8    -0.191428454135E+03    0.14907E-02   -0.26439E-03  9560   0.340E-01    0.490E-02
DAV:   9    -0.191428455028E+03   -0.89246E-06   -0.14000E-04  5600   0.508E-02
  22 F= -.19142846E+03 E0= -.19133068E+03  d E =0.359735E-01
       N       E                     dE             d eps       ncg     rms          rms(c)
DAV:   1    -0.191480273789E+03   -0.51820E-01   -0.14258E+01  8160   0.806E+00    0.110E+00
DAV:   2    -0.191630006075E+03   -0.14973E+00   -0.61826E-01 13600   0.415E+00    0.398E+00
DAV:   3    -0.191496718337E+03    0.13329E+00   -0.34220E-01 12240   0.385E+00    0.913E-01
DAV:   4    -0.191497394486E+03   -0.67615E-03   -0.53176E-02 12240   0.140E+00    0.114E+00
DAV:   5    -0.191486750423E+03    0.10644E-01   -0.37361E-02 11520   0.129E+00    0.599E-01
DAV:   6    -0.191483715796E+03    0.30346E-02   -0.13377E-02 12160   0.671E-01    0.392E-01
DAV:   7    -0.191483857395E+03   -0.14160E-03   -0.91823E-03 12000   0.682E-01    0.388E-01
DAV:   8    -0.191482015839E+03    0.18416E-02   -0.30521E-03 11160   0.392E-01    0.693E-02
DAV:   9    -0.191481940657E+03    0.75182E-04   -0.34426E-04  8160   0.755E-02
  23 F= -.19148194E+03 E0= -.19138077E+03  d E =-.534856E-01
       N       E                     dE             d eps       ncg     rms          rms(c)
DAV:   1    -0.191476882357E+03    0.51335E-02   -0.65554E-01  8160   0.172E+00    0.234E-01
DAV:   2    -0.191482105326E+03   -0.52230E-02   -0.25750E-02 13600   0.801E-01    0.714E-01
DAV:   3    -0.191477431934E+03    0.46734E-02   -0.12225E-02 11440   0.749E-01    0.213E-01
DAV:   4    -0.191477056249E+03    0.37568E-03   -0.16735E-03 10520   0.220E-01    0.127E-01
DAV:   5    -0.191477143364E+03   -0.87114E-04   -0.12825E-03 10680   0.233E-01    0.190E-01
DAV:   6    -0.191476815612E+03    0.32775E-03   -0.90915E-04  8400   0.195E-01    0.656E-02
DAV:   7    -0.191476866158E+03   -0.50545E-04   -0.31159E-04  7640   0.121E-01
  24 F= -.19147687E+03 E0= -.19137657E+03  d E =0.507450E-02
       N       E                     dE             d eps       ncg     rms          rms(c)
DAV:   1    -0.191503462106E+03   -0.26646E-01   -0.26519E+00  8160   0.343E+00    0.390E-01
DAV:   2    -0.191521231666E+03   -0.17770E-01   -0.82956E-02 13600   0.143E+00    0.125E+00
DAV:   3    -0.191506514439E+03    0.14717E-01   -0.34733E-02 12240   0.129E+00    0.326E-01
DAV:   4    -0.191506164531E+03    0.34991E-03   -0.48171E-03 11400   0.389E-01    0.289E-01
DAV:   5    -0.191505674668E+03    0.48986E-03   -0.34365E-03 12280   0.398E-01    0.246E-01
DAV:   6    -0.191505260091E+03    0.41458E-03   -0.19964E-03  9520   0.277E-01    0.150E-01
DAV:   7    -0.191505368340E+03   -0.10825E-03   -0.13489E-03  9600   0.256E-01    0.164E-01
DAV:   8    -0.191505057829E+03    0.31051E-03   -0.52065E-04  8360   0.164E-01    0.260E-02
DAV:   9    -0.191505055984E+03    0.18443E-05   -0.47242E-05  6560   0.303E-02
  25 F= -.19150506E+03 E0= -.19140475E+03  d E =-.281898E-01
       N       E                     dE             d eps       ncg     rms          rms(c)
DAV:   1    -0.191396546831E+03    0.10851E+00   -0.33852E+01  8160   0.123E+01    0.136E+00
DAV:   2    -0.191599874102E+03   -0.20333E+00   -0.10417E+00 13600   0.469E+00    0.413E+00
DAV:   3    -0.191446449515E+03    0.15342E+00   -0.41625E-01 12240   0.440E+00    0.131E+00
DAV:   4    -0.191436381243E+03    0.10068E-01   -0.60897E-02 11880   0.158E+00    0.105E+00
DAV:   5    -0.191427209111E+03    0.91721E-02   -0.37375E-02 12640   0.145E+00    0.690E-01
DAV:   6    -0.191422953463E+03    0.42556E-02   -0.16579E-02 12120   0.847E-01    0.478E-01
DAV:   7    -0.191425963985E+03   -0.30105E-02   -0.19491E-02 12040   0.911E-01    0.734E-01
DAV:   8    -0.191420860103E+03    0.51039E-02   -0.97419E-03 10720   0.632E-01    0.108E-01
DAV:   9    -0.191420684661E+03    0.17544E-03   -0.70669E-04 10160   0.105E-01    0.416E-02
DAV:  10    -0.191420670386E+03    0.14275E-04   -0.16523E-04  7800   0.452E-02
  26 F= -.19142067E+03 E0= -.19132196E+03  d E =0.843856E-01
       N       E                     dE             d eps       ncg     rms          rms(c)
DAV:   1    -0.191393087365E+03    0.27597E-01   -0.96992E+00  8160   0.655E+00    0.743E-01
DAV:   2    -0.191443027331E+03   -0.49940E-01   -0.28306E-01 13520   0.246E+00    0.201E+00
DAV:   3    -0.191406201475E+03    0.36826E-01   -0.10947E-01 12280   0.229E+00    0.811E-01
DAV:   4    -0.191401035957E+03    0.51655E-02   -0.20639E-02 11680   0.867E-01    0.477E-01
DAV:   5    -0.191400082362E+03    0.95360E-03   -0.10622E-02 11800   0.741E-01    0.463E-01
DAV:   6    -0.191397952960E+03    0.21294E-02   -0.58358E-03 11560   0.529E-01    0.231E-01
DAV:   7    -0.191399019609E+03   -0.10666E-02   -0.52142E-03 12000   0.477E-01    0.395E-01
DAV:   8    -0.191397525431E+03    0.14942E-02   -0.28151E-03 10120   0.359E-01    0.645E-02
DAV:   9    -0.191397478142E+03    0.47289E-04   -0.17842E-04  5760   0.640E-02
  27 F= -.19139748E+03 E0= -.19129881E+03  d E =0.231922E-01
       N       E                     dE             d eps       ncg     rms          rms(c)
DAV:   1    -0.191411607727E+03   -0.14082E-01   -0.28683E+00  8160   0.359E+00    0.465E-01
DAV:   2    -0.191434493837E+03   -0.22886E-01   -0.10955E-01 13560   0.165E+00    0.146E+00
DAV:   3    -0.191415223595E+03    0.19270E-01   -0.50570E-02 12200   0.151E+00    0.452E-01
DAV:   4    -0.191414589956E+03    0.63364E-03   -0.93820E-03 11320   0.602E-01    0.418E-01
DAV:   5    -0.191413272143E+03    0.13178E-02   -0.57138E-03 11480   0.534E-01    0.274E-01
DAV:   6    -0.191412654869E+03    0.61727E-03   -0.27192E-03 10600   0.318E-01    0.192E-01
DAV:   7    -0.191412676943E+03   -0.22075E-04   -0.19755E-03 10040   0.312E-01    0.188E-01
DAV:   8    -0.191412308223E+03    0.36872E-03   -0.66979E-04  8360   0.176E-01    0.338E-02
DAV:   9    -0.191412297456E+03    0.10767E-04   -0.74304E-05  6560   0.378E-02
  28 F= -.19141230E+03 E0= -.19131325E+03  d E =-.148193E-01
       N       E                     dE             d eps       ncg     rms          rms(c)
DAV:   1    -0.191415208292E+03   -0.29001E-02   -0.15324E-01  8160   0.825E-01    0.933E-02
DAV:   2    -0.191416105671E+03   -0.89738E-03   -0.56722E-03 13400   0.289E-01    0.244E-01
DAV:   3    -0.191415562658E+03    0.54301E-03   -0.17736E-03 10040   0.280E-01    0.109E-01
DAV:   4    -0.191415533949E+03    0.28709E-04   -0.37401E-04  7240   0.120E-01
  29 F= -.19141553E+03 E0= -.19131662E+03  d E =-.323649E-02
       N       E                     dE             d eps       ncg     rms          rms(c)
DAV:   1    -0.191421764582E+03   -0.62019E-02   -0.43355E-01  8160   0.138E+00    0.170E-01
DAV:   2    -0.191424810519E+03   -0.30459E-02   -0.14282E-02 13560   0.542E-01    0.514E-01
DAV:   3    -0.191422378676E+03    0.24318E-02   -0.66757E-03 11320   0.544E-01    0.185E-01
DAV:   4    -0.191422179223E+03    0.19945E-03   -0.11264E-03  9640   0.181E-01    0.114E-01
DAV:   5    -0.191422162530E+03    0.16694E-04   -0.64284E-04  9040   0.175E-01
  30 F= -.19142216E+03 E0= -.19132304E+03  d E =-.662858E-02
       N       E                     dE             d eps       ncg     rms          rms(c)
DAV:   1    -0.191422068848E+03    0.11038E-03   -0.43128E-02  8160   0.466E-01    0.779E-02
DAV:   2    -0.191423233003E+03   -0.11642E-02   -0.32272E-03 12720   0.350E-01    0.348E-01
DAV:   3    -0.191422052322E+03    0.11807E-02   -0.19886E-03 10120   0.307E-01    0.424E-02
DAV:   4    -0.191422092856E+03   -0.40535E-04   -0.10389E-04  5920   0.572E-02
  31 F= -.19142209E+03 E0= -.19132320E+03  d E =0.696736E-04
       N       E                     dE             d eps       ncg     rms          rms(c)
DAV:   1    -0.191430842154E+03   -0.87898E-02   -0.11405E+00  8160   0.224E+00    0.266E-01
DAV:   2    -0.191438888659E+03   -0.80465E-02   -0.37820E-02 13560   0.102E+00    0.795E-01
DAV:   3    -0.191432408649E+03    0.64800E-02   -0.14109E-02 11440   0.864E-01    0.235E-01
DAV:   4    -0.191432516621E+03   -0.10797E-03   -0.27980E-03 10880   0.350E-01    0.257E-01
DAV:   5    -0.191431904929E+03    0.61169E-03   -0.15458E-03  9800   0.291E-01    0.111E-01
DAV:   6    -0.191431799377E+03    0.10555E-03   -0.52008E-04  9640   0.128E-01    0.682E-02
DAV:   7    -0.191431983154E+03   -0.18378E-03   -0.65558E-04  9240   0.168E-01    0.158E-01
DAV:   8    -0.191431739740E+03    0.24341E-03   -0.41032E-04  7440   0.138E-01    0.186E-02
DAV:   9    -0.191431753126E+03   -0.13386E-04   -0.28773E-05  5560   0.221E-02
  32 F= -.19143175E+03 E0= -.19133312E+03  d E =-.966027E-02
       N       E                     dE             d eps       ncg     rms          rms(c)
DAV:   1    -0.191430201121E+03    0.15386E-02   -0.30435E-02  8160   0.363E-01    0.386E-02
DAV:   2    -0.191430333644E+03   -0.13252E-03   -0.74687E-04 12240   0.118E-01    0.972E-02
DAV:   3    -0.191430231678E+03    0.10197E-03   -0.25194E-04  7280   0.116E-01    0.409E-02
DAV:   4    -0.191430227312E+03    0.43663E-05   -0.59751E-05  5440   0.522E-02
  33 F= -.19143023E+03 E0= -.19133145E+03  d E =0.152581E-02
       N       E                     dE             d eps       ncg     rms          rms(c)
DAV:   1    -0.191425290938E+03    0.49407E-02   -0.10602E+00  8160   0.216E+00    0.264E-01
DAV:   2    -0.191429549063E+03   -0.42581E-02   -0.29501E-02 13520   0.709E-01    0.589E-01
DAV:   3    -0.191426526177E+03    0.30229E-02   -0.11671E-02 11040   0.744E-01    0.340E-01
DAV:   4    -0.191425671763E+03    0.85441E-03   -0.32772E-03 10880   0.338E-01    0.184E-01
DAV:   5    -0.191425552537E+03    0.11923E-03   -0.15977E-03 10120   0.280E-01    0.177E-01
DAV:   6    -0.191425304702E+03    0.24784E-03   -0.11199E-03  9840   0.217E-01    0.112E-01
DAV:   7    -0.191425326240E+03   -0.21538E-04   -0.67345E-04  8160   0.175E-01
  34 F= -.19142533E+03 E0= -.19132579E+03  d E =0.490107E-02
       N       E                     dE             d eps       ncg     rms          rms(c)
DAV:   1    -0.191422467620E+03    0.28371E-02   -0.11382E+00  8160   0.221E+00    0.235E-01
DAV:   2    -0.191426429867E+03   -0.39622E-02   -0.27079E-02 12840   0.716E-01    0.503E-01
DAV:   3    -0.191424020713E+03    0.24092E-02   -0.89605E-03 11760   0.655E-01    0.294E-01
DAV:   4    -0.191423604770E+03    0.41594E-03   -0.31322E-03 10760   0.340E-01    0.220E-01
DAV:   5    -0.191423342216E+03    0.26255E-03   -0.15410E-03  9880   0.266E-01    0.144E-01
DAV:   6    -0.191423097128E+03    0.24509E-03   -0.51615E-04  9160   0.145E-01    0.379E-02
DAV:   7    -0.191423116508E+03   -0.19380E-04   -0.12351E-04  6200   0.457E-02
  35 F= -.19142312E+03 E0= -.19132283E+03  d E =0.220973E-02
       N       E                     dE             d eps       ncg     rms          rms(c)
DAV:   1    -0.191426799851E+03   -0.37027E-02   -0.53795E-01  8160   0.153E+00    0.157E-01
DAV:   2    -0.191428629178E+03   -0.18293E-02   -0.12631E-02 12960   0.451E-01    0.360E-01
DAV:   3    -0.191427581634E+03    0.10475E-02   -0.45845E-03 11440   0.458E-01    0.213E-01
DAV:   4    -0.191427196267E+03    0.38537E-03   -0.11193E-03  9520   0.198E-01    0.850E-02
DAV:   5    -0.191427256357E+03   -0.60090E-04   -0.50167E-04  8680   0.147E-01
  36 F= -.19142726E+03 E0= -.19132660E+03  d E =-.413985E-02
       N       E                     dE             d eps       ncg     rms          rms(c)
DAV:   1    -0.191428903771E+03   -0.17075E-02   -0.15885E+00  8160   0.260E+00    0.259E-01
DAV:   2    -0.191433846799E+03   -0.49430E-02   -0.32172E-02 12240   0.690E-01    0.601E-01
DAV:   3    -0.191430823742E+03    0.30231E-02   -0.13732E-02 11440   0.762E-01    0.360E-01
DAV:   4    -0.191429972310E+03    0.85143E-03   -0.37831E-03 10560   0.364E-01    0.205E-01
DAV:   5    -0.191429743141E+03    0.22917E-03   -0.15036E-03  9640   0.278E-01    0.153E-01
DAV:   6    -0.191429491061E+03    0.25208E-03   -0.69602E-04  9520   0.176E-01    0.702E-02
DAV:   7    -0.191429641210E+03   -0.15015E-03   -0.52254E-04  8560   0.159E-01    0.136E-01
DAV:   8    -0.191429455375E+03    0.18584E-03   -0.31798E-04  7080   0.132E-01    0.249E-02
DAV:   9    -0.191429459956E+03   -0.45809E-05   -0.31142E-05  5520   0.266E-02
  37 F= -.19142946E+03 E0= -.19132973E+03  d E =-.220360E-02
       N       E                     dE             d eps       ncg     rms          rms(c)
DAV:   1    -0.191429617207E+03   -0.16183E-03   -0.13206E-03  8320   0.763E-02    0.952E-03
DAV:   2    -0.191429621363E+03   -0.41564E-05   -0.27471E-05  7520   0.229E-02
  38 F= -.19142962E+03 E0= -.19132988E+03  d E =-.161407E-03
       N       E                     dE             d eps       ncg     rms          rms(c)
DAV:   1    -0.191439041536E+03   -0.94243E-02   -0.79635E-01  8160   0.187E+00    0.217E-01
DAV:   2    -0.191444099074E+03   -0.50575E-02   -0.25863E-02 13480   0.787E-01    0.634E-01
DAV:   3    -0.191440181164E+03    0.39179E-02   -0.97103E-03 11520   0.697E-01    0.212E-01
DAV:   4    -0.191440049959E+03    0.13120E-03   -0.18123E-03  9840   0.268E-01    0.179E-01
DAV:   5    -0.191439800947E+03    0.24901E-03   -0.98824E-04 10360   0.231E-01    0.114E-01
DAV:   6    -0.191439688889E+03    0.11206E-03   -0.41330E-04  8120   0.130E-01    0.724E-02
DAV:   7    -0.191439776330E+03   -0.87441E-04   -0.48576E-04  7920   0.148E-01
  39 F= -.19143978E+03 E0= -.19134019E+03  d E =-.101550E-01
       N       E                     dE             d eps       ncg     rms          rms(c)
DAV:   1    -0.191439116798E+03    0.57209E-03   -0.10217E-01  8160   0.703E-01    0.107E-01
DAV:   2    -0.191439333458E+03   -0.21666E-03   -0.31561E-03 12680   0.252E-01    0.177E-01
DAV:   3    -0.191439045227E+03    0.28823E-03   -0.11581E-03 10000   0.251E-01    0.103E-01
DAV:   4    -0.191438970069E+03    0.75158E-04   -0.47184E-04  8280   0.142E-01
  40 F= -.19143897E+03 E0= -.19133915E+03  d E =0.806261E-03
       N       E                     dE             d eps       ncg     rms          rms(c)
DAV:   1    -0.191452777333E+03   -0.13732E-01   -0.13533E+00  8160   0.243E+00    0.236E-01
DAV:   2    -0.191456316820E+03   -0.35395E-02   -0.30931E-02 12600   0.606E-01    0.469E-01
DAV:   3    -0.191455102884E+03    0.12139E-02   -0.10147E-02 12240   0.627E-01    0.354E-01
DAV:   4    -0.191454114429E+03    0.98845E-03   -0.29814E-03 10840   0.316E-01    0.134E-01
DAV:   5    -0.191453936197E+03    0.17823E-03   -0.80249E-04 10160   0.162E-01    0.118E-01
DAV:   6    -0.191453968128E+03   -0.31931E-04   -0.76510E-04 10360   0.201E-01
  41 F= -.19145397E+03 E0= -.19135464E+03  d E =-.149981E-01
       N       E                     dE             d eps       ncg     rms          rms(c)
DAV:   1    -0.191411424809E+03    0.42511E-01   -0.10677E+01  8160   0.684E+00    0.753E-01
DAV:   2    -0.191469308336E+03   -0.57884E-01   -0.29783E-01 13400   0.243E+00    0.221E+00
DAV:   3    -0.191425709216E+03    0.43599E-01   -0.12319E-01 12320   0.240E+00    0.794E-01
DAV:   4    -0.191420645573E+03    0.50636E-02   -0.20416E-02 11240   0.800E-01    0.488E-01
DAV:   5    -0.191420023925E+03    0.62165E-03   -0.12257E-02 12600   0.757E-01    0.518E-01
DAV:   6    -0.191417976584E+03    0.20473E-02   -0.81677E-03 10840   0.592E-01    0.311E-01
DAV:   7    -0.191418222852E+03   -0.24627E-03   -0.53452E-03 11080   0.493E-01    0.330E-01
DAV:   8    -0.191417169288E+03    0.10536E-02   -0.23410E-03 10640   0.339E-01    0.798E-02
DAV:   9    -0.191417047379E+03    0.12191E-03   -0.21903E-04  6560   0.723E-02    0.203E-02
DAV:  10    -0.191417049649E+03   -0.22701E-05   -0.76756E-05  8040   0.312E-02
  42 F= -.19141705E+03 E0= -.19131613E+03  d E =0.369185E-01
       N       E                     dE             d eps       ncg     rms          rms(c)
DAV:   1    -0.191407705212E+03    0.93422E-02   -0.18819E+00  8160   0.286E+00    0.303E-01
DAV:   2    -0.191415435920E+03   -0.77307E-02   -0.45784E-02 13000   0.951E-01    0.765E-01
DAV:   3    -0.191410025663E+03    0.54103E-02   -0.16814E-02 11960   0.897E-01    0.352E-01
DAV:   4    -0.191409308929E+03    0.71673E-03   -0.41349E-03 11000   0.391E-01    0.235E-01
DAV:   5    -0.191409039778E+03    0.26915E-03   -0.20852E-03 10320   0.329E-01    0.191E-01
DAV:   6    -0.191408709256E+03    0.33052E-03   -0.10341E-03 10320   0.214E-01    0.106E-01
DAV:   7    -0.191408860082E+03   -0.15083E-03   -0.90424E-04  8560   0.203E-01    0.157E-01
DAV:   8    -0.191408633008E+03    0.22707E-03   -0.45064E-04  8120   0.146E-01    0.293E-02
DAV:   9    -0.191408629994E+03    0.30146E-05   -0.43589E-05  6160   0.312E-02
  43 F= -.19140863E+03 E0= -.19130714E+03  d E =0.841966E-02
       N       E                     dE             d eps       ncg     rms          rms(c)
DAV:   1    -0.191406629487E+03    0.20035E-02   -0.15636E+00  8160   0.260E+00    0.259E-01
DAV:   2    -0.191409794444E+03   -0.31650E-02   -0.30473E-02 12360   0.660E-01    0.444E-01
DAV:   3    -0.191408610259E+03    0.11842E-02   -0.90765E-03 12640   0.652E-01    0.360E-01
DAV:   4    -0.191407674835E+03    0.93542E-03   -0.34963E-03 11360   0.389E-01    0.191E-01
DAV:   5    -0.191407589372E+03    0.85462E-04   -0.15136E-03 10080   0.278E-01    0.180E-01
DAV:   6    -0.191407250392E+03    0.33898E-03   -0.78152E-04  9920   0.208E-01    0.562E-02
DAV:   7    -0.191407283724E+03   -0.33332E-04   -0.24015E-04  6720   0.898E-02
  44 F= -.19140728E+03 E0= -.19130484E+03  d E =0.134627E-02
       N       E                     dE             d eps       ncg     rms          rms(c)
DAV:   1    -0.191410561869E+03   -0.33115E-02   -0.31045E-01  8160   0.119E+00    0.146E-01
DAV:   2    -0.191413010114E+03   -0.24482E-02   -0.13246E-02 13400   0.479E-01    0.467E-01
DAV:   3    -0.191411165002E+03    0.18451E-02   -0.52842E-03 10880   0.456E-01    0.144E-01
DAV:   4    -0.191411113520E+03    0.51481E-04   -0.63502E-04  8240   0.157E-01
  45 F= -.19141111E+03 E0= -.19130858E+03  d E =-.382980E-02
       N       E                     dE             d eps       ncg     rms          rms(c)
DAV:   1    -0.191408616694E+03    0.25483E-02   -0.32664E-01  8160   0.122E+00    0.113E-01
DAV:   2    -0.191409553004E+03   -0.93631E-03   -0.75332E-03 13600   0.316E-01    0.224E-01
DAV:   3    -0.191409044070E+03    0.50893E-03   -0.17168E-03 10240   0.307E-01    0.111E-01
DAV:   4    -0.191408993359E+03    0.50712E-04   -0.43007E-04  8240   0.130E-01
  46 F= -.19140899E+03 E0= -.19130658E+03  d E =0.212016E-02
       N       E                     dE             d eps       ncg     rms          rms(c)
DAV:   1    -0.191411677086E+03   -0.26330E-02   -0.27524E-01  8160   0.111E+00    0.153E-01
DAV:   2    -0.191414833713E+03   -0.31566E-02   -0.11939E-02 13600   0.545E-01    0.553E-01
DAV:   3    -0.191412015400E+03    0.28183E-02   -0.65565E-03 10600   0.528E-01    0.150E-01
DAV:   4    -0.191411959151E+03    0.56249E-04   -0.95613E-04  8960   0.184E-01
  47 F= -.19141196E+03 E0= -.19131002E+03  d E =-.296579E-02
       N       E                     dE             d eps       ncg     rms          rms(c)
DAV:   1    -0.191411009825E+03    0.10056E-02   -0.28476E-01  8160   0.112E+00    0.130E-01
DAV:   2    -0.191414353499E+03   -0.33437E-02   -0.10022E-02 12280   0.586E-01    0.549E-01
DAV:   3    -0.191411160989E+03    0.31925E-02   -0.48301E-03 10160   0.497E-01    0.834E-02
DAV:   4    -0.191411269855E+03   -0.10887E-03   -0.49130E-04  8280   0.152E-01    0.111E-01
DAV:   5    -0.191411141752E+03    0.12810E-03   -0.24684E-04  7440   0.112E-01    0.369E-02
DAV:   6    -0.191411167489E+03   -0.25737E-04   -0.10807E-04  6200   0.709E-02
  48 F= -.19141117E+03 E0= -.19130856E+03  d E =0.791662E-03
       N       E                     dE             d eps       ncg     rms          rms(c)
DAV:   1    -0.191411777880E+03   -0.63613E-03   -0.17634E-01  8160   0.878E-01    0.914E-02
DAV:   2    -0.191412294892E+03   -0.51701E-03   -0.33727E-03 12240   0.246E-01    0.212E-01
DAV:   3    -0.191411898817E+03    0.39608E-03   -0.12541E-03  9680   0.240E-01    0.965E-02
DAV:   4    -0.191411920277E+03   -0.21460E-04   -0.40481E-04  7760   0.126E-01
  49 F= -.19141192E+03 E0= -.19130870E+03  d E =-.752788E-03
       N       E                     dE             d eps       ncg     rms          rms(c)
DAV:   1    -0.191415496340E+03   -0.35975E-02   -0.22717E-01  8160   0.104E+00    0.143E-01
DAV:   2    -0.191417697624E+03   -0.22013E-02   -0.10434E-02 13440   0.474E-01    0.457E-01
DAV:   3    -0.191415853159E+03    0.18445E-02   -0.48392E-03 11000   0.454E-01    0.140E-01
DAV:   4    -0.191415860890E+03   -0.77303E-05   -0.74596E-04  8320   0.169E-01
  50 F= -.19141586E+03 E0= -.19131303E+03  d E =-.394061E-02
       N       E                     dE             d eps       ncg     rms          rms(c)
DAV:   1    -0.191411529072E+03    0.43241E-02   -0.24578E-01  8160   0.112E+00    0.149E-01
DAV:   2    -0.191413004978E+03   -0.14759E-02   -0.10896E-02 12600   0.426E-01    0.364E-01
DAV:   3    -0.191411915716E+03    0.10893E-02   -0.38221E-03 11320   0.423E-01    0.170E-01
DAV:   4    -0.191411648728E+03    0.26699E-03   -0.72679E-04  8280   0.152E-01    0.726E-02
DAV:   5    -0.191411667197E+03   -0.18469E-04   -0.45460E-04  8960   0.135E-01
  51 F= -.19141167E+03 E0= -.19130874E+03  d E =0.419369E-02
       N       E                     dE             d eps       ncg     rms          rms(c)
DAV:   1    -0.191417388090E+03   -0.57394E-02   -0.51053E-01  8160   0.155E+00    0.214E-01
DAV:   2    -0.191418184253E+03   -0.79616E-03   -0.18001E-02 10680   0.430E-01    0.226E-01
DAV:   3    -0.191417919749E+03    0.26450E-03   -0.38278E-03 11240   0.392E-01    0.253E-01
DAV:   4    -0.191417586891E+03    0.33286E-03   -0.23691E-03 10080   0.344E-01    0.199E-01
DAV:   5    -0.191417294531E+03    0.29236E-03   -0.12482E-03  9520   0.230E-01    0.138E-01
DAV:   6    -0.191417162719E+03    0.13181E-03   -0.67836E-04  8240   0.186E-01    0.823E-02
DAV:   7    -0.191417119054E+03    0.43664E-04   -0.26609E-04  7240   0.952E-02
  52 F= -.19141712E+03 E0= -.19131402E+03  d E =-.545186E-02
       N       E                     dE             d eps       ncg     rms          rms(c)
DAV:   1    -0.191418668931E+03   -0.15062E-02   -0.32391E-02  8160   0.411E-01    0.890E-02
DAV:   2    -0.191419023705E+03   -0.35477E-03   -0.24009E-03 11320   0.258E-01    0.211E-01
DAV:   3    -0.191418616675E+03    0.40703E-03   -0.11828E-03  9840   0.244E-01    0.928E-02
DAV:   4    -0.191418599451E+03    0.17224E-04   -0.38676E-04  8000   0.130E-01
  53 F= -.19141860E+03 E0= -.19131544E+03  d E =-.148040E-02
       N       E                     dE             d eps       ncg     rms          rms(c)
DAV:   1    -0.191423629537E+03   -0.50129E-02   -0.34030E-01  8160   0.127E+00    0.158E-01
DAV:   2    -0.191424168843E+03   -0.53931E-03   -0.10541E-02 12080   0.272E-01    0.136E-01
DAV:   3    -0.191424343141E+03   -0.17430E-03   -0.21836E-03 11840   0.289E-01    0.234E-01
DAV:   4    -0.191423908100E+03    0.43504E-03   -0.13133E-03  9400   0.250E-01    0.116E-01
DAV:   5    -0.191423861341E+03    0.46758E-04   -0.60628E-04  8280   0.161E-01
  54 F= -.19142386E+03 E0= -.19132047E+03  d E =-.526189E-02
       N       E                     dE             d eps       ncg     rms          rms(c)
DAV:   1    -0.191423326788E+03    0.58131E-03   -0.31206E-03 11560   0.183E-01    0.658E-02
DAV:   2    -0.191424366579E+03   -0.10398E-02   -0.22588E-03 10400   0.327E-01    0.312E-01
DAV:   3    -0.191423289432E+03    0.10771E-02   -0.16233E-03 10040   0.281E-01    0.587E-02
DAV:   4    -0.191423287024E+03    0.24083E-05   -0.94434E-05  5600   0.628E-02
  55 F= -.19142329E+03 E0= -.19131960E+03  d E =0.574317E-03
       N       E                     dE             d eps       ncg     rms          rms(c)
DAV:   1    -0.191426722441E+03   -0.34330E-02   -0.18793E-01  8160   0.927E-01    0.115E-01
DAV:   2    -0.191428001964E+03   -0.12795E-02   -0.70886E-03 12640   0.377E-01    0.331E-01
DAV:   3    -0.191426983617E+03    0.10183E-02   -0.26055E-03  9640   0.332E-01    0.109E-01
DAV:   4    -0.191427028984E+03   -0.45367E-04   -0.63139E-04  8200   0.159E-01
  56 F= -.19142703E+03 E0= -.19132295E+03  d E =-.374196E-02
       N       E                     dE             d eps       ncg     rms          rms(c)
DAV:   1    -0.191428349989E+03   -0.13664E-02   -0.70757E-02  8160   0.646E-01    0.138E-01
DAV:   2    -0.191429807424E+03   -0.14574E-02   -0.64994E-03 12000   0.413E-01    0.423E-01
DAV:   3    -0.191428241825E+03    0.15656E-02   -0.43372E-03  9600   0.423E-01    0.145E-01
DAV:   4    -0.191428232467E+03    0.93577E-05   -0.87664E-04  8280   0.181E-01
  57 F= -.19142823E+03 E0= -.19132489E+03  d E =-.120348E-02
       N       E                     dE             d eps       ncg     rms          rms(c)
DAV:   1    -0.191434353922E+03   -0.61121E-02   -0.37454E-01  8160   0.134E+00    0.167E-01
DAV:   2    -0.191435725673E+03   -0.13718E-02   -0.11754E-02 12560   0.398E-01    0.293E-01
DAV:   3    -0.191434879902E+03    0.84577E-03   -0.33389E-03 12040   0.419E-01    0.177E-01
DAV:   4    -0.191434693441E+03    0.18646E-03   -0.11107E-03  9520   0.210E-01    0.127E-01
DAV:   5    -0.191434662680E+03    0.30761E-04   -0.74043E-04  8280   0.192E-01
  58 F= -.19143466E+03 E0= -.19133084E+03  d E =-.643021E-02
       N       E                     dE             d eps       ncg     rms          rms(c)
DAV:   1    -0.191436437144E+03   -0.17437E-02   -0.51885E-02  8160   0.535E-01    0.136E-01
DAV:   2    -0.191436605512E+03   -0.16837E-03   -0.39634E-03 11440   0.318E-01    0.244E-01
DAV:   3    -0.191436146122E+03    0.45939E-03   -0.21381E-03 10080   0.322E-01    0.145E-01
DAV:   4    -0.191436162836E+03   -0.16714E-04   -0.12031E-03  8800   0.219E-01    0.171E-01
DAV:   5    -0.191435934681E+03    0.22815E-03   -0.82287E-04  8400   0.200E-01    0.828E-02
DAV:   6    -0.191435862775E+03    0.71907E-04   -0.21674E-04  5640   0.910E-02
  59 F= -.19143586E+03 E0= -.19133207E+03  d E =-.120009E-02
       N       E                     dE             d eps       ncg     rms          rms(c)
DAV:   1    -0.191444302397E+03   -0.83677E-02   -0.42126E-01  8160   0.143E+00    0.216E-01
DAV:   2    -0.191445737110E+03   -0.14347E-02   -0.15759E-02 12960   0.520E-01    0.422E-01
DAV:   3    -0.191444568145E+03    0.11690E-02   -0.64076E-03 11200   0.551E-01    0.271E-01
DAV:   4    -0.191443842186E+03    0.72596E-03   -0.19046E-03 10480   0.267E-01    0.981E-02
DAV:   5    -0.191443719352E+03    0.12283E-03   -0.66286E-04 10600   0.130E-01    0.826E-02
DAV:   6    -0.191443720405E+03   -0.10526E-05   -0.49630E-04  9000   0.156E-01
  60 F= -.19144372E+03 E0= -.19133955E+03  d E =-.785763E-02
       N       E                     dE             d eps       ncg     rms          rms(c)
DAV:   1    -0.191450691732E+03   -0.69724E-02   -0.29253E-01  8160   0.117E+00    0.138E-01
DAV:   2    -0.191451793858E+03   -0.11021E-02   -0.96205E-03 13520   0.356E-01    0.289E-01
DAV:   3    -0.191451241400E+03    0.55246E-03   -0.31428E-03 10360   0.360E-01    0.175E-01
DAV:   4    -0.191451001520E+03    0.23988E-03   -0.73629E-04  8280   0.153E-01    0.712E-02
DAV:   5    -0.191450993276E+03    0.82441E-05   -0.29296E-04  7000   0.113E-01
  61 F= -.19145099E+03 E0= -.19134638E+03  d E =-.727287E-02
       N       E                     dE             d eps       ncg     rms          rms(c)
DAV:   1    -0.191427995713E+03    0.23006E-01   -0.32370E+00  8160   0.386E+00    0.433E-01
DAV:   2    -0.191442169197E+03   -0.14173E-01   -0.95038E-02 13400   0.123E+00    0.108E+00
DAV:   3    -0.191432775256E+03    0.93939E-02   -0.33529E-02 11840   0.121E+00    0.479E-01
DAV:   4    -0.191431972776E+03    0.80248E-03   -0.90431E-03 11400   0.555E-01    0.388E-01
DAV:   5    -0.191430736729E+03    0.12360E-02   -0.48697E-03 10840   0.492E-01    0.259E-01
DAV:   6    -0.191430350722E+03    0.38601E-03   -0.26084E-03 10720   0.322E-01    0.198E-01
DAV:   7    -0.191430442730E+03   -0.92008E-04   -0.21990E-03  9920   0.323E-01    0.207E-01
DAV:   8    -0.191429954838E+03    0.48789E-03   -0.76030E-04  8320   0.195E-01    0.294E-02
DAV:   9    -0.191429960203E+03   -0.53650E-05   -0.68081E-05  6560   0.343E-02
  62 F= -.19142996E+03 E0= -.19132640E+03  d E =0.210331E-01
       N       E                     dE             d eps       ncg     rms          rms(c)
DAV:   1    -0.191420834838E+03    0.91200E-02   -0.20937E+00  8160   0.308E+00    0.317E-01
DAV:   2    -0.191425733378E+03   -0.48985E-02   -0.48702E-02 13160   0.780E-01    0.525E-01
DAV:   3    -0.191423960879E+03    0.17725E-02   -0.11915E-02 12280   0.770E-01    0.391E-01
DAV:   4    -0.191423248533E+03    0.71235E-03   -0.49113E-03 11600   0.467E-01    0.298E-01
DAV:   5    -0.191422536722E+03    0.71181E-03   -0.25715E-03 10080   0.367E-01    0.187E-01
DAV:   6    -0.191422275433E+03    0.26129E-03   -0.11855E-03 10160   0.223E-01    0.100E-01
DAV:   7    -0.191422491325E+03   -0.21589E-03   -0.10481E-03  9680   0.206E-01    0.188E-01
DAV:   8    -0.191422146355E+03    0.34497E-03   -0.60422E-04  8440   0.162E-01    0.261E-02
DAV:   9    -0.191422156536E+03   -0.10181E-04   -0.38066E-05  5720   0.270E-02
  63 F= -.19142216E+03 E0= -.19131976E+03  d E =0.780367E-02
       N       E                     dE             d eps       ncg     rms          rms(c)
DAV:   1    -0.191422530942E+03   -0.38459E-03   -0.54223E-03  8160   0.154E-01    0.166E-02
DAV:   2    -0.191422548375E+03   -0.17433E-04   -0.11229E-04  8240   0.428E-02
  64 F= -.19142255E+03 E0= -.19132013E+03  d E =-.391839E-03
       N       E                     dE             d eps       ncg     rms          rms(c)
DAV:   1    -0.191426537505E+03   -0.40066E-02   -0.23065E-01  8160   0.103E+00    0.119E-01
DAV:   2    -0.191427496105E+03   -0.95860E-03   -0.77656E-03 12480   0.328E-01    0.253E-01
DAV:   3    -0.191427015562E+03    0.48054E-03   -0.22167E-03 10240   0.318E-01    0.151E-01
DAV:   4    -0.191426901371E+03    0.11419E-03   -0.72034E-04  8200   0.165E-01    0.105E-01
DAV:   5    -0.191426813566E+03    0.87805E-04   -0.35122E-04  7760   0.133E-01
  65 F= -.19142681E+03 E0= -.19132449E+03  d E =-.426519E-02
       N       E                     dE             d eps       ncg     rms          rms(c)
DAV:   1    -0.191413015396E+03    0.13886E-01   -0.23322E+00  8160   0.327E+00    0.360E-01
DAV:   2    -0.191421387766E+03   -0.83724E-02   -0.75674E-02 13120   0.100E+00    0.700E-01
DAV:   3    -0.191418303079E+03    0.30847E-02   -0.21239E-02 12160   0.941E-01    0.523E-01
DAV:   4    -0.191416491658E+03    0.18114E-02   -0.81659E-03 11120   0.536E-01    0.292E-01
DAV:   5    -0.191415873863E+03    0.61780E-03   -0.29727E-03 11240   0.374E-01    0.217E-01
DAV:   6    -0.191415399584E+03    0.47428E-03   -0.15161E-03 10840   0.269E-01    0.915E-02
DAV:   7    -0.191415392558E+03    0.70253E-05   -0.54411E-04  9840   0.126E-01
  66 F= -.19141539E+03 E0= -.19131246E+03  d E =0.114210E-01
       N       E                     dE             d eps       ncg     rms          rms(c)
DAV:   1    -0.191413685587E+03    0.17140E-02   -0.13870E-01  8160   0.804E-01    0.107E-01
DAV:   2    -0.191415017107E+03   -0.13315E-02   -0.56804E-03 13600   0.352E-01    0.346E-01
DAV:   3    -0.191413856452E+03    0.11607E-02   -0.25089E-03 10400   0.355E-01    0.982E-02
DAV:   4    -0.191413827846E+03    0.28607E-04   -0.30844E-04  7520   0.924E-02
  67 F= -.19141383E+03 E0= -.19131044E+03  d E =0.156471E-02
       N       E                     dE             d eps       ncg     rms          rms(c)
DAV:   1    -0.191414184440E+03   -0.32799E-03   -0.53207E-03  8160   0.169E-01    0.602E-02
DAV:   2    -0.191414964971E+03   -0.78053E-03   -0.16467E-03 10440   0.291E-01    0.279E-01
DAV:   3    -0.191414145725E+03    0.81925E-03   -0.12107E-03  9280   0.250E-01    0.496E-02
DAV:   4    -0.191414163541E+03   -0.17816E-04   -0.91918E-05  5880   0.636E-02
  68 F= -.19141416E+03 E0= -.19131086E+03  d E =-.335695E-03
       N       E                     dE             d eps       ncg     rms          rms(c)
DAV:   1    -0.191416680639E+03   -0.25349E-02   -0.33593E-01  8160   0.122E+00    0.127E-01
DAV:   2    -0.191417108981E+03   -0.42834E-03   -0.74215E-03 12240   0.233E-01    0.106E-01
DAV:   3    -0.191417237155E+03   -0.12817E-03   -0.13389E-03 11560   0.216E-01    0.189E-01
DAV:   4    -0.191416972759E+03    0.26440E-03   -0.99557E-04  8320   0.208E-01    0.102E-01
DAV:   5    -0.191416914875E+03    0.57883E-04   -0.33467E-04  7000   0.115E-01
  69 F= -.19141691E+03 E0= -.19131294E+03  d E =-.275133E-02
       N       E                     dE             d eps       ncg     rms          rms(c)
DAV:   1    -0.191414779411E+03    0.21933E-02   -0.77278E-02  8160   0.608E-01    0.889E-02
DAV:   2    -0.191416099069E+03   -0.13197E-02   -0.45621E-03 13120   0.364E-01    0.353E-01
DAV:   3    -0.191414872082E+03    0.12270E-02   -0.23588E-03 10160   0.329E-01    0.817E-02
DAV:   4    -0.191414896288E+03   -0.24206E-04   -0.35703E-04  8040   0.119E-01
  70 F= -.19141490E+03 E0= -.19131069E+03  d E =0.201859E-02
       N       E                     dE             d eps       ncg     rms          rms(c)
DAV:   1    -0.191417793628E+03   -0.29215E-02   -0.21394E-01  8160   0.991E-01    0.113E-01
DAV:   2    -0.191418678798E+03   -0.88517E-03   -0.77314E-03 12920   0.357E-01    0.255E-01
DAV:   3    -0.191418202662E+03    0.47614E-03   -0.20683E-03 10120   0.302E-01    0.131E-01
DAV:   4    -0.191418137590E+03    0.65072E-04   -0.65451E-04  8160   0.165E-01
  71 F= -.19141814E+03 E0= -.19131406E+03  d E =-.324130E-02
       N       E                     dE             d eps       ncg     rms          rms(c)
DAV:   1    -0.191418676386E+03   -0.47372E-03   -0.69694E-03  9120   0.214E-01    0.594E-02
DAV:   2    -0.191419284468E+03   -0.60808E-03   -0.13089E-03 10360   0.256E-01    0.242E-01
DAV:   3    -0.191418633024E+03    0.65144E-03   -0.90528E-04  9000   0.220E-01    0.447E-02
DAV:   4    -0.191418662363E+03   -0.29339E-04   -0.11330E-04  5520   0.746E-02
  72 F= -.19141866E+03 E0= -.19131423E+03  d E =-.524773E-03
       N       E                     dE             d eps       ncg     rms          rms(c)
DAV:   1    -0.191423084029E+03   -0.44510E-02   -0.32265E-01  8160   0.122E+00    0.143E-01
DAV:   2    -0.191424182605E+03   -0.10986E-02   -0.91768E-03 12960   0.380E-01    0.279E-01
DAV:   3    -0.191423666944E+03    0.51566E-03   -0.29725E-03 11880   0.379E-01    0.200E-01
DAV:   4    -0.191423348199E+03    0.31874E-03   -0.88969E-04  8880   0.190E-01    0.879E-02
DAV:   5    -0.191423361976E+03   -0.13778E-04   -0.44453E-04  8760   0.147E-01
  73 F= -.19142336E+03 E0= -.19131887E+03  d E =-.469961E-02
       N       E                     dE             d eps       ncg     rms          rms(c)
DAV:   1    -0.191413622125E+03    0.97261E-02   -0.13598E+00  8160   0.250E+00    0.272E-01
DAV:   2    -0.191418804216E+03   -0.51821E-02   -0.40873E-02 13480   0.794E-01    0.620E-01
DAV:   3    -0.191416038577E+03    0.27656E-02   -0.13894E-02 11640   0.754E-01    0.365E-01
DAV:   4    -0.191415236386E+03    0.80219E-03   -0.39241E-03 10440   0.369E-01    0.219E-01
DAV:   5    -0.191414925894E+03    0.31049E-03   -0.17400E-03  9760   0.306E-01    0.169E-01
DAV:   6    -0.191414607702E+03    0.31819E-03   -0.85587E-04 10360   0.188E-01    0.560E-02
DAV:   7    -0.191414689459E+03   -0.81757E-04   -0.36592E-04  7760   0.122E-01
  74 F= -.19141469E+03 E0= -.19131075E+03  d E =0.867252E-02
       N       E                     dE             d eps       ncg     rms          rms(c)
DAV:   1    -0.191411522335E+03    0.30854E-02   -0.40166E-01  8160   0.135E+00    0.143E-01
DAV:   2    -0.191412313482E+03   -0.79115E-03   -0.99776E-03 13160   0.301E-01    0.199E-01
DAV:   3    -0.191412456911E+03   -0.14343E-03   -0.29889E-03 11680   0.348E-01    0.263E-01
DAV:   4    -0.191411905882E+03    0.55103E-03   -0.13626E-03  9360   0.228E-01    0.877E-02
DAV:   5    -0.191411879376E+03    0.26506E-04   -0.32687E-04  7800   0.120E-01
  75 F= -.19141188E+03 E0= -.19130821E+03  d E =0.281008E-02
       N       E                     dE             d eps       ncg     rms          rms(c)
DAV:   1    -0.191412477881E+03   -0.57200E-03   -0.17761E-01  8160   0.883E-01    0.104E-01
DAV:   2    -0.191413618870E+03   -0.11410E-02   -0.51740E-03 13440   0.340E-01    0.294E-01
DAV:   3    -0.191412662060E+03    0.95681E-03   -0.19209E-03  9920   0.322E-01    0.884E-02
DAV:   4    -0.191412740042E+03   -0.77983E-04   -0.45848E-04  8320   0.138E-01
  76 F= -.19141274E+03 E0= -.19130987E+03  d E =-.860666E-03
       N       E                     dE             d eps       ncg     rms          rms(c)
DAV:   1    -0.191413555018E+03   -0.89296E-03   -0.43809E-01  8160   0.139E+00    0.134E-01
DAV:   2    -0.191415499976E+03   -0.19450E-02   -0.10424E-02 13040   0.461E-01    0.384E-01
DAV:   3    -0.191414004239E+03    0.14957E-02   -0.35749E-03 11360   0.411E-01    0.134E-01
DAV:   4    -0.191414055815E+03   -0.51576E-04   -0.93816E-04  8440   0.191E-01
  77 F= -.19141406E+03 E0= -.19130999E+03  d E =-.131577E-02
       N       E                     dE             d eps       ncg     rms          rms(c)
DAV:   1    -0.191415546617E+03   -0.15424E-02   -0.16738E-01  8160   0.884E-01    0.125E-01
DAV:   2    -0.191417568498E+03   -0.20219E-02   -0.76793E-03 13560   0.450E-01    0.418E-01
DAV:   3    -0.191415780019E+03    0.17885E-02   -0.38274E-03 11040   0.439E-01    0.126E-01
DAV:   4    -0.191415723162E+03    0.56857E-04   -0.55715E-04  8240   0.147E-01
  78 F= -.19141572E+03 E0= -.19131248E+03  d E =-.166735E-02
       N       E                     dE             d eps       ncg     rms          rms(c)
DAV:   1    -0.191417183007E+03   -0.14030E-02   -0.10068E-01  8160   0.688E-01    0.104E-01
DAV:   2    -0.191418240612E+03   -0.10576E-02   -0.42854E-03 13560   0.334E-01    0.316E-01
DAV:   3    -0.191417271658E+03    0.96895E-03   -0.24780E-03 10120   0.337E-01    0.121E-01
DAV:   4    -0.191417226373E+03    0.45285E-04   -0.52423E-04  8080   0.138E-01
  79 F= -.19141723E+03 E0= -.19131329E+03  d E =-.150321E-02
       N       E                     dE             d eps       ncg     rms          rms(c)
DAV:   1    -0.191419223671E+03   -0.19520E-02   -0.10274E-01  8160   0.704E-01    0.112E-01
DAV:   2    -0.191420187759E+03   -0.96409E-03   -0.50169E-03 13560   0.311E-01    0.283E-01
DAV:   3    -0.191419411421E+03    0.77634E-03   -0.25268E-03  9880   0.331E-01    0.145E-01
DAV:   4    -0.191419304672E+03    0.10675E-03   -0.67406E-04  8160   0.156E-01    0.101E-01
DAV:   5    -0.191419250273E+03    0.54399E-04   -0.34617E-04  8000   0.134E-01
  80 F= -.19141925E+03 E0= -.19131563E+03  d E =-.202390E-02
       N       E                     dE             d eps       ncg     rms          rms(c)
DAV:   1    -0.191418944658E+03    0.36001E-03   -0.10122E-01  8160   0.683E-01    0.109E-01
DAV:   2    -0.191419207102E+03   -0.26244E-03   -0.35971E-03 12560   0.259E-01    0.198E-01
DAV:   3    -0.191418974686E+03    0.23242E-03   -0.17349E-03  9960   0.272E-01    0.158E-01
DAV:   4    -0.191418798649E+03    0.17604E-03   -0.78873E-04  8240   0.171E-01    0.896E-02
DAV:   5    -0.191418779364E+03    0.19284E-04   -0.38002E-04  7800   0.133E-01
  81 F= -.19141878E+03 E0= -.19131442E+03  d E =0.470909E-03
       N       E                     dE             d eps       ncg     rms          rms(c)
DAV:   1    -0.191422001389E+03   -0.32027E-02   -0.22049E-01  8160   0.101E+00    0.125E-01
DAV:   2    -0.191423263756E+03   -0.12624E-02   -0.81020E-03 13360   0.357E-01    0.321E-01
DAV:   3    -0.191422420159E+03    0.84360E-03   -0.30032E-03 10640   0.367E-01    0.153E-01
DAV:   4    -0.191422255374E+03    0.16479E-03   -0.60779E-04  8560   0.138E-01    0.779E-02
DAV:   5    -0.191422268131E+03   -0.12757E-04   -0.38038E-04  7880   0.128E-01
  82 F= -.19142227E+03 E0= -.19131787E+03  d E =-.348877E-02
       N       E                     dE             d eps       ncg     rms          rms(c)
DAV:   1    -0.191420107790E+03    0.21476E-02   -0.65167E-02  8160   0.560E-01    0.743E-02
DAV:   2    -0.191420946928E+03   -0.83914E-03   -0.34184E-03 12120   0.282E-01    0.285E-01
DAV:   3    -0.191420179825E+03    0.76710E-03   -0.16829E-03  9960   0.265E-01    0.673E-02
DAV:   4    -0.191420167987E+03    0.11838E-04   -0.17323E-04  6360   0.752E-02
  83 F= -.19142017E+03 E0= -.19131603E+03  d E =0.210014E-02
       N       E                     dE             d eps       ncg     rms          rms(c)
DAV:   1    -0.191426177523E+03   -0.59977E-02   -0.56996E-01  8160   0.163E+00    0.208E-01
DAV:   2    -0.191428905517E+03   -0.27280E-02   -0.21296E-02 12520   0.663E-01    0.450E-01
DAV:   3    -0.191426863300E+03    0.20422E-02   -0.55855E-03 11720   0.545E-01    0.179E-01
DAV:   4    -0.191426953791E+03   -0.90491E-04   -0.20426E-03  9680   0.282E-01    0.234E-01
DAV:   5    -0.191426537749E+03    0.41604E-03   -0.14650E-03  9360   0.258E-01    0.120E-01
DAV:   6    -0.191426431529E+03    0.10622E-03   -0.54546E-04  8320   0.129E-01    0.725E-02
DAV:   7    -0.191426510408E+03   -0.78879E-04   -0.46581E-04  8400   0.145E-01
  84 F= -.19142651E+03 E0= -.19132211E+03  d E =-.634242E-02
       N       E                     dE             d eps       ncg     rms          rms(c)
DAV:   1    -0.191427636914E+03   -0.12054E-02   -0.25484E-02  8160   0.354E-01    0.509E-02
DAV:   2    -0.191427994218E+03   -0.35730E-03   -0.13802E-03 12080   0.205E-01    0.182E-01
DAV:   3    -0.191427677688E+03    0.31653E-03   -0.61848E-04  8160   0.177E-01    0.375E-02
DAV:   4    -0.191427677961E+03   -0.27252E-06   -0.43643E-05  5440   0.362E-02
  85 F= -.19142768E+03 E0= -.19132314E+03  d E =-.116755E-02
       N       E                     dE             d eps       ncg     rms          rms(c)
DAV:   1    -0.191427074849E+03    0.60284E-03   -0.46712E-03  8160   0.150E-01    0.274E-02
DAV:   2    -0.191427281201E+03   -0.20635E-03   -0.50485E-04  9960   0.136E-01    0.148E-01
DAV:   3    -0.191427060929E+03    0.22027E-03   -0.35574E-04  7600   0.126E-01    0.137E-02
DAV:   4    -0.191427079775E+03   -0.18846E-04   -0.19399E-05  5800   0.237E-02
  86 F= -.19142708E+03 E0= -.19132264E+03  d E =0.598185E-03
       N       E                     dE             d eps       ncg     rms          rms(c)
DAV:   1    -0.191427646190E+03   -0.58526E-03   -0.20758E-02  8160   0.325E-01    0.825E-02
DAV:   2    -0.191427973911E+03   -0.32772E-03   -0.21404E-03 11360   0.252E-01    0.212E-01
DAV:   3    -0.191427558687E+03    0.41522E-03   -0.10748E-03  9320   0.228E-01    0.793E-02
DAV:   4    -0.191427606418E+03   -0.47732E-04   -0.42317E-04  8120   0.135E-01
  87 F= -.19142761E+03 E0= -.19132301E+03  d E =-.526643E-03
       N       E                     dE             d eps       ncg     rms          rms(c)
DAV:   1    -0.191432826078E+03   -0.52674E-02   -0.32057E-01  8160   0.122E+00    0.156E-01
DAV:   2    -0.191433987002E+03   -0.11609E-02   -0.10008E-02 13600   0.465E-01    0.311E-01
DAV:   3    -0.191433010328E+03    0.97667E-03   -0.27951E-03 11520   0.392E-01    0.131E-01
DAV:   4    -0.191433025159E+03   -0.14831E-04   -0.10911E-03  9920   0.201E-01    0.167E-01
DAV:   5    -0.191432859847E+03    0.16531E-03   -0.91615E-04  8640   0.198E-01    0.115E-01
DAV:   6    -0.191432728949E+03    0.13090E-03   -0.36632E-04  7720   0.110E-01    0.387E-02
DAV:   7    -0.191432767586E+03   -0.38636E-04   -0.16710E-04  5520   0.853E-02
  88 F= -.19143277E+03 E0= -.19132781E+03  d E =-.516117E-02
       N       E                     dE             d eps       ncg     rms          rms(c)
DAV:   1    -0.191418919761E+03    0.13809E-01   -0.21304E+00  8160   0.312E+00    0.335E-01
DAV:   2    -0.191425335389E+03   -0.64156E-02   -0.57796E-02 13040   0.889E-01    0.635E-01
DAV:   3    -0.191422706639E+03    0.26288E-02   -0.15778E-02 12280   0.869E-01    0.433E-01
DAV:   4    -0.191421769330E+03    0.93731E-03   -0.59367E-03 11480   0.485E-01    0.316E-01
DAV:   5    -0.191420937155E+03    0.83217E-03   -0.30019E-03 10120   0.390E-01    0.191E-01
DAV:   6    -0.191420739869E+03    0.19729E-03   -0.14758E-03 10320   0.237E-01    0.152E-01
DAV:   7    -0.191420875623E+03   -0.13575E-03   -0.14267E-03  9560   0.256E-01    0.187E-01
DAV:   8    -0.191420499230E+03    0.37639E-03   -0.56181E-04  8160   0.160E-01    0.171E-02
DAV:   9    -0.191420517149E+03   -0.17920E-04   -0.44269E-05  6160   0.246E-02
  89 F= -.19142052E+03 E0= -.19131657E+03  d E =0.122504E-01
       N       E                     dE             d eps       ncg     rms          rms(c)
DAV:   1    -0.191419306960E+03    0.11923E-02   -0.28181E-01  8160   0.112E+00    0.134E-01
DAV:   2    -0.191419656763E+03   -0.34980E-03   -0.73754E-03 13040   0.274E-01    0.138E-01
DAV:   3    -0.191419707870E+03   -0.51107E-04   -0.17127E-03 10320   0.261E-01    0.198E-01
DAV:   4    -0.191419447520E+03    0.26035E-03   -0.12525E-03  8720   0.229E-01    0.122E-01
DAV:   5    -0.191419351903E+03    0.95617E-04   -0.46227E-04  8000   0.136E-01
  90 F= -.19141935E+03 E0= -.19131633E+03  d E =0.116525E-02
       N       E                     dE             d eps       ncg     rms          rms(c)
DAV:   1    -0.191422289525E+03   -0.28420E-02   -0.19961E-01  8160   0.966E-01    0.126E-01
DAV:   2    -0.191423912461E+03   -0.16229E-02   -0.85989E-03 12760   0.409E-01    0.359E-01
DAV:   3    -0.191422654998E+03    0.12575E-02   -0.29370E-03 11080   0.390E-01    0.125E-01
DAV:   4    -0.191422605939E+03    0.49060E-04   -0.52707E-04  8200   0.150E-01
  91 F= -.19142261E+03 E0= -.19131913E+03  d E =-.325404E-02
       N       E                     dE             d eps       ncg     rms          rms(c)
DAV:   1    -0.191422609308E+03    0.45690E-04   -0.59911E-03  8160   0.207E-01    0.680E-02
DAV:   2    -0.191423492572E+03   -0.88326E-03   -0.18418E-03 10840   0.310E-01    0.291E-01
DAV:   3    -0.191422575030E+03    0.91754E-03   -0.14455E-03  9640   0.271E-01    0.628E-02
DAV:   4    -0.191422571303E+03    0.37269E-05   -0.11786E-04  5520   0.725E-02
  92 F= -.19142257E+03 E0= -.19131950E+03  d E =0.346356E-04
       N       E                     dE             d eps       ncg     rms          rms(c)
DAV:   1    -0.191426026489E+03   -0.34515E-02   -0.23432E-01  8160   0.104E+00    0.126E-01
DAV:   2    -0.191426834594E+03   -0.80811E-03   -0.79266E-03 12880   0.311E-01    0.220E-01
DAV:   3    -0.191426603770E+03    0.23082E-03   -0.21712E-03 11480   0.326E-01    0.186E-01
DAV:   4    -0.191426303132E+03    0.30064E-03   -0.69224E-04  8160   0.173E-01    0.708E-02
DAV:   5    -0.191426280445E+03    0.22688E-04   -0.25578E-04  6840   0.106E-01
  93 F= -.19142628E+03 E0= -.19132322E+03  d E =-.370914E-02
       N       E                     dE             d eps       ncg     rms          rms(c)
DAV:   1    -0.191422663231E+03    0.36399E-02   -0.23076E-01  8160   0.103E+00    0.120E-01
DAV:   2    -0.191424356649E+03   -0.16934E-02   -0.89513E-03 13560   0.395E-01    0.373E-01
DAV:   3    -0.191423112281E+03    0.12444E-02   -0.35285E-03 11200   0.391E-01    0.137E-01
DAV:   4    -0.191422976042E+03    0.13624E-03   -0.58490E-04  8280   0.130E-01    0.670E-02
DAV:   5    -0.191422963139E+03    0.12903E-04   -0.23850E-04  7600   0.104E-01
  94 F= -.19142296E+03 E0= -.19131960E+03  d E =0.331731E-02
       N       E                     dE             d eps       ncg     rms          rms(c)
DAV:   1    -0.191417144802E+03    0.58312E-02   -0.10747E+00  8160   0.222E+00    0.251E-01
DAV:   2    -0.191420510027E+03   -0.33652E-02   -0.31685E-02 13120   0.602E-01    0.454E-01
DAV:   3    -0.191419479920E+03    0.10301E-02   -0.89439E-03 12440   0.648E-01    0.373E-01
DAV:   4    -0.191418354018E+03    0.11259E-02   -0.30045E-03 10880   0.340E-01    0.155E-01
DAV:   5    -0.191418299441E+03    0.54577E-04   -0.13875E-03 10080   0.239E-01    0.185E-01
DAV:   6    -0.191418096716E+03    0.20273E-03   -0.12001E-03  9000   0.228E-01    0.120E-01
DAV:   7    -0.191418142945E+03   -0.46229E-04   -0.70409E-04  8160   0.177E-01
  95 F= -.19141814E+03 E0= -.19131376E+03  d E =0.482019E-02
       N       E                     dE             d eps       ncg     rms          rms(c)
DAV:   1    -0.191417998049E+03    0.98667E-04   -0.69229E-04  9520   0.141E-01    0.248E-02
DAV:   2    -0.191418081659E+03   -0.83610E-04   -0.18675E-04  7800   0.936E-02
  96 F= -.19141808E+03 E0= -.19131378E+03  d E =0.612866E-04
       N       E                     dE             d eps       ncg     rms          rms(c)
DAV:   1    -0.191422356848E+03   -0.43588E-02   -0.56157E-01  8160   0.161E+00    0.203E-01
DAV:   2    -0.191426306399E+03   -0.39496E-02   -0.24036E-02 12680   0.642E-01    0.582E-01
DAV:   3    -0.191423605774E+03    0.27006E-02   -0.90452E-03 10920   0.602E-01    0.230E-01
DAV:   4    -0.191423307145E+03    0.29863E-03   -0.17440E-03  9560   0.231E-01    0.149E-01
DAV:   5    -0.191423151683E+03    0.15546E-03   -0.88131E-04  9880   0.205E-01    0.126E-01
DAV:   6    -0.191423039489E+03    0.11219E-03   -0.55534E-04  8360   0.156E-01    0.816E-02
DAV:   7    -0.191423094447E+03   -0.54958E-04   -0.40789E-04  8080   0.146E-01
  97 F= -.19142309E+03 E0= -.19131937E+03  d E =-.501279E-02
       N       E                     dE             d eps       ncg     rms          rms(c)
DAV:   1    -0.191422827258E+03    0.21223E-03   -0.10219E-01  8160   0.675E-01    0.631E-02
DAV:   2    -0.191423112611E+03   -0.28535E-03   -0.21636E-03 12840   0.173E-01    0.131E-01
DAV:   3    -0.191422957781E+03    0.15483E-03   -0.56057E-04  8400   0.162E-01    0.741E-02
DAV:   4    -0.191422954697E+03    0.30835E-05   -0.23770E-04  6360   0.938E-02
  98 F= -.19142295E+03 E0= -.19131864E+03  d E =0.139750E-03
       N       E                     dE             d eps       ncg     rms          rms(c)
DAV:   1    -0.191426845615E+03   -0.38878E-02   -0.24791E-01  8160   0.108E+00    0.123E-01
DAV:   2    -0.191427369842E+03   -0.52423E-03   -0.74897E-03 11640   0.253E-01    0.143E-01
DAV:   3    -0.191427554527E+03   -0.18469E-03   -0.17808E-03 11440   0.288E-01    0.219E-01
DAV:   4    -0.191427116066E+03    0.43846E-03   -0.79638E-04  8320   0.199E-01    0.642E-02
DAV:   5    -0.191427101695E+03    0.14371E-04   -0.19633E-04  6200   0.943E-02
  99 F= -.19142710E+03 E0= -.19132263E+03  d E =-.414700E-02
       N       E                     dE             d eps       ncg     rms          rms(c)
DAV:   1    -0.191419675864E+03    0.74402E-02   -0.73658E-01  8160   0.185E+00    0.212E-01
DAV:   2    -0.191422000876E+03   -0.23250E-02   -0.24235E-02 10960   0.498E-01    0.348E-01
DAV:   3    -0.191421570381E+03    0.43050E-03   -0.67788E-03 12320   0.545E-01    0.335E-01
DAV:   4    -0.191420810835E+03    0.75955E-03   -0.28391E-03 10200   0.330E-01    0.182E-01
DAV:   5    -0.191420595142E+03    0.21569E-03   -0.11699E-03  9520   0.239E-01    0.130E-01
DAV:   6    -0.191420426320E+03    0.16882E-03   -0.53570E-04  8840   0.145E-01    0.662E-02
DAV:   7    -0.191420558146E+03   -0.13183E-03   -0.48346E-04  8160   0.153E-01    0.133E-01
DAV:   8    -0.191420374348E+03    0.18380E-03   -0.27045E-04  6440   0.119E-01    0.149E-02
DAV:   9    -0.191420385460E+03   -0.11112E-04   -0.25020E-05  5480   0.199E-02
 100 F= -.19142039E+03 E0= -.19131601E+03  d E =0.671623E-02
