<?xml version="1.0" encoding="ISO-8859-1"?>
<modeling>
 <generator>
  <i name="program" type="string">vasp </i>
  <i name="version" type="string">5.4.1  </i>
  <i name="subversion" type="string">05Feb16 (build Jul 05 2020 17:13:04) complex                          parallel </i>
  <i name="platform" type="string">IFC91_ompi </i>
  <i name="date" type="string">2024 04 22 </i>
  <i name="time" type="string">03:29:01 </i>
 </generator>
 <incar>
  <i type="int" name="ISTART">     0</i>
  <i type="string" name="PREC">normal</i>
  <i type="string" name="ALGO"> Normal</i>
  <i type="int" name="ISPIN">     1</i>
  <i type="int" name="ICHARG">     2</i>
  <i type="int" name="IBRION">     1</i>
  <i type="int" name="NSW">   100</i>
  <i type="int" name="ISIF">     3</i>
  <i type="int" name="ISYM">     0</i>
  <i name="SYMPREC">      0.00000001</i>
  <i name="POTIM">      0.50000000</i>
  <i type="logical" name="LREAL"> F  </i>
  <i type="logical" name="LPLANE"> F  </i>
  <i type="int" name="ISMEAR">     0</i>
  <i type="logical" name="LWAVE"> F  </i>
  <i type="logical" name="LCHARG"> F  </i>
  <v type="int" name="KPOINT_BSE">    -1     0     0     0</v>
 </incar>
 <kpoints>
  <generation param="Gamma">
   <v type="int" name="divisions">       8        8        1 </v>
   <v name="usershift">      0.00000000       0.00000000       0.00000000 </v>
   <v name="genvec1">      0.12500000       0.00000000       0.00000000 </v>
   <v name="genvec2">     -0.00000000       0.12500000       0.00000000 </v>
   <v name="genvec3">      0.00000000       0.00000000       1.00000000 </v>
   <v name="shift">      0.00000000       0.00000000       0.00000000 </v>
  </generation>
  <varray name="kpointlist" >
   <v>       0.00000000       0.00000000       0.00000000 </v>
   <v>       0.12500000       0.00000000       0.00000000 </v>
   <v>       0.25000000       0.00000000       0.00000000 </v>
   <v>       0.37500000       0.00000000       0.00000000 </v>
   <v>       0.50000000       0.00000000       0.00000000 </v>
   <v>       0.00000000       0.12500000       0.00000000 </v>
   <v>       0.12500000       0.12500000       0.00000000 </v>
   <v>       0.25000000       0.12500000       0.00000000 </v>
   <v>       0.37500000       0.12500000       0.00000000 </v>
   <v>       0.50000000       0.12500000       0.00000000 </v>
   <v>      -0.37500000       0.12500000       0.00000000 </v>
   <v>      -0.25000000       0.12500000       0.00000000 </v>
   <v>      -0.12500000       0.12500000       0.00000000 </v>
   <v>       0.00000000       0.25000000       0.00000000 </v>
   <v>       0.12500000       0.25000000       0.00000000 </v>
   <v>       0.25000000       0.25000000       0.00000000 </v>
   <v>       0.37500000       0.25000000       0.00000000 </v>
   <v>       0.50000000       0.25000000       0.00000000 </v>
   <v>      -0.37500000       0.25000000       0.00000000 </v>
   <v>      -0.25000000       0.25000000       0.00000000 </v>
   <v>      -0.12500000       0.25000000       0.00000000 </v>
   <v>      -0.00000000       0.37500000       0.00000000 </v>
   <v>       0.12500000       0.37500000       0.00000000 </v>
   <v>       0.25000000       0.37500000       0.00000000 </v>
   <v>       0.37500000       0.37500000       0.00000000 </v>
   <v>       0.50000000       0.37500000       0.00000000 </v>
   <v>      -0.37500000       0.37500000       0.00000000 </v>
   <v>      -0.25000000       0.37500000       0.00000000 </v>
   <v>      -0.12500000       0.37500000       0.00000000 </v>
   <v>       0.00000000       0.50000000       0.00000000 </v>
   <v>       0.12500000       0.50000000       0.00000000 </v>
   <v>       0.25000000       0.50000000       0.00000000 </v>
   <v>       0.37500000       0.50000000       0.00000000 </v>
   <v>       0.50000000       0.50000000       0.00000000 </v>
  </varray>
  <varray name="weights" >
   <v>       0.01562500 </v>
   <v>       0.03125000 </v>
   <v>       0.03125000 </v>
   <v>       0.03125000 </v>
   <v>       0.01562500 </v>
   <v>       0.03125000 </v>
   <v>       0.03125000 </v>
   <v>       0.03125000 </v>
   <v>       0.03125000 </v>
   <v>       0.03125000 </v>
   <v>       0.03125000 </v>
   <v>       0.03125000 </v>
   <v>       0.03125000 </v>
   <v>       0.03125000 </v>
   <v>       0.03125000 </v>
   <v>       0.03125000 </v>
   <v>       0.03125000 </v>
   <v>       0.03125000 </v>
   <v>       0.03125000 </v>
   <v>       0.03125000 </v>
   <v>       0.03125000 </v>
   <v>       0.03125000 </v>
   <v>       0.03125000 </v>
   <v>       0.03125000 </v>
   <v>       0.03125000 </v>
   <v>       0.03125000 </v>
   <v>       0.03125000 </v>
   <v>       0.03125000 </v>
   <v>       0.03125000 </v>
   <v>       0.01562500 </v>
   <v>       0.03125000 </v>
   <v>       0.03125000 </v>
   <v>       0.03125000 </v>
   <v>       0.01562500 </v>
  </varray>
 </kpoints>
 <parameters>
  <separator name="general" >
   <i type="string" name="SYSTEM">unknown system</i>
   <i type="logical" name="LCOMPAT"> F  </i>
  </separator>
  <separator name="electronic" >
   <i type="string" name="PREC">normal</i>
   <i name="ENMAX">    280.00000000</i>
   <i name="ENAUG">    373.43800000</i>
   <i name="EDIFF">      0.00010000</i>
   <i type="int" name="IALGO">    38</i>
   <i type="int" name="IWAVPR">    11</i>
   <i type="int" name="NBANDS">   120</i>
   <i name="NELECT">    159.00000000</i>
   <i type="int" name="TURBO">     0</i>
   <i type="int" name="IRESTART">     0</i>
   <i type="int" name="NREBOOT">     0</i>
   <i type="int" name="NMIN">     0</i>
   <i name="EREF">      0.00000000</i>
   <separator name="electronic smearing" >
    <i type="int" name="ISMEAR">     0</i>
    <i name="SIGMA">      0.20000000</i>
    <i name="KSPACING">      0.50000000</i>
    <i type="logical" name="KGAMMA"> T  </i>
   </separator>
   <separator name="electronic projectors" >
    <i type="logical" name="LREAL"> F  </i>
    <v name="ROPT">      0.00000000      0.00000000      0.00000000      0.00000000</v>
    <i type="int" name="LMAXPAW">  -100</i>
    <i type="int" name="LMAXMIX">     2</i>
    <i type="logical" name="NLSPLINE"> F  </i>
   </separator>
   <separator name="electronic startup" >
    <i type="int" name="ISTART">     0</i>
    <i type="int" name="ICHARG">     2</i>
    <i type="int" name="INIWAV">     1</i>
   </separator>
   <separator name="electronic spin" >
    <i type="int" name="ISPIN">     1</i>
    <i type="logical" name="LNONCOLLINEAR"> F  </i>
    <v name="MAGMOM">      1.00000000      1.00000000      1.00000000      1.00000000      1.00000000      1.00000000      1.00000000      1.00000000      1.00000000      1.00000000      1.00000000      1.00000000      1.00000000      1.00000000      1.00000000      1.00000000      1.00000000      1.00000000      1.00000000      1.00000000
      1.00000000      1.00000000      1.00000000      1.00000000      1.00000000      1.00000000      1.00000000</v>
    <i name="NUPDOWN">     -1.00000000</i>
    <i type="logical" name="LSORBIT"> F  </i>
    <v name="SAXIS">      0.00000000      0.00000000      1.00000000</v>
    <i type="logical" name="LSPIRAL"> F  </i>
    <v name="QSPIRAL">      0.00000000      0.00000000      0.00000000</v>
    <i type="logical" name="LZEROZ"> F  </i>
   </separator>
   <separator name="electronic exchange-correlation" >
    <i type="logical" name="LASPH"> F  </i>
    <i type="logical" name="LMETAGGA"> F  </i>
   </separator>
   <separator name="electronic convergence" >
    <i type="int" name="NELM">    60</i>
    <i type="int" name="NELMDL">    -5</i>
    <i type="int" name="NELMIN">     2</i>
    <i name="ENINI">    280.00000000</i>
    <separator name="electronic convergence detail" >
     <i type="logical" name="LDIAG"> T  </i>
     <i type="logical" name="LSUBROT"> F  </i>
     <i name="WEIMIN">      0.00100000</i>
     <i name="EBREAK">      0.00000021</i>
     <i name="DEPER">      0.30000000</i>
     <i type="int" name="NRMM">     4</i>
     <i name="TIME">      0.40000000</i>
    </separator>
   </separator>
   <separator name="electronic mixer" >
    <i name="AMIX">      0.40000000</i>
    <i name="BMIX">      1.00000000</i>
    <i name="AMIN">      0.10000000</i>
    <i name="AMIX_MAG">      1.60000000</i>
    <i name="BMIX_MAG">      1.00000000</i>
    <separator name="electronic mixer details" >
     <i type="int" name="IMIX">     4</i>
     <i type="logical" name="MIXFIRST"> F  </i>
     <i type="int" name="MAXMIX">   -45</i>
     <i name="WC">    100.00000000</i>
     <i type="int" name="INIMIX">     1</i>
     <i type="int" name="MIXPRE">     1</i>
     <i type="int" name="MREMOVE">     5</i>
    </separator>
   </separator>
   <separator name="electronic dipolcorrection" >
    <i type="logical" name="LDIPOL"> F  </i>
    <i type="logical" name="LMONO"> F  </i>
    <i type="int" name="IDIPOL">     0</i>
    <i name="EPSILON">      1.00000000</i>
    <v name="DIPOL">   -100.00000000   -100.00000000   -100.00000000</v>
    <i name="EFIELD">      0.00000000</i>
   </separator>
  </separator>
  <separator name="grids" >
   <i type="int" name="NGX">    42</i>
   <i type="int" name="NGY">    42</i>
   <i type="int" name="NGZ">   126</i>
   <i type="int" name="NGXF">    84</i>
   <i type="int" name="NGYF">    84</i>
   <i type="int" name="NGZF">   252</i>
   <i type="logical" name="ADDGRID"> F  </i>
  </separator>
  <separator name="ionic" >
   <i type="int" name="NSW">   100</i>
   <i type="int" name="IBRION">     1</i>
   <i type="int" name="ISIF">     3</i>
   <i name="PSTRESS">      0.00000000</i>
   <i name="EDIFFG">      0.00100000</i>
   <i type="int" name="NFREE">     0</i>
   <i name="POTIM">      0.50000000</i>
   <i name="SMASS">     -3.00000000</i>
   <i name="SCALEE">      1.00000000</i>
  </separator>
  <separator name="ionic md" >
   <i name="TEBEG">      0.00010000</i>
   <i name="TEEND">      0.00010000</i>
   <i type="int" name="NBLOCK">     1</i>
   <i type="int" name="KBLOCK">   100</i>
   <i type="int" name="NPACO">   256</i>
   <i name="APACO">     16.00000000</i>
  </separator>
  <separator name="symmetry" >
   <i type="int" name="ISYM">     0</i>
   <i name="SYMPREC">      0.00000001</i>
  </separator>
  <separator name="dos" >
   <i type="logical" name="LORBIT"> F  </i>
   <v name="RWIGS">     -1.00000000     -1.00000000     -1.00000000     -1.00000000</v>
   <i type="int" name="NEDOS">   301</i>
   <i name="EMIN">     10.00000000</i>
   <i name="EMAX">    -10.00000000</i>
   <i name="EFERMI">      0.00000000</i>
  </separator>
  <separator name="writing" >
   <i type="int" name="NWRITE">     2</i>
   <i type="logical" name="LWAVE"> F  </i>
   <i type="logical" name="LCHARG"> F  </i>
   <i type="logical" name="LPARD"> F  </i>
   <i type="logical" name="LVTOT"> F  </i>
   <i type="logical" name="LVHAR"> F  </i>
   <i type="logical" name="LELF"> F  </i>
   <i type="logical" name="LOPTICS"> F  </i>
   <v name="STM">      0.00000000      0.00000000      0.00000000      0.00000000      0.00000000      0.00000000      0.00000000</v>
  </separator>
  <separator name="performance" >
   <i type="int" name="NPAR">    40</i>
   <i type="int" name="NSIM">     4</i>
   <i type="int" name="NBLK">    -1</i>
   <i type="logical" name="LPLANE"> F  </i>
   <i type="logical" name="LSCALAPACK"> T  </i>
   <i type="logical" name="LSCAAWARE"> F  </i>
   <i type="logical" name="LSCALU"> F  </i>
   <i type="logical" name="LASYNC"> F  </i>
   <i type="logical" name="LORBITALREAL"> F  </i>
  </separator>
  <separator name="miscellaneous" >
   <i type="int" name="IDIOT">     3</i>
   <i type="logical" name="LMUSIC"> F  </i>
   <v name="POMASS">     50.94100000     95.94000000    183.85000000     32.06600000</v>
   <v name="DARWINR">      0.00000000      0.00000000      0.00000000      0.00000000</v>
   <v name="DARWINV">      1.00000000      1.00000000      1.00000000      1.00000000</v>
   <i type="logical" name="LCORR"> T  </i>
  </separator>
  <i type="logical" name="GGA_COMPAT"> T  </i>
  <i type="logical" name="LBERRY"> F  </i>
  <i type="int" name="ICORELEVEL">     0</i>
  <i type="logical" name="LDAU"> F  </i>
  <i type="int" name="I_CONSTRAINED_M">     0</i>
  <separator name="electronic exchange-correlation" >
   <i type="string" name="GGA">--</i>
   <i type="int" name="VOSKOWN">     0</i>
   <i type="logical" name="LHFCALC"> F  </i>
   <i type="string" name="PRECFOCK"></i>
   <i type="logical" name="LSYMGRAD"> F  </i>
   <i type="logical" name="LHFONE"> F  </i>
   <i type="logical" name="LRHFCALC"> F  </i>
   <i type="logical" name="LTHOMAS"> F  </i>
   <i type="logical" name="LMODELHF"> F  </i>
   <i name="ENCUT4O">     -1.00000000</i>
   <i type="int" name="EXXOEP">     0</i>
   <i type="int" name="FOURORBIT">     0</i>
   <i name="AEXX">      0.00000000</i>
   <i name="HFALPHA">      0.00000000</i>
   <i name="MCALPHA">      0.00000000</i>
   <i name="ALDAX">      1.00000000</i>
   <i name="AGGAX">      1.00000000</i>
   <i name="ALDAC">      1.00000000</i>
   <i name="AGGAC">      1.00000000</i>
   <i type="int" name="NKREDX">     1</i>
   <i type="int" name="NKREDY">     1</i>
   <i type="int" name="NKREDZ">     1</i>
   <i type="logical" name="SHIFTRED"> F  </i>
   <i type="logical" name="ODDONLY"> F  </i>
   <i type="logical" name="EVENONLY"> F  </i>
   <i type="int" name="LMAXFOCK">     0</i>
   <i type="int" name="NMAXFOCKAE">     0</i>
   <i type="logical" name="LFOCKAEDFT"> F  </i>
   <i name="HFSCREEN">      0.00000000</i>
   <i name="HFSCREENC">      0.00000000</i>
   <i type="int" name="NBANDSGWLOW">     0</i>
  </separator>
  <separator name="vdW DFT" >
   <i type="logical" name="LUSE_VDW"> F  </i>
   <i name="Zab_VDW">     -0.84910000</i>
   <i name="PARAM1">      0.12340000</i>
   <i name="PARAM2">      1.00000000</i>
   <i name="PARAM3">      0.00000000</i>
  </separator>
  <separator name="model GW" >
   <i type="int" name="MODEL_GW">     0</i>
   <i name="MODEL_EPS0">     58.26239943</i>
   <i name="MODEL_ALPHA">      1.00000000</i>
  </separator>
  <separator name="linear response parameters" >
   <i type="logical" name="LEPSILON"> F  </i>
   <i type="logical" name="LRPA"> F  </i>
   <i type="logical" name="LNABLA"> F  </i>
   <i type="logical" name="LVEL"> F  </i>
   <i type="int" name="KINTER">     0</i>
   <i name="CSHIFT">      0.10000000</i>
   <i name="OMEGAMAX">     -1.00000000</i>
   <i name="DEG_THRESHOLD">      0.00200000</i>
  </separator>
  <separator name="orbital magnetization" >
   <i type="logical" name="NUCIND"> F  </i>
   <v name="MAGPOS">      0.00000000      0.00000000      0.00000000</v>
   <i type="logical" name="LNICSALL"> T  </i>
   <i type="logical" name="ORBITALMAG"> F  </i>
   <i type="logical" name="LMAGBLOCH"> F  </i>
   <i type="logical" name="LCHIMAG"> F  </i>
   <i type="logical" name="LGAUGE"> T  </i>
   <i type="int" name="MAGATOM">     0</i>
   <v name="MAGDIPOL">      0.00000000      0.00000000      0.00000000</v>
   <v name="AVECCONST">      0.00000000      0.00000000      0.00000000</v>
  </separator>
  <separator name="response functions" >
   <i type="logical" name="LADDER"> F  </i>
   <i type="logical" name="LFXC"> F  </i>
   <i type="logical" name="LHARTREE"> T  </i>
   <i type="int" name="IBSE">     0</i>
   <v type="int" name="KPOINT">    -1     0     0     0</v>
   <i type="logical" name="LTCTE"> F  </i>
   <i type="logical" name="LTETE"> F  </i>
   <i type="logical" name="LTRIPLET"> F  </i>
   <i type="logical" name="LFXCEPS"> F  </i>
   <i type="logical" name="LFXHEG"> F  </i>
   <i type="int" name="NATURALO">     0</i>
   <i type="logical" name="L2ORDER"> F  </i>
   <i type="logical" name="LUSEW"> F  </i>
   <i name="ENCUTGW">     -2.00000000</i>
   <i name="ENCUTGWSOFT">     -2.00000000</i>
   <i name="ENCUTLF">     -1.00000000</i>
   <i type="int" name="LMAXMP2">    -1</i>
   <i name="SCISSOR">      0.00000000</i>
   <i type="int" name="NOMEGA">     0</i>
   <i type="int" name="NOMEGAR">     0</i>
   <i type="int" name="NBANDSGW">    -1</i>
   <i type="int" name="NBANDSO">    -1</i>
   <i type="int" name="NBANDSV">    -1</i>
   <i type="int" name="NELM">     1</i>
   <i type="int" name="NELMHF">     1</i>
   <i type="int" name="DIM">     3</i>
   <i type="int" name="ANTIRES">     0</i>
   <i name="OMEGAMAX">    -30.00000000</i>
   <i name="OMEGAMIN">    -30.00000000</i>
   <i name="OMEGATL">   -200.00000000</i>
   <i type="int" name="OMEGAGRID">     0</i>
   <i name="CSHIFT">     -0.10000000</i>
   <i type="logical" name="SELFENERGY"> F  </i>
   <i type="logical" name="LSPECTRAL"> F  </i>
   <i type="logical" name="LSPECTRALGW"> F  </i>
   <i type="logical" name="LSINGLES"> F  </i>
   <i type="logical" name="LFERMIGW"> F  </i>
   <i type="logical" name="ODDONLYGW"> F  </i>
   <i type="logical" name="EVENONLYGW"> F  </i>
   <i type="int" name="NKREDLFX">     1</i>
   <i type="int" name="NKREDLFY">     1</i>
   <i type="int" name="NKREDLFZ">     1</i>
   <i type="int" name="MAXMEM">  1800</i>
   <i type="int" name="TELESCOPE">     0</i>
   <i type="int" name="TAUPAR">     1</i>
   <i type="int" name="OMEGAPAR">    -1</i>
   <i name="LAMBDA">      1.00000000</i>
  </separator>
  <separator name="External order field" >
   <i name="OFIELD_KAPPA">      0.00000000</i>
   <v name="OFIELD_K">      0.00000000      0.00000000      0.00000000</v>
   <i name="OFIELD_Q6_NEAR">      0.00000000</i>
   <i name="OFIELD_Q6_FAR">      0.00000000</i>
   <i name="OFIELD_A">      0.00000000</i>
  </separator>
 </parameters>
 <atominfo>
  <atoms>      27 </atoms>
  <types>       4 </types>
  <array name="atoms" >
   <dimension dim="1">ion</dimension>
   <field type="string">element</field>
   <field type="int">atomtype</field>
   <set>
    <rc><c>V </c><c>   1</c></rc>
    <rc><c>V </c><c>   1</c></rc>
    <rc><c>V </c><c>   1</c></rc>
    <rc><c>Mo</c><c>   2</c></rc>
    <rc><c>Mo</c><c>   2</c></rc>
    <rc><c>Mo</c><c>   2</c></rc>
    <rc><c>W </c><c>   3</c></rc>
    <rc><c>W </c><c>   3</c></rc>
    <rc><c>W </c><c>   3</c></rc>
    <rc><c>S </c><c>   4</c></rc>
    <rc><c>S </c><c>   4</c></rc>
    <rc><c>S </c><c>   4</c></rc>
    <rc><c>S </c><c>   4</c></rc>
    <rc><c>S </c><c>   4</c></rc>
    <rc><c>S </c><c>   4</c></rc>
    <rc><c>S </c><c>   4</c></rc>
    <rc><c>S </c><c>   4</c></rc>
    <rc><c>S </c><c>   4</c></rc>
    <rc><c>S </c><c>   4</c></rc>
    <rc><c>S </c><c>   4</c></rc>
    <rc><c>S </c><c>   4</c></rc>
    <rc><c>S </c><c>   4</c></rc>
    <rc><c>S </c><c>   4</c></rc>
    <rc><c>S </c><c>   4</c></rc>
    <rc><c>S </c><c>   4</c></rc>
    <rc><c>S </c><c>   4</c></rc>
    <rc><c>S </c><c>   4</c></rc>
   </set>
  </array>
  <array name="atomtypes" >
   <dimension dim="1">type</dimension>
   <field type="int">atomspertype</field>
   <field type="string">element</field>
   <field>mass</field>
   <field>valence</field>
   <field type="string">pseudopotential</field>
   <set>
    <rc><c>   3</c><c>V </c><c>     50.94100000</c><c>      5.00000000</c><c> PAW_PBE V 08Apr2002                    </c></rc>
    <rc><c>   3</c><c>Mo</c><c>     95.94000000</c><c>      6.00000000</c><c> PAW_PBE Mo 08Apr2002                   </c></rc>
    <rc><c>   3</c><c>W </c><c>    183.85000000</c><c>      6.00000000</c><c> PAW_PBE W 08Apr2002                    </c></rc>
    <rc><c>  18</c><c>S </c><c>     32.06600000</c><c>      6.00000000</c><c>  PAW_PBE S 17Jan2003                   </c></rc>
   </set>
  </array>
 </atominfo>
 <structure name="initialpos" >
  <crystal>
   <varray name="basis" >
    <v>       8.66999996       5.03999989       0.00000000 </v>
    <v>      -8.66999982       5.04000013       0.00000000 </v>
    <v>       0.00000000       0.00000000      30.00000000 </v>
   </varray>
   <i name="volume">   2621.80797419 </i>
   <varray name="rec_basis" >
    <v>       0.05767013       0.09920635       0.00000000 </v>
    <v>      -0.05767013       0.09920635       0.00000000 </v>
    <v>       0.00000000       0.00000000       0.03333333 </v>
   </varray>
  </crystal>
  <varray name="positions" >
   <v>       0.00000000       0.00000000       0.00000000 </v>
   <v>       0.66666669       0.00000000       0.00000000 </v>
   <v>       0.66666669       0.66666669       0.00000000 </v>
   <v>       0.66666669       0.33333334       0.00000000 </v>
   <v>       0.00000000       0.66666669       0.00000000 </v>
   <v>       0.33333334       0.66666669       0.00000000 </v>
   <v>       1.00000000       0.33333334       0.00000000 </v>
   <v>       0.33333334       0.00000000       0.00000000 </v>
   <v>       0.33333334       0.33333334       0.00000000 </v>
   <v>       0.11068511       0.22244981       0.95539999 </v>
   <v>       0.22244981       0.11068511       0.04460000 </v>
   <v>       0.11068511       0.55578315       0.95539999 </v>
   <v>       0.22244981       0.44401845       0.04460000 </v>
   <v>       0.11068511       0.88911647       0.95539999 </v>
   <v>       0.22244981       0.77735180       0.04460000 </v>
   <v>       0.44401845       0.22244981       0.95539999 </v>
   <v>       0.55578315       0.11068511       0.04460000 </v>
   <v>       0.44401845       0.55578315       0.95539999 </v>
   <v>       0.55578315       0.44401845       0.04460000 </v>
   <v>       0.44401845       0.88911647       0.95539999 </v>
   <v>       0.55578315       0.77735180       0.04460000 </v>
   <v>       0.77735180       0.22244981       0.95539999 </v>
   <v>       0.88911647       0.11068511       0.04460000 </v>
   <v>       0.77735180       0.55578315       0.95539999 </v>
   <v>       0.88911647       0.44401845       0.04460000 </v>
   <v>       0.77735180       0.88911647       0.95539999 </v>
   <v>       0.88911647       0.77735180       0.04460000 </v>
  </varray>
 </structure>
 <calculation>
  <scstep>
   <time name="dav">   21.71   21.77</time>
   <time name="total">   21.76   21.82</time>
   <energy>
    <i name="alphaZ">     81.65567618 </i>
    <i name="ewald">  41891.17176702 </i>
    <i name="hartreedc"> -47723.81645261 </i>
    <i name="XCdc">   -242.92502656 </i>
    <i name="pawpsdc">   3467.42045192 </i>
    <i name="pawaedc">  -2871.19716117 </i>
    <i name="eentropy">     -0.54958186 </i>
    <i name="bandstr">   -237.37706055 </i>
    <i name="atom">   6761.44252427 </i>
    <i name="e_fr_energy">   1125.82513664 </i>
    <i name="e_wo_entrp">   1126.37471851 </i>
    <i name="e_0_energy">   1126.09992757 </i>
   </energy>
  </scstep>
  <scstep>
   <time name="dav">   27.95   28.02</time>
   <time name="total">   27.95   28.03</time>
   <energy>
    <i name="e_fr_energy">     -2.06430238 </i>
    <i name="e_wo_entrp">     -1.86689560 </i>
    <i name="e_0_energy">     -1.96559899 </i>
   </energy>
  </scstep>
  <scstep>
   <time name="dav">   27.48   27.55</time>
   <time name="total">   27.48   27.55</time>
   <energy>
    <i name="e_fr_energy">   -199.60620353 </i>
    <i name="e_wo_entrp">   -199.34736178 </i>
    <i name="e_0_energy">   -199.47678266 </i>
   </energy>
  </scstep>
  <scstep>
   <time name="dav">   29.98   30.06</time>
   <time name="total">   29.99   30.06</time>
   <energy>
    <i name="e_fr_energy">   -208.96972514 </i>
    <i name="e_wo_entrp">   -208.67668982 </i>
    <i name="e_0_energy">   -208.82320748 </i>
   </energy>
  </scstep>
  <scstep>
   <time name="dav">   27.84   27.91</time>
   <time name="total">   28.32   28.39</time>
   <energy>
    <i name="e_fr_energy">   -209.29968198 </i>
    <i name="e_wo_entrp">   -209.01002362 </i>
    <i name="e_0_energy">   -209.15485280 </i>
   </energy>
  </scstep>
  <scstep>
   <time name="dav">   30.47   30.54</time>
   <time name="total">   30.97   31.05</time>
   <energy>
    <i name="e_fr_energy">   -237.72200060 </i>
    <i name="e_wo_entrp">   -237.46122075 </i>
    <i name="e_0_energy">   -237.59161067 </i>
   </energy>
  </scstep>
  <scstep>
   <time name="dav">   32.95   33.02</time>
   <time name="total">   33.45   33.54</time>
   <energy>
    <i name="e_fr_energy">   -196.62210836 </i>
    <i name="e_wo_entrp">   -196.29678084 </i>
    <i name="e_0_energy">   -196.45944460 </i>
   </energy>
  </scstep>
  <scstep>
   <time name="dav">   29.54   29.61</time>
   <time name="total">   30.05   30.13</time>
   <energy>
    <i name="e_fr_energy">   -189.63836956 </i>
    <i name="e_wo_entrp">   -189.33180967 </i>
    <i name="e_0_energy">   -189.48508961 </i>
   </energy>
  </scstep>
  <scstep>
   <time name="dav">   32.01   32.09</time>
   <time name="total">   32.53   32.62</time>
   <energy>
    <i name="e_fr_energy">   -188.21845565 </i>
    <i name="e_wo_entrp">   -187.88898187 </i>
    <i name="e_0_energy">   -188.05371876 </i>
   </energy>
  </scstep>
  <scstep>
   <time name="dav">   32.49   32.57</time>
   <time name="total">   33.02   33.11</time>
   <energy>
    <i name="e_fr_energy">   -186.95195561 </i>
    <i name="e_wo_entrp">   -186.59913161 </i>
    <i name="e_0_energy">   -186.77554361 </i>
   </energy>
  </scstep>
  <scstep>
   <time name="dav">   32.83   32.91</time>
   <time name="total">   33.37   33.45</time>
   <energy>
    <i name="e_fr_energy">   -187.04218078 </i>
    <i name="e_wo_entrp">   -186.70237747 </i>
    <i name="e_0_energy">   -186.87227913 </i>
   </energy>
  </scstep>
  <scstep>
   <time name="dav">   31.19   31.27</time>
   <time name="total">   31.73   31.81</time>
   <energy>
    <i name="e_fr_energy">   -186.98536888 </i>
    <i name="e_wo_entrp">   -186.64712320 </i>
    <i name="e_0_energy">   -186.81624604 </i>
   </energy>
  </scstep>
  <scstep>
   <time name="dav">   32.01   32.08</time>
   <time name="total">   32.55   32.63</time>
   <energy>
    <i name="e_fr_energy">   -186.87782548 </i>
    <i name="e_wo_entrp">   -186.54184864 </i>
    <i name="e_0_energy">   -186.70983706 </i>
   </energy>
  </scstep>
  <scstep>
   <time name="dav">   31.49   31.57</time>
   <time name="total">   32.02   32.11</time>
   <energy>
    <i name="e_fr_energy">   -186.84365813 </i>
    <i name="e_wo_entrp">   -186.49849006 </i>
    <i name="e_0_energy">   -186.67107410 </i>
   </energy>
  </scstep>
  <scstep>
   <time name="dav">   30.55   30.62</time>
   <time name="total">   31.09   31.17</time>
   <energy>
    <i name="e_fr_energy">   -186.83952734 </i>
    <i name="e_wo_entrp">   -186.49443683 </i>
    <i name="e_0_energy">   -186.66698208 </i>
   </energy>
  </scstep>
  <scstep>
   <time name="dav">   32.24   32.32</time>
   <time name="total">   32.77   32.86</time>
   <energy>
    <i name="e_fr_energy">   -186.83950441 </i>
    <i name="e_wo_entrp">   -186.49502964 </i>
    <i name="e_0_energy">   -186.66726703 </i>
   </energy>
  </scstep>
  <scstep>
   <time name="dav">   30.96   31.04</time>
   <time name="total">   31.50   31.58</time>
   <energy>
    <i name="e_fr_energy">   -186.83638594 </i>
    <i name="e_wo_entrp">   -186.49323633 </i>
    <i name="e_0_energy">   -186.66481113 </i>
   </energy>
  </scstep>
  <scstep>
   <time name="dav">   29.97   30.04</time>
   <time name="total">   30.50   30.58</time>
   <energy>
    <i name="e_fr_energy">   -186.83612498 </i>
    <i name="e_wo_entrp">   -186.49246452 </i>
    <i name="e_0_energy">   -186.66429475 </i>
   </energy>
  </scstep>
  <scstep>
   <time name="dav">   25.35   25.41</time>
   <time name="total">   25.39   25.46</time>
   <energy>
    <i name="alphaZ">     81.65567618 </i>
    <i name="ewald">  41891.17176702 </i>
    <i name="hartreedc"> -47818.64081312 </i>
    <i name="XCdc">   -231.69451610 </i>
    <i name="pawpsdc">   4194.27862990 </i>
    <i name="pawaedc">  -3612.29741979 </i>
    <i name="eentropy">     -0.34369439 </i>
    <i name="bandstr">  -1452.40829759 </i>
    <i name="atom">   6761.44252427 </i>
    <i name="e_fr_energy">   -186.83614362 </i>
    <i name="e_wo_entrp">   -186.49244923 </i>
    <i name="e_0_energy">   -186.66429642 </i>
   </energy>
  </scstep>
  <structure>
   <crystal>
    <varray name="basis" >
     <v>       8.66999996       5.03999989       0.00000000 </v>
     <v>      -8.66999982       5.04000013       0.00000000 </v>
     <v>       0.00000000       0.00000000      30.00000000 </v>
    </varray>
    <i name="volume">   2621.80797419 </i>
    <varray name="rec_basis" >
     <v>       0.05767013       0.09920635       0.00000000 </v>
     <v>      -0.05767013       0.09920635       0.00000000 </v>
     <v>       0.00000000       0.00000000       0.03333333 </v>
    </varray>
   </crystal>
   <varray name="positions" >
    <v>       0.00000000       0.00000000       0.00000000 </v>
    <v>       0.66666669       0.00000000       0.00000000 </v>
    <v>       0.66666669       0.66666669       0.00000000 </v>
    <v>       0.66666669       0.33333334       0.00000000 </v>
    <v>       0.00000000       0.66666669       0.00000000 </v>
    <v>       0.33333334       0.66666669       0.00000000 </v>
    <v>       1.00000000       0.33333334       0.00000000 </v>
    <v>       0.33333334       0.00000000       0.00000000 </v>
    <v>       0.33333334       0.33333334       0.00000000 </v>
    <v>       0.11068511       0.22244981       0.95539999 </v>
    <v>       0.22244981       0.11068511       0.04460000 </v>
    <v>       0.11068511       0.55578315       0.95539999 </v>
    <v>       0.22244981       0.44401845       0.04460000 </v>
    <v>       0.11068511       0.88911647       0.95539999 </v>
    <v>       0.22244981       0.77735180       0.04460000 </v>
    <v>       0.44401845       0.22244981       0.95539999 </v>
    <v>       0.55578315       0.11068511       0.04460000 </v>
    <v>       0.44401845       0.55578315       0.95539999 </v>
    <v>       0.55578315       0.44401845       0.04460000 </v>
    <v>       0.44401845       0.88911647       0.95539999 </v>
    <v>       0.55578315       0.77735180       0.04460000 </v>
    <v>       0.77735180       0.22244981       0.95539999 </v>
    <v>       0.88911647       0.11068511       0.04460000 </v>
    <v>       0.77735180       0.55578315       0.95539999 </v>
    <v>       0.88911647       0.44401845       0.04460000 </v>
    <v>       0.77735180       0.88911647       0.95539999 </v>
    <v>       0.88911647       0.77735180       0.04460000 </v>
   </varray>
  </structure>
  <varray name="forces" >
   <v>       0.13571282      -0.25376892      -0.01204694 </v>
   <v>      -0.03189096      -0.12517319       0.00596908 </v>
   <v>       0.12236062       0.03055900       0.00770322 </v>
   <v>      -0.01099603       0.29401578       0.05737437 </v>
   <v>       0.20338826      -0.15490997      -0.09122903 </v>
   <v>      -0.21674156      -0.11596988      -0.03451311 </v>
   <v>      -0.53056015       0.19283704      -0.10608181 </v>
   <v>       0.30370875      -0.17054358       0.10770203 </v>
   <v>      -0.00914643       0.35775529       0.09610242 </v>
   <v>       0.45393549      -0.57324723      -2.12356374 </v>
   <v>      -0.45436241      -0.54908986       2.16707356 </v>
   <v>       0.20871189      -0.16047974      -2.96686661 </v>
   <v>      -0.01101191      -0.13992293       2.87968943 </v>
   <v>      -0.65778621       0.12681488      -2.09841332 </v>
   <v>      -0.23452823       0.17883006       2.87284126 </v>
   <v>       0.06129190      -0.13441801      -2.84258997 </v>
   <v>       0.63784655      -0.15500579       2.11563542 </v>
   <v>       0.60012022       0.54598920      -2.16072207 </v>
   <v>      -0.60724631       0.52409989       2.18838886 </v>
   <v>       0.38066092       0.68965464      -2.18229678 </v>
   <v>       0.32502697       0.67490557       1.38991913 </v>
   <v>       0.64206915      -0.53554043      -2.13592065 </v>
   <v>       0.24732550      -0.53578048       1.37880122 </v>
   <v>      -0.74353657       0.02374879      -2.10797551 </v>
   <v>       0.02684102      -0.02774183       2.92893490 </v>
   <v>       0.06812066       0.00038884      -0.77655017 </v>
   <v>      -0.90931392      -0.00800713       1.44263481 </v>
  </varray>
  <varray name="stress" >
   <v>       7.53628652      -0.04580106      -1.62544795 </v>
   <v>      -0.04580104       4.43718593      -0.01694946 </v>
   <v>      -1.62544794      -0.01694970      31.14148786 </v>
  </varray>
  <energy>
   <i name="e_fr_energy">   -186.83614362 </i>
   <i name="e_wo_entrp">   -186.66429642 </i>
   <i name="e_0_energy">     -0.34369439 </i>
  </energy>
  <time name="totalsc">  618.64  620.28</time>
 </calculation>
 <calculation>
  <scstep>
   <time name="dav">   21.67   21.72</time>
   <time name="total">   22.22   22.27</time>
   <energy>
    <i name="alphaZ">     78.87191478 </i>
    <i name="ewald">  39352.55027480 </i>
    <i name="hartreedc"> -45300.13107203 </i>
    <i name="XCdc">   -239.17409861 </i>
    <i name="pawpsdc">   4193.05425205 </i>
    <i name="pawaedc">  -3611.05430400 </i>
    <i name="eentropy">     -0.28132756 </i>
    <i name="bandstr">  -1422.77132649 </i>
    <i name="atom">   6761.44252427 </i>
    <i name="e_fr_energy">   -187.49316278 </i>
    <i name="e_wo_entrp">   -187.21183522 </i>
    <i name="e_0_energy">   -187.35249900 </i>
   </energy>
  </scstep>
  <scstep>
   <time name="dav">   29.63   29.70</time>
   <time name="total">   30.17   30.25</time>
   <energy>
    <i name="e_fr_energy">   -189.51489372 </i>
    <i name="e_wo_entrp">   -189.17913794 </i>
    <i name="e_0_energy">   -189.34701583 </i>
   </energy>
  </scstep>
  <scstep>
   <time name="dav">   30.02   30.09</time>
   <time name="total">   30.57   30.65</time>
   <energy>
    <i name="e_fr_energy">   -189.33091346 </i>
    <i name="e_wo_entrp">   -189.06967585 </i>
    <i name="e_0_energy">   -189.20029465 </i>
   </energy>
  </scstep>
  <scstep>
   <time name="dav">   28.22   28.29</time>
   <time name="total">   28.77   28.85</time>
   <energy>
    <i name="e_fr_energy">   -188.76618770 </i>
    <i name="e_wo_entrp">   -188.48349377 </i>
    <i name="e_0_energy">   -188.62484074 </i>
   </energy>
  </scstep>
  <scstep>
   <time name="dav">   29.84   29.91</time>
   <time name="total">   30.38   30.46</time>
   <energy>
    <i name="e_fr_energy">   -188.85063175 </i>
    <i name="e_wo_entrp">   -188.56274215 </i>
    <i name="e_0_energy">   -188.70668695 </i>
   </energy>
  </scstep>
  <scstep>
   <time name="dav">   29.99   30.07</time>
   <time name="total">   30.55   30.63</time>
   <energy>
    <i name="e_fr_energy">   -188.72148557 </i>
    <i name="e_wo_entrp">   -188.43777113 </i>
    <i name="e_0_energy">   -188.57962835 </i>
   </energy>
  </scstep>
  <scstep>
   <time name="dav">   29.40   29.47</time>
   <time name="total">   29.95   30.03</time>
   <energy>
    <i name="e_fr_energy">   -188.68960748 </i>
    <i name="e_wo_entrp">   -188.40637743 </i>
    <i name="e_0_energy">   -188.54799246 </i>
   </energy>
  </scstep>
  <scstep>
   <time name="dav">   29.29   29.36</time>
   <time name="total">   29.84   29.92</time>
   <energy>
    <i name="e_fr_energy">   -188.67412877 </i>
    <i name="e_wo_entrp">   -188.38966641 </i>
    <i name="e_0_energy">   -188.53189759 </i>
   </energy>
  </scstep>
  <scstep>
   <time name="dav">   29.68   29.75</time>
   <time name="total">   30.23   30.31</time>
   <energy>
    <i name="e_fr_energy">   -188.64867374 </i>
    <i name="e_wo_entrp">   -188.36679502 </i>
    <i name="e_0_energy">   -188.50773438 </i>
   </energy>
  </scstep>
  <scstep>
   <time name="dav">   26.54   26.60</time>
   <time name="total">   27.09   27.16</time>
   <energy>
    <i name="e_fr_energy">   -188.64554056 </i>
    <i name="e_wo_entrp">   -188.36430789 </i>
    <i name="e_0_energy">   -188.50492422 </i>
   </energy>
  </scstep>
  <scstep>
   <time name="dav">   31.59   31.66</time>
   <time name="total">   32.13   32.22</time>
   <energy>
    <i name="e_fr_energy">   -188.64523168 </i>
    <i name="e_wo_entrp">   -188.36530614 </i>
    <i name="e_0_energy">   -188.50526891 </i>
   </energy>
  </scstep>
  <scstep>
   <time name="dav">   27.17   27.23</time>
   <time name="total">   27.72   27.79</time>
   <energy>
    <i name="e_fr_energy">   -188.64534770 </i>
    <i name="e_wo_entrp">   -188.36530667 </i>
    <i name="e_0_energy">   -188.50532718 </i>
   </energy>
  </scstep>
  <scstep>
   <time name="dav">   19.04   19.08</time>
   <time name="total">   19.07   19.13</time>
   <energy>
    <i name="alphaZ">     78.87191478 </i>
    <i name="ewald">  39352.55027480 </i>
    <i name="hartreedc"> -45317.53007504 </i>
    <i name="XCdc">   -238.02961784 </i>
    <i name="pawpsdc">   3949.56029802 </i>
    <i name="pawaedc">  -3364.05121952 </i>
    <i name="eentropy">     -0.28028564 </i>
    <i name="bandstr">  -1411.17921506 </i>
    <i name="atom">   6761.44252427 </i>
    <i name="e_fr_energy">   -188.64540122 </i>
    <i name="e_wo_entrp">   -188.36511558 </i>
    <i name="e_0_energy">   -188.50525840 </i>
   </energy>
  </scstep>
  <structure>
   <crystal>
    <varray name="basis" >
     <v>       8.86036938       5.10422652       0.00000000 </v>
     <v>      -8.86171912       5.10654887       0.00000000 </v>
     <v>       0.00000000       0.00000000      30.00000000 </v>
    </varray>
    <i name="volume">   2714.34392740 </i>
    <varray name="rec_basis" >
     <v>       0.05643959       0.09794322       0.00000000 </v>
     <v>      -0.05641393       0.09792830       0.00000000 </v>
     <v>       0.00000000       0.00000000       0.03333333 </v>
    </varray>
   </crystal>
   <varray name="positions" >
    <v>      -0.00083696      -0.00159211      -0.00001937 </v>
    <v>       0.66597888      -0.00051035       0.00000960 </v>
    <v>       0.66715337       0.66647251       0.00001239 </v>
    <v>       0.66804325       0.33477109       0.00009226 </v>
    <v>      -0.00017554       0.66535943      -0.00014670 </v>
    <v>       0.33217530       0.66671467      -0.00005550 </v>
    <v>       0.99944681       0.33573236      -0.00017059 </v>
    <v>       0.33336209      -0.00166118       0.00017319 </v>
    <v>       0.33502011       0.33507100       0.00015454 </v>
    <v>       0.10920448       0.21844334       0.95198511 </v>
    <v>       0.21855777       0.10932129       0.04808484 </v>
    <v>       0.11049773       0.55443443       0.95062901 </v>
    <v>       0.22174950       0.44337942       0.04923079 </v>
    <v>       0.10946198       0.89155347       0.95202556 </v>
    <v>       0.22265319       0.77886017       0.04921978 </v>
    <v>       0.44354566       0.22163596       0.95082885 </v>
    <v>       0.55681589       0.10816866       0.04800213 </v>
    <v>       0.44830118       0.55672661       0.95192536 </v>
    <v>       0.55660203       0.44821624       0.04811912 </v>
    <v>       0.44837818       0.89135808       0.95189066 </v>
    <v>       0.55991751       0.77967760       0.04683511 </v>
    <v>       0.77657505       0.21810039       0.95196524 </v>
    <v>       0.88724033       0.10743278       0.04681723 </v>
    <v>       0.77539682       0.55796545       0.95201018 </v>
    <v>       0.88905837       0.44381101       0.04930999 </v>
    <v>       0.77754318       0.88892880       0.95415123 </v>
    <v>       0.88654829       0.77984333       0.04691988 </v>
   </varray>
  </structure>
  <varray name="forces" >
   <v>       0.14275512      -0.12871623       0.01208286 </v>
   <v>      -0.09616028      -0.12608327       0.09443452 </v>
   <v>       0.13236606      -0.06866385       0.01671935 </v>
   <v>      -0.01707371       0.26909131      -0.06225142 </v>
   <v>       0.52575928      -0.16676907      -0.04139933 </v>
   <v>      -0.34653985      -0.34327026       0.05326554 </v>
   <v>      -0.58368127       0.39165854      -0.04412998 </v>
   <v>       0.23261758      -0.13582948       0.02992658 </v>
   <v>       0.05466292       0.28785551      -0.06800674 </v>
   <v>      -0.06978025       0.07123552       0.26278706 </v>
   <v>       0.06759147       0.07069100      -0.13467223 </v>
   <v>       0.04463652      -0.11291146      -0.30708560 </v>
   <v>       0.07301883      -0.11748085      -0.01867513 </v>
   <v>       0.03386212       0.09222567       0.03263977 </v>
   <v>      -0.06420552       0.10192259       0.13581824 </v>
   <v>      -0.07293292      -0.10798446       0.15715264 </v>
   <v>      -0.01896301      -0.10450207      -0.00865325 </v>
   <v>       0.07057723      -0.04209317       0.04430756 </v>
   <v>      -0.08106492      -0.03335960       0.09186156 </v>
   <v>      -0.09801086       0.04384035      -0.03225587 </v>
   <v>       0.00782843       0.05099636      -0.16266858 </v>
   <v>       0.08368580       0.05997332       0.03664397 </v>
   <v>      -0.06489109       0.06420345      -0.25225239 </v>
   <v>      -0.06500407       0.01333437      -0.08080130 </v>
   <v>       0.13090382      -0.00286534       0.21024907 </v>
   <v>       0.01863784      -0.01384186       0.14021172 </v>
   <v>      -0.04059526      -0.01265704      -0.10524862 </v>
  </varray>
  <varray name="stress" >
   <v>     -20.05593758      -0.00014199       0.05921639 </v>
   <v>      -0.00014190     -19.57983551       0.01390411 </v>
   <v>       0.05921632       0.01390408      -1.72303686 </v>
  </varray>
  <energy>
   <i name="e_fr_energy">   -188.64540122 </i>
   <i name="e_wo_entrp">   -188.50525840 </i>
   <i name="e_0_energy">     -0.28028564 </i>
  </energy>
  <time name="totalsc">  410.80  411.89</time>
 </calculation>
 <calculation>
  <scstep>
   <time name="dav">   23.84   23.89</time>
   <time name="total">   24.37   24.43</time>
   <energy>
    <i name="alphaZ">     82.32754302 </i>
    <i name="ewald">  41294.60995202 </i>
    <i name="hartreedc"> -47290.65610514 </i>
    <i name="XCdc">   -233.86133707 </i>
    <i name="pawpsdc">   3948.79165255 </i>
    <i name="pawaedc">  -3363.27523888 </i>
    <i name="eentropy">     -0.23464582 </i>
    <i name="bandstr">  -1389.74397736 </i>
    <i name="atom">   6761.44252427 </i>
    <i name="e_fr_energy">   -190.59963241 </i>
    <i name="e_wo_entrp">   -190.36498659 </i>
    <i name="e_0_energy">   -190.48230950 </i>
   </energy>
  </scstep>
  <scstep>
   <time name="dav">   29.96   30.03</time>
   <time name="total">   30.48   30.57</time>
   <energy>
    <i name="e_fr_energy">   -190.53223120 </i>
    <i name="e_wo_entrp">   -190.30878194 </i>
    <i name="e_0_energy">   -190.42050657 </i>
   </energy>
  </scstep>
  <scstep>
   <time name="dav">   30.08   30.15</time>
   <time name="total">   30.61   30.69</time>
   <energy>
    <i name="e_fr_energy">   -190.07689139 </i>
    <i name="e_wo_entrp">   -189.82531110 </i>
    <i name="e_0_energy">   -189.95110124 </i>
   </energy>
  </scstep>
  <scstep>
   <time name="dav">   31.94   32.02</time>
   <time name="total">   32.47   32.56</time>
   <energy>
    <i name="e_fr_energy">   -189.85931767 </i>
    <i name="e_wo_entrp">   -189.63219264 </i>
    <i name="e_0_energy">   -189.74575516 </i>
   </energy>
  </scstep>
  <scstep>
   <time name="dav">   30.07   30.14</time>
   <time name="total">   30.60   30.69</time>
   <energy>
    <i name="e_fr_energy">   -189.81325780 </i>
    <i name="e_wo_entrp">   -189.57124343 </i>
    <i name="e_0_energy">   -189.69225061 </i>
   </energy>
  </scstep>
  <scstep>
   <time name="dav">   30.17   30.24</time>
   <time name="total">   30.70   30.78</time>
   <energy>
    <i name="e_fr_energy">   -189.75771370 </i>
    <i name="e_wo_entrp">   -189.52361070 </i>
    <i name="e_0_energy">   -189.64066220 </i>
   </energy>
  </scstep>
  <scstep>
   <time name="dav">   29.24   29.31</time>
   <time name="total">   29.77   29.85</time>
   <energy>
    <i name="e_fr_energy">   -189.75221705 </i>
    <i name="e_wo_entrp">   -189.51603179 </i>
    <i name="e_0_energy">   -189.63412442 </i>
   </energy>
  </scstep>
  <scstep>
   <time name="dav">   28.97   29.04</time>
   <time name="total">   29.50   29.58</time>
   <energy>
    <i name="e_fr_energy">   -189.75296481 </i>
    <i name="e_wo_entrp">   -189.51761416 </i>
    <i name="e_0_energy">   -189.63528948 </i>
   </energy>
  </scstep>
  <scstep>
   <time name="dav">   26.46   26.52</time>
   <time name="total">   26.99   27.06</time>
   <energy>
    <i name="e_fr_energy">   -189.75196256 </i>
    <i name="e_wo_entrp">   -189.51603577 </i>
    <i name="e_0_energy">   -189.63399916 </i>
   </energy>
  </scstep>
  <scstep>
   <time name="dav">   26.24   26.30</time>
   <time name="total">   26.76   26.84</time>
   <energy>
    <i name="e_fr_energy">   -189.75232963 </i>
    <i name="e_wo_entrp">   -189.51666485 </i>
    <i name="e_0_energy">   -189.63449724 </i>
   </energy>
  </scstep>
  <scstep>
   <time name="dav">   26.46   26.52</time>
   <time name="total">   26.99   27.07</time>
   <energy>
    <i name="e_fr_energy">   -189.75203962 </i>
    <i name="e_wo_entrp">   -189.51606107 </i>
    <i name="e_0_energy">   -189.63405035 </i>
   </energy>
  </scstep>
  <scstep>
   <time name="dav">   18.40   18.45</time>
   <time name="total">   18.44   18.49</time>
   <energy>
    <i name="alphaZ">     82.32754302 </i>
    <i name="ewald">  41294.60995202 </i>
    <i name="hartreedc"> -47265.82129360 </i>
    <i name="XCdc">   -235.25719458 </i>
    <i name="pawpsdc">   4038.74657539 </i>
    <i name="pawaedc">  -3454.44552689 </i>
    <i name="eentropy">     -0.23596167 </i>
    <i name="bandstr">  -1411.11871809 </i>
    <i name="atom">   6761.44252427 </i>
    <i name="e_fr_energy">   -189.75210013 </i>
    <i name="e_wo_entrp">   -189.51613846 </i>
    <i name="e_0_energy">   -189.63411930 </i>
   </energy>
  </scstep>
  <structure>
   <crystal>
    <varray name="basis" >
     <v>       8.67016472       4.99725478       0.00000000 </v>
     <v>      -8.67148703       4.99953116       0.00000000 </v>
     <v>       0.00000000       0.00000000      30.00000000 </v>
    </varray>
    <i name="volume">   2600.41166161 </i>
    <varray name="rec_basis" >
     <v>       0.05767777       0.10003978       0.00000000 </v>
     <v>      -0.05765150       0.10002453       0.00000000 </v>
     <v>       0.00000000       0.00000000       0.03333333 </v>
    </varray>
   </crystal>
   <varray name="positions" >
    <v>      -0.00091457      -0.00194450      -0.00001250 </v>
    <v>       0.66567565      -0.00062843       0.00006330 </v>
    <v>       0.66716609       0.66623043       0.00002189 </v>
    <v>       0.66847639       0.33523703       0.00005687 </v>
    <v>       0.00005202       0.66457490      -0.00017024 </v>
    <v>       0.33126815       0.66647472      -0.00002521 </v>
    <v>       0.99953922       0.33694831      -0.00019568 </v>
    <v>       0.33335911      -0.00211194       0.00019021 </v>
    <v>       0.33555366       0.33549925       0.00011587 </v>
    <v>       0.10925632       0.21862949       0.95213453 </v>
    <v>       0.21874095       0.10937433       0.04800827 </v>
    <v>       0.11035206       0.55420286       0.95045439 </v>
    <v>       0.22162352       0.44311290       0.04922018 </v>
    <v>       0.10964866       0.89167494       0.95204412 </v>
    <v>       0.22276166       0.77909221       0.04929701 </v>
    <v>       0.44329503       0.22152576       0.95091821 </v>
    <v>       0.55662304       0.10801234       0.04799721 </v>
    <v>       0.44829880       0.55658838       0.95195055 </v>
    <v>       0.55646825       0.44823852       0.04817135 </v>
    <v>       0.44835707       0.89152563       0.95187232 </v>
    <v>       0.56001025       0.77975526       0.04674262 </v>
    <v>       0.77675582       0.21812004       0.95198608 </v>
    <v>       0.88728512       0.10760247       0.04667380 </v>
    <v>       0.77535651       0.55805028       0.95196423 </v>
    <v>       0.88917961       0.44368025       0.04942953 </v>
    <v>       0.77753800       0.88888775       0.95423095 </v>
    <v>       0.88648806       0.77986125       0.04686004 </v>
   </varray>
  </structure>
  <varray name="forces" >
   <v>       0.16534856      -0.06005380       0.01976670 </v>
   <v>      -0.15472447      -0.12329172       0.09671498 </v>
   <v>       0.15880857      -0.13889434       0.02012661 </v>
   <v>      -0.02614853       0.25000980      -0.06567909 </v>
   <v>       0.63056934      -0.15508623      -0.01726511 </v>
   <v>      -0.39744392      -0.42040959       0.05181499 </v>
   <v>      -0.59202116       0.45527199      -0.01276646 </v>
   <v>       0.19744330      -0.12297150      -0.00195984 </v>
   <v>       0.08082810       0.25640734      -0.08871955 </v>
   <v>      -0.00929296      -0.05323311      -0.22093923 </v>
   <v>      -0.00888514      -0.05184053       0.37304259 </v>
   <v>       0.00107139      -0.03307693      -0.91785493 </v>
   <v>       0.03053351      -0.06821176       0.53917157 </v>
   <v>      -0.06873504       0.01725614      -0.46154806 </v>
   <v>      -0.03405851       0.01582881       0.70658729 </v>
   <v>      -0.02288545      -0.05318492      -0.38560756 </v>
   <v>       0.09127976      -0.02256299       0.49372472 </v>
   <v>       0.05079845       0.10809059      -0.45674233 </v>
   <v>      -0.07443923       0.11697808       0.61848341 </v>
   <v>       0.03089323       0.10263961      -0.54260074 </v>
   <v>       0.04515272       0.10341490       0.27715566 </v>
   <v>       0.08701270      -0.07586256      -0.46995359 </v>
   <v>       0.00120055      -0.04308731       0.18477866 </v>
   <v>      -0.14527904       0.02822034      -0.58134029 </v>
   <v>       0.04166639       0.00047371       0.78676130 </v>
   <v>       0.01562876      -0.01759278      -0.28269865 </v>
   <v>      -0.09432188      -0.01523123       0.33754692 </v>
  </varray>
  <varray name="stress" >
   <v>     -10.23246926       0.00014364       0.05701937 </v>
   <v>       0.00014343      -9.83541820       0.01019247 </v>
   <v>       0.05701935       0.01019268       6.51065693 </v>
  </varray>
  <energy>
   <i name="e_fr_energy">   -189.75210013 </i>
   <i name="e_wo_entrp">   -189.63411930 </i>
   <i name="e_0_energy">     -0.23596167 </i>
  </energy>
  <time name="totalsc">  379.79  380.81</time>
 </calculation>
 <calculation>
  <scstep>
   <time name="dav">   21.65   21.71</time>
   <time name="total">   22.18   22.23</time>
   <energy>
    <i name="alphaZ">     85.81967828 </i>
    <i name="ewald">  42832.88155225 </i>
    <i name="hartreedc"> -48848.85622237 </i>
    <i name="XCdc">   -232.95916587 </i>
    <i name="pawpsdc">   4038.64954908 </i>
    <i name="pawaedc">  -3454.34353158 </i>
    <i name="eentropy">     -0.19702656 </i>
    <i name="bandstr">  -1373.77648081 </i>
    <i name="atom">   6761.44252427 </i>
    <i name="e_fr_energy">   -191.33912330 </i>
    <i name="e_wo_entrp">   -191.14209674 </i>
    <i name="e_0_energy">   -191.24061002 </i>
   </energy>
  </scstep>
  <scstep>
   <time name="dav">   31.67   31.74</time>
   <time name="total">   32.18   32.26</time>
   <energy>
    <i name="e_fr_energy">   -191.16089266 </i>
    <i name="e_wo_entrp">   -190.96618819 </i>
    <i name="e_0_energy">   -191.06354042 </i>
   </energy>
  </scstep>
  <scstep>
   <time name="dav">   29.92   29.99</time>
   <time name="total">   30.44   30.52</time>
   <energy>
    <i name="e_fr_energy">   -191.31778086 </i>
    <i name="e_wo_entrp">   -191.09979376 </i>
    <i name="e_0_energy">   -191.20878731 </i>
   </energy>
  </scstep>
  <scstep>
   <time name="dav">   29.86   29.94</time>
   <time name="total">   30.38   30.46</time>
   <energy>
    <i name="e_fr_energy">   -190.94558097 </i>
    <i name="e_wo_entrp">   -190.73529594 </i>
    <i name="e_0_energy">   -190.84043845 </i>
   </energy>
  </scstep>
  <scstep>
   <time name="dav">   27.87   27.94</time>
   <time name="total">   28.39   28.47</time>
   <energy>
    <i name="e_fr_energy">   -190.92653340 </i>
    <i name="e_wo_entrp">   -190.73842374 </i>
    <i name="e_0_energy">   -190.83247857 </i>
   </energy>
  </scstep>
  <scstep>
   <time name="dav">   28.67   28.74</time>
   <time name="total">   29.18   29.26</time>
   <energy>
    <i name="e_fr_energy">   -190.75537303 </i>
    <i name="e_wo_entrp">   -190.55353009 </i>
    <i name="e_0_energy">   -190.65445156 </i>
   </energy>
  </scstep>
  <scstep>
   <time name="dav">   30.82   30.89</time>
   <time name="total">   31.34   31.42</time>
   <energy>
    <i name="e_fr_energy">   -190.75343635 </i>
    <i name="e_wo_entrp">   -190.55110467 </i>
    <i name="e_0_energy">   -190.65227051 </i>
   </energy>
  </scstep>
  <scstep>
   <time name="dav">   29.48   29.55</time>
   <time name="total">   29.99   30.07</time>
   <energy>
    <i name="e_fr_energy">   -190.75220094 </i>
    <i name="e_wo_entrp">   -190.54983386 </i>
    <i name="e_0_energy">   -190.65101740 </i>
   </energy>
  </scstep>
  <scstep>
   <time name="dav">   27.68   27.75</time>
   <time name="total">   28.20   28.28</time>
   <energy>
    <i name="e_fr_energy">   -190.74726956 </i>
    <i name="e_wo_entrp">   -190.54520571 </i>
    <i name="e_0_energy">   -190.64623764 </i>
   </energy>
  </scstep>
  <scstep>
   <time name="dav">   26.87   26.93</time>
   <time name="total">   27.39   27.46</time>
   <energy>
    <i name="e_fr_energy">   -190.74762516 </i>
    <i name="e_wo_entrp">   -190.54553768 </i>
    <i name="e_0_energy">   -190.64658142 </i>
   </energy>
  </scstep>
  <scstep>
   <time name="dav">   27.01   27.07</time>
   <time name="total">   27.53   27.61</time>
   <energy>
    <i name="e_fr_energy">   -190.74741884 </i>
    <i name="e_wo_entrp">   -190.54522772 </i>
    <i name="e_0_energy">   -190.64632328 </i>
   </energy>
  </scstep>
  <scstep>
   <time name="dav">   18.64   18.68</time>
   <time name="total">   18.67   18.72</time>
   <energy>
    <i name="alphaZ">     85.81967828 </i>
    <i name="ewald">  42832.88155225 </i>
    <i name="hartreedc"> -48820.60482238 </i>
    <i name="XCdc">   -234.29473725 </i>
    <i name="pawpsdc">   4063.71712088 </i>
    <i name="pawaedc">  -3479.59725439 </i>
    <i name="eentropy">     -0.20230835 </i>
    <i name="bandstr">  -1399.90919544 </i>
    <i name="atom">   6761.44252427 </i>
    <i name="e_fr_energy">   -190.74744213 </i>
    <i name="e_wo_entrp">   -190.54513378 </i>
    <i name="e_0_energy">   -190.64628796 </i>
   </energy>
  </scstep>
  <structure>
   <crystal>
    <varray name="basis" >
     <v>       8.48631653       4.89777580       0.00000000 </v>
     <v>      -8.48760091       4.89998968       0.00000000 </v>
     <v>       0.00000000       0.00000000      30.00000000 </v>
    </varray>
    <i name="volume">   2494.59689460 </i>
    <varray name="rec_basis" >
     <v>       0.05892723       0.10207181       0.00000000 </v>
     <v>      -0.05890061       0.10205637       0.00000000 </v>
     <v>       0.00000000       0.00000000       0.03333333 </v>
    </varray>
   </crystal>
   <varray name="positions" >
    <v>      -0.00049087      -0.00277978       0.00003490 </v>
    <v>       0.66426750      -0.00075142       0.00026540 </v>
    <v>       0.66673329       0.66457503       0.00006643 </v>
    <v>       0.66988791       0.33686314      -0.00008197 </v>
    <v>       0.00153725       0.66120567      -0.00018561 </v>
    <v>       0.32693445       0.66515797       0.00008081 </v>
    <v>       1.00039846       0.34210757      -0.00019563 </v>
    <v>       0.33328364      -0.00351308       0.00015924 </v>
    <v>       0.33741143       0.33669813      -0.00008524 </v>
    <v>       0.10866701       0.21793458       0.95126898 </v>
    <v>       0.21797092       0.10888711       0.04920889 </v>
    <v>       0.11028443       0.55425198       0.94803916 </v>
    <v>       0.22136797       0.44275822       0.05080695 </v>
    <v>       0.10917591       0.89199190       0.95067173 </v>
    <v>       0.22256736       0.77905782       0.05124121 </v>
    <v>       0.44308657       0.22133965       0.94966201 </v>
    <v>       0.55717220       0.10758709       0.04944311 </v>
    <v>       0.44950367       0.55748265       0.95058232 </v>
    <v>       0.55731446       0.44960337       0.04989594 </v>
    <v>       0.44944173       0.89201866       0.95031854 </v>
    <v>       0.56100459       0.78031665       0.04768747 </v>
    <v>       0.77626280       0.21698907       0.95058582 </v>
    <v>       0.88684790       0.10696781       0.04742510 </v>
    <v>       0.77493066       0.55890324       0.95033854 </v>
    <v>       0.88921387       0.44366850       0.05154452 </v>
    <v>       0.77747064       0.88871611       0.95328890 </v>
    <v>       0.88596871       0.78017681       0.04793240 </v>
   </varray>
  </structure>
  <varray name="forces" >
   <v>       0.17409503      -0.03543128       0.03172855 </v>
   <v>      -0.15106482      -0.10672042       0.06574958 </v>
   <v>       0.17774162      -0.16624419       0.02297274 </v>
   <v>      -0.06248639       0.21755823      -0.04517369 </v>
   <v>       0.67603560      -0.10214094       0.02728413 </v>
   <v>      -0.45900559      -0.46990325       0.01365926 </v>
   <v>      -0.56349729       0.45951690       0.01908953 </v>
   <v>       0.15373203      -0.13133624      -0.03881331 </v>
   <v>       0.14757807       0.23293999      -0.06962681 </v>
   <v>      -0.07145842      -0.00047918      -0.08566227 </v>
   <v>       0.00998929      -0.00055567       0.25778011 </v>
   <v>      -0.01896883       0.01795250      -0.79314625 </v>
   <v>      -0.02008937      -0.03172401       0.33596761 </v>
   <v>       0.04045209      -0.05667708      -0.29444083 </v>
   <v>      -0.02926699      -0.04658049       0.51534938 </v>
   <v>       0.05140145       0.00182138      -0.23561205 </v>
   <v>       0.00588504       0.01674303       0.33105797 </v>
   <v>      -0.04990412       0.09052227      -0.27005892 </v>
   <v>      -0.01650173       0.08735109       0.44737393 </v>
   <v>       0.05485653      -0.00753495      -0.34832345 </v>
   <v>      -0.02246388      -0.04870926       0.17779695 </v>
   <v>       0.03057655       0.01452148      -0.29499192 </v>
   <v>      -0.06425986       0.05428783       0.08167472 </v>
   <v>      -0.02463425       0.07217203      -0.40462755 </v>
   <v>      -0.03607969       0.00062812       0.57881681 </v>
   <v>       0.01072274      -0.03007911      -0.26106049 </v>
   <v>       0.05661519      -0.03189877       0.23523629 </v>
  </varray>
  <varray name="stress" >
   <v>      -5.69371339      -0.06377419      -0.13393220 </v>
   <v>      -0.06377419      -5.87025063      -0.10595536 </v>
   <v>      -0.13393213      -0.10595542       4.55035836 </v>
  </varray>
  <energy>
   <i name="e_fr_energy">   -190.74744213 </i>
   <i name="e_wo_entrp">   -190.64628796 </i>
   <i name="e_0_energy">     -0.20230835 </i>
  </energy>
  <time name="totalsc">  378.38  379.38</time>
 </calculation>
 <calculation>
  <scstep>
   <time name="dav">   21.74   21.79</time>
   <time name="total">   22.26   22.31</time>
   <energy>
    <i name="alphaZ">     90.17278456 </i>
    <i name="ewald">  44671.19667521 </i>
    <i name="hartreedc"> -50713.93855863 </i>
    <i name="XCdc">   -231.81578700 </i>
    <i name="pawpsdc">   4063.71446333 </i>
    <i name="pawaedc">  -3479.59068877 </i>
    <i name="eentropy">     -0.18599560 </i>
    <i name="bandstr">  -1353.11938724 </i>
    <i name="atom">   6761.44252427 </i>
    <i name="e_fr_energy">   -192.12396987 </i>
    <i name="e_wo_entrp">   -191.93797427 </i>
    <i name="e_0_energy">   -192.03097207 </i>
   </energy>
  </scstep>
  <scstep>
   <time name="dav">   28.53   28.60</time>
   <time name="total">   29.04   29.11</time>
   <energy>
    <i name="e_fr_energy">   -191.88271614 </i>
    <i name="e_wo_entrp">   -191.68342768 </i>
    <i name="e_0_energy">   -191.78307191 </i>
   </energy>
  </scstep>
  <scstep>
   <time name="dav">   29.29   29.36</time>
   <time name="total">   29.84   29.92</time>
   <energy>
    <i name="e_fr_energy">   -192.37721544 </i>
    <i name="e_wo_entrp">   -192.19237246 </i>
    <i name="e_0_energy">   -192.28479395 </i>
   </energy>
  </scstep>
  <scstep>
   <time name="dav">   29.02   29.09</time>
   <time name="total">   29.53   29.61</time>
   <energy>
    <i name="e_fr_energy">   -191.65444079 </i>
    <i name="e_wo_entrp">   -191.46029064 </i>
    <i name="e_0_energy">   -191.55736572 </i>
   </energy>
  </scstep>
  <scstep>
   <time name="dav">   29.34   29.41</time>
   <time name="total">   29.86   29.94</time>
   <energy>
    <i name="e_fr_energy">   -191.59597771 </i>
    <i name="e_wo_entrp">   -191.39758577 </i>
    <i name="e_0_energy">   -191.49678174 </i>
   </energy>
  </scstep>
  <scstep>
   <time name="dav">   30.68   30.75</time>
   <time name="total">   31.19   31.27</time>
   <energy>
    <i name="e_fr_energy">   -191.42429510 </i>
    <i name="e_wo_entrp">   -191.23395252 </i>
    <i name="e_0_energy">   -191.32912381 </i>
   </energy>
  </scstep>
  <scstep>
   <time name="dav">   30.44   30.51</time>
   <time name="total">   30.95   31.04</time>
   <energy>
    <i name="e_fr_energy">   -191.41431859 </i>
    <i name="e_wo_entrp">   -191.21106541 </i>
    <i name="e_0_energy">   -191.31269200 </i>
   </energy>
  </scstep>
  <scstep>
   <time name="dav">   28.30   28.36</time>
   <time name="total">   28.80   28.88</time>
   <energy>
    <i name="e_fr_energy">   -191.40061653 </i>
    <i name="e_wo_entrp">   -191.20712314 </i>
    <i name="e_0_energy">   -191.30386983 </i>
   </energy>
  </scstep>
  <scstep>
   <time name="dav">   28.98   29.05</time>
   <time name="total">   29.50   29.58</time>
   <energy>
    <i name="e_fr_energy">   -191.39489164 </i>
    <i name="e_wo_entrp">   -191.19990470 </i>
    <i name="e_0_energy">   -191.29739817 </i>
   </energy>
  </scstep>
  <scstep>
   <time name="dav">   29.85   29.93</time>
   <time name="total">   30.36   30.44</time>
   <energy>
    <i name="e_fr_energy">   -191.39485384 </i>
    <i name="e_wo_entrp">   -191.19914435 </i>
    <i name="e_0_energy">   -191.29699909 </i>
   </energy>
  </scstep>
  <scstep>
   <time name="dav">   27.11   27.18</time>
   <time name="total">   27.15   27.22</time>
   <energy>
    <i name="alphaZ">     90.17278456 </i>
    <i name="ewald">  44671.19667521 </i>
    <i name="hartreedc"> -50680.11882819 </i>
    <i name="XCdc">   -233.34092567 </i>
    <i name="pawpsdc">   4086.73599417 </i>
    <i name="pawaedc">  -3502.73577785 </i>
    <i name="eentropy">     -0.19580837 </i>
    <i name="bandstr">  -1384.55155276 </i>
    <i name="atom">   6761.44252427 </i>
    <i name="e_fr_energy">   -191.39491462 </i>
    <i name="e_wo_entrp">   -191.19910624 </i>
    <i name="e_0_energy">   -191.29701043 </i>
   </energy>
  </scstep>
  <structure>
   <crystal>
    <varray name="basis" >
     <v>       8.28088241       4.77270023       0.00000000 </v>
     <v>      -8.28583892       4.78127408       0.00000000 </v>
     <v>       0.00000000       0.00000000      30.00000000 </v>
    </varray>
    <i name="volume">   2374.16981162 </i>
    <varray name="rec_basis" >
     <v>       0.06041616       0.10469983       0.00000000 </v>
     <v>      -0.06030782       0.10463720       0.00000000 </v>
     <v>       0.00000000       0.00000000       0.03333333 </v>
    </varray>
   </crystal>
   <varray name="positions" >
    <v>       0.00048029      -0.00430472       0.00016147 </v>
    <v>       0.66179592      -0.00090947       0.00054382 </v>
    <v>       0.66583295       0.66113450       0.00015905 </v>
    <v>       0.67210973       0.33992112      -0.00027464 </v>
    <v>       0.00510822       0.65505031      -0.00007793 </v>
    <v>       0.31785315       0.66255813       0.00015341 </v>
    <v>       1.00215935       0.35184395      -0.00010680 </v>
    <v>       0.33280060      -0.00611827      -0.00000548 </v>
    <v>       0.34120263       0.33846194      -0.00039042 </v>
    <v>       0.10788093       0.21783684       0.95039646 </v>
    <v>       0.21746428       0.10852388       0.05077460 </v>
    <v>       0.11045895       0.55479566       0.94425255 </v>
    <v>       0.22089993       0.44261409       0.05277591 </v>
    <v>       0.10841216       0.89119938       0.94894683 </v>
    <v>       0.22170089       0.77851289       0.05392570 </v>
    <v>       0.44354440       0.22105491       0.94813225 </v>
    <v>       0.55784198       0.10765644       0.05131834 </v>
    <v>       0.45076651       0.55931904       0.94893703 </v>
    <v>       0.55868643       0.45129392       0.05225881 </v>
    <v>       0.45026604       0.89170176       0.94835085 </v>
    <v>       0.56077557       0.78015422       0.04886357 </v>
    <v>       0.77618246       0.21636334       0.94884275 </v>
    <v>       0.88676477       0.10744770       0.04822032 </v>
    <v>       0.77536064       0.56016544       0.94816676 </v>
    <v>       0.88890639       0.44400935       0.05449427 </v>
    <v>       0.77719022       0.88828601       0.95184038 </v>
    <v>       0.88576904       0.77964209       0.04934005 </v>
   </varray>
  </structure>
  <varray name="forces" >
   <v>       0.13801454      -0.10196630       0.00267946 </v>
   <v>      -0.05462321      -0.05973491       0.01879363 </v>
   <v>       0.17269137      -0.07637199      -0.03027138 </v>
   <v>      -0.14877288       0.06629557       0.01746406 </v>
   <v>       0.10278673       0.05483838       0.01212139 </v>
   <v>      -0.23269769      -0.12083611      -0.06872260 </v>
   <v>      -0.17959823       0.11173099      -0.03013143 </v>
   <v>       0.04989622      -0.12846406       0.01619633 </v>
   <v>       0.25187867       0.15445178      -0.01383013 </v>
   <v>      -0.16360060       0.08868717       0.18155453 </v>
   <v>       0.06032406       0.08611346       0.00838444 </v>
   <v>      -0.01332050       0.02320640      -0.36786768 </v>
   <v>      -0.04358860      -0.01234968       0.01036818 </v>
   <v>       0.15330851      -0.11726382      -0.01656986 </v>
   <v>      -0.03563864      -0.07919450       0.17479020 </v>
   <v>       0.11246601       0.03842530      -0.04771084 </v>
   <v>      -0.09578505       0.01245757       0.01127322 </v>
   <v>      -0.14927591       0.01806498       0.05189358 </v>
   <v>       0.03963995       0.01290152       0.15496350 </v>
   <v>       0.02735463      -0.11456221      -0.05565040 </v>
   <v>      -0.10616704      -0.24873880      -0.07388200 </v>
   <v>      -0.02771595       0.13435738       0.00286268 </v>
   <v>      -0.14262535       0.21001340      -0.13978159 </v>
   <v>       0.11872510       0.14060014      -0.05675327 </v>
   <v>      -0.07562117      -0.01694460       0.23714526 </v>
   <v>       0.00630538      -0.03482207      -0.01476854 </v>
   <v>       0.23563964      -0.04089501       0.01544926 </v>
  </varray>
  <varray name="stress" >
   <v>       0.34521080      -0.05056814      -0.24766048 </v>
   <v>      -0.05056793       0.01493559      -0.27856267 </v>
   <v>      -0.24766061      -0.27856264      -0.29508374 </v>
  </varray>
  <energy>
   <i name="e_fr_energy">   -191.39491462 </i>
   <i name="e_wo_entrp">   -191.29701043 </i>
   <i name="e_0_energy">     -0.19580837 </i>
  </energy>
  <time name="totalsc">  360.69  361.64</time>
 </calculation>
 <calculation>
  <scstep>
   <time name="dav">   21.67   21.72</time>
   <time name="total">   22.18   22.23</time>
   <energy>
    <i name="alphaZ">     90.04603615 </i>
    <i name="ewald">  44592.64629409 </i>
    <i name="hartreedc"> -50601.13537056 </i>
    <i name="XCdc">   -233.51462917 </i>
    <i name="pawpsdc">   4087.10156165 </i>
    <i name="pawaedc">  -3503.09853792 </i>
    <i name="eentropy">     -0.19885615 </i>
    <i name="bandstr">  -1384.71890475 </i>
    <i name="atom">   6761.44252427 </i>
    <i name="e_fr_energy">   -191.42988238 </i>
    <i name="e_wo_entrp">   -191.23102623 </i>
    <i name="e_0_energy">   -191.33045430 </i>
   </energy>
  </scstep>
  <scstep>
   <time name="dav">   31.13   31.20</time>
   <time name="total">   31.64   31.72</time>
   <energy>
    <i name="e_fr_energy">   -191.47010101 </i>
    <i name="e_wo_entrp">   -191.26214155 </i>
    <i name="e_0_energy">   -191.36612128 </i>
   </energy>
  </scstep>
  <scstep>
   <time name="dav">   30.36   30.43</time>
   <time name="total">   30.86   30.95</time>
   <energy>
    <i name="e_fr_energy">   -191.43943311 </i>
    <i name="e_wo_entrp">   -191.24059945 </i>
    <i name="e_0_energy">   -191.34001628 </i>
   </energy>
  </scstep>
  <scstep>
   <time name="dav">   27.62   27.69</time>
   <time name="total">   28.13   28.21</time>
   <energy>
    <i name="e_fr_energy">   -191.43975995 </i>
    <i name="e_wo_entrp">   -191.23985683 </i>
    <i name="e_0_energy">   -191.33980839 </i>
   </energy>
  </scstep>
  <scstep>
   <time name="dav">   26.96   27.03</time>
   <time name="total">   27.47   27.54</time>
   <energy>
    <i name="e_fr_energy">   -191.43791679 </i>
    <i name="e_wo_entrp">   -191.23746724 </i>
    <i name="e_0_energy">   -191.33769202 </i>
   </energy>
  </scstep>
  <scstep>
   <time name="dav">   28.48   28.55</time>
   <time name="total">   29.00   29.07</time>
   <energy>
    <i name="e_fr_energy">   -191.43786649 </i>
    <i name="e_wo_entrp">   -191.23745894 </i>
    <i name="e_0_energy">   -191.33766271 </i>
   </energy>
  </scstep>
  <scstep>
   <time name="dav">   25.89   25.95</time>
   <time name="total">   26.40   26.47</time>
   <energy>
    <i name="e_fr_energy">   -191.43809332 </i>
    <i name="e_wo_entrp">   -191.23890539 </i>
    <i name="e_0_energy">   -191.33849935 </i>
   </energy>
  </scstep>
  <scstep>
   <time name="dav">   22.76   22.81</time>
   <time name="total">   23.27   23.33</time>
   <energy>
    <i name="e_fr_energy">   -191.43754704 </i>
    <i name="e_wo_entrp">   -191.23755692 </i>
    <i name="e_0_energy">   -191.33755198 </i>
   </energy>
  </scstep>
  <scstep>
   <time name="dav">   17.12   17.16</time>
   <time name="total">   17.16   17.20</time>
   <energy>
    <i name="alphaZ">     90.04603615 </i>
    <i name="ewald">  44592.64629409 </i>
    <i name="hartreedc"> -50603.17725462 </i>
    <i name="XCdc">   -233.45600164 </i>
    <i name="pawpsdc">   4082.58347032 </i>
    <i name="pawaedc">  -3498.51668468 </i>
    <i name="eentropy">     -0.20000844 </i>
    <i name="bandstr">  -1382.80594147 </i>
    <i name="atom">   6761.44252427 </i>
    <i name="e_fr_energy">   -191.43756603 </i>
    <i name="e_wo_entrp">   -191.23755759 </i>
    <i name="e_0_energy">   -191.33756181 </i>
   </energy>
  </scstep>
  <structure>
   <crystal>
    <varray name="basis" >
     <v>       8.28958643       4.77302934       0.00000000 </v>
     <v>      -8.29573577       4.78366437       0.00000000 </v>
     <v>       0.00000000       0.00000000      30.00000000 </v>
    </varray>
    <i name="volume">   2377.51168272 </i>
    <varray name="rec_basis" >
     <v>       0.06036140       0.10467754       0.00000000 </v>
     <v>      -0.06022720       0.10459995       0.00000000 </v>
     <v>       0.00000000       0.00000000       0.03333333 </v>
    </varray>
   </crystal>
   <varray name="positions" >
    <v>       0.00035242      -0.00517124       0.00016354 </v>
    <v>       0.66139050      -0.00104635       0.00056835 </v>
    <v>       0.66596371       0.66033089       0.00011018 </v>
    <v>       0.67197647       0.34061630      -0.00024398 </v>
    <v>       0.00560821       0.65513344      -0.00006077 </v>
    <v>       0.31675407       0.66266793       0.00004458 </v>
    <v>       1.00216822       0.35273516      -0.00015552 </v>
    <v>       0.33231896      -0.00684694       0.00002270 </v>
    <v>       0.34261196       0.33847839      -0.00040662 </v>
    <v>       0.10786916       0.21874296       0.95070084 </v>
    <v>       0.21807286       0.10878512       0.05075540 </v>
    <v>       0.11053121       0.55493592       0.94374807 </v>
    <v>       0.22072297       0.44267802       0.05275201 </v>
    <v>       0.10828761       0.89020172       0.94895605 </v>
    <v>       0.22122670       0.77823630       0.05414681 </v>
    <v>       0.44404314       0.22092956       0.94808998 </v>
    <v>       0.55761578       0.10798832       0.05129827 </v>
    <v>       0.45040541       0.55979474       0.94905213 </v>
    <v>       0.55883431       0.45121106       0.05245489 </v>
    <v>       0.44976132       0.89106581       0.94830338 </v>
    <v>       0.55925161       0.77923367       0.04872311 </v>
    <v>       0.77677024       0.21711804       0.94888283 </v>
    <v>       0.88739645       0.10888056       0.04798322 </v>
    <v>       0.77638315       0.56049605       0.94812075 </v>
    <v>       0.88861482       0.44413345       0.05480825 </v>
    <v>       0.77704170       0.88810439       0.95184617 </v>
    <v>       0.88624152       0.77878120       0.04933530 </v>
   </varray>
  </structure>
  <varray name="forces" >
   <v>       0.13203521      -0.14104598       0.00259566 </v>
   <v>      -0.03946442      -0.06164447       0.04226615 </v>
   <v>       0.18551835      -0.06049934      -0.02461237 </v>
   <v>      -0.15446674       0.08640140       0.03032821 </v>
   <v>       0.18361296       0.02570739       0.01156860 </v>
   <v>      -0.28326670      -0.12225615      -0.01869722 </v>
   <v>      -0.29277906       0.14391890      -0.00160689 </v>
   <v>       0.07320904      -0.14558799       0.03232498 </v>
   <v>       0.28463804       0.17465115      -0.02153919 </v>
   <v>      -0.08268468       0.07184598       0.19070335 </v>
   <v>       0.04317373       0.05707606      -0.01048917 </v>
   <v>      -0.03054570       0.00104556      -0.21693940 </v>
   <v>      -0.01155402       0.00375533      -0.07202697 </v>
   <v>       0.08380431      -0.05573463      -0.03324445 </v>
   <v>      -0.02159476      -0.03651968       0.11830731 </v>
   <v>       0.08463462       0.01394774      -0.03311390 </v>
   <v>      -0.06534680       0.00268167      -0.02519549 </v>
   <v>      -0.08195875       0.01416386       0.06897758 </v>
   <v>       0.02319729       0.02457884       0.14083244 </v>
   <v>      -0.00015536      -0.06067226      -0.04779955 </v>
   <v>      -0.06096547      -0.15882007      -0.10695642 </v>
   <v>      -0.04446474       0.06937330       0.01297195 </v>
   <v>      -0.07871071       0.12523847      -0.14197145 </v>
   <v>       0.05998407       0.08249789      -0.05019064 </v>
   <v>      -0.04342466      -0.00650488       0.10633966 </v>
   <v>       0.00883219      -0.02163249       0.02141450 </v>
   <v>       0.12874278      -0.02596560       0.02575271 </v>
  </varray>
  <varray name="stress" >
   <v>      -0.24834311       0.03855042      -0.08732850 </v>
   <v>       0.03855043      -0.25348144      -0.13575344 </v>
   <v>      -0.08732871      -0.13575351      -1.09657366 </v>
  </varray>
  <energy>
   <i name="e_fr_energy">   -191.43756603 </i>
   <i name="e_wo_entrp">   -191.33756181 </i>
   <i name="e_0_energy">     -0.20000844 </i>
  </energy>
  <time name="totalsc">  278.86  279.60</time>
 </calculation>
 <calculation>
  <scstep>
   <time name="dav">   21.68   21.74</time>
   <time name="total">   22.20   22.25</time>
   <energy>
    <i name="alphaZ">     90.28747008 </i>
    <i name="ewald">  44694.91135951 </i>
    <i name="hartreedc"> -50708.30656079 </i>
    <i name="XCdc">   -233.32002975 </i>
    <i name="pawpsdc">   4082.40398105 </i>
    <i name="pawaedc">  -3498.33528772 </i>
    <i name="eentropy">     -0.20197752 </i>
    <i name="bandstr">  -1380.36670831 </i>
    <i name="atom">   6761.44252427 </i>
    <i name="e_fr_energy">   -191.48522919 </i>
    <i name="e_wo_entrp">   -191.28325167 </i>
    <i name="e_0_energy">   -191.38424043 </i>
   </energy>
  </scstep>
  <scstep>
   <time name="dav">   32.14   32.22</time>
   <time name="total">   32.64   32.73</time>
   <energy>
    <i name="e_fr_energy">   -191.53646930 </i>
    <i name="e_wo_entrp">   -191.32063364 </i>
    <i name="e_0_energy">   -191.42855147 </i>
   </energy>
  </scstep>
  <scstep>
   <time name="dav">   30.45   30.52</time>
   <time name="total">   30.96   31.05</time>
   <energy>
    <i name="e_fr_energy">   -191.49620021 </i>
    <i name="e_wo_entrp">   -191.29450780 </i>
    <i name="e_0_energy">   -191.39535401 </i>
   </energy>
  </scstep>
  <scstep>
   <time name="dav">   27.22   27.28</time>
   <time name="total">   27.72   27.80</time>
   <energy>
    <i name="e_fr_energy">   -191.49400192 </i>
    <i name="e_wo_entrp">   -191.29067462 </i>
    <i name="e_0_energy">   -191.39233827 </i>
   </energy>
  </scstep>
  <scstep>
   <time name="dav">   28.27   28.34</time>
   <time name="total">   28.78   28.85</time>
   <energy>
    <i name="e_fr_energy">   -191.49188624 </i>
    <i name="e_wo_entrp">   -191.28734812 </i>
    <i name="e_0_energy">   -191.38961718 </i>
   </energy>
  </scstep>
  <scstep>
   <time name="dav">   28.26   28.33</time>
   <time name="total">   28.77   29.06</time>
   <energy>
    <i name="e_fr_energy">   -191.49103209 </i>
    <i name="e_wo_entrp">   -191.28618801 </i>
    <i name="e_0_energy">   -191.38861005 </i>
   </energy>
  </scstep>
  <scstep>
   <time name="dav">   28.24   28.30</time>
   <time name="total">   28.75   28.82</time>
   <energy>
    <i name="e_fr_energy">   -191.49159243 </i>
    <i name="e_wo_entrp">   -191.28866126 </i>
    <i name="e_0_energy">   -191.39012685 </i>
   </energy>
  </scstep>
  <scstep>
   <time name="dav">   24.65   24.71</time>
   <time name="total">   25.15   25.22</time>
   <energy>
    <i name="e_fr_energy">   -191.49036647 </i>
    <i name="e_wo_entrp">   -191.28579229 </i>
    <i name="e_0_energy">   -191.38807938 </i>
   </energy>
  </scstep>
  <scstep>
   <time name="dav">   16.48   16.52</time>
   <time name="total">   16.52   16.56</time>
   <energy>
    <i name="alphaZ">     90.28747008 </i>
    <i name="ewald">  44694.91135951 </i>
    <i name="hartreedc"> -50707.00759080 </i>
    <i name="XCdc">   -233.37674727 </i>
    <i name="pawpsdc">   4084.93354159 </i>
    <i name="pawaedc">  -3500.89846291 </i>
    <i name="eentropy">     -0.20435542 </i>
    <i name="bandstr">  -1381.57812189 </i>
    <i name="atom">   6761.44252427 </i>
    <i name="e_fr_energy">   -191.49038284 </i>
    <i name="e_wo_entrp">   -191.28602741 </i>
    <i name="e_0_energy">   -191.38820513 </i>
   </energy>
  </scstep>
  <structure>
   <crystal>
    <varray name="basis" >
     <v>       8.27942177       4.76734867       0.00000000 </v>
     <v>      -8.28449093       4.77610798       0.00000000 </v>
     <v>       0.00000000       0.00000000      30.00000000 </v>
    </varray>
    <i name="volume">   2371.15407883 </i>
    <varray name="rec_basis" >
     <v>       0.06042764       0.10481593       0.00000000 </v>
     <v>      -0.06031681       0.10475180       0.00000000 </v>
     <v>       0.00000000       0.00000000       0.03333333 </v>
    </varray>
   </crystal>
   <varray name="positions" >
    <v>      -0.00004061      -0.00669495       0.00017365 </v>
    <v>       0.66072173      -0.00131288       0.00066837 </v>
    <v>       0.66624017       0.65905984       0.00005931 </v>
    <v>       0.67203142       0.34191457      -0.00018620 </v>
    <v>       0.00662998       0.65438912      -0.00003176 </v>
    <v>       0.31448755       0.66284523       0.00000210 </v>
    <v>       1.00207245       0.35518843      -0.00015830 </v>
    <v>       0.33159680      -0.00821089       0.00008556 </v>
    <v>       0.34504902       0.33861256      -0.00046419 </v>
    <v>       0.10799138       0.21956085       0.95107211 </v>
    <v>       0.21861385       0.10899147       0.05080216 </v>
    <v>       0.11043567       0.55509059       0.94311324 </v>
    <v>       0.22067778       0.44274722       0.05268709 </v>
    <v>       0.10819523       0.88943716       0.94881148 </v>
    <v>       0.22084394       0.77803788       0.05451921 </v>
[...]
      <set comment="kpoint 31">
       <r>  -17.5269    1.0000 </r>
       <r>  -17.2679    1.0000 </r>
       <r>  -16.9007    1.0000 </r>
       <r>  -16.5132    1.0000 </r>
       <r>  -16.4439    1.0000 </r>
       <r>  -16.4001    1.0000 </r>
       <r>  -16.2662    1.0000 </r>
       <r>  -16.2044    1.0000 </r>
       <r>  -16.1390    1.0000 </r>
       <r>  -16.0642    1.0000 </r>
       <r>  -15.9611    1.0000 </r>
       <r>  -15.8556    1.0000 </r>
       <r>  -15.7769    1.0000 </r>
       <r>  -15.6841    1.0000 </r>
       <r>  -15.6033    1.0000 </r>
       <r>  -15.5299    1.0000 </r>
       <r>  -15.4619    1.0000 </r>
       <r>  -15.4186    1.0000 </r>
       <r>   -9.7810    1.0000 </r>
       <r>   -9.4795    1.0000 </r>
       <r>   -9.2927    1.0000 </r>
       <r>   -8.9587    1.0000 </r>
       <r>   -8.7922    1.0000 </r>
       <r>   -8.7618    1.0000 </r>
       <r>   -8.5674    1.0000 </r>
       <r>   -8.4498    1.0000 </r>
       <r>   -8.3793    1.0000 </r>
       <r>   -8.3183    1.0000 </r>
       <r>   -8.2604    1.0000 </r>
       <r>   -8.1895    1.0000 </r>
       <r>   -8.1025    1.0000 </r>
       <r>   -8.0797    1.0000 </r>
       <r>   -7.9655    1.0000 </r>
       <r>   -7.9157    1.0000 </r>
       <r>   -7.7898    1.0000 </r>
       <r>   -7.5639    1.0000 </r>
       <r>   -7.5357    1.0000 </r>
       <r>   -7.4304    1.0000 </r>
       <r>   -7.3439    1.0000 </r>
       <r>   -7.2110    1.0000 </r>
       <r>   -7.1254    1.0000 </r>
       <r>   -7.0233    1.0000 </r>
       <r>   -6.9692    1.0000 </r>
       <r>   -6.8853    1.0000 </r>
       <r>   -6.8434    1.0000 </r>
       <r>   -6.7724    1.0000 </r>
       <r>   -6.7184    1.0000 </r>
       <r>   -6.6421    1.0000 </r>
       <r>   -6.5801    1.0000 </r>
       <r>   -6.4950    1.0000 </r>
       <r>   -6.4228    1.0000 </r>
       <r>   -6.3097    1.0000 </r>
       <r>   -6.2755    1.0000 </r>
       <r>   -6.1715    1.0000 </r>
       <r>   -6.0508    1.0000 </r>
       <r>   -6.0184    1.0000 </r>
       <r>   -5.9674    1.0000 </r>
       <r>   -5.9170    1.0000 </r>
       <r>   -5.8605    1.0000 </r>
       <r>   -5.8178    1.0000 </r>
       <r>   -5.7288    1.0000 </r>
       <r>   -5.6502    1.0000 </r>
       <r>   -5.5979    1.0000 </r>
       <r>   -5.5320    1.0000 </r>
       <r>   -5.2903    1.0000 </r>
       <r>   -5.1238    1.0000 </r>
       <r>   -5.0289    1.0000 </r>
       <r>   -4.9475    1.0000 </r>
       <r>   -4.8199    1.0000 </r>
       <r>   -4.7030    1.0000 </r>
       <r>   -4.5360    1.0000 </r>
       <r>   -4.3873    1.0000 </r>
       <r>   -4.2498    1.0000 </r>
       <r>   -4.0689    1.0000 </r>
       <r>   -3.8872    1.0000 </r>
       <r>   -3.7025    1.0000 </r>
       <r>   -3.5878    1.0000 </r>
       <r>   -3.4279    0.9976 </r>
       <r>   -3.2069    0.8963 </r>
       <r>   -3.0840    0.6524 </r>
       <r>   -2.9012    0.1839 </r>
       <r>   -2.7209    0.0148 </r>
       <r>   -2.6466    0.0035 </r>
       <r>   -2.5727    0.0006 </r>
       <r>   -2.4777    0.0000 </r>
       <r>   -2.4621    0.0000 </r>
       <r>   -2.3949    0.0000 </r>
       <r>   -2.3068    0.0000 </r>
       <r>   -2.2235    0.0000 </r>
       <r>   -2.0882    0.0000 </r>
       <r>   -1.8175    0.0000 </r>
       <r>   -1.5986    0.0000 </r>
       <r>   -1.5076    0.0000 </r>
       <r>   -1.3747    0.0000 </r>
       <r>   -1.2658    0.0000 </r>
       <r>   -1.1680    0.0000 </r>
       <r>   -1.0448    0.0000 </r>
       <r>   -0.8528    0.0000 </r>
       <r>   -0.8226    0.0000 </r>
       <r>   -0.7902    0.0000 </r>
       <r>   -0.6948    0.0000 </r>
       <r>   -0.6654    0.0000 </r>
       <r>   -0.6242    0.0000 </r>
       <r>   -0.4937    0.0000 </r>
       <r>   -0.4550    0.0000 </r>
       <r>   -0.3036    0.0000 </r>
       <r>   -0.1480    0.0000 </r>
       <r>   -0.0470    0.0000 </r>
       <r>    0.0911    0.0000 </r>
       <r>    0.1812    0.0000 </r>
       <r>    0.4922    0.0000 </r>
       <r>    0.6523    0.0000 </r>
       <r>    0.8699    0.0000 </r>
       <r>    1.1022    0.0000 </r>
       <r>    1.2607    0.0000 </r>
       <r>    1.3895    0.0000 </r>
       <r>    1.6052    0.0000 </r>
       <r>    2.1680    0.0000 </r>
       <r>    2.3021    0.0000 </r>
       <r>    2.4289    0.0000 </r>
      </set>
      <set comment="kpoint 32">
       <r>  -17.5327    1.0000 </r>
       <r>  -17.2069    1.0000 </r>
       <r>  -17.0145    1.0000 </r>
       <r>  -16.5066    1.0000 </r>
       <r>  -16.3934    1.0000 </r>
       <r>  -16.3374    1.0000 </r>
       <r>  -16.2405    1.0000 </r>
       <r>  -16.1976    1.0000 </r>
       <r>  -16.1670    1.0000 </r>
       <r>  -16.0700    1.0000 </r>
       <r>  -15.9886    1.0000 </r>
       <r>  -15.9271    1.0000 </r>
       <r>  -15.7787    1.0000 </r>
       <r>  -15.6776    1.0000 </r>
       <r>  -15.5842    1.0000 </r>
       <r>  -15.5337    1.0000 </r>
       <r>  -15.4665    1.0000 </r>
       <r>  -15.3938    1.0000 </r>
       <r>   -9.7259    1.0000 </r>
       <r>   -9.5668    1.0000 </r>
       <r>   -9.3904    1.0000 </r>
       <r>   -8.9339    1.0000 </r>
       <r>   -8.6907    1.0000 </r>
       <r>   -8.5999    1.0000 </r>
       <r>   -8.5419    1.0000 </r>
       <r>   -8.3954    1.0000 </r>
       <r>   -8.3605    1.0000 </r>
       <r>   -8.2976    1.0000 </r>
       <r>   -8.2819    1.0000 </r>
       <r>   -8.2189    1.0000 </r>
       <r>   -8.1897    1.0000 </r>
       <r>   -8.1325    1.0000 </r>
       <r>   -8.1057    1.0000 </r>
       <r>   -7.9811    1.0000 </r>
       <r>   -7.7946    1.0000 </r>
       <r>   -7.5473    1.0000 </r>
       <r>   -7.4480    1.0000 </r>
       <r>   -7.4000    1.0000 </r>
       <r>   -7.2942    1.0000 </r>
       <r>   -7.2236    1.0000 </r>
       <r>   -7.1698    1.0000 </r>
       <r>   -7.0360    1.0000 </r>
       <r>   -7.0025    1.0000 </r>
       <r>   -6.9049    1.0000 </r>
       <r>   -6.8332    1.0000 </r>
       <r>   -6.8193    1.0000 </r>
       <r>   -6.7218    1.0000 </r>
       <r>   -6.6177    1.0000 </r>
       <r>   -6.5219    1.0000 </r>
       <r>   -6.4666    1.0000 </r>
       <r>   -6.4217    1.0000 </r>
       <r>   -6.3827    1.0000 </r>
       <r>   -6.3082    1.0000 </r>
       <r>   -6.2619    1.0000 </r>
       <r>   -6.0674    1.0000 </r>
       <r>   -6.0059    1.0000 </r>
       <r>   -5.9652    1.0000 </r>
       <r>   -5.8891    1.0000 </r>
       <r>   -5.8471    1.0000 </r>
       <r>   -5.6993    1.0000 </r>
       <r>   -5.6750    1.0000 </r>
       <r>   -5.5154    1.0000 </r>
       <r>   -5.4350    1.0000 </r>
       <r>   -5.4031    1.0000 </r>
       <r>   -5.3391    1.0000 </r>
       <r>   -5.2599    1.0000 </r>
       <r>   -5.2243    1.0000 </r>
       <r>   -4.9812    1.0000 </r>
       <r>   -4.9571    1.0000 </r>
       <r>   -4.6808    1.0000 </r>
       <r>   -4.5547    1.0000 </r>
       <r>   -4.4138    1.0000 </r>
       <r>   -4.1233    1.0000 </r>
       <r>   -4.0850    1.0000 </r>
       <r>   -3.9251    1.0000 </r>
       <r>   -3.6669    1.0000 </r>
       <r>   -3.5787    0.9999 </r>
       <r>   -3.4546    0.9987 </r>
       <r>   -3.1939    0.8788 </r>
       <r>   -3.0396    0.5312 </r>
       <r>   -2.8014    0.0541 </r>
       <r>   -2.7298    0.0173 </r>
       <r>   -2.6797    0.0068 </r>
       <r>   -2.5877    0.0009 </r>
       <r>   -2.5106    0.0001 </r>
       <r>   -2.4595    0.0000 </r>
       <r>   -2.4224    0.0000 </r>
       <r>   -2.3446    0.0000 </r>
       <r>   -2.1808    0.0000 </r>
       <r>   -2.1516    0.0000 </r>
       <r>   -1.8378    0.0000 </r>
       <r>   -1.5832    0.0000 </r>
       <r>   -1.5057    0.0000 </r>
       <r>   -1.3821    0.0000 </r>
       <r>   -1.3163    0.0000 </r>
       <r>   -1.0976    0.0000 </r>
       <r>   -1.0211    0.0000 </r>
       <r>   -0.8701    0.0000 </r>
       <r>   -0.8468    0.0000 </r>
       <r>   -0.7869    0.0000 </r>
       <r>   -0.6930    0.0000 </r>
       <r>   -0.6726    0.0000 </r>
       <r>   -0.6055    0.0000 </r>
       <r>   -0.4267    0.0000 </r>
       <r>   -0.3787    0.0000 </r>
       <r>   -0.2469    0.0000 </r>
       <r>   -0.1997    0.0000 </r>
       <r>   -0.1127    0.0000 </r>
       <r>    0.1047    0.0000 </r>
       <r>    0.2307    0.0000 </r>
       <r>    0.4072    0.0000 </r>
       <r>    0.6823    0.0000 </r>
       <r>    0.7842    0.0000 </r>
       <r>    1.0701    0.0000 </r>
       <r>    1.2298    0.0000 </r>
       <r>    1.4438    0.0000 </r>
       <r>    1.6132    0.0000 </r>
       <r>    2.1374    0.0000 </r>
       <r>    2.2718    0.0000 </r>
       <r>    2.6123    0.0000 </r>
      </set>
      <set comment="kpoint 33">
       <r>  -17.5010    1.0000 </r>
       <r>  -17.3096    1.0000 </r>
       <r>  -16.8885    1.0000 </r>
       <r>  -16.5122    1.0000 </r>
       <r>  -16.4384    1.0000 </r>
       <r>  -16.4001    1.0000 </r>
       <r>  -16.2659    1.0000 </r>
       <r>  -16.1919    1.0000 </r>
       <r>  -16.1479    1.0000 </r>
       <r>  -16.0659    1.0000 </r>
       <r>  -15.9755    1.0000 </r>
       <r>  -15.8524    1.0000 </r>
       <r>  -15.7828    1.0000 </r>
       <r>  -15.6724    1.0000 </r>
       <r>  -15.5924    1.0000 </r>
       <r>  -15.5458    1.0000 </r>
       <r>  -15.4575    1.0000 </r>
       <r>  -15.4163    1.0000 </r>
       <r>   -9.7964    1.0000 </r>
       <r>   -9.4264    1.0000 </r>
       <r>   -9.3547    1.0000 </r>
       <r>   -8.9127    1.0000 </r>
       <r>   -8.8270    1.0000 </r>
       <r>   -8.7034    1.0000 </r>
       <r>   -8.6331    1.0000 </r>
       <r>   -8.4412    1.0000 </r>
       <r>   -8.3632    1.0000 </r>
       <r>   -8.3284    1.0000 </r>
       <r>   -8.2633    1.0000 </r>
       <r>   -8.2067    1.0000 </r>
       <r>   -8.1135    1.0000 </r>
       <r>   -8.0502    1.0000 </r>
       <r>   -7.9754    1.0000 </r>
       <r>   -7.9095    1.0000 </r>
       <r>   -7.7717    1.0000 </r>
       <r>   -7.5911    1.0000 </r>
       <r>   -7.5212    1.0000 </r>
       <r>   -7.4469    1.0000 </r>
       <r>   -7.3364    1.0000 </r>
       <r>   -7.1955    1.0000 </r>
       <r>   -7.1201    1.0000 </r>
       <r>   -7.0377    1.0000 </r>
       <r>   -6.9737    1.0000 </r>
       <r>   -6.8848    1.0000 </r>
       <r>   -6.8215    1.0000 </r>
       <r>   -6.7944    1.0000 </r>
       <r>   -6.7034    1.0000 </r>
       <r>   -6.6473    1.0000 </r>
       <r>   -6.5873    1.0000 </r>
       <r>   -6.5121    1.0000 </r>
       <r>   -6.4177    1.0000 </r>
       <r>   -6.3045    1.0000 </r>
       <r>   -6.2740    1.0000 </r>
       <r>   -6.1657    1.0000 </r>
       <r>   -6.0404    1.0000 </r>
       <r>   -6.0210    1.0000 </r>
       <r>   -5.9600    1.0000 </r>
       <r>   -5.9085    1.0000 </r>
       <r>   -5.8708    1.0000 </r>
       <r>   -5.8101    1.0000 </r>
       <r>   -5.7100    1.0000 </r>
       <r>   -5.6579    1.0000 </r>
       <r>   -5.5981    1.0000 </r>
       <r>   -5.5326    1.0000 </r>
       <r>   -5.2985    1.0000 </r>
       <r>   -5.1255    1.0000 </r>
       <r>   -5.0242    1.0000 </r>
       <r>   -4.9405    1.0000 </r>
       <r>   -4.8425    1.0000 </r>
       <r>   -4.7126    1.0000 </r>
       <r>   -4.5417    1.0000 </r>
       <r>   -4.3815    1.0000 </r>
       <r>   -4.2883    1.0000 </r>
       <r>   -4.0639    1.0000 </r>
       <r>   -3.8135    1.0000 </r>
       <r>   -3.7199    1.0000 </r>
       <r>   -3.5691    0.9999 </r>
       <r>   -3.4245    0.9974 </r>
       <r>   -3.2155    0.9068 </r>
       <r>   -3.0614    0.5917 </r>
       <r>   -2.9180    0.2172 </r>
       <r>   -2.7507    0.0247 </r>
       <r>   -2.6386    0.0029 </r>
       <r>   -2.5873    0.0009 </r>
       <r>   -2.4685    0.0000 </r>
       <r>   -2.4415    0.0000 </r>
       <r>   -2.3998    0.0000 </r>
       <r>   -2.3365    0.0000 </r>
       <r>   -2.2094    0.0000 </r>
       <r>   -2.1068    0.0000 </r>
       <r>   -1.8346    0.0000 </r>
       <r>   -1.6301    0.0000 </r>
       <r>   -1.5458    0.0000 </r>
       <r>   -1.4002    0.0000 </r>
       <r>   -1.3188    0.0000 </r>
       <r>   -1.0655    0.0000 </r>
       <r>   -0.9428    0.0000 </r>
       <r>   -0.8908    0.0000 </r>
       <r>   -0.7940    0.0000 </r>
       <r>   -0.7837    0.0000 </r>
       <r>   -0.6833    0.0000 </r>
       <r>   -0.6652    0.0000 </r>
       <r>   -0.6023    0.0000 </r>
       <r>   -0.4941    0.0000 </r>
       <r>   -0.4487    0.0000 </r>
       <r>   -0.3345    0.0000 </r>
       <r>   -0.1622    0.0000 </r>
       <r>   -0.0810    0.0000 </r>
       <r>    0.1348    0.0000 </r>
       <r>    0.2393    0.0000 </r>
       <r>    0.4476    0.0000 </r>
       <r>    0.7057    0.0000 </r>
       <r>    0.7486    0.0000 </r>
       <r>    1.0328    0.0000 </r>
       <r>    1.1976    0.0000 </r>
       <r>    1.5370    0.0000 </r>
       <r>    1.6355    0.0000 </r>
       <r>    2.1718    0.0000 </r>
       <r>    2.3049    0.0000 </r>
       <r>    2.4366    0.0000 </r>
      </set>
      <set comment="kpoint 34">
       <r>  -17.4406    1.0000 </r>
       <r>  -17.4080    1.0000 </r>
       <r>  -16.7281    1.0000 </r>
       <r>  -16.6292    1.0000 </r>
       <r>  -16.4668    1.0000 </r>
       <r>  -16.4387    1.0000 </r>
       <r>  -16.2124    1.0000 </r>
       <r>  -16.2025    1.0000 </r>
       <r>  -16.1884    1.0000 </r>
       <r>  -16.0523    1.0000 </r>
       <r>  -15.9626    1.0000 </r>
       <r>  -15.8091    1.0000 </r>
       <r>  -15.7369    1.0000 </r>
       <r>  -15.6737    1.0000 </r>
       <r>  -15.6309    1.0000 </r>
       <r>  -15.5406    1.0000 </r>
       <r>  -15.4558    1.0000 </r>
       <r>  -15.4402    1.0000 </r>
       <r>   -9.8334    1.0000 </r>
       <r>   -9.2994    1.0000 </r>
       <r>   -9.2736    1.0000 </r>
       <r>   -8.9930    1.0000 </r>
       <r>   -8.9346    1.0000 </r>
       <r>   -8.7634    1.0000 </r>
       <r>   -8.7089    1.0000 </r>
       <r>   -8.4289    1.0000 </r>
       <r>   -8.3972    1.0000 </r>
       <r>   -8.3252    1.0000 </r>
       <r>   -8.2743    1.0000 </r>
       <r>   -8.1839    1.0000 </r>
       <r>   -8.1032    1.0000 </r>
       <r>   -7.9627    1.0000 </r>
       <r>   -7.9102    1.0000 </r>
       <r>   -7.8318    1.0000 </r>
       <r>   -7.6884    1.0000 </r>
       <r>   -7.6561    1.0000 </r>
       <r>   -7.5190    1.0000 </r>
       <r>   -7.4701    1.0000 </r>
       <r>   -7.3783    1.0000 </r>
       <r>   -7.2878    1.0000 </r>
       <r>   -7.1498    1.0000 </r>
       <r>   -7.0418    1.0000 </r>
       <r>   -6.9001    1.0000 </r>
       <r>   -6.8690    1.0000 </r>
       <r>   -6.8202    1.0000 </r>
       <r>   -6.7085    1.0000 </r>
       <r>   -6.6695    1.0000 </r>
       <r>   -6.6450    1.0000 </r>
       <r>   -6.5748    1.0000 </r>
       <r>   -6.5278    1.0000 </r>
       <r>   -6.3983    1.0000 </r>
       <r>   -6.3349    1.0000 </r>
       <r>   -6.2743    1.0000 </r>
       <r>   -6.1284    1.0000 </r>
       <r>   -6.0919    1.0000 </r>
       <r>   -6.0399    1.0000 </r>
       <r>   -5.9614    1.0000 </r>
       <r>   -5.9523    1.0000 </r>
       <r>   -5.8613    1.0000 </r>
       <r>   -5.7998    1.0000 </r>
       <r>   -5.7570    1.0000 </r>
       <r>   -5.7109    1.0000 </r>
       <r>   -5.6474    1.0000 </r>
       <r>   -5.6135    1.0000 </r>
       <r>   -5.3943    1.0000 </r>
       <r>   -5.0199    1.0000 </r>
       <r>   -4.9588    1.0000 </r>
       <r>   -4.8722    1.0000 </r>
       <r>   -4.7095    1.0000 </r>
       <r>   -4.6079    1.0000 </r>
       <r>   -4.5838    1.0000 </r>
       <r>   -4.5012    1.0000 </r>
       <r>   -4.3091    1.0000 </r>
       <r>   -4.0557    1.0000 </r>
       <r>   -3.7717    1.0000 </r>
       <r>   -3.7558    1.0000 </r>
       <r>   -3.5937    1.0000 </r>
       <r>   -3.3405    0.9863 </r>
       <r>   -3.2493    0.9407 </r>
       <r>   -3.1351    0.7744 </r>
       <r>   -2.9586    0.3102 </r>
       <r>   -2.7634    0.0304 </r>
       <r>   -2.6570    0.0043 </r>
       <r>   -2.5553    0.0004 </r>
       <r>   -2.4793    0.0001 </r>
       <r>   -2.4189    0.0000 </r>
       <r>   -2.3587    0.0000 </r>
       <r>   -2.3100    0.0000 </r>
       <r>   -2.2233    0.0000 </r>
       <r>   -2.0741    0.0000 </r>
       <r>   -1.8181    0.0000 </r>
       <r>   -1.6988    0.0000 </r>
       <r>   -1.5547    0.0000 </r>
       <r>   -1.4027    0.0000 </r>
       <r>   -1.3114    0.0000 </r>
       <r>   -1.0627    0.0000 </r>
       <r>   -0.9061    0.0000 </r>
       <r>   -0.8937    0.0000 </r>
       <r>   -0.7843    0.0000 </r>
       <r>   -0.7194    0.0000 </r>
       <r>   -0.6512    0.0000 </r>
       <r>   -0.6376    0.0000 </r>
       <r>   -0.6112    0.0000 </r>
       <r>   -0.6010    0.0000 </r>
       <r>   -0.5502    0.0000 </r>
       <r>   -0.3668    0.0000 </r>
       <r>   -0.1709    0.0000 </r>
       <r>   -0.0203    0.0000 </r>
       <r>    0.1230    0.0000 </r>
       <r>    0.2620    0.0000 </r>
       <r>    0.4809    0.0000 </r>
       <r>    0.6899    0.0000 </r>
       <r>    0.7674    0.0000 </r>
       <r>    1.0239    0.0000 </r>
       <r>    1.1955    0.0000 </r>
       <r>    1.5645    0.0000 </r>
       <r>    1.6594    0.0000 </r>
       <r>    2.2662    0.0000 </r>
       <r>    2.2772    0.0000 </r>
       <r>    2.3814    0.0000 </r>
      </set>
     </set>
    </set>
   </array>
  </eigenvalues>
  <separator name="orbital magnetization" >
   <v name="MAGDIPOLOUT">      0.00000000      0.00000000      0.00000000</v>
  </separator>
 </calculation>
 <structure name="finalpos" >
  <crystal>
   <varray name="basis" >
    <v>       8.28530652       4.77278134       0.00000000 </v>
    <v>      -8.29961517       4.79757740       0.00000000 </v>
    <v>       0.00000000       0.00000000      30.00000000 </v>
   </varray>
   <i name="volume">   2380.84943173 </i>
   <varray name="rec_basis" >
    <v>       0.06045209       0.10457967       0.00000000 </v>
    <v>      -0.06013965       0.10439938       0.00000000 </v>
    <v>       0.00000000       0.00000000       0.03333333 </v>
   </varray>
  </crystal>
  <varray name="positions" >
   <v>       0.00602256       0.00166778       0.00065883 </v>
   <v>       0.65871839      -0.00087568       0.00046185 </v>
   <v>       0.66030031       0.65858826       0.00023201 </v>
   <v>       0.67680693       0.34048602       0.00005025 </v>
   <v>       0.00384692       0.64687304      -0.00027581 </v>
   <v>       0.31343158       0.65413408      -0.00046910 </v>
   <v>       1.00651233       0.35710975      -0.00006800 </v>
   <v>       0.33613062      -0.00143092      -0.00027049 </v>
   <v>       0.33644860       0.34082132      -0.00018264 </v>
   <v>       0.10770565       0.22026512       0.95014247 </v>
   <v>       0.22053482       0.11074647       0.05119016 </v>
   <v>       0.11028480       0.55386209       0.94219312 </v>
   <v>       0.22002985       0.44247886       0.05410934 </v>
   <v>       0.10771061       0.88820197       0.95011676 </v>
   <v>       0.22118406       0.77724065       0.05317207 </v>
   <v>       0.44558944       0.22361139       0.94869284 </v>
   <v>       0.55778020       0.10874058       0.05186308 </v>
   <v>       0.44931389       0.55909655       0.94810474 </v>
   <v>       0.55808637       0.45048734       0.05218176 </v>
   <v>       0.44840274       0.88961480       0.94864307 </v>
   <v>       0.55528391       0.77745489       0.04834638 </v>
   <v>       0.77869639       0.21829450       0.94915862 </v>
   <v>       0.88809153       0.11163365       0.04749901 </v>
   <v>       0.77739901       0.56047408       0.94845646 </v>
   <v>       0.88876673       0.44307095       0.05579371 </v>
   <v>       0.77714371       0.88878907       0.95269150 </v>
   <v>       0.88799251       0.77677785       0.04750790 </v>
  </varray>
 </structure>
</modeling>
