       N       E                     dE             d eps       ncg     rms          rms(c)
DAV:   1     0.112581680721E+04    0.11258E+04   -0.35983E+04  8160   0.577E+02
DAV:   2    -0.333744804693E+01   -0.11292E+04   -0.10877E+04 11280   0.173E+02
DAV:   3    -0.199867963659E+03   -0.19653E+03   -0.18895E+03 10880   0.821E+01
DAV:   4    -0.209006188282E+03   -0.91382E+01   -0.88791E+01 12240   0.262E+01
DAV:   5    -0.209305584729E+03   -0.29940E+00   -0.29855E+00 11400   0.344E+00    0.275E+01
DAV:   6    -0.237861228245E+03   -0.28556E+02   -0.10795E+02 12440   0.601E+01    0.595E+01
DAV:   7    -0.196571906246E+03    0.41289E+02   -0.17577E+02 13520   0.152E+02    0.200E+01
DAV:   8    -0.189488266526E+03    0.70836E+01   -0.17523E+01 12080   0.127E+01    0.126E+01
DAV:   9    -0.188133917037E+03    0.13543E+01   -0.30386E+00 13560   0.632E+00    0.915E+00
DAV:  10    -0.186933911655E+03    0.12000E+01   -0.17317E+00 13400   0.762E+00    0.217E+00
DAV:  11    -0.187024425836E+03   -0.90514E-01   -0.59153E-01 13480   0.253E+00    0.369E+00
DAV:  12    -0.186941281859E+03    0.83144E-01   -0.69127E-01 12680   0.380E+00    0.322E+00
DAV:  13    -0.186862890797E+03    0.78391E-01   -0.24273E-01 13280   0.297E+00    0.185E+00
DAV:  14    -0.186823624683E+03    0.39266E-01   -0.90791E-02 12800   0.166E+00    0.611E-01
DAV:  15    -0.186819920428E+03    0.37043E-02   -0.10053E-02 12480   0.348E-01    0.262E-01
DAV:  16    -0.186819535993E+03    0.38443E-03   -0.64088E-03 12760   0.394E-01    0.394E-01
DAV:  17    -0.186818608558E+03    0.92744E-03   -0.49682E-03 13280   0.382E-01    0.258E-01
DAV:  18    -0.186817976399E+03    0.63216E-03   -0.15168E-03 11400   0.199E-01    0.621E-02
DAV:  19    -0.186818597385E+03   -0.62099E-03   -0.82223E-04  9720   0.811E-02    0.701E-02
DAV:  20    -0.186819017800E+03   -0.42042E-03   -0.26824E-04  7360   0.466E-02    0.585E-02
DAV:  21    -0.186820095120E+03   -0.10773E-02   -0.28619E-04  7560   0.524E-02    0.292E-02
DAV:  22    -0.186821387511E+03   -0.12924E-02   -0.14072E-04  8000   0.377E-02    0.138E-02
DAV:  23    -0.186822085563E+03   -0.69805E-03   -0.40991E-05  6520   0.187E-02    0.805E-03
DAV:  24    -0.186822342399E+03   -0.25684E-03   -0.16748E-05  6120   0.116E-02    0.604E-03
DAV:  25    -0.186822703424E+03   -0.36102E-03   -0.13934E-05  5560   0.884E-03    0.351E-03
DAV:  26    -0.186822949199E+03   -0.24577E-03   -0.89456E-06  6800   0.820E-03    0.262E-03
DAV:  27    -0.186823022891E+03   -0.73693E-04   -0.33544E-06  7760   0.439E-03
   1 F= -.18682302E+03 E0= -.18665254E+03  d E =-.186823E+03
       N       E                     dE             d eps       ncg     rms          rms(c)
DAV:   1    -0.187494649338E+03   -0.67170E+00   -0.27498E+02  8160   0.352E+01    0.464E+00
DAV:   2    -0.189357412128E+03   -0.18628E+01   -0.20092E+01 12280   0.150E+01    0.849E+00
DAV:   3    -0.189369247329E+03   -0.11835E-01   -0.38173E+00 12480   0.120E+01    0.664E+00
DAV:   4    -0.188745333225E+03    0.62391E+00   -0.62357E-01 12720   0.477E+00    0.173E+00
DAV:   5    -0.188859057740E+03   -0.11372E+00   -0.46799E-01 12640   0.339E+00    0.540E+00
DAV:   6    -0.188709667441E+03    0.14939E+00   -0.79352E-01 12880   0.435E+00    0.191E+00
DAV:   7    -0.188677870162E+03    0.31797E-01   -0.11130E-01 11800   0.128E+00    0.963E-01
DAV:   8    -0.188661479966E+03    0.16390E-01   -0.36903E-02 12240   0.611E-01    0.479E-01
DAV:   9    -0.188660513701E+03    0.96627E-03   -0.76027E-03 12400   0.392E-01    0.428E-01
DAV:  10    -0.188660042226E+03    0.47147E-03   -0.51612E-03 13440   0.394E-01    0.322E-01
DAV:  11    -0.188659051118E+03    0.99111E-03   -0.28472E-03 12960   0.251E-01    0.114E-01
DAV:  12    -0.188659131442E+03   -0.80323E-04   -0.71590E-04 11640   0.953E-02
   2 F= -.18865913E+03 E0= -.18852103E+03  d E =-.183611E+01
       N       E                     dE             d eps       ncg     rms          rms(c)
DAV:   1    -0.190598915533E+03   -0.19399E+01   -0.31643E+01  9240   0.143E+01    0.446E+00
DAV:   2    -0.190534817122E+03    0.64098E-01   -0.27676E+00 11560   0.942E+00    0.714E+00
DAV:   3    -0.190081064842E+03    0.45375E+00   -0.13071E+00 12480   0.863E+00    0.428E+00
DAV:   4    -0.189862932011E+03    0.21813E+00   -0.68171E-01 12960   0.433E+00    0.247E+00
DAV:   5    -0.189773256609E+03    0.89675E-01   -0.29085E-01 11760   0.203E+00    0.105E+00
DAV:   6    -0.189763178343E+03    0.10078E-01   -0.54430E-02 11840   0.128E+00    0.775E-01
DAV:   7    -0.189758389962E+03    0.47884E-02   -0.12862E-02 12400   0.651E-01    0.228E-01
DAV:   8    -0.189758024380E+03    0.36558E-03   -0.20362E-03 10800   0.157E-01    0.118E-01
DAV:   9    -0.189758244925E+03   -0.22055E-03   -0.63303E-04  9560   0.894E-02    0.490E-02
DAV:  10    -0.189758301856E+03   -0.56931E-04   -0.23097E-04  7200   0.939E-02
   3 F= -.18975830E+03 E0= -.18964263E+03  d E =-.109917E+01
       N       E                     dE             d eps       ncg     rms          rms(c)
DAV:   1    -0.191356936089E+03   -0.15987E+01   -0.79039E+01  8160   0.202E+01    0.460E+00
DAV:   2    -0.191135779875E+03    0.22116E+00   -0.53857E+00 13400   0.726E+00    0.410E+00
DAV:   3    -0.191339297519E+03   -0.20352E+00   -0.14852E+00 12240   0.897E+00    0.682E+00
DAV:   4    -0.190917733481E+03    0.42156E+00   -0.13100E+00 13000   0.796E+00    0.276E+00
DAV:   5    -0.190808225357E+03    0.10951E+00   -0.29451E-01 11040   0.235E+00    0.127E+00
DAV:   6    -0.190803415353E+03    0.48100E-02   -0.11246E-01 12320   0.214E+00    0.148E+00
DAV:   7    -0.190787191913E+03    0.16223E-01   -0.51916E-02 11800   0.154E+00    0.582E-01
DAV:   8    -0.190782249304E+03    0.49426E-02   -0.75345E-03 10560   0.444E-01    0.161E-01
DAV:   9    -0.190783063002E+03   -0.81370E-03   -0.25451E-03 12320   0.276E-01    0.286E-01
DAV:  10    -0.190782691921E+03    0.37108E-03   -0.25014E-03 11760   0.331E-01    0.171E-01
DAV:  11    -0.190782386487E+03    0.30543E-03   -0.70362E-04  9920   0.141E-01    0.479E-02
DAV:  12    -0.190782375415E+03    0.11072E-04   -0.94383E-05  7120   0.393E-02
   4 F= -.19078238E+03 E0= -.19068621E+03  d E =-.102407E+01
       N       E                     dE             d eps       ncg     rms          rms(c)
DAV:   1    -0.192197809323E+03   -0.14154E+01   -0.17210E+02  8160   0.291E+01    0.552E+00
DAV:   2    -0.191914110730E+03    0.28370E+00   -0.89078E+00 10200   0.727E+00    0.301E+00
DAV:   3    -0.191739382731E+03    0.17473E+00   -0.11684E+00 10840   0.387E+00    0.247E+00
DAV:   4    -0.191787825952E+03   -0.48443E-01   -0.57773E-01 11480   0.502E+00    0.471E+00
DAV:   5    -0.191621565715E+03    0.16626E+00   -0.68103E-01 11040   0.558E+00    0.193E+00
DAV:   6    -0.191594607988E+03    0.26958E-01   -0.14085E-01 11880   0.255E+00    0.142E+00
DAV:   7    -0.191577207392E+03    0.17401E-01   -0.62675E-02 12440   0.189E+00    0.652E-01
DAV:   8    -0.191570842758E+03    0.63646E-02   -0.11436E-02 12440   0.667E-01    0.155E-01
DAV:   9    -0.191571724889E+03   -0.88213E-03   -0.29283E-03 11560   0.306E-01    0.283E-01
DAV:  10    -0.191571032536E+03    0.69235E-03   -0.18455E-03 11000   0.314E-01    0.878E-02
DAV:  11    -0.191571012385E+03    0.20152E-04   -0.17611E-04  6400   0.815E-02
   5 F= -.19157101E+03 E0= -.19148458E+03  d E =-.788637E+00
       N       E                     dE             d eps       ncg     rms          rms(c)
DAV:   1    -0.191675265486E+03   -0.10423E+00   -0.76632E+00  8160   0.586E+00    0.734E-01
DAV:   2    -0.191741980004E+03   -0.66715E-01   -0.35014E-01 13440   0.320E+00    0.215E+00
DAV:   3    -0.191690399366E+03    0.51581E-01   -0.97461E-02 12520   0.240E+00    0.367E-01
DAV:   4    -0.191690615188E+03   -0.21582E-03   -0.86989E-03 11360   0.609E-01    0.545E-01
DAV:   5    -0.191688385383E+03    0.22298E-02   -0.74200E-03 11720   0.650E-01    0.289E-01
DAV:   6    -0.191687688847E+03    0.69654E-03   -0.31896E-03 11520   0.282E-01    0.935E-02
DAV:   7    -0.191687508785E+03    0.18006E-03   -0.66789E-04 10960   0.113E-01    0.546E-02
DAV:   8    -0.191687538540E+03   -0.29755E-04   -0.24115E-04  7360   0.108E-01
   6 F= -.19168754E+03 E0= -.19160178E+03  d E =-.116526E+00
       N       E                     dE             d eps       ncg     rms          rms(c)
DAV:   1    -0.191834787706E+03   -0.14728E+00   -0.24707E+01  8160   0.105E+01    0.107E+00
DAV:   2    -0.191920233343E+03   -0.85446E-01   -0.71469E-01 12080   0.327E+00    0.209E+00
DAV:   3    -0.191878210685E+03    0.42023E-01   -0.15783E-01 12600   0.298E+00    0.965E-01
DAV:   4    -0.191872575148E+03    0.56355E-02   -0.28945E-02 11600   0.121E+00    0.865E-01
DAV:   5    -0.191866797458E+03    0.57777E-02   -0.20458E-02 12360   0.113E+00    0.506E-01
DAV:   6    -0.191864825077E+03    0.19724E-02   -0.83675E-03 12400   0.499E-01    0.196E-01
DAV:   7    -0.191864272215E+03    0.55286E-03   -0.28095E-03 10840   0.258E-01    0.154E-01
DAV:   8    -0.191864169234E+03    0.10298E-03   -0.10682E-03 10920   0.238E-01    0.125E-01
DAV:   9    -0.191864009488E+03    0.15975E-03   -0.34896E-04  8160   0.128E-01    0.344E-02
DAV:  10    -0.191863999634E+03    0.98539E-05   -0.10531E-04  6520   0.367E-02
   7 F= -.19186400E+03 E0= -.19178247E+03  d E =-.176461E+00
       N       E                     dE             d eps       ncg     rms          rms(c)
DAV:   1    -0.191902604157E+03   -0.38595E-01   -0.12003E+00  8160   0.241E+00    0.374E-01
DAV:   2    -0.191904043057E+03   -0.14389E-02   -0.52917E-02 11040   0.750E-01    0.358E-01
DAV:   3    -0.191904454187E+03   -0.41113E-03   -0.98532E-03 11880   0.764E-01    0.429E-01
DAV:   4    -0.191902075336E+03    0.23789E-02   -0.51481E-03 11880   0.556E-01    0.192E-01
DAV:   5    -0.191902220143E+03   -0.14481E-03   -0.28488E-03 11760   0.348E-01    0.262E-01
DAV:   6    -0.191901595375E+03    0.62477E-03   -0.17470E-03 10560   0.317E-01    0.978E-02
DAV:   7    -0.191901499471E+03    0.95905E-04   -0.30839E-04  7720   0.102E-01
   8 F= -.19190150E+03 E0= -.19182039E+03  d E =-.374998E-01
       N       E                     dE             d eps       ncg     rms          rms(c)
DAV:   1    -0.191973322790E+03   -0.71727E-01   -0.58463E+00  8160   0.513E+00    0.490E-01
DAV:   2    -0.191985526985E+03   -0.12204E-01   -0.17518E-01 11880   0.116E+00    0.354E-01
DAV:   3    -0.191987470971E+03   -0.19440E-02   -0.14274E-02 12720   0.815E-01    0.572E-01
DAV:   4    -0.191983435355E+03    0.40356E-02   -0.65740E-03 11640   0.691E-01    0.217E-01
DAV:   5    -0.191983770325E+03   -0.33497E-03   -0.35338E-03 12000   0.392E-01    0.292E-01
DAV:   6    -0.191983553416E+03    0.21691E-03   -0.34372E-03 11560   0.451E-01    0.242E-01
DAV:   7    -0.191982820994E+03    0.73242E-03   -0.11691E-03 10120   0.232E-01    0.456E-02
DAV:   8    -0.191982859937E+03   -0.38943E-04   -0.17105E-04  6920   0.971E-02
   9 F= -.19198286E+03 E0= -.19190308E+03  d E =-.813605E-01
       N       E                     dE             d eps       ncg     rms          rms(c)
DAV:   1    -0.192039996885E+03   -0.57176E-01   -0.41144E+00  8160   0.436E+00    0.494E-01
DAV:   2    -0.192050054590E+03   -0.10058E-01   -0.15578E-01 11760   0.118E+00    0.428E-01
DAV:   3    -0.192051709960E+03   -0.16554E-02   -0.16355E-02 12400   0.974E-01    0.588E-01
DAV:   4    -0.192047338988E+03    0.43710E-02   -0.79352E-03 12000   0.742E-01    0.258E-01
DAV:   5    -0.192047810090E+03   -0.47110E-03   -0.42413E-03 11520   0.458E-01    0.357E-01
DAV:   6    -0.192046919523E+03    0.89057E-03   -0.36988E-03 10640   0.450E-01    0.172E-01
DAV:   7    -0.192046466776E+03    0.45275E-03   -0.93482E-04 10040   0.169E-01    0.390E-02
DAV:   8    -0.192046477714E+03   -0.10938E-04   -0.12992E-04  7480   0.805E-02
  10 F= -.19204648E+03 E0= -.19196650E+03  d E =-.636178E-01
       N       E                     dE             d eps       ncg     rms          rms(c)
DAV:   1    -0.192100337099E+03   -0.53870E-01   -0.54758E+00  8160   0.496E+00    0.528E-01
DAV:   2    -0.192115869103E+03   -0.15532E-01   -0.19781E-01 11280   0.142E+00    0.590E-01
DAV:   3    -0.192115782199E+03    0.86903E-04   -0.24552E-02 12320   0.119E+00    0.621E-01
DAV:   4    -0.192111911624E+03    0.38706E-02   -0.10016E-02 11160   0.770E-01    0.337E-01
DAV:   5    -0.192111532874E+03    0.37875E-03   -0.43201E-03 12240   0.517E-01    0.315E-01
DAV:   6    -0.192110881712E+03    0.65116E-03   -0.31086E-03 11600   0.402E-01    0.156E-01
DAV:   7    -0.192110466719E+03    0.41499E-03   -0.10320E-03 10520   0.148E-01    0.294E-02
DAV:   8    -0.192110466148E+03    0.57067E-06   -0.97570E-05  7040   0.409E-02
  11 F= -.19211047E+03 E0= -.19203043E+03  d E =-.639884E-01
       N       E                     dE             d eps       ncg     rms          rms(c)
DAV:   1    -0.192131152747E+03   -0.20686E-01   -0.66680E-01  8160   0.180E+00    0.284E-01
DAV:   2    -0.192132788643E+03   -0.16359E-02   -0.34167E-02 11400   0.621E-01    0.340E-01
DAV:   3    -0.192133211865E+03   -0.42322E-03   -0.75883E-03 12320   0.683E-01    0.411E-01
DAV:   4    -0.192131349526E+03    0.18623E-02   -0.32792E-03 11400   0.452E-01    0.152E-01
DAV:   5    -0.192131443501E+03   -0.93975E-04   -0.14318E-03 10040   0.294E-01    0.193E-01
DAV:   6    -0.192131043651E+03    0.39985E-03   -0.10704E-03 10280   0.242E-01    0.769E-02
DAV:   7    -0.192131047351E+03   -0.37001E-05   -0.32816E-04  8400   0.140E-01
  12 F= -.19213105E+03 E0= -.19205047E+03  d E =-.205812E-01
       N       E                     dE             d eps       ncg     rms          rms(c)
DAV:   1    -0.192161146415E+03   -0.30103E-01   -0.21526E+00  8160   0.311E+00    0.364E-01
DAV:   2    -0.192170283605E+03   -0.91372E-02   -0.88983E-02 11480   0.112E+00    0.615E-01
DAV:   3    -0.192167233527E+03    0.30501E-02   -0.15145E-02 11360   0.941E-01    0.395E-01
DAV:   4    -0.192166256974E+03    0.97655E-03   -0.47579E-03 12480   0.510E-01    0.286E-01
DAV:   5    -0.192165567136E+03    0.68984E-03   -0.23205E-03 11240   0.397E-01    0.170E-01
DAV:   6    -0.192165346720E+03    0.22042E-03   -0.10624E-03 11160   0.207E-01    0.842E-02
DAV:   7    -0.192165235364E+03    0.11136E-03   -0.40600E-04  9200   0.860E-02    0.353E-02
DAV:   8    -0.192165238130E+03   -0.27657E-05   -0.75870E-05  7520   0.695E-02
  13 F= -.19216524E+03 E0= -.19208454E+03  d E =-.341908E-01
       N       E                     dE             d eps       ncg     rms          rms(c)
DAV:   1    -0.192189154198E+03   -0.23919E-01   -0.14980E+00  8160   0.263E+00    0.336E-01
DAV:   2    -0.192194121966E+03   -0.49678E-02   -0.65903E-02 11840   0.772E-01    0.421E-01
DAV:   3    -0.192194595603E+03   -0.47364E-03   -0.12301E-02 11800   0.828E-01    0.514E-01
DAV:   4    -0.192191900280E+03    0.26953E-02   -0.45559E-03 11800   0.513E-01    0.157E-01
DAV:   5    -0.192191844932E+03    0.55348E-04   -0.15299E-03 10560   0.299E-01    0.168E-01
DAV:   6    -0.192191636493E+03    0.20844E-03   -0.98149E-04 10480   0.249E-01    0.966E-02
DAV:   7    -0.192191493307E+03    0.14319E-03   -0.37081E-04  8720   0.111E-01    0.292E-02
DAV:   8    -0.192191492846E+03    0.46158E-06   -0.66084E-05  8080   0.569E-02
  14 F= -.19219149E+03 E0= -.19211041E+03  d E =-.262547E-01
       N       E                     dE             d eps       ncg     rms          rms(c)
DAV:   1    -0.192212149842E+03   -0.20657E-01   -0.13933E+00  8160   0.250E+00    0.330E-01
DAV:   2    -0.192220574963E+03   -0.84251E-02   -0.65773E-02 11440   0.115E+00    0.686E-01
DAV:   3    -0.192215453670E+03    0.51213E-02   -0.13139E-02 11880   0.902E-01    0.259E-01
DAV:   4    -0.192215434080E+03    0.19590E-04   -0.31508E-03 12160   0.419E-01    0.280E-01
DAV:   5    -0.192214718556E+03    0.71552E-03   -0.19652E-03 10640   0.377E-01    0.144E-01
DAV:   6    -0.192214560750E+03    0.15781E-03   -0.82148E-04 11400   0.162E-01    0.667E-02
DAV:   7    -0.192214476282E+03    0.84468E-04   -0.27900E-04  7560   0.642E-02
  15 F= -.19221448E+03 E0= -.19213394E+03  d E =-.229834E-01
       N       E                     dE             d eps       ncg     rms          rms(c)
DAV:   1    -0.192228194851E+03   -0.13634E-01   -0.62005E-01  8160   0.170E+00    0.237E-01
DAV:   2    -0.192230809525E+03   -0.26147E-02   -0.29607E-02 11920   0.591E-01    0.371E-01
DAV:   3    -0.192230133145E+03    0.67638E-03   -0.64632E-03 12000   0.620E-01    0.303E-01
DAV:   4    -0.192229178931E+03    0.95421E-03   -0.17470E-03 11520   0.313E-01    0.113E-01
DAV:   5    -0.192229163353E+03    0.15578E-04   -0.76497E-04 10160   0.224E-01
  16 F= -.19222916E+03 E0= -.19214896E+03  d E =-.146871E-01
       N       E                     dE             d eps       ncg     rms          rms(c)
DAV:   1    -0.192244123011E+03   -0.14944E-01   -0.90063E-01  8160   0.202E+00    0.279E-01
DAV:   2    -0.192249815321E+03   -0.56923E-02   -0.40378E-02 11400   0.900E-01    0.596E-01
DAV:   3    -0.192245908157E+03    0.39072E-02   -0.90041E-03 11880   0.765E-01    0.205E-01
DAV:   4    -0.192246062910E+03   -0.15475E-03   -0.20253E-03 11160   0.357E-01    0.250E-01
DAV:   5    -0.192245409908E+03    0.65300E-03   -0.13208E-03 10480   0.316E-01    0.900E-02
DAV:   6    -0.192245377874E+03    0.32033E-04   -0.40578E-04  9120   0.989E-02
  17 F= -.19224538E+03 E0= -.19216593E+03  d E =-.162145E-01
       N       E                     dE             d eps       ncg     rms          rms(c)
DAV:   1    -0.192263095347E+03   -0.17685E-01   -0.17252E+00  8160   0.280E+00    0.370E-01
DAV:   2    -0.192271277352E+03   -0.81820E-02   -0.77194E-02 11400   0.101E+00    0.628E-01
DAV:   3    -0.192267770395E+03    0.35070E-02   -0.15185E-02 11880   0.967E-01    0.372E-01
DAV:   4    -0.192266810374E+03    0.96002E-03   -0.39341E-03 12520   0.474E-01    0.258E-01
DAV:   5    -0.192266213101E+03    0.59727E-03   -0.19885E-03 10880   0.384E-01    0.151E-01
DAV:   6    -0.192266049835E+03    0.16327E-03   -0.87487E-04 10480   0.176E-01    0.721E-02
DAV:   7    -0.192265968829E+03    0.81006E-04   -0.36590E-04  8880   0.954E-02
  18 F= -.19226597E+03 E0= -.19218777E+03  d E =-.205910E-01
       N       E                     dE             d eps       ncg     rms          rms(c)
DAV:   1    -0.192272834359E+03   -0.67845E-02   -0.23508E-01  8160   0.104E+00    0.179E-01
DAV:   2    -0.192274914962E+03   -0.20806E-02   -0.14030E-02 10400   0.642E-01    0.406E-01
DAV:   3    -0.192273054096E+03    0.18609E-02   -0.37545E-03 12400   0.511E-01    0.121E-01
DAV:   4    -0.192273074343E+03   -0.20247E-04   -0.82321E-04  9760   0.218E-01
  19 F= -.19227307E+03 E0= -.19219569E+03  d E =-.710551E-02
       N       E                     dE             d eps       ncg     rms          rms(c)
DAV:   1    -0.192283539416E+03   -0.10485E-01   -0.71355E-01  8160   0.180E+00    0.243E-01
DAV:   2    -0.192285914110E+03   -0.23747E-02   -0.28285E-02 11400   0.585E-01    0.347E-01
DAV:   3    -0.192285265343E+03    0.64877E-03   -0.55879E-03 11680   0.589E-01    0.282E-01
DAV:   4    -0.192284560614E+03    0.70473E-03   -0.19958E-03 11720   0.338E-01    0.141E-01
DAV:   5    -0.192284439370E+03    0.12124E-03   -0.92370E-04 10480   0.250E-01    0.127E-01
DAV:   6    -0.192284321629E+03    0.11774E-03   -0.50246E-04  9760   0.177E-01    0.621E-02
DAV:   7    -0.192284260433E+03    0.61196E-04   -0.12230E-04  6320   0.614E-02
  20 F= -.19228426E+03 E0= -.19220830E+03  d E =-.111861E-01
       N       E                     dE             d eps       ncg     rms          rms(c)
DAV:   1    -0.192297437600E+03   -0.13116E-01   -0.21324E+00  8160   0.309E+00    0.406E-01
DAV:   2    -0.192308867920E+03   -0.11430E-01   -0.10144E-01 11240   0.121E+00    0.732E-01
DAV:   3    -0.192303993166E+03    0.48748E-02   -0.17661E-02 12000   0.109E+00    0.389E-01
DAV:   4    -0.192302637853E+03    0.13553E-02   -0.38874E-03 11960   0.488E-01    0.234E-01
DAV:   5    -0.192302199529E+03    0.43832E-03   -0.18661E-03 11560   0.378E-01    0.157E-01
DAV:   6    -0.192302039741E+03    0.15979E-03   -0.98984E-04 10760   0.189E-01    0.775E-02
DAV:   7    -0.192301918368E+03    0.12137E-03   -0.35497E-04  9120   0.899E-02    0.386E-02
DAV:   8    -0.192301916213E+03    0.21551E-05   -0.75388E-05  8160   0.754E-02
  21 F= -.19230192E+03 E0= -.19222806E+03  d E =-.176558E-01
       N       E                     dE             d eps       ncg     rms          rms(c)
DAV:   1    -0.192305844062E+03   -0.39257E-02   -0.15839E-01  8160   0.860E-01    0.152E-01
DAV:   2    -0.192307284377E+03   -0.14403E-02   -0.87735E-03 10320   0.562E-01    0.349E-01
DAV:   3    -0.192305781005E+03    0.15034E-02   -0.24058E-03 12360   0.427E-01    0.712E-02
DAV:   4    -0.192305711695E+03    0.69309E-04   -0.25152E-04  6960   0.824E-02
  22 F= -.19230571E+03 E0= -.19223278E+03  d E =-.379548E-02
       N       E                     dE             d eps       ncg     rms          rms(c)
DAV:   1    -0.192311482368E+03   -0.57014E-02   -0.43024E-01  8160   0.139E+00    0.194E-01
DAV:   2    -0.192313372803E+03   -0.18904E-02   -0.20172E-02 10720   0.539E-01    0.297E-01
DAV:   3    -0.192312551572E+03    0.82123E-03   -0.30457E-03 13360   0.469E-01    0.158E-01
DAV:   4    -0.192312249941E+03    0.30163E-03   -0.64741E-04 10040   0.198E-01    0.888E-02
DAV:   5    -0.192312312785E+03   -0.62844E-04   -0.47886E-04 10400   0.192E-01
  23 F= -.19231231E+03 E0= -.19224073E+03  d E =-.660109E-02
       N       E                     dE             d eps       ncg     rms          rms(c)
DAV:   1    -0.192316525095E+03   -0.42752E-02   -0.29686E-01  8160   0.117E+00    0.154E-01
DAV:   2    -0.192317235808E+03   -0.71071E-03   -0.12064E-02 10280   0.314E-01    0.142E-01
DAV:   3    -0.192317445445E+03   -0.20964E-03   -0.17413E-03 12720   0.340E-01    0.207E-01
DAV:   4    -0.192316932615E+03    0.51283E-03   -0.72527E-04 10400   0.240E-01    0.637E-02
DAV:   5    -0.192316972597E+03   -0.39982E-04   -0.26987E-04  8520   0.136E-01
  24 F= -.19231697E+03 E0= -.19224615E+03  d E =-.465981E-02
       N       E                     dE             d eps       ncg     rms          rms(c)
DAV:   1    -0.192320431800E+03   -0.34992E-02   -0.23873E-01  8160   0.104E+00    0.152E-01
DAV:   2    -0.192322182684E+03   -0.17509E-02   -0.12895E-02 10760   0.501E-01    0.310E-01
DAV:   3    -0.192321070419E+03    0.11123E-02   -0.24514E-03 11840   0.425E-01    0.111E-01
DAV:   4    -0.192321028720E+03    0.41698E-04   -0.47260E-04  8720   0.166E-01
  25 F= -.19232103E+03 E0= -.19225081E+03  d E =-.405612E-02
       N       E                     dE             d eps       ncg     rms          rms(c)
DAV:   1    -0.192323428560E+03   -0.23581E-02   -0.13273E-01  8160   0.783E-01    0.114E-01
DAV:   2    -0.192323931127E+03   -0.50257E-03   -0.52057E-03 11640   0.270E-01    0.180E-01
DAV:   3    -0.192323683051E+03    0.24808E-03   -0.11940E-03 11240   0.289E-01    0.119E-01
DAV:   4    -0.192323528606E+03    0.15444E-03   -0.29925E-04  8760   0.126E-01    0.425E-02
DAV:   5    -0.192323516362E+03    0.12245E-04   -0.12257E-04  6760   0.584E-02
  26 F= -.19232352E+03 E0= -.19225374E+03  d E =-.248764E-02
       N       E                     dE             d eps       ncg     rms          rms(c)
DAV:   1    -0.192326208894E+03   -0.26803E-02   -0.25516E-01  8160   0.106E+00    0.135E-01
DAV:   2    -0.192327524871E+03   -0.13160E-02   -0.13122E-02 10600   0.405E-01    0.219E-01
DAV:   3    -0.192327210091E+03    0.31478E-03   -0.18163E-03 13120   0.365E-01    0.145E-01
DAV:   4    -0.192326949700E+03    0.26039E-03   -0.33005E-04  8480   0.155E-01    0.405E-02
DAV:   5    -0.192327019407E+03   -0.69707E-04   -0.17691E-04  7240   0.113E-01
  27 F= -.19232702E+03 E0= -.19225799E+03  d E =-.350305E-02
       N       E                     dE             d eps       ncg     rms          rms(c)
DAV:   1    -0.192328289040E+03   -0.13393E-02   -0.56838E-02  8160   0.512E-01    0.813E-02
DAV:   2    -0.192328566346E+03   -0.27731E-03   -0.27351E-03 10840   0.235E-01    0.142E-01
DAV:   3    -0.192328342218E+03    0.22413E-03   -0.56294E-04 10360   0.207E-01    0.585E-02
DAV:   4    -0.192328311578E+03    0.30640E-04   -0.10830E-04  5920   0.837E-02
  28 F= -.19232831E+03 E0= -.19225963E+03  d E =-.129217E-02
       N       E                     dE             d eps       ncg     rms          rms(c)
DAV:   1    -0.192330095340E+03   -0.17531E-02   -0.13040E-01  8160   0.769E-01    0.991E-02
DAV:   2    -0.192330666980E+03   -0.57164E-03   -0.58646E-03 11160   0.265E-01    0.154E-01
DAV:   3    -0.192330496777E+03    0.17020E-03   -0.87803E-04 11240   0.259E-01    0.107E-01
DAV:   4    -0.192330363519E+03    0.13326E-03   -0.15861E-04  6800   0.110E-01    0.326E-02
DAV:   5    -0.192330383250E+03   -0.19731E-04   -0.90670E-05  6680   0.796E-02
  29 F= -.19233038E+03 E0= -.19226223E+03  d E =-.207167E-02
       N       E                     dE             d eps       ncg     rms          rms(c)
DAV:   1    -0.192331775454E+03   -0.14119E-02   -0.11444E-01  8160   0.718E-01    0.974E-02
DAV:   2    -0.192332481604E+03   -0.70615E-03   -0.61686E-03 10800   0.303E-01    0.173E-01
DAV:   3    -0.192332153543E+03    0.32806E-03   -0.89552E-04 11000   0.260E-01    0.760E-02
DAV:   4    -0.192332095304E+03    0.58239E-04   -0.11581E-04  5720   0.100E-01
  30 F= -.19233210E+03 E0= -.19226429E+03  d E =-.171205E-02
       N       E                     dE             d eps       ncg     rms          rms(c)
DAV:   1    -0.192333251660E+03   -0.10981E-02   -0.73732E-02  8160   0.585E-01    0.840E-02
DAV:   2    -0.192333598780E+03   -0.34712E-03   -0.31719E-03 11760   0.220E-01    0.146E-01
DAV:   3    -0.192333402820E+03    0.19596E-03   -0.61730E-04 10720   0.221E-01    0.784E-02
DAV:   4    -0.192333325265E+03    0.77555E-04   -0.93264E-05  6000   0.819E-02
  31 F= -.19233333E+03 E0= -.19226580E+03  d E =-.122996E-02
       N       E                     dE             d eps       ncg     rms          rms(c)
DAV:   1    -0.192333276524E+03    0.12630E-03   -0.19147E+00  8160   0.294E+00    0.361E-01
DAV:   2    -0.192341409023E+03   -0.81325E-02   -0.90532E-02 11560   0.966E-01    0.463E-01
DAV:   3    -0.192340207514E+03    0.12015E-02   -0.10264E-02 12320   0.875E-01    0.381E-01
DAV:   4    -0.192338319774E+03    0.18877E-02   -0.26863E-03 12320   0.438E-01    0.140E-01
DAV:   5    -0.192338614119E+03   -0.29435E-03   -0.14898E-03 10760   0.333E-01    0.215E-01
DAV:   6    -0.192338158959E+03    0.45516E-03   -0.11758E-03 10120   0.262E-01    0.705E-02
DAV:   7    -0.192338059759E+03    0.99199E-04   -0.21623E-04  7200   0.747E-02
  32 F= -.19233806E+03 E0= -.19227165E+03  d E =-.473449E-02
       N       E                     dE             d eps       ncg     rms          rms(c)
DAV:   1    -0.192336280919E+03    0.18780E-02   -0.27642E-01  8160   0.113E+00    0.147E-01
DAV:   2    -0.192337126360E+03   -0.84544E-03   -0.12636E-02 10640   0.338E-01    0.154E-01
DAV:   3    -0.192337255944E+03   -0.12958E-03   -0.16800E-03 12920   0.345E-01    0.202E-01
DAV:   4    -0.192336741488E+03    0.51446E-03   -0.69442E-04  9840   0.225E-01    0.513E-02
DAV:   5    -0.192336790914E+03   -0.49426E-04   -0.27321E-04  7600   0.126E-01
  33 F= -.19233679E+03 E0= -.19226995E+03  d E =0.126885E-02
       N       E                     dE             d eps       ncg     rms          rms(c)
DAV:   1    -0.192337520193E+03   -0.77871E-03   -0.15964E-01  8160   0.848E-01    0.938E-02
DAV:   2    -0.192338065146E+03   -0.54495E-03   -0.67938E-03 11400   0.247E-01    0.917E-02
DAV:   3    -0.192338062354E+03    0.27919E-05   -0.72307E-04 11120   0.202E-01
  34 F= -.19233806E+03 E0= -.19227158E+03  d E =-.127144E-02
       N       E                     dE             d eps       ncg     rms          rms(c)
DAV:   1    -0.192337951248E+03    0.11390E-03   -0.32328E-04  9720   0.147E-01    0.456E-02
DAV:   2    -0.192338144339E+03   -0.19309E-03   -0.37573E-04  8760   0.168E-01    0.131E-01
DAV:   3    -0.192337926368E+03    0.21797E-03   -0.25387E-04  8200   0.161E-01    0.334E-02
DAV:   4    -0.192337918831E+03    0.75369E-05   -0.40341E-05  5720   0.419E-02
  35 F= -.19233792E+03 E0= -.19227148E+03  d E =0.143523E-03
