       N       E                     dE             d eps       ncg     rms          rms(c)
DAV:   1     0.112376567154E+04    0.11238E+04   -0.35861E+04  8160   0.577E+02
DAV:   2    -0.331283055114E+01   -0.11271E+04   -0.10859E+04 11200   0.173E+02
DAV:   3    -0.199687670410E+03   -0.19637E+03   -0.18865E+03 10880   0.820E+01
DAV:   4    -0.208948475938E+03   -0.92608E+01   -0.89676E+01 12120   0.262E+01
DAV:   5    -0.209271646913E+03   -0.32317E+00   -0.32223E+00 11400   0.367E+00    0.275E+01
DAV:   6    -0.237527376099E+03   -0.28256E+02   -0.10925E+02 12440   0.599E+01    0.594E+01
DAV:   7    -0.196665633832E+03    0.40862E+02   -0.17492E+02 13480   0.152E+02    0.202E+01
DAV:   8    -0.189676906867E+03    0.69887E+01   -0.18323E+01 11920   0.129E+01    0.129E+01
DAV:   9    -0.188191171017E+03    0.14857E+01   -0.32370E+00 13040   0.622E+00    0.934E+00
DAV:  10    -0.186927954447E+03    0.12632E+01   -0.17697E+00 13400   0.798E+00    0.213E+00
DAV:  11    -0.187016460405E+03   -0.88506E-01   -0.56313E-01 13600   0.282E+00    0.353E+00
DAV:  12    -0.186952833192E+03    0.63627E-01   -0.59868E-01 12720   0.419E+00    0.340E+00
DAV:  13    -0.186856896511E+03    0.95937E-01   -0.27920E-01 13360   0.291E+00    0.183E+00
DAV:  14    -0.186822158932E+03    0.34738E-01   -0.91751E-02 13040   0.153E+00    0.579E-01
DAV:  15    -0.186817470989E+03    0.46879E-02   -0.12467E-02 11720   0.391E-01    0.375E-01
DAV:  16    -0.186818330403E+03   -0.85941E-03   -0.10680E-02 12960   0.543E-01    0.598E-01
DAV:  17    -0.186815339468E+03    0.29909E-02   -0.77991E-03 12920   0.482E-01    0.201E-01
DAV:  18    -0.186815078049E+03    0.26142E-03   -0.14452E-03 11320   0.158E-01    0.979E-02
DAV:  19    -0.186815091127E+03   -0.13078E-04   -0.58640E-04  9640   0.681E-02
   1 F= -.18681509E+03 E0= -.18664368E+03  d E =-.186815E+03
       N       E                     dE             d eps       ncg     rms          rms(c)
DAV:   1    -0.187481550732E+03   -0.66647E+00   -0.27581E+02  8160   0.353E+01    0.469E+00
DAV:   2    -0.189421599795E+03   -0.19400E+01   -0.20272E+01 11960   0.154E+01    0.908E+00
DAV:   3    -0.189316152006E+03    0.10545E+00   -0.39283E+00 12360   0.122E+01    0.647E+00
DAV:   4    -0.188725538057E+03    0.59061E+00   -0.63514E-01 12560   0.463E+00    0.174E+00
DAV:   5    -0.188751130973E+03   -0.25593E-01   -0.35550E-01 12520   0.243E+00    0.337E+00
DAV:   6    -0.188725670303E+03    0.25461E-01   -0.54246E-01 12320   0.397E+00    0.290E+00
DAV:   7    -0.188661775590E+03    0.63895E-01   -0.17847E-01 12640   0.219E+00    0.113E+00
DAV:   8    -0.188640031909E+03    0.21744E-01   -0.48940E-02 10040   0.767E-01    0.462E-01
DAV:   9    -0.188638795119E+03    0.12368E-02   -0.80544E-03 11680   0.375E-01    0.386E-01
DAV:  10    -0.188638716284E+03    0.78835E-04   -0.51654E-03 12880   0.403E-01    0.343E-01
DAV:  11    -0.188637829545E+03    0.88674E-03   -0.29861E-03 11440   0.257E-01    0.108E-01
DAV:  12    -0.188638101837E+03   -0.27229E-03   -0.79545E-04 11240   0.841E-02    0.840E-02
DAV:  13    -0.188638100346E+03    0.14911E-05   -0.23249E-04  6680   0.591E-02
   2 F= -.18863810E+03 E0= -.18849827E+03  d E =-.182301E+01
       N       E                     dE             d eps       ncg     rms          rms(c)
DAV:   1    -0.190596547060E+03   -0.19584E+01   -0.32045E+01  9160   0.144E+01    0.447E+00
DAV:   2    -0.190524503744E+03    0.72043E-01   -0.27865E+00 12360   0.944E+00    0.712E+00
DAV:   3    -0.190071796053E+03    0.45271E+00   -0.13145E+00 12280   0.863E+00    0.424E+00
DAV:   4    -0.189855764475E+03    0.21603E+00   -0.69623E-01 13120   0.438E+00    0.248E+00
DAV:   5    -0.189765175536E+03    0.90589E-01   -0.29687E-01 12240   0.201E+00    0.921E-01
DAV:   6    -0.189753876918E+03    0.11299E-01   -0.48969E-02 11720   0.108E+00    0.747E-01
DAV:   7    -0.189750290387E+03    0.35865E-02   -0.13971E-02 11360   0.673E-01    0.269E-01
DAV:   8    -0.189749782650E+03    0.50774E-03   -0.20733E-03 11760   0.186E-01    0.136E-01
DAV:   9    -0.189750206811E+03   -0.42416E-03   -0.12005E-03 11760   0.164E-01    0.190E-01
DAV:  10    -0.189750386547E+03   -0.17974E-03   -0.16879E-03 10280   0.266E-01    0.232E-01
DAV:  11    -0.189749908758E+03    0.47779E-03   -0.79625E-04  8840   0.171E-01    0.256E-02
DAV:  12    -0.189749954497E+03   -0.45738E-04   -0.68466E-05  6040   0.285E-02
   3 F= -.18974995E+03 E0= -.18963154E+03  d E =-.111185E+01
       N       E                     dE             d eps       ncg     rms          rms(c)
DAV:   1    -0.191349316742E+03   -0.15994E+01   -0.79786E+01  8160   0.203E+01    0.461E+00
DAV:   2    -0.191153149699E+03    0.19617E+00   -0.53863E+00 13000   0.755E+00    0.445E+00
DAV:   3    -0.191298978496E+03   -0.14583E+00   -0.14962E+00 12320   0.905E+00    0.652E+00
DAV:   4    -0.190899580409E+03    0.39940E+00   -0.12577E+00 13000   0.769E+00    0.274E+00
DAV:   5    -0.190780561359E+03    0.11902E+00   -0.30641E-01 12120   0.227E+00    0.897E-01
DAV:   6    -0.190764637452E+03    0.15924E-01   -0.70094E-02 10800   0.975E-01    0.516E-01
DAV:   7    -0.190769905611E+03   -0.52682E-02   -0.29532E-02 11960   0.106E+00    0.940E-01
DAV:   8    -0.190761526810E+03    0.83788E-02   -0.12585E-02 11600   0.777E-01    0.166E-01
DAV:   9    -0.190761934584E+03   -0.40777E-03   -0.17504E-03 11720   0.212E-01    0.210E-01
DAV:  10    -0.190762064791E+03   -0.13021E-03   -0.21347E-03 12000   0.305E-01    0.226E-01
DAV:  11    -0.190761622180E+03    0.44261E-03   -0.10641E-03 10280   0.198E-01    0.529E-02
DAV:  12    -0.190761621105E+03    0.10754E-05   -0.12242E-04  6200   0.461E-02
   4 F= -.19076162E+03 E0= -.19065818E+03  d E =-.101167E+01
       N       E                     dE             d eps       ncg     rms          rms(c)
DAV:   1    -0.192111823086E+03   -0.13502E+01   -0.16739E+02  8160   0.288E+01    0.562E+00
DAV:   2    -0.191840517190E+03    0.27131E+00   -0.92070E+00 11320   0.795E+00    0.375E+00
DAV:   3    -0.191969987526E+03   -0.12947E+00   -0.19355E+00 12080   0.805E+00    0.755E+00
DAV:   4    -0.191773427422E+03    0.19656E+00   -0.25332E+00 11200   0.106E+01    0.459E+00
DAV:   5    -0.191577981561E+03    0.19545E+00   -0.65452E-01 12440   0.575E+00    0.332E+00
DAV:   6    -0.191440319773E+03    0.13766E+00   -0.27014E-01 12480   0.390E+00    0.137E+00
DAV:   7    -0.191423711281E+03    0.16608E-01   -0.58328E-02 12320   0.128E+00    0.546E-01
DAV:   8    -0.191419086799E+03    0.46245E-02   -0.10315E-02 10680   0.451E-01    0.232E-01
DAV:   9    -0.191421088675E+03   -0.20019E-02   -0.51554E-03 12720   0.474E-01    0.462E-01
DAV:  10    -0.191419317773E+03    0.17709E-02   -0.44316E-03 11600   0.468E-01    0.141E-01
DAV:  11    -0.191419126791E+03    0.19098E-03   -0.75244E-04 10560   0.131E-01    0.527E-02
DAV:  12    -0.191419115503E+03    0.11288E-04   -0.12026E-04  6760   0.479E-02
   5 F= -.19141912E+03 E0= -.19131761E+03  d E =-.657494E+00
       N       E                     dE             d eps       ncg     rms          rms(c)
DAV:   1    -0.191460230134E+03   -0.41103E-01   -0.31415E+00  8160   0.376E+00    0.546E-01
DAV:   2    -0.191495976912E+03   -0.35747E-01   -0.19807E-01 13280   0.229E+00    0.162E+00
DAV:   3    -0.191468765937E+03    0.27211E-01   -0.55464E-02 12560   0.173E+00    0.363E-01
DAV:   4    -0.191470036526E+03   -0.12706E-02   -0.10758E-02 11640   0.685E-01    0.582E-01
DAV:   5    -0.191466832744E+03    0.32038E-02   -0.79082E-03 10400   0.593E-01    0.220E-01
DAV:   6    -0.191466383423E+03    0.44932E-03   -0.24365E-03 11200   0.218E-01    0.822E-02
DAV:   7    -0.191466236414E+03    0.14701E-03   -0.62123E-04  9320   0.905E-02    0.362E-02
DAV:   8    -0.191466221855E+03    0.14560E-04   -0.10357E-04  6760   0.386E-02
   6 F= -.19146622E+03 E0= -.19136296E+03  d E =-.471064E-01
       N       E                     dE             d eps       ncg     rms          rms(c)
DAV:   1    -0.191519158894E+03   -0.52922E-01   -0.63178E+00  8160   0.531E+00    0.623E-01
DAV:   2    -0.191540867898E+03   -0.21709E-01   -0.19166E-01 13520   0.158E+00    0.118E+00
DAV:   3    -0.191529065962E+03    0.11802E-01   -0.54295E-02 12320   0.167E+00    0.692E-01
DAV:   4    -0.191526654444E+03    0.24115E-02   -0.16034E-02 11760   0.817E-01    0.568E-01
DAV:   5    -0.191524093916E+03    0.25605E-02   -0.10770E-02 10920   0.707E-01    0.348E-01
DAV:   6    -0.191523073596E+03    0.10203E-02   -0.40478E-03 10400   0.344E-01    0.140E-01
DAV:   7    -0.191523010766E+03    0.62830E-04   -0.16290E-03 11960   0.219E-01    0.162E-01
DAV:   8    -0.191522805027E+03    0.20574E-03   -0.78064E-04  8600   0.194E-01    0.762E-02
DAV:   9    -0.191522753675E+03    0.51352E-04   -0.12851E-04  5920   0.732E-02
   7 F= -.19152275E+03 E0= -.19141798E+03  d E =-.565318E-01
       N       E                     dE             d eps       ncg     rms          rms(c)
DAV:   1    -0.191543054876E+03   -0.20250E-01   -0.68079E-01  8160   0.178E+00    0.268E-01
DAV:   2    -0.191545938549E+03   -0.28837E-02   -0.27448E-02 13440   0.748E-01    0.520E-01
DAV:   3    -0.191543178541E+03    0.27600E-02   -0.85638E-03 11800   0.668E-01    0.204E-01
DAV:   4    -0.191542727661E+03    0.45088E-03   -0.22569E-03 12000   0.254E-01    0.152E-01
DAV:   5    -0.191542828638E+03   -0.10098E-03   -0.18441E-03 11080   0.269E-01    0.219E-01
DAV:   6    -0.191542414207E+03    0.41443E-03   -0.11607E-03  9280   0.229E-01    0.694E-02
DAV:   7    -0.191542372825E+03    0.41382E-04   -0.17399E-04  5800   0.708E-02
   8 F= -.19154237E+03 E0= -.19143725E+03  d E =-.196192E-01
       N       E                     dE             d eps       ncg     rms          rms(c)
DAV:   1    -0.191585005224E+03   -0.42591E-01   -0.31178E+00  8160   0.373E+00    0.422E-01
DAV:   2    -0.191599601392E+03   -0.14596E-01   -0.97282E-02 13600   0.148E+00    0.990E-01
DAV:   3    -0.191589026046E+03    0.10575E-01   -0.27691E-02 12880   0.119E+00    0.303E-01
DAV:   4    -0.191588902749E+03    0.12330E-03   -0.54758E-03 11200   0.422E-01    0.352E-01
DAV:   5    -0.191588040794E+03    0.86195E-03   -0.39123E-03 11400   0.425E-01    0.223E-01
DAV:   6    -0.191587728562E+03    0.31223E-03   -0.17097E-03 10320   0.245E-01    0.102E-01
DAV:   7    -0.191587648525E+03    0.80037E-04   -0.70326E-04 10720   0.141E-01
   9 F= -.19158765E+03 E0= -.19148235E+03  d E =-.452757E-01
       N       E                     dE             d eps       ncg     rms          rms(c)
DAV:   1    -0.191528188170E+03    0.59540E-01   -0.49102E+00  8160   0.468E+00    0.490E-01
DAV:   2    -0.191546498612E+03   -0.18310E-01   -0.13266E-01 13480   0.149E+00    0.106E+00
DAV:   3    -0.191534947555E+03    0.11551E-01   -0.36011E-02 12200   0.131E+00    0.487E-01
DAV:   4    -0.191534915617E+03    0.31938E-04   -0.12024E-02 11240   0.666E-01    0.514E-01
DAV:   5    -0.191532545165E+03    0.23705E-02   -0.62241E-03 11040   0.565E-01    0.222E-01
DAV:   6    -0.191532150847E+03    0.39432E-03   -0.21076E-03 11520   0.268E-01    0.118E-01
DAV:   7    -0.191532405912E+03   -0.25507E-03   -0.15494E-03 11480   0.247E-01    0.210E-01
DAV:   8    -0.191531960751E+03    0.44516E-03   -0.87442E-04  8760   0.206E-01    0.475E-02
DAV:   9    -0.191531949160E+03    0.11592E-04   -0.77287E-05  6040   0.449E-02
  10 F= -.19153195E+03 E0= -.19142639E+03  d E =0.556994E-01
       N       E                     dE             d eps       ncg     rms          rms(c)
DAV:   1    -0.191464625969E+03    0.67335E-01   -0.11778E+01  8160   0.725E+00    0.813E-01
DAV:   2    -0.191513233239E+03   -0.48607E-01   -0.33664E-01 13000   0.265E+00    0.178E+00
DAV:   3    -0.191479570958E+03    0.33662E-01   -0.95925E-02 11520   0.214E+00    0.824E-01
DAV:   4    -0.191478478642E+03    0.10923E-02   -0.35239E-02 12200   0.110E+00    0.803E-01
DAV:   5    -0.191473367086E+03    0.51116E-02   -0.17656E-02 11520   0.925E-01    0.433E-01
DAV:   6    -0.191471250461E+03    0.21166E-02   -0.60627E-03 12160   0.499E-01    0.161E-01
DAV:   7    -0.191471048368E+03    0.20209E-03   -0.20305E-03 11880   0.178E-01    0.831E-02
DAV:   8    -0.191470911546E+03    0.13682E-03   -0.43577E-04 10280   0.951E-02    0.583E-02
DAV:   9    -0.191470915953E+03   -0.44063E-05   -0.20349E-04  7080   0.962E-02
  11 F= -.19147092E+03 E0= -.19136539E+03  d E =0.610332E-01
       N       E                     dE             d eps       ncg     rms          rms(c)
DAV:   1    -0.191454407995E+03    0.16504E-01   -0.33607E+00  8160   0.384E+00    0.374E-01
DAV:   2    -0.191463249899E+03   -0.88419E-02   -0.74771E-02 12680   0.963E-01    0.723E-01
DAV:   3    -0.191459965645E+03    0.32843E-02   -0.23194E-02 12480   0.989E-01    0.550E-01
DAV:   4    -0.191457540020E+03    0.24256E-02   -0.76580E-03 11920   0.499E-01    0.205E-01
DAV:   5    -0.191456833615E+03    0.70640E-03   -0.15127E-03 10120   0.154E-01    0.819E-02
DAV:   6    -0.191456984358E+03   -0.15074E-03   -0.87774E-04 11520   0.146E-01    0.123E-01
DAV:   7    -0.191456884281E+03    0.10008E-03   -0.70610E-04  9400   0.189E-01    0.100E-01
DAV:   8    -0.191456773591E+03    0.11069E-03   -0.20048E-04  6240   0.955E-02    0.313E-02
DAV:   9    -0.191456777010E+03   -0.34187E-05   -0.55645E-05  5800   0.468E-02
  12 F= -.19145678E+03 E0= -.19135034E+03  d E =0.141389E-01
       N       E                     dE             d eps       ncg     rms          rms(c)
DAV:   1    -0.191476321481E+03   -0.19548E-01   -0.14903E+00  8160   0.259E+00    0.309E-01
DAV:   2    -0.191487096817E+03   -0.10775E-01   -0.61573E-02 12280   0.109E+00    0.911E-01
DAV:   3    -0.191479769340E+03    0.73275E-02   -0.22686E-02 12120   0.998E-01    0.335E-01
DAV:   4    -0.191479183887E+03    0.58545E-03   -0.40316E-03 10280   0.360E-01    0.235E-01
DAV:   5    -0.191478691572E+03    0.49232E-03   -0.17793E-03 10640   0.298E-01    0.139E-01
DAV:   6    -0.191478498361E+03    0.19321E-03   -0.67756E-04 10360   0.150E-01    0.651E-02
DAV:   7    -0.191478504017E+03   -0.56555E-05   -0.31336E-04  7520   0.968E-02
  13 F= -.19147850E+03 E0= -.19136953E+03  d E =-.217270E-01
       N       E                     dE             d eps       ncg     rms          rms(c)
DAV:   1    -0.191485543186E+03   -0.70448E-02   -0.19877E-01  8160   0.964E-01    0.131E-01
DAV:   2    -0.191486465512E+03   -0.92233E-03   -0.75503E-03 13600   0.387E-01    0.276E-01
DAV:   3    -0.191485731939E+03    0.73357E-03   -0.24210E-03 11280   0.345E-01    0.119E-01
DAV:   4    -0.191485701233E+03    0.30707E-04   -0.72357E-04  8640   0.170E-01
  14 F= -.19148570E+03 E0= -.19137606E+03  d E =-.719722E-02
       N       E                     dE             d eps       ncg     rms          rms(c)
DAV:   1    -0.191498624965E+03   -0.12893E-01   -0.65985E-01  8160   0.176E+00    0.277E-01
DAV:   2    -0.191508212330E+03   -0.95874E-02   -0.39070E-02 13240   0.103E+00    0.985E-01
DAV:   3    -0.191499293648E+03    0.89187E-02   -0.20789E-02 11640   0.946E-01    0.221E-01
DAV:   4    -0.191498879959E+03    0.41369E-03   -0.19266E-03 10320   0.220E-01    0.122E-01
DAV:   5    -0.191498880205E+03   -0.24573E-06   -0.11981E-03 11320   0.228E-01    0.157E-01
DAV:   6    -0.191498623865E+03    0.25634E-03   -0.74570E-04  8720   0.187E-01    0.575E-02
DAV:   7    -0.191498583007E+03    0.40858E-04   -0.15210E-04  6040   0.626E-02
  15 F= -.19149858E+03 E0= -.19138714E+03  d E =-.128818E-01
       N       E                     dE             d eps       ncg     rms          rms(c)
DAV:   1    -0.191507667183E+03   -0.90433E-02   -0.68382E-01  8160   0.176E+00    0.242E-01
DAV:   2    -0.191515531476E+03   -0.78643E-02   -0.32583E-02 12720   0.947E-01    0.866E-01
DAV:   3    -0.191508352151E+03    0.71793E-02   -0.15714E-02 11040   0.817E-01    0.189E-01
DAV:   4    -0.191508257543E+03    0.94608E-04   -0.16348E-03  9680   0.242E-01    0.160E-01
DAV:   5    -0.191508089197E+03    0.16835E-03   -0.11726E-03 10560   0.242E-01    0.126E-01
DAV:   6    -0.191507931324E+03    0.15787E-03   -0.53177E-04  8680   0.141E-01    0.413E-02
DAV:   7    -0.191507915142E+03    0.16182E-04   -0.13326E-04  6640   0.543E-02
  16 F= -.19150792E+03 E0= -.19139545E+03  d E =-.933214E-02
       N       E                     dE             d eps       ncg     rms          rms(c)
DAV:   1    -0.191522955482E+03   -0.15024E-01   -0.10111E+00  8160   0.215E+00    0.257E-01
DAV:   2    -0.191526195941E+03   -0.32405E-02   -0.30480E-02 13440   0.717E-01    0.505E-01
DAV:   3    -0.191524143828E+03    0.20521E-02   -0.10360E-02 11440   0.656E-01    0.295E-01
DAV:   4    -0.191523819176E+03    0.32465E-03   -0.38857E-03 10560   0.373E-01    0.262E-01
DAV:   5    -0.191523303446E+03    0.51573E-03   -0.21841E-03  9560   0.314E-01    0.160E-01
DAV:   6    -0.191523048160E+03    0.25529E-03   -0.97856E-04  9920   0.187E-01    0.725E-02
DAV:   7    -0.191523124625E+03   -0.76464E-04   -0.54352E-04  8360   0.144E-01
  17 F= -.19152312E+03 E0= -.19140963E+03  d E =-.152095E-01
       N       E                     dE             d eps       ncg     rms          rms(c)
DAV:   1    -0.191554909559E+03   -0.31861E-01   -0.25283E+00  8160   0.343E+00    0.418E-01
DAV:   2    -0.191560827527E+03   -0.59180E-02   -0.78249E-02 12480   0.946E-01    0.619E-01
DAV:   3    -0.191559906560E+03    0.92097E-03   -0.23133E-02 12320   0.101E+00    0.601E-01
DAV:   4    -0.191557425538E+03    0.24810E-02   -0.10603E-02 11600   0.648E-01    0.368E-01
DAV:   5    -0.191556456123E+03    0.96942E-03   -0.61139E-03  9920   0.485E-01    0.275E-01
DAV:   6    -0.191555749240E+03    0.70688E-03   -0.25434E-03 11960   0.296E-01    0.104E-01
DAV:   7    -0.191555639849E+03    0.10939E-03   -0.70720E-04  9920   0.123E-01    0.746E-02
DAV:   8    -0.191555617086E+03    0.22763E-04   -0.31145E-04  8080   0.118E-01
  18 F= -.19155562E+03 E0= -.19144032E+03  d E =-.324925E-01
       N       E                     dE             d eps       ncg     rms          rms(c)
DAV:   1    -0.191545317264E+03    0.10323E-01   -0.33641E-01  8160   0.124E+00    0.128E-01
DAV:   2    -0.191545935476E+03   -0.61821E-03   -0.82914E-03 12280   0.276E-01    0.171E-01
DAV:   3    -0.191545957213E+03   -0.21737E-04   -0.23235E-03 11080   0.298E-01    0.209E-01
DAV:   4    -0.191545611507E+03    0.34571E-03   -0.11634E-03  8720   0.209E-01    0.886E-02
DAV:   5    -0.191545523226E+03    0.88281E-04   -0.27726E-04  6280   0.907E-02
  19 F= -.19154552E+03 E0= -.19143062E+03  d E =0.100939E-01
       N       E                     dE             d eps       ncg     rms          rms(c)
DAV:   1    -0.191556199762E+03   -0.10588E-01   -0.89790E-01  8160   0.200E+00    0.253E-01
DAV:   2    -0.191563703109E+03   -0.75033E-02   -0.34003E-02 12640   0.970E-01    0.833E-01
DAV:   3    -0.191556936376E+03    0.67667E-02   -0.15738E-02 11520   0.821E-01    0.203E-01
DAV:   4    -0.191557017871E+03   -0.81496E-04   -0.23195E-03  9680   0.308E-01    0.221E-01
DAV:   5    -0.191556610738E+03    0.40713E-03   -0.17337E-03 10440   0.286E-01    0.125E-01
DAV:   6    -0.191556551204E+03    0.59535E-04   -0.74420E-04 10040   0.160E-01
  20 F= -.19155655E+03 E0= -.19144134E+03  d E =-.110280E-01
       N       E                     dE             d eps       ncg     rms          rms(c)
DAV:   1    -0.191572196642E+03   -0.15586E-01   -0.12762E+00  8160   0.242E+00    0.278E-01
DAV:   2    -0.191576426222E+03   -0.42296E-02   -0.37480E-02 13520   0.731E-01    0.566E-01
DAV:   3    -0.191574079441E+03    0.23468E-02   -0.13308E-02 12200   0.756E-01    0.342E-01
DAV:   4    -0.191573032838E+03    0.10466E-02   -0.34097E-03 11000   0.335E-01    0.139E-01
DAV:   5    -0.191572701740E+03    0.33110E-03   -0.93878E-04 10440   0.121E-01    0.749E-02
DAV:   6    -0.191572849660E+03   -0.14792E-03   -0.81097E-04 10280   0.181E-01    0.136E-01
DAV:   7    -0.191572640374E+03    0.20929E-03   -0.48990E-04  8360   0.156E-01    0.383E-02
DAV:   8    -0.191572638490E+03    0.18841E-05   -0.86862E-05  5520   0.555E-02
  21 F= -.19157264E+03 E0= -.19145700E+03  d E =-.160873E-01
       N       E                     dE             d eps       ncg     rms          rms(c)
DAV:   1    -0.191612762511E+03   -0.40122E-01   -0.33651E+00  8160   0.397E+00    0.501E-01
DAV:   2    -0.191616554649E+03   -0.37921E-02   -0.99714E-02 12160   0.941E-01    0.466E-01
DAV:   3    -0.191618909583E+03   -0.23549E-02   -0.22869E-02 12200   0.102E+00    0.707E-01
DAV:   4    -0.191613946210E+03    0.49634E-02   -0.12928E-02 12480   0.804E-01    0.339E-01
DAV:   5    -0.191613978015E+03   -0.31805E-04   -0.80494E-03 10160   0.526E-01    0.402E-01
DAV:   6    -0.191612621982E+03    0.13560E-02   -0.47766E-03 10480   0.418E-01    0.138E-01
DAV:   7    -0.191612383632E+03    0.23835E-03   -0.92223E-04  9800   0.139E-01    0.497E-02
DAV:   8    -0.191612344781E+03    0.38851E-04   -0.15339E-04  7600   0.665E-02
  22 F= -.19161234E+03 E0= -.19149679E+03  d E =-.397063E-01
       N       E                     dE             d eps       ncg     rms          rms(c)
DAV:   1    -0.191627181121E+03   -0.14797E-01   -0.51886E-01  8160   0.154E+00    0.193E-01
DAV:   2    -0.191630108095E+03   -0.29270E-02   -0.19319E-02 11360   0.635E-01    0.492E-01
DAV:   3    -0.191627892756E+03    0.22153E-02   -0.72504E-03 12120   0.551E-01    0.186E-01
DAV:   4    -0.191627814030E+03    0.78725E-04   -0.13792E-03  9600   0.239E-01    0.163E-01
DAV:   5    -0.191627610127E+03    0.20390E-03   -0.99165E-04  9640   0.227E-01    0.104E-01
DAV:   6    -0.191627558141E+03    0.51986E-04   -0.40315E-04  7640   0.125E-01
  23 F= -.19162756E+03 E0= -.19151274E+03  d E =-.152134E-01
       N       E                     dE             d eps       ncg     rms          rms(c)
DAV:   1    -0.191648603428E+03   -0.20993E-01   -0.96652E-01  8160   0.211E+00    0.252E-01
DAV:   2    -0.191651956194E+03   -0.33528E-02   -0.29489E-02 12240   0.642E-01    0.503E-01
DAV:   3    -0.191649967167E+03    0.19890E-02   -0.10003E-02 12280   0.665E-01    0.283E-01
DAV:   4    -0.191649624672E+03    0.34250E-03   -0.26306E-03 10440   0.333E-01    0.219E-01
DAV:   5    -0.191649200197E+03    0.42447E-03   -0.16886E-03 10200   0.297E-01    0.127E-01
DAV:   6    -0.191649176720E+03    0.23477E-04   -0.71208E-04  9120   0.162E-01
  24 F= -.19164918E+03 E0= -.19153541E+03  d E =-.216186E-01
       N       E                     dE             d eps       ncg     rms          rms(c)
DAV:   1    -0.191654975625E+03   -0.57754E-02   -0.14011E-01  8160   0.833E-01    0.172E-01
DAV:   2    -0.191660686290E+03   -0.57107E-02   -0.15589E-02 12840   0.797E-01    0.747E-01
DAV:   3    -0.191654890124E+03    0.57962E-02   -0.10206E-02 11360   0.709E-01    0.943E-02
DAV:   4    -0.191654964307E+03   -0.74184E-04   -0.63089E-04  8760   0.148E-01
  25 F= -.19165496E+03 E0= -.19154132E+03  d E =-.578759E-02
       N       E                     dE             d eps       ncg     rms          rms(c)
DAV:   1    -0.191662497465E+03   -0.76073E-02   -0.21273E+00  8160   0.308E+00    0.390E-01
DAV:   2    -0.191681112677E+03   -0.18615E-01   -0.80378E-02 13600   0.152E+00    0.130E+00
DAV:   3    -0.191664327493E+03    0.16785E-01   -0.35655E-02 12000   0.135E+00    0.256E-01
DAV:   4    -0.191663969390E+03    0.35810E-03   -0.32058E-03 11240   0.322E-01    0.239E-01
DAV:   5    -0.191663933286E+03    0.36103E-04   -0.33843E-03 12080   0.387E-01    0.259E-01
DAV:   6    -0.191663327701E+03    0.60558E-03   -0.20624E-03  9560   0.259E-01    0.768E-02
DAV:   7    -0.191663361257E+03   -0.33555E-04   -0.53062E-04  9360   0.136E-01
  26 F= -.19166336E+03 E0= -.19154970E+03  d E =-.839695E-02
       N       E                     dE             d eps       ncg     rms          rms(c)
DAV:   1    -0.191691563916E+03   -0.28236E-01   -0.49153E+00  8160   0.474E+00    0.618E-01
DAV:   2    -0.191712444893E+03   -0.20881E-01   -0.14585E-01 13320   0.177E+00    0.145E+00
DAV:   3    -0.191694243209E+03    0.18202E-01   -0.63095E-02 12200   0.178E+00    0.601E-01
DAV:   4    -0.191690626685E+03    0.36165E-02   -0.13009E-02 12080   0.619E-01    0.349E-01
DAV:   5    -0.191691706692E+03   -0.10800E-02   -0.12176E-02 11520   0.720E-01    0.544E-01
DAV:   6    -0.191688955189E+03    0.27515E-02   -0.65941E-03 10960   0.536E-01    0.150E-01
DAV:   7    -0.191688936090E+03    0.19098E-04   -0.16487E-03 10560   0.258E-01    0.156E-01
DAV:   8    -0.191688677638E+03    0.25845E-03   -0.72117E-04  9040   0.196E-01    0.546E-02
DAV:   9    -0.191688636116E+03    0.41522E-04   -0.90910E-05  6000   0.565E-02
  27 F= -.19168864E+03 E0= -.19157789E+03  d E =-.252749E-01
       N       E                     dE             d eps       ncg     rms          rms(c)
DAV:   1    -0.191711385144E+03   -0.22708E-01   -0.16234E+00  8160   0.269E+00    0.309E-01
DAV:   2    -0.191715934439E+03   -0.45493E-02   -0.50884E-02 12240   0.861E-01    0.525E-01
DAV:   3    -0.191714488566E+03    0.14459E-02   -0.14914E-02 12240   0.807E-01    0.410E-01
DAV:   4    -0.191712932748E+03    0.15558E-02   -0.40118E-03 11280   0.416E-01    0.168E-01
DAV:   5    -0.191712989159E+03   -0.56410E-04   -0.19474E-03 10160   0.319E-01    0.210E-01
DAV:   6    -0.191712587029E+03    0.40213E-03   -0.12738E-03 10440   0.248E-01    0.875E-02
DAV:   7    -0.191712706145E+03   -0.11912E-03   -0.63896E-04  8480   0.182E-01    0.130E-01
DAV:   8    -0.191712506270E+03    0.19987E-03   -0.29689E-04  7200   0.132E-01    0.155E-02
DAV:   9    -0.191712516576E+03   -0.10306E-04   -0.29119E-05  6320   0.219E-02
  28 F= -.19171252E+03 E0= -.19160348E+03  d E =-.238805E-01
       N       E                     dE             d eps       ncg     rms          rms(c)
DAV:   1    -0.191742912455E+03   -0.30406E-01   -0.22355E+00  8160   0.318E+00    0.343E-01
DAV:   2    -0.191749386399E+03   -0.64739E-02   -0.65424E-02 12160   0.869E-01    0.613E-01
DAV:   3    -0.191747100856E+03    0.22855E-02   -0.18845E-02 11920   0.898E-01    0.445E-01
DAV:   4    -0.191745105746E+03    0.19951E-02   -0.37689E-03 11000   0.386E-01    0.131E-01
DAV:   5    -0.191745165756E+03   -0.60010E-04   -0.15257E-03 10360   0.252E-01    0.174E-01
DAV:   6    -0.191745028554E+03    0.13720E-03   -0.12961E-03 10720   0.272E-01    0.126E-01
DAV:   7    -0.191744875382E+03    0.15317E-03   -0.46945E-04  8640   0.154E-01    0.715E-02
DAV:   8    -0.191744825289E+03    0.50093E-04   -0.13003E-04  5560   0.909E-02
  29 F= -.19174483E+03 E0= -.19163893E+03  d E =-.323087E-01
       N       E                     dE             d eps       ncg     rms          rms(c)
DAV:   1    -0.191745055055E+03   -0.17967E-03   -0.97813E-03  8160   0.215E-01    0.311E-02
DAV:   2    -0.191745098831E+03   -0.43776E-04   -0.34266E-04 10440   0.831E-02
  30 F= -.19174510E+03 E0= -.19163900E+03  d E =-.273542E-03
       N       E                     dE             d eps       ncg     rms          rms(c)
DAV:   1    -0.191778103511E+03   -0.33048E-01   -0.26902E+00  8160   0.348E+00    0.364E-01
DAV:   2    -0.191786239966E+03   -0.81365E-02   -0.78312E-02 12920   0.980E-01    0.668E-01
DAV:   3    -0.191783056368E+03    0.31836E-02   -0.20719E-02 11920   0.965E-01    0.447E-01
DAV:   4    -0.191781070675E+03    0.19857E-02   -0.38422E-03 11080   0.398E-01    0.147E-01
DAV:   5    -0.191780990807E+03    0.79868E-04   -0.16591E-03 11280   0.239E-01    0.156E-01
DAV:   6    -0.191780988537E+03    0.22698E-05   -0.13662E-03 10840   0.281E-01    0.144E-01
DAV:   7    -0.191780713867E+03    0.27467E-03   -0.50523E-04  8920   0.165E-01    0.354E-02
DAV:   8    -0.191780708824E+03    0.50421E-05   -0.88755E-05  6520   0.571E-02
  31 F= -.19178071E+03 E0= -.19167809E+03  d E =-.356100E-01
       N       E                     dE             d eps       ncg     rms          rms(c)
DAV:   1    -0.191766471449E+03    0.14242E-01   -0.40113E-01  8160   0.134E+00    0.142E-01
DAV:   2    -0.191768019150E+03   -0.15477E-02   -0.12307E-02 13440   0.409E-01    0.318E-01
DAV:   3    -0.191767110924E+03    0.90823E-03   -0.37899E-03 11880   0.407E-01    0.152E-01
DAV:   4    -0.191766899169E+03    0.21175E-03   -0.50998E-04  8640   0.134E-01    0.654E-02
DAV:   5    -0.191766885714E+03    0.13455E-04   -0.29606E-04  7680   0.109E-01
  32 F= -.19176689E+03 E0= -.19166282E+03  d E =0.138231E-01
       N       E                     dE             d eps       ncg     rms          rms(c)
DAV:   1    -0.191745931211E+03    0.20968E-01   -0.11800E+00  8160   0.230E+00    0.306E-01
DAV:   2    -0.191759706546E+03   -0.13775E-01   -0.60816E-02 13360   0.130E+00    0.114E+00
DAV:   3    -0.191747420938E+03    0.12286E-01   -0.29762E-02 12040   0.109E+00    0.186E-01
DAV:   4    -0.191747082566E+03    0.33837E-03   -0.12945E-03 11200   0.168E-01    0.106E-01
DAV:   5    -0.191747063062E+03    0.19504E-04   -0.88593E-04 11400   0.171E-01
  33 F= -.19174706E+03 E0= -.19164018E+03  d E =0.198227E-01
       N       E                     dE             d eps       ncg     rms          rms(c)
DAV:   1    -0.191762353149E+03   -0.15271E-01   -0.92451E-01  8160   0.203E+00    0.229E-01
DAV:   2    -0.191765088758E+03   -0.27356E-02   -0.32111E-02 12240   0.594E-01    0.319E-01
DAV:   3    -0.191764438545E+03    0.65021E-03   -0.62486E-03 12400   0.568E-01    0.266E-01
DAV:   4    -0.191763742046E+03    0.69650E-03   -0.17933E-03 10960   0.308E-01    0.132E-01
DAV:   5    -0.191763747473E+03   -0.54273E-05   -0.10826E-03 10280   0.223E-01    0.152E-01
DAV:   6    -0.191763533883E+03    0.21359E-03   -0.76527E-04  8720   0.168E-01    0.511E-02
DAV:   7    -0.191763519327E+03    0.14556E-04   -0.14421E-04  6160   0.573E-02
  34 F= -.19176352E+03 E0= -.19165764E+03  d E =-.164563E-01
       N       E                     dE             d eps       ncg     rms          rms(c)
DAV:   1    -0.191772570679E+03   -0.90368E-02   -0.35701E+00  8160   0.398E+00    0.441E-01
DAV:   2    -0.191783417872E+03   -0.10847E-01   -0.11200E-01 12240   0.119E+00    0.759E-01
DAV:   3    -0.191780362550E+03    0.30553E-02   -0.30734E-02 12240   0.116E+00    0.562E-01
DAV:   4    -0.191777221784E+03    0.31408E-02   -0.86750E-03 12120   0.565E-01    0.209E-01
DAV:   5    -0.191776782274E+03    0.43951E-03   -0.22971E-03 10720   0.279E-01    0.182E-01
DAV:   6    -0.191776848402E+03   -0.66127E-04   -0.20924E-03 11680   0.351E-01    0.184E-01
DAV:   7    -0.191776544139E+03    0.30426E-03   -0.96653E-04  9760   0.225E-01    0.895E-02
DAV:   8    -0.191776466339E+03    0.77801E-04   -0.30556E-04  8920   0.131E-01
  35 F= -.19177647E+03 E0= -.19166952E+03  d E =-.129470E-01
       N       E                     dE             d eps       ncg     rms          rms(c)
DAV:   1    -0.191796401229E+03   -0.19857E-01   -0.20060E+00  8160   0.303E+00    0.396E-01
DAV:   2    -0.191802734287E+03   -0.63331E-02   -0.75934E-02 13600   0.104E+00    0.671E-01
DAV:   3    -0.191799863774E+03    0.28705E-02   -0.22915E-02 12240   0.105E+00    0.483E-01
DAV:   4    -0.191797587201E+03    0.22766E-02   -0.59291E-03 11320   0.539E-01    0.224E-01
DAV:   5    -0.191797561324E+03    0.25877E-04   -0.31761E-03 10720   0.419E-01    0.255E-01
DAV:   6    -0.191796807172E+03    0.75415E-03   -0.22206E-03 11600   0.311E-01    0.674E-02
DAV:   7    -0.191796768049E+03    0.39123E-04   -0.39186E-04  7360   0.894E-02
  36 F= -.19179677E+03 E0= -.19169063E+03  d E =-.203017E-01
       N       E                     dE             d eps       ncg     rms          rms(c)
DAV:   1    -0.191807120702E+03   -0.10314E-01   -0.46774E-01  8160   0.148E+00    0.231E-01
DAV:   2    -0.191812034950E+03   -0.49142E-02   -0.25707E-02 12640   0.862E-01    0.657E-01
DAV:   3    -0.191807239605E+03    0.47953E-02   -0.10735E-02 11880   0.728E-01    0.169E-01
DAV:   4    -0.191807113107E+03    0.12650E-03   -0.12768E-03 10080   0.245E-01    0.146E-01
DAV:   5    -0.191806962310E+03    0.15080E-03   -0.97419E-04 10640   0.239E-01    0.113E-01
DAV:   6    -0.191806829830E+03    0.13248E-03   -0.50113E-04  8920   0.151E-01    0.466E-02
DAV:   7    -0.191806804365E+03    0.25465E-04   -0.13316E-04  7400   0.613E-02
  37 F= -.19180680E+03 E0= -.19170227E+03  d E =-.100363E-01
       N       E                     dE             d eps       ncg     rms          rms(c)
DAV:   1    -0.191824679175E+03   -0.17849E-01   -0.12179E+00  8160   0.233E+00    0.279E-01
DAV:   2    -0.191832053952E+03   -0.73748E-02   -0.45954E-02 13520   0.945E-01    0.732E-01
DAV:   3    -0.191826372414E+03    0.56815E-02   -0.16044E-02 12200   0.883E-01    0.239E-01
DAV:   4    -0.191825855392E+03    0.51702E-03   -0.16745E-03 11480   0.230E-01    0.113E-01
DAV:   5    -0.191825724875E+03    0.13052E-03   -0.87831E-04 11360   0.155E-01    0.952E-02
DAV:   6    -0.191825767574E+03   -0.42700E-04   -0.60203E-04  9640   0.194E-01
  38 F= -.19182577E+03 E0= -.19172274E+03  d E =-.189632E-01
       N       E                     dE             d eps       ncg     rms          rms(c)
DAV:   1    -0.191814479041E+03    0.11246E-01   -0.39760E-01  8160   0.135E+00    0.158E-01
DAV:   2    -0.191816307788E+03   -0.18287E-02   -0.14501E-02 13600   0.469E-01    0.356E-01
DAV:   3    -0.191815091306E+03    0.12165E-02   -0.49102E-03 11680   0.473E-01    0.165E-01
DAV:   4    -0.191814808920E+03    0.28239E-03   -0.65156E-04  9800   0.164E-01    0.704E-02
DAV:   5    -0.191814822889E+03   -0.13968E-04   -0.40215E-04  8520   0.148E-01
  39 F= -.19181482E+03 E0= -.19171102E+03  d E =0.109447E-01
       N       E                     dE             d eps       ncg     rms          rms(c)
DAV:   1    -0.191780542395E+03    0.34267E-01   -0.36843E+00  8160   0.413E+00    0.568E-01
DAV:   2    -0.191802757498E+03   -0.22215E-01   -0.15988E-01 13520   0.171E+00    0.139E+00
DAV:   3    -0.191785091584E+03    0.17666E-01   -0.63731E-02 12080   0.167E+00    0.516E-01
DAV:   4    -0.191782344804E+03    0.27468E-02   -0.77622E-03 10400   0.528E-01    0.255E-01
DAV:   5    -0.191782008558E+03    0.33625E-03   -0.47434E-03 12480   0.487E-01    0.279E-01
DAV:   6    -0.191781377080E+03    0.63148E-03   -0.33573E-03 12160   0.420E-01    0.148E-01
DAV:   7    -0.191781074684E+03    0.30240E-03   -0.88676E-04 10120   0.155E-01    0.451E-02
DAV:   8    -0.191781042297E+03    0.32388E-04   -0.11540E-04  7000   0.561E-02
  40 F= -.19178104E+03 E0= -.19167534E+03  d E =0.337806E-01
       N       E                     dE             d eps       ncg     rms          rms(c)
DAV:   1    -0.191837821353E+03   -0.56747E-01   -0.11801E+01  8160   0.738E+00    0.954E-01
DAV:   2    -0.191911481700E+03   -0.73660E-01   -0.47802E-01 13240   0.311E+00    0.238E+00
DAV:   3    -0.191853075268E+03    0.58406E-01   -0.16101E-01 12200   0.290E+00    0.789E-01
DAV:   4    -0.191846007285E+03    0.70680E-02   -0.20340E-02 12240   0.778E-01    0.383E-01
DAV:   5    -0.191844035314E+03    0.19720E-02   -0.11849E-02 11520   0.549E-01    0.328E-01
DAV:   6    -0.191844426738E+03   -0.39142E-03   -0.82354E-03 11560   0.684E-01    0.387E-01
DAV:   7    -0.191842772519E+03    0.16542E-02   -0.38368E-03 11840   0.471E-01    0.140E-01
DAV:   8    -0.191842626390E+03    0.14613E-03   -0.83588E-04  9840   0.217E-01    0.101E-01
DAV:   9    -0.191842507942E+03    0.11845E-03   -0.26473E-04  8400   0.120E-01    0.326E-02
DAV:  10    -0.191842485950E+03    0.21993E-04   -0.86116E-05  6520   0.376E-02
  41 F= -.19184249E+03 E0= -.19174116E+03  d E =-.614437E-01
       N       E                     dE             d eps       ncg     rms          rms(c)
DAV:   1    -0.191845467783E+03   -0.29598E-02   -0.65778E-02  8160   0.550E-01    0.800E-02
DAV:   2    -0.191845855236E+03   -0.38745E-03   -0.28769E-03 12520   0.251E-01    0.185E-01
DAV:   3    -0.191845506488E+03    0.34875E-03   -0.10588E-03 10160   0.233E-01    0.695E-02
DAV:   4    -0.191845455750E+03    0.50738E-04   -0.11267E-04  5760   0.712E-02
  42 F= -.19184546E+03 E0= -.19174474E+03  d E =-.296980E-02
       N       E                     dE             d eps       ncg     rms          rms(c)
DAV:   1    -0.191854652188E+03   -0.91457E-02   -0.95148E-01  8160   0.209E+00    0.248E-01
DAV:   2    -0.191857219867E+03   -0.25677E-02   -0.30316E-02 12800   0.629E-01    0.404E-01
DAV:   3    -0.191856166392E+03    0.10535E-02   -0.73103E-03 12200   0.633E-01    0.278E-01
DAV:   4    -0.191855349325E+03    0.81707E-03   -0.18195E-03 11720   0.300E-01    0.114E-01
DAV:   5    -0.191855381456E+03   -0.32131E-04   -0.98333E-04 10600   0.229E-01
  43 F= -.19185538E+03 E0= -.19175438E+03  d E =-.992571E-02
       N       E                     dE             d eps       ncg     rms          rms(c)
DAV:   1    -0.191872489414E+03   -0.17140E-01   -0.14128E+00  8160   0.254E+00    0.286E-01
DAV:   2    -0.191878821026E+03   -0.63316E-02   -0.53034E-02 12400   0.899E-01    0.572E-01
DAV:   3    -0.191875692458E+03    0.31286E-02   -0.13848E-02 12240   0.810E-01    0.302E-01
DAV:   4    -0.191874865536E+03    0.82692E-03   -0.24201E-03 11240   0.321E-01    0.141E-01
DAV:   5    -0.191874656873E+03    0.20866E-03   -0.10862E-03 10520   0.196E-01    0.109E-01
DAV:   6    -0.191874702106E+03   -0.45232E-04   -0.74653E-04 10240   0.219E-01
  44 F= -.19187470E+03 E0= -.19177655E+03  d E =-.193207E-01
       N       E                     dE             d eps       ncg     rms          rms(c)
DAV:   1    -0.191895870830E+03   -0.21214E-01   -0.11739E+00  8160   0.234E+00    0.319E-01
DAV:   2    -0.191900153987E+03   -0.42832E-02   -0.43613E-02 12640   0.816E-01    0.576E-01
DAV:   3    -0.191897384156E+03    0.27698E-02   -0.13370E-02 12160   0.851E-01    0.343E-01
DAV:   4    -0.191896124398E+03    0.12598E-02   -0.30821E-03 12240   0.363E-01    0.135E-01
DAV:   5    -0.191895813182E+03    0.31122E-03   -0.12456E-03 10600   0.136E-01    0.735E-02
DAV:   6    -0.191895778589E+03    0.34593E-04   -0.52688E-04 10800   0.119E-01
  45 F= -.19189578E+03 E0= -.19179912E+03  d E =-.210765E-01
       N       E                     dE             d eps       ncg     rms          rms(c)
DAV:   1    -0.191909840890E+03   -0.14028E-01   -0.52237E-01  8160   0.154E+00    0.221E-01
DAV:   2    -0.191913735154E+03   -0.38943E-02   -0.24626E-02 12240   0.847E-01    0.533E-01
DAV:   3    -0.191910240342E+03    0.34948E-02   -0.82184E-03 11680   0.653E-01    0.154E-01
DAV:   4    -0.191910259771E+03   -0.19429E-04   -0.12844E-03 10040   0.264E-01    0.173E-01
DAV:   5    -0.191909998031E+03    0.26174E-03   -0.88227E-04 10200   0.242E-01    0.944E-02
DAV:   6    -0.191909922895E+03    0.75136E-04   -0.35916E-04  8360   0.123E-01
  46 F= -.19190992E+03 E0= -.19181502E+03  d E =-.141443E-01
       N       E                     dE             d eps       ncg     rms          rms(c)
DAV:   1    -0.191938642954E+03   -0.28645E-01   -0.21206E+00  8160   0.310E+00    0.347E-01
DAV:   2    -0.191948090820E+03   -0.94479E-02   -0.71758E-02 12320   0.112E+00    0.732E-01
DAV:   3    -0.191942218355E+03    0.58725E-02   -0.18804E-02 11840   0.981E-01    0.312E-01
DAV:   4    -0.191941629809E+03    0.58855E-03   -0.30911E-03 11800   0.386E-01    0.212E-01
DAV:   5    -0.191941171602E+03    0.45821E-03   -0.16943E-03 10760   0.312E-01    0.139E-01
DAV:   6    -0.191941134071E+03    0.37530E-04   -0.97223E-04 10800   0.232E-01
  47 F= -.19194113E+03 E0= -.19184920E+03  d E =-.312112E-01
       N       E                     dE             d eps       ncg     rms          rms(c)
DAV:   1    -0.191928870601E+03    0.12301E-01   -0.29396E-01  8160   0.116E+00    0.123E-01
DAV:   2    -0.191929875854E+03   -0.10053E-02   -0.93559E-03 12480   0.347E-01    0.228E-01
DAV:   3    -0.191929397376E+03    0.47848E-03   -0.21923E-03 11720   0.337E-01    0.128E-01
DAV:   4    -0.191929227152E+03    0.17022E-03   -0.39551E-04  8400   0.134E-01    0.549E-02
DAV:   5    -0.191929199794E+03    0.27358E-04   -0.20370E-04  6640   0.861E-02
  48 F= -.19192920E+03 E0= -.19183632E+03  d E =0.119343E-01
       N       E                     dE             d eps       ncg     rms          rms(c)
DAV:   1    -0.191817943733E+03    0.11128E+00   -0.18689E+01  8160   0.921E+00    0.101E+00
DAV:   2    -0.191876252369E+03   -0.58309E-01   -0.59352E-01 12120   0.248E+00    0.165E+00
DAV:   3    -0.191859880223E+03    0.16372E-01   -0.15300E-01 11400   0.267E+00    0.115E+00
DAV:   4    -0.191847768072E+03    0.12112E-01   -0.30816E-02 12680   0.124E+00    0.647E-01
DAV:   5    -0.191843774136E+03    0.39939E-02   -0.14654E-02 12200   0.964E-01    0.418E-01
DAV:   6    -0.191843240893E+03    0.53324E-03   -0.84725E-03 12360   0.587E-01    0.264E-01
DAV:   7    -0.191841908900E+03    0.13320E-02   -0.30319E-03 11440   0.279E-01    0.614E-02
DAV:   8    -0.191841926270E+03   -0.17371E-04   -0.36052E-04  8840   0.101E-01
  49 F= -.19184193E+03 E0= -.19174171E+03  d E =0.872735E-01
       N       E                     dE             d eps       ncg     rms          rms(c)
DAV:   1    -0.191819767316E+03    0.22142E-01   -0.17481E+00  8160   0.281E+00    0.325E-01
DAV:   2    -0.191829856835E+03   -0.10090E-01   -0.64468E-02 12160   0.122E+00    0.811E-01
DAV:   3    -0.191822906210E+03    0.69506E-02   -0.18655E-02 11960   0.988E-01    0.250E-01
DAV:   4    -0.191822932879E+03   -0.26669E-04   -0.28881E-03 11720   0.389E-01    0.258E-01
DAV:   5    -0.191822222947E+03    0.70993E-03   -0.17355E-03 10600   0.338E-01    0.111E-01
DAV:   6    -0.191822285379E+03   -0.62432E-04   -0.76985E-04 10440   0.162E-01
  50 F= -.19182229E+03 E0= -.19171983E+03  d E =0.196409E-01
       N       E                     dE             d eps       ncg     rms          rms(c)
DAV:   1    -0.191820462497E+03    0.17604E-02   -0.13480E+00  8160   0.245E+00    0.260E-01
DAV:   2    -0.191825905726E+03   -0.54432E-02   -0.40101E-02 12600   0.846E-01    0.558E-01
DAV:   3    -0.191822652643E+03    0.32531E-02   -0.12061E-02 11560   0.748E-01    0.263E-01
DAV:   4    -0.191822109474E+03    0.54317E-03   -0.22699E-03 11120   0.309E-01    0.159E-01
DAV:   5    -0.191821964513E+03    0.14496E-03   -0.11054E-03 10280   0.251E-01    0.134E-01
DAV:   6    -0.191821822514E+03    0.14200E-03   -0.70504E-04 10360   0.195E-01    0.653E-02
DAV:   7    -0.191821784906E+03    0.37608E-04   -0.20941E-04  6160   0.767E-02
  51 F= -.19182178E+03 E0= -.19171774E+03  d E =0.500473E-03
       N       E                     dE             d eps       ncg     rms          rms(c)
DAV:   1    -0.191838950641E+03   -0.17128E-01   -0.10137E+00  8160   0.222E+00    0.373E-01
DAV:   2    -0.191843010475E+03   -0.40598E-02   -0.49828E-02 12320   0.941E-01    0.673E-01
DAV:   3    -0.191839399785E+03    0.36107E-02   -0.18131E-02 12120   0.987E-01    0.392E-01
DAV:   4    -0.191837611470E+03    0.17883E-02   -0.44383E-03 12240   0.436E-01    0.158E-01
DAV:   5    -0.191837407856E+03    0.20361E-03   -0.20163E-03 11920   0.274E-01    0.162E-01
DAV:   6    -0.191837173731E+03    0.23412E-03   -0.12987E-03 11040   0.268E-01    0.994E-02
DAV:   7    -0.191837051604E+03    0.12213E-03   -0.39426E-04  7800   0.122E-01    0.391E-02
DAV:   8    -0.191837042653E+03    0.89515E-05   -0.89198E-05  6880   0.739E-02
  52 F= -.19183704E+03 E0= -.19173359E+03  d E =-.152577E-01
       N       E                     dE             d eps       ncg     rms          rms(c)
DAV:   1    -0.191845314418E+03   -0.82628E-02   -0.40781E-01  8160   0.136E+00    0.176E-01
DAV:   2    -0.191847891360E+03   -0.25769E-02   -0.19349E-02 11400   0.666E-01    0.406E-01
DAV:   3    -0.191846117395E+03    0.17740E-02   -0.53786E-03 11720   0.514E-01    0.151E-01
DAV:   4    -0.191845974217E+03    0.14318E-03   -0.68885E-04  8800   0.202E-01    0.110E-01
DAV:   5    -0.191845908606E+03    0.65611E-04   -0.50058E-04  9320   0.182E-01
  53 F= -.19184591E+03 E0= -.19174325E+03  d E =-.886595E-02
       N       E                     dE             d eps       ncg     rms          rms(c)
DAV:   1    -0.191860450226E+03   -0.14476E-01   -0.94951E-01  8160   0.209E+00    0.253E-01
DAV:   2    -0.191865647210E+03   -0.51970E-02   -0.34089E-02 12520   0.797E-01    0.589E-01
DAV:   3    -0.191861842305E+03    0.38049E-02   -0.10214E-02 12000   0.733E-01    0.202E-01
DAV:   4    -0.191861693077E+03    0.14923E-03   -0.14568E-03 11640   0.259E-01    0.164E-01
DAV:   5    -0.191861417460E+03    0.27562E-03   -0.91268E-04 11280   0.240E-01    0.933E-02
DAV:   6    -0.191861429862E+03   -0.12402E-04   -0.47271E-04  9480   0.148E-01
  54 F= -.19186143E+03 E0= -.19176025E+03  d E =-.155213E-01
       N       E                     dE             d eps       ncg     rms          rms(c)
DAV:   1    -0.191859214141E+03    0.22033E-02   -0.22477E-02  8160   0.335E-01    0.390E-02
DAV:   2    -0.191859274721E+03   -0.60580E-04   -0.68660E-04 11640   0.966E-02
  55 F= -.19185927E+03 E0= -.19175798E+03  d E =0.215514E-02
       N       E                     dE             d eps       ncg     rms          rms(c)
DAV:   1    -0.191866053296E+03   -0.68392E-02   -0.44976E-01  8160   0.143E+00    0.212E-01
DAV:   2    -0.191870699173E+03   -0.46459E-02   -0.25718E-02 12960   0.826E-01    0.601E-01
DAV:   3    -0.191866611426E+03    0.40877E-02   -0.99449E-03 12280   0.722E-01    0.169E-01
DAV:   4    -0.191866317970E+03    0.29346E-03   -0.11198E-03  9960   0.186E-01    0.871E-02
DAV:   5    -0.191866231452E+03    0.86518E-04   -0.47724E-04  9640   0.119E-01
  56 F= -.19186623E+03 E0= -.19176639E+03  d E =-.695673E-02
       N       E                     dE             d eps       ncg     rms          rms(c)
DAV:   1    -0.191882787585E+03   -0.16470E-01   -0.97924E-01  8160   0.217E+00    0.290E-01
DAV:   2    -0.191886498601E+03   -0.37110E-02   -0.35777E-02 12160   0.739E-01    0.498E-01
DAV:   3    -0.191884330489E+03    0.21681E-02   -0.10232E-02 12280   0.779E-01    0.303E-01
DAV:   4    -0.191883578930E+03    0.75156E-03   -0.26917E-03 11400   0.363E-01    0.194E-01
DAV:   5    -0.191883227332E+03    0.35160E-03   -0.13197E-03 11360   0.303E-01    0.116E-01
DAV:   6    -0.191883110027E+03    0.11730E-03   -0.58709E-04  9640   0.151E-01    0.474E-02
DAV:   7    -0.191883069195E+03    0.40833E-04   -0.12591E-04  6880   0.590E-02
  57 F= -.19188307E+03 E0= -.19178434E+03  d E =-.168377E-01
       N       E                     dE             d eps       ncg     rms          rms(c)
DAV:   1    -0.191887924046E+03   -0.48140E-02   -0.82278E-02  8160   0.613E-01    0.687E-02
DAV:   2    -0.191888187828E+03   -0.26378E-03   -0.24464E-03 12000   0.191E-01    0.117E-01
DAV:   3    -0.191888062615E+03    0.12521E-03   -0.52715E-04  9960   0.180E-01    0.680E-02
DAV:   4    -0.191888039886E+03    0.22730E-04   -0.12961E-04  5880   0.915E-02
  58 F= -.19188804E+03 E0= -.19178980E+03  d E =-.497069E-02
       N       E                     dE             d eps       ncg     rms          rms(c)
DAV:   1    -0.191897680216E+03   -0.96176E-02   -0.33605E-01  8160   0.126E+00    0.181E-01
DAV:   2    -0.191899796972E+03   -0.21168E-02   -0.15480E-02 12080   0.600E-01    0.402E-01
DAV:   3    -0.191898037053E+03    0.17599E-02   -0.51054E-03 12000   0.522E-01    0.153E-01
DAV:   4    -0.191897890482E+03    0.14657E-03   -0.80488E-04  9560   0.205E-01    0.111E-01
DAV:   5    -0.191897811009E+03    0.79472E-04   -0.55565E-04  9520   0.187E-01
  59 F= -.19189781E+03 E0= -.19180118E+03  d E =-.977112E-02
       N       E                     dE             d eps       ncg     rms          rms(c)
DAV:   1    -0.191908111792E+03   -0.10221E-01   -0.33681E-01  8160   0.131E+00    0.191E-01
DAV:   2    -0.191908445330E+03   -0.33354E-03   -0.11158E-02 11360   0.350E-01    0.215E-01
DAV:   3    -0.191908517090E+03   -0.71760E-04   -0.34762E-03 12120   0.453E-01    0.257E-01
DAV:   4    -0.191907789204E+03    0.72789E-03   -0.15214E-03  9800   0.294E-01    0.988E-02
DAV:   5    -0.191907813717E+03   -0.24512E-04   -0.67256E-04  9560   0.212E-01
  60 F= -.19190781E+03 E0= -.19181168E+03  d E =-.100027E-01
       N       E                     dE             d eps       ncg     rms          rms(c)
DAV:   1    -0.191925687744E+03   -0.17899E-01   -0.10150E+00  8160   0.216E+00    0.257E-01
DAV:   2    -0.191930580841E+03   -0.48931E-02   -0.36490E-02 12200   0.767E-01    0.541E-01
DAV:   3    -0.191927445836E+03    0.31350E-02   -0.97979E-03 11960   0.732E-01    0.232E-01
DAV:   4    -0.191927089646E+03    0.35619E-03   -0.17055E-03 11160   0.277E-01    0.145E-01
DAV:   5    -0.191926855984E+03    0.23366E-03   -0.83504E-04 10640   0.204E-01    0.955E-02
DAV:   6    -0.191926884015E+03   -0.28031E-04   -0.54346E-04  9480   0.186E-01
  61 F= -.19192688E+03 E0= -.19183295E+03  d E =-.190703E-01
       N       E                     dE             d eps       ncg     rms          rms(c)
DAV:   1    -0.191911195977E+03    0.15660E-01   -0.60966E-01  8160   0.168E+00    0.192E-01
DAV:   2    -0.191913701870E+03   -0.25059E-02   -0.21309E-02 12880   0.531E-01    0.369E-01
DAV:   3    -0.191912314681E+03    0.13872E-02   -0.56657E-03 11600   0.533E-01    0.189E-01
DAV:   4    -0.191912042260E+03    0.27242E-03   -0.10257E-03  9680   0.221E-01    0.116E-01
DAV:   5    -0.191911916535E+03    0.12572E-03   -0.52625E-04  9480   0.176E-01    0.811E-02
DAV:   6    -0.191911894388E+03    0.22148E-04   -0.32141E-04  9680   0.137E-01
  62 F= -.19191189E+03 E0= -.19181627E+03  d E =0.149896E-01
       N       E                     dE             d eps       ncg     rms          rms(c)
DAV:   1    -0.191872872502E+03    0.39044E-01   -0.35364E+00  8160   0.402E+00    0.463E-01
DAV:   2    -0.191884514301E+03   -0.11642E-01   -0.11658E-01 12240   0.114E+00    0.743E-01
DAV:   3    -0.191880305921E+03    0.42084E-02   -0.29507E-02 11480   0.120E+00    0.507E-01
DAV:   4    -0.191878232856E+03    0.20731E-02   -0.67849E-03 12560   0.586E-01    0.300E-01
DAV:   5    -0.191877334585E+03    0.89827E-03   -0.31425E-03 10920   0.441E-01    0.195E-01
DAV:   6    -0.191877276526E+03    0.58059E-04   -0.18602E-03 12720   0.306E-01    0.138E-01
DAV:   7    -0.191876962802E+03    0.31372E-03   -0.69146E-04 10840   0.150E-01    0.242E-02
DAV:   8    -0.191876966381E+03   -0.35787E-05   -0.59131E-05  6960   0.321E-02
  63 F= -.19187697E+03 E0= -.19177768E+03  d E =0.349280E-01
       N       E                     dE             d eps       ncg     rms          rms(c)
DAV:   1    -0.191884620612E+03   -0.76578E-02   -0.20017E-01  8160   0.977E-01    0.140E-01
DAV:   2    -0.191885723611E+03   -0.11030E-02   -0.82474E-03 12160   0.418E-01    0.304E-01
DAV:   3    -0.191884790574E+03    0.93304E-03   -0.27732E-03 11960   0.407E-01    0.126E-01
DAV:   4    -0.191884613045E+03    0.17753E-03   -0.50327E-04  8880   0.134E-01    0.586E-02
DAV:   5    -0.191884563484E+03    0.49561E-04   -0.26322E-04  7280   0.823E-02
  64 F= -.19188456E+03 E0= -.19178602E+03  d E =-.759710E-02
       N       E                     dE             d eps       ncg     rms          rms(c)
DAV:   1    -0.191907277539E+03   -0.22664E-01   -0.18583E+00  8160   0.293E+00    0.341E-01
DAV:   2    -0.191913491906E+03   -0.62144E-02   -0.63470E-02 12440   0.829E-01    0.517E-01
DAV:   3    -0.191911298779E+03    0.21931E-02   -0.14079E-02 11560   0.852E-01    0.364E-01
DAV:   4    -0.191910220478E+03    0.10783E-02   -0.37192E-03 11760   0.436E-01    0.229E-01
DAV:   5    -0.191909778744E+03    0.44173E-03   -0.16786E-03 10440   0.342E-01    0.141E-01
DAV:   6    -0.191909719198E+03    0.59546E-04   -0.82989E-04 10200   0.187E-01
  65 F= -.19190972E+03 E0= -.19181341E+03  d E =-.251557E-01
       N       E                     dE             d eps       ncg     rms          rms(c)
DAV:   1    -0.191912688705E+03   -0.29100E-02   -0.28441E-02  8160   0.368E-01    0.517E-02
DAV:   2    -0.191912836177E+03   -0.14747E-03   -0.12250E-03 12560   0.149E-01    0.983E-02
DAV:   3    -0.191912735645E+03    0.10053E-03   -0.38350E-04  9480   0.144E-01    0.537E-02
DAV:   4    -0.191912717846E+03    0.17798E-04   -0.80577E-05  5560   0.679E-02
  66 F= -.19191272E+03 E0= -.19181681E+03  d E =-.299865E-02
       N       E                     dE             d eps       ncg     rms          rms(c)
DAV:   1    -0.191931104993E+03   -0.18369E-01   -0.10713E+00  8160   0.221E+00    0.248E-01
DAV:   2    -0.191934656864E+03   -0.35519E-02   -0.32879E-02 12160   0.660E-01    0.429E-01
DAV:   3    -0.191932892474E+03    0.17644E-02   -0.79948E-03 11760   0.642E-01    0.249E-01
DAV:   4    -0.191932470200E+03    0.42227E-03   -0.17232E-03 10920   0.300E-01    0.158E-01
DAV:   5    -0.191932230080E+03    0.24012E-03   -0.95239E-04 10480   0.240E-01    0.105E-01
DAV:   6    -0.191932210096E+03    0.19983E-04   -0.52550E-04  9640   0.172E-01
  67 F= -.19193221E+03 E0= -.19183846E+03  d E =-.194922E-01
       N       E                     dE             d eps       ncg     rms          rms(c)
DAV:   1    -0.191926989651E+03    0.52404E-02   -0.99004E-02  8160   0.704E-01    0.104E-01
DAV:   2    -0.191927063534E+03   -0.73883E-04   -0.39257E-03 10320   0.190E-01    0.941E-02
DAV:   3    -0.191927178309E+03   -0.11477E-03   -0.89092E-04 10320   0.228E-01    0.152E-01
DAV:   4    -0.191926915591E+03    0.26272E-03   -0.49177E-04  8160   0.180E-01    0.430E-02
DAV:   5    -0.191926897901E+03    0.17690E-04   -0.12183E-04  5760   0.521E-02
  68 F= -.19192690E+03 E0= -.19183300E+03  d E =0.531220E-02
       N       E                     dE             d eps       ncg     rms          rms(c)
DAV:   1    -0.191946138895E+03   -0.19223E-01   -0.11912E+00  8160   0.233E+00    0.249E-01
DAV:   2    -0.191949795977E+03   -0.36571E-02   -0.37509E-02 12000   0.656E-01    0.381E-01
DAV:   3    -0.191948737864E+03    0.10581E-02   -0.74490E-03 11960   0.630E-01    0.285E-01
DAV:   4    -0.191947998374E+03    0.73949E-03   -0.19648E-03 11160   0.325E-01    0.132E-01
DAV:   5    -0.191947799688E+03    0.19869E-03   -0.74744E-04 10360   0.172E-01    0.862E-02
DAV:   6    -0.191947900489E+03   -0.10080E-03   -0.58539E-04  9840   0.198E-01    0.108E-01
DAV:   7    -0.191947733208E+03    0.16728E-03   -0.26522E-04  8520   0.128E-01    0.172E-02
DAV:   8    -0.191947743099E+03   -0.98902E-05   -0.40879E-05  6880   0.441E-02
  69 F= -.19194774E+03 E0= -.19185601E+03  d E =-.208452E-01
       N       E                     dE             d eps       ncg     rms          rms(c)
DAV:   1    -0.191950934101E+03   -0.32009E-02   -0.37269E-02  8160   0.417E-01    0.540E-02
DAV:   2    -0.191950999235E+03   -0.65134E-04   -0.13608E-03 11800   0.102E-01    0.466E-02
DAV:   3    -0.191951034169E+03   -0.34934E-04   -0.21238E-04  8560   0.117E-01
  70 F= -.19195103E+03 E0= -.19185934E+03  d E =-.329107E-02
       N       E                     dE             d eps       ncg     rms          rms(c)
DAV:   1    -0.191973540362E+03   -0.22541E-01   -0.15496E+00  8160   0.265E+00    0.295E-01
DAV:   2    -0.191979582416E+03   -0.60421E-02   -0.50277E-02 12240   0.930E-01    0.560E-01
DAV:   3    -0.191976076225E+03    0.35062E-02   -0.11686E-02 11680   0.788E-01    0.255E-01
DAV:   4    -0.191975780431E+03    0.29579E-03   -0.22292E-03 11120   0.355E-01    0.207E-01
DAV:   5    -0.191975351771E+03    0.42866E-03   -0.12449E-03 10520   0.297E-01    0.115E-01
DAV:   6    -0.191975347622E+03    0.41490E-05   -0.69733E-04 10640   0.181E-01
  71 F= -.19197535E+03 E0= -.19188645E+03  d E =-.243135E-01
       N       E                     dE             d eps       ncg     rms          rms(c)
DAV:   1    -0.191978277700E+03   -0.29259E-02   -0.23983E-02  8160   0.341E-01    0.431E-02
DAV:   2    -0.191978374093E+03   -0.96393E-04   -0.96157E-04 12440   0.120E-01
  72 F= -.19197837E+03 E0= -.19188975E+03  d E =-.302647E-02
       N       E                     dE             d eps       ncg     rms          rms(c)
DAV:   1    -0.191986908235E+03   -0.86305E-02   -0.20053E-01  8160   0.960E-01    0.120E-01
DAV:   2    -0.191987932574E+03   -0.10243E-02   -0.69197E-03 12800   0.362E-01    0.254E-01
DAV:   3    -0.191987203470E+03    0.72910E-03   -0.19601E-03 11680   0.342E-01    0.978E-02
DAV:   4    -0.191987200082E+03    0.33881E-05   -0.34896E-04  8240   0.140E-01
  73 F= -.19198720E+03 E0= -.19189928E+03  d E =-.882599E-02
       N       E                     dE             d eps       ncg     rms          rms(c)
DAV:   1    -0.191998412332E+03   -0.11209E-01   -0.37097E-01  8160   0.133E+00    0.180E-01
DAV:   2    -0.191999630479E+03   -0.12181E-02   -0.14744E-02 11880   0.466E-01    0.273E-01
DAV:   3    -0.191999085800E+03    0.54468E-03   -0.35289E-03 11800   0.446E-01    0.193E-01
DAV:   4    -0.191998726416E+03    0.35938E-03   -0.92739E-04  9560   0.236E-01    0.966E-02
DAV:   5    -0.191998688378E+03    0.38038E-04   -0.46454E-04  8800   0.168E-01
  74 F= -.19199869E+03 E0= -.19191237E+03  d E =-.114883E-01
       N       E                     dE             d eps       ncg     rms          rms(c)
DAV:   1    -0.192024477736E+03   -0.25751E-01   -0.20208E+00  8160   0.304E+00    0.319E-01
DAV:   2    -0.192029563723E+03   -0.50860E-02   -0.58887E-02 12440   0.751E-01    0.425E-01
DAV:   3    -0.192028503257E+03    0.10605E-02   -0.11072E-02 11280   0.760E-01    0.356E-01
DAV:   4    -0.192027278044E+03    0.12252E-02   -0.30062E-03 11320   0.420E-01    0.186E-01
DAV:   5    -0.192027074925E+03    0.20312E-03   -0.13397E-03 10320   0.311E-01    0.146E-01
DAV:   6    -0.192026993824E+03    0.81101E-04   -0.86626E-04 10320   0.216E-01
  75 F= -.19202699E+03 E0= -.19194287E+03  d E =-.283054E-01
       N       E                     dE             d eps       ncg     rms          rms(c)
DAV:   1    -0.192060025238E+03   -0.32950E-01   -0.37521E+00  8160   0.411E+00    0.421E-01
DAV:   2    -0.192069198902E+03   -0.91737E-02   -0.10967E-01 12240   0.113E+00    0.518E-01
DAV:   3    -0.192067919075E+03    0.12798E-02   -0.17726E-02 11280   0.974E-01    0.460E-01
DAV:   4    -0.192065867937E+03    0.20511E-02   -0.55835E-03 11120   0.582E-01    0.250E-01
DAV:   5    -0.192065464704E+03    0.40323E-03   -0.20906E-03 10600   0.392E-01    0.185E-01
DAV:   6    -0.192065446676E+03    0.18028E-04   -0.15016E-03 11720   0.298E-01    0.134E-01
DAV:   7    -0.192065128953E+03    0.31772E-03   -0.57752E-04 10440   0.139E-01    0.294E-02
DAV:   8    -0.192065146310E+03   -0.17357E-04   -0.79754E-05  6760   0.705E-02
  76 F= -.19206515E+03 E0= -.19198415E+03  d E =-.381525E-01
       N       E                     dE             d eps       ncg     rms          rms(c)
DAV:   1    -0.192092423396E+03   -0.27294E-01   -0.25920E+00  8160   0.340E+00    0.341E-01
DAV:   2    -0.192097846326E+03   -0.54229E-02   -0.71331E-02 12200   0.837E-01    0.349E-01
DAV:   3    -0.192097747964E+03    0.98362E-04   -0.10812E-02 11240   0.729E-01    0.384E-01
DAV:   4    -0.192096219909E+03    0.15281E-02   -0.41314E-03 10880   0.501E-01    0.188E-01
DAV:   5    -0.192096016952E+03    0.20296E-03   -0.13353E-03 10160   0.292E-01    0.154E-01
DAV:   6    -0.192096005485E+03    0.11466E-04   -0.10211E-03 10560   0.272E-01    0.122E-01
DAV:   7    -0.192095791232E+03    0.21425E-03   -0.38381E-04  8840   0.138E-01    0.235E-02
DAV:   8    -0.192095787276E+03    0.39553E-05   -0.54149E-05  7000   0.292E-02
  77 F= -.19209579E+03 E0= -.19201684E+03  d E =-.306410E-01
       N       E                     dE             d eps       ncg     rms          rms(c)
DAV:   1    -0.192136457001E+03   -0.40666E-01   -0.83849E+00  8160   0.611E+00    0.601E-01
DAV:   2    -0.192153038253E+03   -0.16581E-01   -0.22889E-01 12240   0.143E+00    0.525E-01
DAV:   3    -0.192154095347E+03   -0.10571E-02   -0.28049E-02 12120   0.120E+00    0.650E-01
DAV:   4    -0.192148890768E+03    0.52046E-02   -0.12010E-02 11400   0.863E-01    0.268E-01
DAV:   5    -0.192148918713E+03   -0.27944E-04   -0.39926E-03 11760   0.476E-01    0.293E-01
DAV:   6    -0.192148763117E+03    0.15560E-03   -0.31698E-03 11200   0.499E-01    0.233E-01
DAV:   7    -0.192148007514E+03    0.75560E-03   -0.12392E-03 10000   0.258E-01    0.435E-02
DAV:   8    -0.192147985480E+03    0.22034E-04   -0.12792E-04  6520   0.501E-02
  78 F= -.19214799E+03 E0= -.19207235E+03  d E =-.521982E-01
       N       E                     dE             d eps       ncg     rms          rms(c)
DAV:   1    -0.192182969220E+03   -0.34962E-01   -0.27711E+01  8160   0.111E+01    0.108E+00
DAV:   2    -0.192235944919E+03   -0.52976E-01   -0.74880E-01 12080   0.235E+00    0.825E-01
DAV:   3    -0.192240237167E+03   -0.42922E-02   -0.77518E-02 13200   0.195E+00    0.110E+00
DAV:   4    -0.192224612989E+03    0.15624E-01   -0.33117E-02 12680   0.153E+00    0.422E-01
DAV:   5    -0.192223469327E+03    0.11437E-02   -0.10835E-02 11640   0.639E-01    0.350E-01
DAV:   6    -0.192224559332E+03   -0.10900E-02   -0.86250E-03 12760   0.770E-01    0.466E-01
DAV:   7    -0.192221894853E+03    0.26645E-02   -0.40300E-03 12040   0.559E-01    0.908E-02
DAV:   8    -0.192221798137E+03    0.96715E-04   -0.45633E-04 10200   0.975E-02
  79 F= -.19222180E+03 E0= -.19215078E+03  d E =-.738127E-01
       N       E                     dE             d eps       ncg     rms          rms(c)
DAV:   1    -0.192233573387E+03   -0.11679E-01   -0.21622E+00  8160   0.308E+00    0.324E-01
DAV:   2    -0.192239487474E+03   -0.59141E-02   -0.77358E-02 12200   0.877E-01    0.288E-01
DAV:   3    -0.192239830484E+03   -0.34301E-03   -0.72303E-03 12960   0.666E-01    0.350E-01
DAV:   4    -0.192238349562E+03    0.14809E-02   -0.27727E-03 11920   0.473E-01    0.148E-01
DAV:   5    -0.192238396779E+03   -0.47216E-04   -0.11470E-03 11240   0.271E-01    0.160E-01
DAV:   6    -0.192238275859E+03    0.12092E-03   -0.10963E-03 10400   0.260E-01    0.946E-02
DAV:   7    -0.192238149779E+03    0.12608E-03   -0.30641E-04  8200   0.112E-01    0.246E-02
DAV:   8    -0.192238147840E+03    0.19384E-05   -0.55148E-05  7360   0.331E-02
  80 F= -.19223815E+03 E0= -.19216825E+03  d E =-.163497E-01
       N       E                     dE             d eps       ncg     rms          rms(c)
DAV:   1    -0.192247800810E+03   -0.96510E-02   -0.39432E+00  8160   0.417E+00    0.418E-01
DAV:   2    -0.192256103119E+03   -0.83023E-02   -0.11907E-01 12160   0.959E-01    0.281E-01
DAV:   3    -0.192256772887E+03   -0.66977E-03   -0.92778E-03 12920   0.647E-01    0.395E-01
DAV:   4    -0.192254874798E+03    0.18981E-02   -0.39372E-03 12360   0.567E-01    0.185E-01
DAV:   5    -0.192254798351E+03    0.76448E-04   -0.16816E-03 11800   0.308E-01    0.171E-01
DAV:   6    -0.192254869599E+03   -0.71248E-04   -0.16668E-03 11120   0.327E-01    0.167E-01
DAV:   7    -0.192254493915E+03    0.37568E-03   -0.67466E-04 10400   0.197E-01    0.316E-02
DAV:   8    -0.192254489116E+03    0.47989E-05   -0.59399E-05  6480   0.347E-02
  81 F= -.19225449E+03 E0= -.19218607E+03  d E =-.163413E-01
       N       E                     dE             d eps       ncg     rms          rms(c)
DAV:   1    -0.192259089143E+03   -0.45952E-02   -0.42476E-01  8160   0.138E+00    0.152E-01
DAV:   2    -0.192260553307E+03   -0.14642E-02   -0.15539E-02 12280   0.464E-01    0.232E-01
DAV:   3    -0.192260173232E+03    0.38007E-03   -0.19713E-03 12040   0.388E-01    0.158E-01
DAV:   4    -0.192259892355E+03    0.28088E-03   -0.50083E-04  9280   0.189E-01    0.658E-02
DAV:   5    -0.192259919139E+03   -0.26783E-04   -0.34130E-04  9320   0.141E-01
  82 F= -.19225992E+03 E0= -.19219219E+03  d E =-.543002E-02
       N       E                     dE             d eps       ncg     rms          rms(c)
DAV:   1    -0.192263110420E+03   -0.32181E-02   -0.20760E-01  8240   0.971E-01    0.113E-01
DAV:   2    -0.192263596560E+03   -0.48614E-03   -0.68796E-03 12120   0.289E-01    0.132E-01
DAV:   3    -0.192263535488E+03    0.61072E-04   -0.98813E-04 11120   0.262E-01
  83 F= -.19226354E+03 E0= -.19219630E+03  d E =-.361635E-02
       N       E                     dE             d eps       ncg     rms          rms(c)
DAV:   1    -0.192266130835E+03   -0.25343E-02   -0.15415E-01  8240   0.841E-01    0.107E-01
DAV:   2    -0.192266629504E+03   -0.49867E-03   -0.47980E-03 12240   0.263E-01    0.171E-01
DAV:   3    -0.192266366884E+03    0.26262E-03   -0.11040E-03 11120   0.270E-01    0.104E-01
DAV:   4    -0.192266292072E+03    0.74812E-04   -0.24113E-04  7400   0.126E-01
  84 F= -.19226629E+03 E0= -.19219941E+03  d E =-.275658E-02
       N       E                     dE             d eps       ncg     rms          rms(c)
DAV:   1    -0.192272220461E+03   -0.58536E-02   -0.30579E+00  8160   0.369E+00    0.381E-01
DAV:   2    -0.192279048685E+03   -0.68282E-02   -0.98042E-02 12240   0.955E-01    0.295E-01
DAV:   3    -0.192279915127E+03   -0.86644E-03   -0.95584E-03 13040   0.737E-01    0.413E-01
DAV:   4    -0.192277779036E+03    0.21361E-02   -0.41435E-03 12720   0.563E-01    0.175E-01
DAV:   5    -0.192277993019E+03   -0.21398E-03   -0.18547E-03 11800   0.350E-01    0.220E-01
DAV:   6    -0.192277626099E+03    0.36692E-03   -0.15692E-03 11680   0.327E-01    0.106E-01
DAV:   7    -0.192277442494E+03    0.18361E-03   -0.32084E-04  7520   0.114E-01    0.254E-02
DAV:   8    -0.192277441817E+03    0.67711E-06   -0.63378E-05  7440   0.413E-02
  85 F= -.19227744E+03 E0= -.19221186E+03  d E =-.111497E-01
       N       E                     dE             d eps       ncg     rms          rms(c)
DAV:   1    -0.192274844391E+03    0.25981E-02   -0.20958E-01  8160   0.978E-01    0.126E-01
DAV:   2    -0.192275614325E+03   -0.76993E-03   -0.85953E-03 11720   0.390E-01    0.198E-01
DAV:   3    -0.192275264793E+03    0.34953E-03   -0.12550E-03 11600   0.314E-01    0.116E-01
DAV:   4    -0.192275127027E+03    0.13777E-03   -0.38426E-04  8640   0.166E-01    0.742E-02
DAV:   5    -0.192275099792E+03    0.27236E-04   -0.31851E-04  8760   0.133E-01
  86 F= -.19227510E+03 E0= -.19220943E+03  d E =0.234203E-02
       N       E                     dE             d eps       ncg     rms          rms(c)
DAV:   1    -0.192276458730E+03   -0.13317E-02   -0.66556E-02  8160   0.562E-01    0.104E-01
DAV:   2    -0.192276605746E+03   -0.14702E-03   -0.34184E-03 10920   0.263E-01    0.140E-01
DAV:   3    -0.192276384286E+03    0.22146E-03   -0.97217E-04 10320   0.238E-01    0.758E-02
DAV:   4    -0.192276306600E+03    0.77686E-04   -0.28917E-04  7680   0.116E-01
  87 F= -.19227631E+03 E0= -.19221104E+03  d E =-.120681E-02
       N       E                     dE             d eps       ncg     rms          rms(c)
DAV:   1    -0.192278374067E+03   -0.19898E-02   -0.16898E-01  8160   0.868E-01    0.866E-02
DAV:   2    -0.192278736596E+03   -0.36253E-03   -0.47537E-03 12280   0.207E-01    0.933E-02
DAV:   3    -0.192278762171E+03   -0.25575E-04   -0.58500E-04 11040   0.205E-01
  88 F= -.19227876E+03 E0= -.19221384E+03  d E =-.245557E-02
       N       E                     dE             d eps       ncg     rms          rms(c)
DAV:   1    -0.192279257153E+03   -0.52056E-03   -0.13073E-02  8160   0.275E-01    0.493E-02
DAV:   2    -0.192279331019E+03   -0.73866E-04   -0.50732E-04 11920   0.115E-01
  89 F= -.19227933E+03 E0= -.19221450E+03  d E =-.568848E-03
       N       E                     dE             d eps       ncg     rms          rms(c)
DAV:   1    -0.192281463581E+03   -0.22064E-02   -0.23764E-01  8160   0.104E+00    0.115E-01
DAV:   2    -0.192281936605E+03   -0.47302E-03   -0.71734E-03 12240   0.235E-01    0.100E-01
DAV:   3    -0.192282094704E+03   -0.15810E-03   -0.84561E-04 11400   0.251E-01    0.161E-01
DAV:   4    -0.192281807980E+03    0.28672E-03   -0.39616E-04  9400   0.186E-01    0.463E-02
DAV:   5    -0.192281827237E+03   -0.19257E-04   -0.13789E-04  6480   0.845E-02
  90 F= -.19228183E+03 E0= -.19221737E+03  d E =-.249622E-02
       N       E                     dE             d eps       ncg     rms          rms(c)
DAV:   1    -0.192283466172E+03   -0.16582E-02   -0.14720E-01  8160   0.819E-01    0.930E-02
DAV:   2    -0.192284064731E+03   -0.59856E-03   -0.54294E-03 12880   0.267E-01    0.155E-01
DAV:   3    -0.192283785511E+03    0.27922E-03   -0.96528E-04 10400   0.253E-01    0.827E-02
DAV:   4    -0.192283740714E+03    0.44796E-04   -0.16730E-04  7200   0.109E-01
  91 F= -.19228374E+03 E0= -.19221946E+03  d E =-.191348E-02
       N       E                     dE             d eps       ncg     rms          rms(c)
DAV:   1    -0.192285448419E+03   -0.16629E-02   -0.17560E-01  8160   0.892E-01    0.108E-01
DAV:   2    -0.192286009915E+03   -0.56150E-03   -0.56353E-03 12240   0.282E-01    0.176E-01
DAV:   3    -0.192285743597E+03    0.26632E-03   -0.11073E-03 11160   0.280E-01    0.108E-01
DAV:   4    -0.192285627984E+03    0.11561E-03   -0.21755E-04  8320   0.118E-01    0.434E-02
DAV:   5    -0.192285649585E+03   -0.21600E-04   -0.16021E-04  7840   0.105E-01
  92 F= -.19228565E+03 E0= -.19222151E+03  d E =-.190887E-02
       N       E                     dE             d eps       ncg     rms          rms(c)
DAV:   1    -0.192287787086E+03   -0.21591E-02   -0.81432E-01  8160   0.190E+00    0.196E-01
DAV:   2    -0.192290038984E+03   -0.22519E-02   -0.26007E-02 12240   0.544E-01    0.251E-01
DAV:   3    -0.192289920645E+03    0.11834E-03   -0.31323E-03 12320   0.484E-01    0.241E-01
DAV:   4    -0.192289234363E+03    0.68628E-03   -0.89886E-04 10280   0.261E-01    0.669E-02
DAV:   5    -0.192289350459E+03   -0.11610E-03   -0.46620E-04 10040   0.164E-01    0.105E-01
DAV:   6    -0.192289226417E+03    0.12404E-03   -0.38283E-04  9320   0.157E-01    0.352E-02
DAV:   7    -0.192289208797E+03    0.17620E-04   -0.67375E-05  6880   0.513E-02
  93 F= -.19228921E+03 E0= -.19222547E+03  d E =-.355921E-02
       N       E                     dE             d eps       ncg     rms          rms(c)
DAV:   1    -0.192288234383E+03    0.99203E-03   -0.88920E-02  8160   0.639E-01    0.811E-02
DAV:   2    -0.192288410956E+03   -0.17657E-03   -0.29568E-03 11360   0.188E-01    0.102E-01
DAV:   3    -0.192288382456E+03    0.28500E-04   -0.50180E-04 10160   0.198E-01
  94 F= -.19228838E+03 E0= -.19222464E+03  d E =0.826341E-03
       N       E                     dE             d eps       ncg     rms          rms(c)
DAV:   1    -0.192289388662E+03   -0.97771E-03   -0.78663E-02  8160   0.631E-01    0.124E-01
DAV:   2    -0.192289400947E+03   -0.12285E-04   -0.39757E-03 11120   0.272E-01    0.154E-01
DAV:   3    -0.192289275044E+03    0.12590E-03   -0.10368E-03 10200   0.286E-01    0.123E-01
DAV:   4    -0.192289112039E+03    0.16301E-03   -0.44511E-04  8960   0.186E-01    0.796E-02
DAV:   5    -0.192289087923E+03    0.24116E-04   -0.33332E-04  8480   0.143E-01
  95 F= -.19228909E+03 E0= -.19222573E+03  d E =-.705467E-03
       N       E                     dE             d eps       ncg     rms          rms(c)
DAV:   1    -0.192289967070E+03   -0.85503E-03   -0.63300E-02  8160   0.551E-01    0.697E-02
DAV:   2    -0.192290253012E+03   -0.28594E-03   -0.23633E-03 12120   0.224E-01    0.137E-01
DAV:   3    -0.192290061725E+03    0.19129E-03   -0.46170E-04  9440   0.196E-01    0.608E-02
DAV:   4    -0.192290019880E+03    0.41845E-04   -0.85367E-05  6040   0.799E-02
  96 F= -.19229002E+03 E0= -.19222670E+03  d E =-.931958E-03
       N       E                     dE             d eps       ncg     rms          rms(c)
DAV:   1    -0.192290163898E+03   -0.10217E-03   -0.39728E-03  8400   0.148E-01    0.321E-02
DAV:   2    -0.192290253223E+03   -0.89325E-04   -0.31573E-04 10840   0.124E-01
  97 F= -.19229025E+03 E0= -.19222699E+03  d E =-.233343E-03
