unknown system                          
           1
     8.858807    5.101406    0.000000
    -8.863190    5.108948    0.000000
     0.000000    0.000000   30.000000
   V    Mo   W    S 
   3   3   3  18
Direct configuration=     1
   0.66666669  0.33333334  0.00000000
   0.66666669  0.66666669  0.00000000
   0.00000000  0.66666669  0.00000000
   0.00000000  0.00000000  0.00000000
   1.00000000  0.33333334  0.00000000
   0.66666669  0.00000000  0.00000000
   0.33333334  0.00000000  0.00000000
   0.33333334  0.33333334  0.00000000
   0.33333334  0.66666669  0.00000000
   0.11068511  0.22244981  0.95539999
   0.22244981  0.11068511  0.04460000
   0.11068511  0.55578315  0.95539999
   0.22244981  0.44401845  0.04460000
   0.11068511  0.88911647  0.95539999
   0.22244981  0.77735180  0.04460000
   0.44401845  0.22244981  0.95539999
   0.55578315  0.11068511  0.04460000
   0.44401845  0.55578315  0.95539999
   0.55578315  0.44401845  0.04460000
   0.44401845  0.88911647  0.95539999
   0.55578315  0.77735180  0.04460000
   0.77735180  0.22244981  0.95539999
   0.88911647  0.11068511  0.04460000
   0.77735180  0.55578315  0.95539999
   0.88911647  0.44401845  0.04460000
   0.77735180  0.88911647  0.95539999
   0.88911647  0.77735180  0.04460000
unknown system                          
           1
     8.668789    4.994516    0.000000
    -8.673014    5.001786    0.000000
     0.000000    0.000000   30.000000
   V    Mo   W    S 
   3   3   3  18
Direct configuration=     2
   0.66828892  0.33306163  0.00002460
   0.66823417  0.66844991  0.00001540
  -0.00092196  0.66621016 -0.00003312
  -0.00156602  0.00123708 -0.00017075
   0.99853067  0.33066244 -0.00015310
   0.66945045  0.00133675  0.00012329
   0.33328129 -0.00000213  0.00015437
   0.33100679  0.33218348 -0.00007309
   0.33325457  0.66657490  0.00015583
   0.11202319  0.22265236  0.95063796
   0.22304662  0.11136926  0.04923524
   0.10952183  0.55825705  0.95205738
   0.22301963  0.44502947  0.04923526
   0.10974235  0.88482308  0.95199900
   0.21855856  0.77599432  0.04813613
   0.44803494  0.22396236  0.95191917
   0.55663377  0.11490301  0.04806073
   0.44804088  0.55712508  0.95191562
   0.55896554  0.44586620  0.04679277
   0.44363716  0.88837412  0.95082348
   0.55685770  0.77485093  0.04799665
   0.77541588  0.22467184  0.95198766
   0.88861241  0.11095069  0.04931172
   0.77760412  0.55563603  0.95414894
   0.88655882  0.44654006  0.04691952
   0.77560883  0.88431966  0.95192434
   0.88677334  0.77317473  0.04685492
unknown system                          
           1
     8.486062    4.896649    0.000000
    -8.488459    4.900760    0.000000
     0.000000    0.000000   30.000000
   V    Mo   W    S 
   3   3   3  18
Direct configuration=     3
   0.66862966  0.33286541  0.00007663
   0.66858881  0.66899837  0.00006487
  -0.00094971  0.66619775 -0.00006613
  -0.00174396  0.00225174 -0.00018582
   0.99835207  0.32946978 -0.00017090
   0.67036274  0.00179023  0.00013138
   0.33329345 -0.00010270  0.00011651
   0.32990196  0.33162929 -0.00004019
   0.33326100  0.66667831  0.00011759
   0.11222006  0.22276383  0.95045493
   0.22325481  0.11145003  0.04922807
   0.10971623  0.55838964  0.95212411
   0.22323844  0.44512806  0.04923136
   0.10990422  0.88485830  0.95207549
   0.21870327  0.77603854  0.04812561
   0.44787708  0.22392945  0.95201065
   0.55648351  0.11488603  0.04805263
   0.44788108  0.55705232  0.95200771
   0.55878757  0.44580543  0.04660871
   0.44342152  0.88828319  0.95090949
   0.55667836  0.77470509  0.04799700
   0.77538231  0.22473808  0.95189249
   0.88860956  0.11093725  0.04951025
   0.77763199  0.55562880  0.95423006
   0.88650439  0.44656415  0.04685866
   0.77553982  0.88418741  0.95183784
   0.88668423  0.77309068  0.04680090
unknown system                          
           1
     8.282214    4.771098    0.000000
    -8.291000    4.786273    0.000000
     0.000000    0.000000   30.000000
   V    Mo   W    S 
   3   3   3  18
Direct configuration=     4
   0.66934347  0.33155279  0.00027172
   0.66934322  0.67105624  0.00025280
  -0.00013099  0.66659742 -0.00015946
  -0.00171519  0.00704673 -0.00017609
   0.99837601  0.32468390 -0.00017027
   0.67338368  0.00329418  0.00010649
   0.33333186 -0.00074620 -0.00007508
   0.32514216  0.32924589  0.00011187
   0.33327218  0.66729859 -0.00007342
   0.11203321  0.22271211  0.94802842
   0.22305368  0.11121733  0.05083474
   0.10907211  0.55858951  0.95096212
   0.22307542  0.44507597  0.05084890
   0.10914726  0.88392388  0.95094825
   0.21760172  0.77540535  0.04963331
   0.44885059  0.22469301  0.95088246
   0.55721490  0.11594846  0.04948360
   0.44883746  0.55742507  0.95087640
   0.55957050  0.44628988  0.04719950
   0.44364943  0.88845434  0.94962523
   0.55730249  0.77435621  0.04945972
   0.77490778  0.22533961  0.95009210
   0.88864853  0.11092890  0.05188523
   0.77765710  0.55555134  0.95330858
   0.88610672  0.44695886  0.04790657
   0.77495323  0.88299651  0.95005884
   0.88618591  0.77231858  0.04787737
unknown system                          
           1
     8.292372    4.770080    0.000000
    -8.307608    4.796431    0.000000
     0.000000    0.000000   30.000000
   V    Mo   W    S 
   3   3   3  18
Direct configuration=     5
   0.67059881  0.32904955  0.00053135
   0.67064259  0.67481557  0.00050682
   0.00204591  0.66766316 -0.00019851
  -0.00104494  0.01652208 -0.00008047
   0.99904303  0.31583465 -0.00005899
   0.67820654  0.00572007 -0.00004842
   0.33358091 -0.00257994 -0.00034218
   0.31542214  0.32437666  0.00026070
   0.33346601  0.66929477 -0.00033679
   0.11125356  0.22231174  0.94428427
   0.22187924  0.11036840  0.05285141
   0.10766925  0.55744066  0.94959621
   0.22191846  0.44476270  0.05287885
   0.10764913  0.88353311  0.94962122
   0.21619932  0.77469596  0.05167483
   0.44978380  0.22579584  0.94964679
   0.55821880  0.11669660  0.05138547
   0.44975905  0.55728952  0.94963282
   0.55944140  0.44634970  0.04773013
   0.44518418  0.88922888  0.94798638
   0.55820895  0.77469729  0.05138666
   0.77518136  0.22585525  0.94770709
   0.88851258  0.11089522  0.05527596
   0.77767430  0.55543180  0.95191072
   0.88628101  0.44668872  0.04925218
   0.77515836  0.88259596  0.94769391
   0.88628069  0.77288052  0.04925147
unknown system                          
           1
     8.280527    4.763726    0.000000
    -8.295277    4.789235    0.000000
     0.000000    0.000000   30.000000
   V    Mo   W    S 
   3   3   3  18
Direct configuration=     6
   0.67136852  0.32857075  0.00049830
   0.67141436  0.67606865  0.00048533
   0.00249896  0.66788504 -0.00023099
  -0.00101436  0.01664915 -0.00005211
   0.99910573  0.31574026 -0.00004453
   0.67781042  0.00552906  0.00000392
   0.33397015 -0.00367028 -0.00033694
   0.31371459  0.32353898  0.00012217
   0.33384304  0.67075753 -0.00033393
   0.11101417  0.22219050  0.94387464
   0.22123163  0.10987847  0.05284091
   0.10729151  0.55627221  0.94978838
   0.22127000  0.44460897  0.05287068
   0.10728666  0.88433247  0.94980689
   0.21639273  0.77480395  0.05179637
   0.44932900  0.22584472  0.94985262
   0.55816600  0.11614754  0.05141669
   0.44931235  0.55677195  0.94983996
   0.55805230  0.44565371  0.04739820
   0.44605107  0.88965102  0.94784664
   0.55816835  0.77520673  0.05140487
   0.77596600  0.22581069  0.94766799
   0.88819929  0.11073567  0.05552998
   0.77770294  0.55546095  0.95195978
   0.88706129  0.44605501  0.04917788
   0.77594507  0.88342950  0.94764905
   0.88706269  0.77429123  0.04916717
unknown system                          
           1
     8.288163    4.767314    0.000000
    -8.303628    4.794062    0.000000
     0.000000    0.000000   30.000000
   V    Mo   W    S 
   3   3   3  18
Direct configuration=     7
   0.67259331  0.32795445  0.00051303
   0.67264268  0.67791432  0.00050065
   0.00298351  0.66812319 -0.00030760
  -0.00112755  0.01828918 -0.00001405
   0.99901643  0.31399397 -0.00000007
   0.67773528  0.00549688  0.00006381
   0.33460867 -0.00509263 -0.00036216
   0.31073822  0.32206825  0.00012755
   0.33445534  0.67277558 -0.00036025
   0.11047060  0.22190388  0.94330965
   0.22082880  0.10948252  0.05289129
   0.10699502  0.55550116  0.94988110
   0.22086096  0.44460900  0.05292466
   0.10699838  0.88480077  0.94990202
   0.21643261  0.77483221  0.05209810
   0.44900641  0.22582103  0.94999825
   0.55820760  0.11585842  0.05160442
   0.44899920  0.55646338  0.94998530
   0.55703365  0.44515409  0.04699789
   0.44671804  0.88997435  0.94751189
   0.55820848  0.77555942  0.05158870
   0.77641487  0.22572984  0.94743427
   0.88797823  0.11063607  0.05588885
   0.77776395  0.55549137  0.95196938
   0.88763026  0.44566495  0.04922255
   0.77639104  0.88394803  0.94741776
   0.88763047  0.77526078  0.04921293
unknown system                          
           1
     8.292396    4.767796    0.000000
    -8.309577    4.797515    0.000000
     0.000000    0.000000   30.000000
   V    Mo   W    S 
   3   3   3  18
Direct configuration=     8
   0.67313095  0.32785751  0.00051295
   0.67318171  0.67855151  0.00050142
   0.00301803  0.66814114 -0.00034494
  -0.00136964  0.01826972 -0.00001773
   0.99878334  0.31377664 -0.00000468
   0.67722497  0.00524423  0.00008230
   0.33500400 -0.00563713 -0.00037309
   0.31019770  0.32180614  0.00011716
   0.33483868  0.67369736 -0.00037162
   0.11028625  0.22180862  0.94329084
   0.22075850  0.10933532  0.05280051
   0.10702916  0.55537917  0.94999898
   0.22078902  0.44468910  0.05283694
   0.10704007  0.88496082  0.95001973
   0.21648055  0.77485722  0.05212346
   0.44887634  0.22574894  0.95013278
   0.55816136  0.11578371  0.05160238
   0.44887151  0.55640051  0.95011841
   0.55673461  0.44500220  0.04678251
   0.44684014  0.89003139  0.94742582
   0.55816430  0.77559104  0.05158540
   0.77650124  0.22566903  0.94745246
   0.88784002  0.11056822  0.05587833
   0.77779767  0.55551192  0.95205456
   0.88777615  0.44558995  0.04918520
   0.77647718  0.88409870  0.94743462
   0.88778064  0.77548147  0.04917519
unknown system                          
           1
     8.289656    4.768443    0.000000
    -8.304991    4.794967    0.000000
     0.000000    0.000000   30.000000
   V    Mo   W    S 
   3   3   3  18
Direct configuration=     9
   0.67426191  0.32753667  0.00052500
   0.67431682  0.68000443  0.00051532
   0.00317988  0.66822165 -0.00042071
  -0.00181105  0.01880728 -0.00000723
   0.99835957  0.31280587  0.00000507
   0.67645187  0.00486564  0.00011674
   0.33585355 -0.00678100 -0.00039575
   0.30854163  0.32099631  0.00011395
   0.33566078  0.67564972 -0.00039502
   0.10988381  0.22160144  0.94304738
   0.22053426  0.10899292  0.05272035
   0.10701607  0.55505863  0.95015532
   0.22056254  0.44481182  0.05276300
   0.10703682  0.88526996  0.95017816
   0.21650890  0.77487312  0.05228036
   0.44867937  0.22567443  0.95032377
   0.55813043  0.11567796  0.05170852
   0.44868037  0.55627233  0.95030686
   0.55615101  0.44471379  0.04639678
   0.44717614  0.89019159  0.94714235
   0.55813252  0.77567434  0.05168875
   0.77667432  0.22557124  0.94734984
   0.88755709  0.11043009  0.05603471
   0.77786347  0.55554673  0.95213741
   0.88807951  0.44542504  0.04919366
   0.77664639  0.88436762  0.94733177
   0.88808647  0.77595482  0.04918353
unknown system                          
           1
     8.278153    4.764899    0.000000
    -8.291241    4.787532    0.000000
     0.000000    0.000000   30.000000
   V    Mo   W    S 
   3   3   3  18
Direct configuration=    10
   0.67284304  0.32786940  0.00051187
   0.67285383  0.67811061  0.00049977
   0.00308878  0.66814135 -0.00031502
  -0.00100419  0.01837793 -0.00001682
   0.99905826  0.31400554 -0.00000746
   0.67766532  0.00556870  0.00007894
   0.33456299 -0.00547562 -0.00037507
   0.31033937  0.32185905  0.00010648
   0.33434274  0.67309921 -0.00036945
   0.11037555  0.22185351  0.94326211
   0.22077188  0.10941686  0.05288086
   0.10691149  0.55533482  0.94992875
   0.22081735  0.44463166  0.05291437
   0.10692230  0.88489092  0.94995309
   0.21644676  0.77484262  0.05212576
   0.44889268  0.22579336  0.95007208
   0.55819441  0.11575089  0.05157315
   0.44884568  0.55635770  0.95004903
   0.55670733  0.44495167  0.04688209
   0.44685103  0.89003955  0.94752647
   0.55817179  0.77567616  0.05156135
   0.77658741  0.22574571  0.94747289
   0.88798491  0.11063980  0.05589112
   0.77779295  0.55547957  0.95202625
   0.88776896  0.44555331  0.04916034
   0.77658963  0.88415910  0.94744541
   0.88783218  0.77554105  0.04916155
unknown system                          
           1
     8.281169    4.767936    0.000000
    -8.293280    4.788878    0.000000
     0.000000    0.000000   30.000000
   V    Mo   W    S 
   3   3   3  18
Direct configuration=    11
   0.67086285  0.32819629  0.00050661
   0.67076310  0.67540810  0.00050061
   0.00341484  0.66822405 -0.00013517
   0.00065369  0.01839356 -0.00003102
   1.00049926  0.31558202 -0.00001275
   0.68039993  0.00717760  0.00005138
   0.33188992 -0.00401457 -0.00038574
   0.31224856  0.32275533  0.00006057
   0.33157026  0.66902292 -0.00035710
   0.11103943  0.22220659  0.94339151
   0.22112939  0.11007046  0.05321351
   0.10655713  0.55552561  0.94956161
   0.22117440  0.44432922  0.05321704
   0.10655717  0.88433810  0.94961005
   0.21628984  0.77479047  0.05197614
   0.44897054  0.22588694  0.94977151
   0.55822395  0.11563386  0.05131517
   0.44879390  0.55631946  0.94973884
   0.55699825  0.44498566  0.04748987
   0.44660308  0.88992370  0.94822028
   0.55815354  0.77589406  0.05127028
   0.77678139  0.22609175  0.94763784
   0.88881193  0.11105204  0.05576573
   0.77774053  0.55536877  0.95188880
   0.88753780  0.44556777  0.04904274
   0.77682908  0.88414707  0.94764957
   0.88772070  0.77533762  0.04904202
unknown system                          
           1
     8.280963    4.767565    0.000000
    -8.293250    4.788812    0.000000
     0.000000    0.000000   30.000000
   V    Mo   W    S 
   3   3   3  18
Direct configuration=    12
   0.67004173  0.32828284  0.00051464
   0.66989173  0.67438488  0.00051573
   0.00382147  0.66840954 -0.00004894
   0.00146840  0.01840873 -0.00003832
   1.00126857  0.31638067 -0.00002632
   0.68218801  0.00811202  0.00003562
   0.33023898 -0.00341008 -0.00039284
   0.31295400  0.32309171  0.00002014
   0.32989737  0.66678299 -0.00036506
   0.11130735  0.22235728  0.94334907
   0.22130730  0.11036882  0.05342276
   0.10630062  0.55549487  0.94935671
   0.22132930  0.44419496  0.05341837
   0.10629425  0.88410447  0.94941360
   0.21616534  0.77475079  0.05198631
   0.44889821  0.22589402  0.94964019
   0.55815911  0.11545710  0.05119646
   0.44870785  0.55624843  0.94961701
   0.55697958  0.44495558  0.04770752
   0.44666385  0.88995297  0.94856391
   0.55810510  0.77603372  0.05111924
   0.77698919  0.22627845  0.94766330
   0.88926999  0.11127571  0.05579868
   0.77770822  0.55534244  0.95183646
   0.88753507  0.44553645  0.04900173
   0.77701627  0.88417738  0.94771638
   0.88770759  0.77534772  0.04897754
unknown system                          
           1
     8.283874    4.768952    0.000000
    -8.296408    4.790626    0.000000
     0.000000    0.000000   30.000000
   V    Mo   W    S 
   3   3   3  18
Direct configuration=    13
   0.67092138  0.32789868  0.00056265
   0.67075068  0.67568782  0.00057045
   0.00446730  0.66874742 -0.00007094
   0.00134460  0.01880376 -0.00003576
   1.00119630  0.31590461 -0.00003248
   0.68324779  0.00858344  0.00005132
   0.32967343 -0.00402028 -0.00042286
   0.31161750  0.32244894 -0.00001682
   0.32931783  0.66677670 -0.00040747
   0.11102558  0.22221780  0.94312642
   0.22125696  0.11022367  0.05342455
   0.10619039  0.55515875  0.94941111
   0.22124313  0.44427897  0.05343013
   0.10618612  0.88432743  0.94947110
   0.21614992  0.77475503  0.05212619
   0.44851895  0.22569901  0.94983256
   0.55792734  0.11509621  0.05114015
   0.44838149  0.55607944  0.94982122
   0.55637241  0.44467841  0.04730590
   0.44709271  0.89015553  0.94862726
   0.55790645  0.77616618  0.05104068
   0.77728987  0.22626027  0.94757876
   0.88936028  0.11132260  0.05596114
   0.77772796  0.55538351  0.95196532
   0.88783761  0.44537258  0.04896394
   0.77726878  0.88443121  0.94766312
   0.88794170  0.77577674  0.04891226
unknown system                          
           1
     8.288341    4.771979    0.000000
    -8.300538    4.793070    0.000000
     0.000000    0.000000   30.000000
   V    Mo   W    S 
   3   3   3  18
Direct configuration=    14
   0.67130812  0.32779656  0.00056980
   0.67114296  0.67618733  0.00057786
   0.00454189  0.66878498 -0.00009086
   0.00117934  0.01884975 -0.00003277
   1.00103910  0.31569901 -0.00002964
   0.68313111  0.00852407  0.00006501
   0.32982331 -0.00431567 -0.00042561
   0.31119875  0.32224622 -0.00001688
   0.32945603  0.66720566 -0.00041083
   0.11090418  0.22215440  0.94307612
   0.22120356  0.11014025  0.05339902
   0.10618301  0.55509600  0.94944347
   0.22118834  0.44431167  0.05340745
   0.10618162  0.88438538  0.94950423
   0.21614469  0.77475024  0.05216524
   0.44847126  0.22568026  0.94989127
   0.55791299  0.11505043  0.05115708
   0.44833874  0.55604841  0.94987803
   0.55624945  0.44461956  0.04718047
   0.44718704  0.89019993  0.94856985
   0.55788987  0.77619613  0.05105982
   0.77730565  0.22621981  0.94754131
   0.88929529  0.11129235  0.05599984
   0.77774420  0.55539483  0.95199589
   0.88790430  0.44535456  0.04897637
   0.77728267  0.88447911  0.94762258
   0.88800697  0.77586320  0.04892577
unknown system                          
           1
     8.284340    4.770767    0.000000
    -8.295575    4.790194    0.000000
     0.000000    0.000000   30.000000
   V    Mo   W    S 
   3   3   3  18
Direct configuration=    15
   0.67192446  0.32754839  0.00060235
   0.67173766  0.67699646  0.00061288
   0.00501698  0.66900617 -0.00009204
   0.00118946  0.01897942 -0.00002973
   1.00102215  0.31558713 -0.00002924
   0.68394518  0.00897181  0.00009114
   0.32923880 -0.00470291 -0.00043834
   0.31043592  0.32187101 -0.00004000
   0.32881359  0.66697129 -0.00042447
   0.11072782  0.22206295  0.94293727
   0.22116109  0.11008272  0.05343317
   0.10603771  0.55491929  0.94942800
   0.22113598  0.44433262  0.05344603
   0.10603960  0.88442247  0.94949528
   0.21607923  0.77471816  0.05225110
   0.44828136  0.22561000  0.94999165
   0.55781305  0.11480073  0.05110702
   0.44814868  0.55592206  0.94997373
   0.55591518  0.44444123  0.04694281
   0.44746111  0.89033026  0.94865583
   0.55777935  0.77635530  0.05100802
   0.77746066  0.22621001  0.94746455
   0.88939706  0.11134884  0.05611054
   0.77777525  0.55540853  0.95206828
   0.88806804  0.44529775  0.04896905
   0.77743232  0.88463327  0.94754880
   0.88817678  0.77608948  0.04891623
unknown system                          
           1
     8.288779    4.771942    0.000000
    -8.301182    4.793389    0.000000
     0.000000    0.000000   30.000000
   V    Mo   W    S 
   3   3   3  18
Direct configuration=    16
   0.67238351  0.32749830  0.00062773
   0.67218204  0.67753003  0.00064240
   0.00550565  0.66925513 -0.00008075
   0.00131488  0.01900225 -0.00003609
   1.00117397  0.31571285 -0.00003502
   0.68490465  0.00942514  0.00010470
   0.32836512 -0.00497834 -0.00045931
   0.30995225  0.32164355 -0.00006755
   0.32792844  0.66634251 -0.00044546
   0.11063182  0.22201468  0.94287133
   0.22116337  0.11009992  0.05347792
   0.10588765  0.55484930  0.94939561
   0.22112604  0.44431406  0.05349255
   0.10588995  0.88434440  0.94946930
   0.21596791  0.77466429  0.05229408
   0.44810585  0.22554390  0.95006641
   0.55771678  0.11455647  0.05103080
   0.44798839  0.55581695  0.95005248
   0.55569312  0.44433648  0.04677859
   0.44762740  0.89040499  0.94882202
   0.55768646  0.77650329  0.05092041
   0.77758381  0.22620077  0.94741020
   0.88956042  0.11143328  0.05617196
   0.77784445  0.55545156  0.95213194
   0.88820288  0.44532907  0.04895906
   0.77753824  0.88474150  0.94750974
   0.88828941  0.77617814  0.04889486
unknown system                          
           1
     8.295512    4.775281    0.000000
    -8.308454    4.797662    0.000000
     0.000000    0.000000   30.000000
   V    Mo   W    S 
   3   3   3  18
Direct configuration=    17
   0.67329005  0.32720183  0.00064052
   0.67310376  0.67875536  0.00065690
   0.00549938  0.66925257 -0.00013215
   0.00085275  0.01908960 -0.00002896
   1.00073756  0.31518003 -0.00002719
   0.68471297  0.00932949  0.00013220
   0.32877347 -0.00558989 -0.00047253
   0.30903270  0.32120315 -0.00006251
   0.32830782  0.66731645 -0.00045910
   0.11036379  0.22187672  0.94283320
   0.22105883  0.10994648  0.05339478
   0.10591569  0.55475136  0.94946325
   0.22102091  0.44436619  0.05341386
   0.10592527  0.88447530  0.94954046
   0.21599156  0.77467177  0.05235239
   0.44805721  0.22551802  0.95021115
   0.55771945  0.11450219  0.05104851
   0.44793799  0.55578695  0.95019081
   0.55550700  0.44424313  0.04649815
   0.44775690  0.89046321  0.94871843
   0.55767966  0.77655869  0.05094225
   0.77754952  0.22608772  0.94736848
   0.88943430  0.11137614  0.05619292
   0.77783031  0.55544461  0.95219848
   0.88827423  0.44527053  0.04899247
   0.77750768  0.88481570  0.94746001
   0.88837368  0.77632117  0.04893310
unknown system                          
           1
     8.294930    4.775435    0.000000
    -8.307428    4.797048    0.000000
     0.000000    0.000000   30.000000
   V    Mo   W    S 
   3   3   3  18
Direct configuration=    18
   0.67515076  0.32671698  0.00068946
   0.67495171  0.68101193  0.00070956
   0.00585852  0.66939863 -0.00020958
   0.00032932  0.01900213 -0.00001776
   1.00019006  0.31476604 -0.00002050
   0.68514148  0.00963710  0.00019083
   0.32852814 -0.00676472 -0.00051324
   0.30746221  0.32044948 -0.00005598
   0.32793398  0.66812796 -0.00049981
   0.10984503  0.22161228  0.94269461
   0.22089615  0.10973909  0.05332952
   0.10579297  0.55457415  0.94949811
   0.22086159  0.44442616  0.05336311
   0.10581570  0.88454589  0.94958867
   0.21588712  0.77461408  0.05249552
   0.44792079  0.22548745  0.95048992
   0.55768821  0.11426399  0.05101454
   0.44776764  0.55566049  0.95045040
   0.55514253  0.44402797  0.04593714
   0.44808607  0.89060944  0.94868651
   0.55760168  0.77677881  0.05091505
   0.77754230  0.22591651  0.94722346
   0.88940566  0.11137383  0.05631168
   0.77784883  0.55542821  0.95232814
   0.88843884  0.44523351  0.04907291
   0.77751768  0.88500483  0.94729904
   0.88860951  0.77657223  0.04902858
unknown system                          
           1
     8.290842    4.774274    0.000000
    -8.302149    4.793824    0.000000
     0.000000    0.000000   30.000000
   V    Mo   W    S 
   3   3   3  18
Direct configuration=    19
   0.67456920  0.32687188  0.00067791
   0.67436479  0.68029816  0.00069697
   0.00584109  0.66939823 -0.00017457
   0.00057294  0.01900460 -0.00002178
   1.00043625  0.31500011 -0.00002479
   0.68527363  0.00967512  0.00017210
   0.32836197 -0.00634569 -0.00049882
   0.30795250  0.32068345 -0.00006466
   0.32780847  0.66758157 -0.00048635
   0.11001351  0.22169785  0.94271959
   0.22095898  0.10982482  0.05337923
   0.10578464  0.55461326  0.94945834
   0.22092370  0.44439924  0.05340877
   0.10580214  0.88449368  0.94954421
   0.21589752  0.77462078  0.05246184
   0.44794019  0.22549023  0.95039475
   0.55768111  0.11429086  0.05100601
   0.44779891  0.55568332  0.95036153
   0.55522930  0.44408213  0.04611496
   0.44801266  0.89057860  0.94874555
   0.55760788  0.77674056  0.05090582
   0.77757027  0.22598507  0.94726167
   0.88947270  0.11140350  0.05628928
   0.77785329  0.55543949  0.95228695
   0.88839997  0.44525225  0.04904699
   0.77753972  0.88495294  0.94734081
   0.88854711  0.77649844  0.04899760
unknown system                          
           1
     8.294503    4.775185    0.000000
    -8.306935    4.796682    0.000000
     0.000000    0.000000   30.000000
   V    Mo   W    S 
   3   3   3  18
Direct configuration=    20
   0.67511938  0.32692652  0.00070194
   0.67493257  0.68093242  0.00072463
   0.00632203  0.66966569 -0.00015805
   0.00063548  0.01891248 -0.00003129
   1.00059371  0.31519420 -0.00002999
   0.68637666  0.01012602  0.00018222
   0.32728901 -0.00662816 -0.00051849
   0.30747778  0.32046522 -0.00008668
   0.32676741  0.66676605 -0.00050579
   0.10991194  0.22164468  0.94270450
   0.22099528  0.10986287  0.05342326
   0.10563822  0.55457727  0.94940360
   0.22094631  0.44438805  0.05345388
   0.10565501  0.88437941  0.94949200
   0.21576316  0.77455084  0.05248338
   0.44777065  0.22541958  0.95046785
   0.55758159  0.11403765  0.05090856
   0.44766944  0.55559575  0.95044340
   0.55506725  0.44403373  0.04597476
   0.44812469  0.89062626  0.94895249
   0.55753045  0.77688079  0.05079778
   0.77766434  0.22594537  0.94721311
   0.88968019  0.11151083  0.05630951
   0.77790611  0.55549946  0.95232701
   0.88855405  0.44537037  0.04906184
   0.77760554  0.88503438  0.94730933
   0.88863621  0.77649672  0.04899514
unknown system                          
           1
     8.304801    4.780554    0.000000
    -8.317583    4.802655    0.000000
     0.000000    0.000000   30.000000
   V    Mo   W    S 
   3   3   3  18
Direct configuration=    21
   0.67612334  0.32663878  0.00071625
   0.67593455  0.68212010  0.00074197
   0.00624336  0.66960095 -0.00022695
   0.00013130  0.01887958 -0.00002134
   1.00005997  0.31473350 -0.00001910
   0.68586431  0.00995775  0.00021867
   0.32783022 -0.00739217 -0.00054085
   0.30673031  0.32011409 -0.00007357
   0.32720403  0.66798679 -0.00052510
   0.10962600  0.22150322  0.94266426
   0.22087144  0.10968470  0.05333002
   0.10566902  0.55452966  0.94947881
   0.22082325  0.44444985  0.05336799
   0.10569830  0.88447009  0.94958035
   0.21574152  0.77454195  0.05254785
   0.44779578  0.22543830  0.95063068
   0.55761754  0.11405839  0.05095091
   0.44765495  0.55558721  0.95059235
   0.55498910  0.44396090  0.04567392
   0.44823485  0.89066820  0.94878144
   0.55753761  0.77691405  0.05083510
   0.77757710  0.22582213  0.94714058
   0.88950003  0.11142740  0.05634508
   0.77789195  0.55546289  0.95239342
   0.88859209  0.44532197  0.04911975
   0.77753339  0.88511032  0.94723464
   0.88873913  0.77662385  0.04906276
unknown system                          
           1
     8.303300    4.780208    0.000000
    -8.315449    4.801214    0.000000
     0.000000    0.000000   30.000000
   V    Mo   W    S 
   3   3   3  18
Direct configuration=    22
   0.67834411  0.32634830  0.00076654
   0.67820076  0.68466032  0.00079828
   0.00654331  0.66973879 -0.00032381
  -0.00065923  0.01853786 -0.00000478
   0.99936049  0.31436949 -0.00000601
   0.68623572  0.01016000  0.00028469
   0.32747301 -0.00896597 -0.00058964
   0.30524104  0.31943377 -0.00006066
   0.32668291  0.66900249 -0.00057551
   0.10903623  0.22120848  0.94256071
   0.22071890  0.10944254  0.05325008
   0.10550599  0.55439539  0.94948967
   0.22066239  0.44454768  0.05331141
   0.10555383  0.88446065  0.94961118
   0.21552984  0.77443395  0.05272132
   0.44770923  0.22541205  0.95095822
   0.55757821  0.11385667  0.05091375
   0.44756330  0.55551782  0.95090889
   0.55480882  0.44386605  0.04505842
   0.44853890  0.89078376  0.94870085
   0.55748140  0.77708712  0.05078226
   0.77751417  0.22557830  0.94695080
   0.88944786  0.11141371  0.05644845
   0.77789448  0.55546303  0.95251378
   0.88881273  0.44537553  0.04927034
   0.77745279  0.88527578  0.94705003
   0.88898326  0.77681089  0.04921066
unknown system                          
           1
     8.304271    4.780927    0.000000
    -8.316134    4.801437    0.000000
     0.000000    0.000000   30.000000
   V    Mo   W    S 
   3   3   3  18
Direct configuration=    23
   0.67914465  0.32637098  0.00079308
   0.67902546  0.68550712  0.00082523
   0.00680713  0.66987356 -0.00034373
  -0.00085822  0.01838273 -0.00000245
   0.99923153  0.31437251 -0.00000342
   0.68681318  0.01042254  0.00030241
   0.32687587 -0.00957324 -0.00061448
   0.30476825  0.31922955 -0.00006688
   0.32603039  0.66892137 -0.00060138
   0.10884119  0.22110673  0.94255225
   0.22070907  0.10939343  0.05323735
   0.10541059  0.55436536  0.94946150
   0.22065140  0.44458827  0.05331055
   0.10547026  0.88440477  0.94959012
   0.21541414  0.77437212  0.05277354
   0.44762649  0.22535406  0.95109061
   0.55752729  0.11371677  0.05083755
   0.44749849  0.55549182  0.95103939
   0.55477373  0.44386519  0.04484443
   0.44863352  0.89081636  0.94877399
   0.55743388  0.77717066  0.05070311
   0.77751925  0.22547528  0.94689603
   0.88951576  0.11145580  0.05647100
   0.77790004  0.55548006  0.95255505
   0.88892406  0.44543774  0.04932224
   0.77744442  0.88535629  0.94699154
   0.88908263  0.77685663  0.04926127
unknown system                          
           1
     8.306516    4.782621    0.000000
    -8.317868    4.802246    0.000000
     0.000000    0.000000   30.000000
   V    Mo   W    S 
   3   3   3  18
Direct configuration=    24
   0.68032514  0.32633066  0.00082182
   0.68024469  0.68677376  0.00085619
   0.00704641  0.66998980 -0.00038897
  -0.00125977  0.01821186  0.00000482
   0.99890684  0.31420146  0.00000471
   0.68716216  0.01059422  0.00033289
   0.32647971 -0.01053766 -0.00064596
   0.30402953  0.31890548 -0.00006503
   0.32552780  0.66935188 -0.00063190
   0.10853459  0.22095039  0.94253117
   0.22065464  0.10927523  0.05318484
   0.10531543  0.55431589  0.94945821
   0.22059359  0.44465631  0.05327426
   0.10539266  0.88437461  0.94960034
   0.21527152  0.77429703  0.05285814
   0.44756074  0.22530303  0.95128476
   0.55748794  0.11359560  0.05078331
   0.44743908  0.55547172  0.95122707
   0.55473216  0.44385032  0.04452203
   0.44876857  0.89086067  0.94876587