<?xml version="1.0" encoding="ISO-8859-1"?>
<modeling>
 <generator>
  <i name="program" type="string">vasp </i>
  <i name="version" type="string">5.4.1  </i>
  <i name="subversion" type="string">05Feb16 (build Jul 05 2020 17:13:04) complex                          parallel </i>
  <i name="platform" type="string">IFC91_ompi </i>
  <i name="date" type="string">2024 04 20 </i>
  <i name="time" type="string">08:07:48 </i>
 </generator>
 <incar>
  <i type="int" name="ISTART">     0</i>
  <i type="string" name="PREC">normal</i>
  <i type="string" name="ALGO"> Normal</i>
  <i type="int" name="ISPIN">     1</i>
  <i type="int" name="ICHARG">     2</i>
  <i type="int" name="IBRION">     1</i>
  <i type="int" name="NSW">   100</i>
  <i type="int" name="ISIF">     3</i>
  <i type="int" name="ISYM">     0</i>
  <i name="SYMPREC">      0.00000001</i>
  <i name="POTIM">      0.50000000</i>
  <i type="logical" name="LREAL"> F  </i>
  <i type="logical" name="LPLANE"> F  </i>
  <i type="int" name="ISMEAR">     0</i>
  <i type="logical" name="LWAVE"> F  </i>
  <i type="logical" name="LCHARG"> F  </i>
  <v type="int" name="KPOINT_BSE">    -1     0     0     0</v>
 </incar>
 <kpoints>
  <generation param="Gamma">
   <v type="int" name="divisions">       8        8        1 </v>
   <v name="usershift">      0.00000000       0.00000000       0.00000000 </v>
   <v name="genvec1">      0.12500000       0.00000000       0.00000000 </v>
   <v name="genvec2">     -0.00000000       0.12500000       0.00000000 </v>
   <v name="genvec3">      0.00000000       0.00000000       1.00000000 </v>
   <v name="shift">      0.00000000       0.00000000       0.00000000 </v>
  </generation>
  <varray name="kpointlist" >
   <v>       0.00000000       0.00000000       0.00000000 </v>
   <v>       0.12500000       0.00000000       0.00000000 </v>
   <v>       0.25000000       0.00000000       0.00000000 </v>
   <v>       0.37500000       0.00000000       0.00000000 </v>
   <v>       0.50000000       0.00000000       0.00000000 </v>
   <v>       0.00000000       0.12500000       0.00000000 </v>
   <v>       0.12500000       0.12500000       0.00000000 </v>
   <v>       0.25000000       0.12500000       0.00000000 </v>
   <v>       0.37500000       0.12500000       0.00000000 </v>
   <v>       0.50000000       0.12500000       0.00000000 </v>
   <v>      -0.37500000       0.12500000       0.00000000 </v>
   <v>      -0.25000000       0.12500000       0.00000000 </v>
   <v>      -0.12500000       0.12500000       0.00000000 </v>
   <v>       0.00000000       0.25000000       0.00000000 </v>
   <v>       0.12500000       0.25000000       0.00000000 </v>
   <v>       0.25000000       0.25000000       0.00000000 </v>
   <v>       0.37500000       0.25000000       0.00000000 </v>
   <v>       0.50000000       0.25000000       0.00000000 </v>
   <v>      -0.37500000       0.25000000       0.00000000 </v>
   <v>      -0.25000000       0.25000000       0.00000000 </v>
   <v>      -0.12500000       0.25000000       0.00000000 </v>
   <v>      -0.00000000       0.37500000       0.00000000 </v>
   <v>       0.12500000       0.37500000       0.00000000 </v>
   <v>       0.25000000       0.37500000       0.00000000 </v>
   <v>       0.37500000       0.37500000       0.00000000 </v>
   <v>       0.50000000       0.37500000       0.00000000 </v>
   <v>      -0.37500000       0.37500000       0.00000000 </v>
   <v>      -0.25000000       0.37500000       0.00000000 </v>
   <v>      -0.12500000       0.37500000       0.00000000 </v>
   <v>       0.00000000       0.50000000       0.00000000 </v>
   <v>       0.12500000       0.50000000       0.00000000 </v>
   <v>       0.25000000       0.50000000       0.00000000 </v>
   <v>       0.37500000       0.50000000       0.00000000 </v>
   <v>       0.50000000       0.50000000       0.00000000 </v>
  </varray>
  <varray name="weights" >
   <v>       0.01562500 </v>
   <v>       0.03125000 </v>
   <v>       0.03125000 </v>
   <v>       0.03125000 </v>
   <v>       0.01562500 </v>
   <v>       0.03125000 </v>
   <v>       0.03125000 </v>
   <v>       0.03125000 </v>
   <v>       0.03125000 </v>
   <v>       0.03125000 </v>
   <v>       0.03125000 </v>
   <v>       0.03125000 </v>
   <v>       0.03125000 </v>
   <v>       0.03125000 </v>
   <v>       0.03125000 </v>
   <v>       0.03125000 </v>
   <v>       0.03125000 </v>
   <v>       0.03125000 </v>
   <v>       0.03125000 </v>
   <v>       0.03125000 </v>
   <v>       0.03125000 </v>
   <v>       0.03125000 </v>
   <v>       0.03125000 </v>
   <v>       0.03125000 </v>
   <v>       0.03125000 </v>
   <v>       0.03125000 </v>
   <v>       0.03125000 </v>
   <v>       0.03125000 </v>
   <v>       0.03125000 </v>
   <v>       0.01562500 </v>
   <v>       0.03125000 </v>
   <v>       0.03125000 </v>
   <v>       0.03125000 </v>
   <v>       0.01562500 </v>
  </varray>
 </kpoints>
 <parameters>
  <separator name="general" >
   <i type="string" name="SYSTEM">unknown system</i>
   <i type="logical" name="LCOMPAT"> F  </i>
  </separator>
  <separator name="electronic" >
   <i type="string" name="PREC">normal</i>
   <i name="ENMAX">    280.00000000</i>
   <i name="ENAUG">    373.43800000</i>
   <i name="EDIFF">      0.00010000</i>
   <i type="int" name="IALGO">    38</i>
   <i type="int" name="IWAVPR">    11</i>
   <i type="int" name="NBANDS">   120</i>
   <i name="NELECT">    159.00000000</i>
   <i type="int" name="TURBO">     0</i>
   <i type="int" name="IRESTART">     0</i>
   <i type="int" name="NREBOOT">     0</i>
   <i type="int" name="NMIN">     0</i>
   <i name="EREF">      0.00000000</i>
   <separator name="electronic smearing" >
    <i type="int" name="ISMEAR">     0</i>
    <i name="SIGMA">      0.20000000</i>
    <i name="KSPACING">      0.50000000</i>
    <i type="logical" name="KGAMMA"> T  </i>
   </separator>
   <separator name="electronic projectors" >
    <i type="logical" name="LREAL"> F  </i>
    <v name="ROPT">      0.00000000      0.00000000      0.00000000      0.00000000</v>
    <i type="int" name="LMAXPAW">  -100</i>
    <i type="int" name="LMAXMIX">     2</i>
    <i type="logical" name="NLSPLINE"> F  </i>
   </separator>
   <separator name="electronic startup" >
    <i type="int" name="ISTART">     0</i>
    <i type="int" name="ICHARG">     2</i>
    <i type="int" name="INIWAV">     1</i>
   </separator>
   <separator name="electronic spin" >
    <i type="int" name="ISPIN">     1</i>
    <i type="logical" name="LNONCOLLINEAR"> F  </i>
    <v name="MAGMOM">      1.00000000      1.00000000      1.00000000      1.00000000      1.00000000      1.00000000      1.00000000      1.00000000      1.00000000      1.00000000      1.00000000      1.00000000      1.00000000      1.00000000      1.00000000      1.00000000      1.00000000      1.00000000      1.00000000      1.00000000
      1.00000000      1.00000000      1.00000000      1.00000000      1.00000000      1.00000000      1.00000000</v>
    <i name="NUPDOWN">     -1.00000000</i>
    <i type="logical" name="LSORBIT"> F  </i>
    <v name="SAXIS">      0.00000000      0.00000000      1.00000000</v>
    <i type="logical" name="LSPIRAL"> F  </i>
    <v name="QSPIRAL">      0.00000000      0.00000000      0.00000000</v>
    <i type="logical" name="LZEROZ"> F  </i>
   </separator>
   <separator name="electronic exchange-correlation" >
    <i type="logical" name="LASPH"> F  </i>
    <i type="logical" name="LMETAGGA"> F  </i>
   </separator>
   <separator name="electronic convergence" >
    <i type="int" name="NELM">    60</i>
    <i type="int" name="NELMDL">    -5</i>
    <i type="int" name="NELMIN">     2</i>
    <i name="ENINI">    280.00000000</i>
    <separator name="electronic convergence detail" >
     <i type="logical" name="LDIAG"> T  </i>
     <i type="logical" name="LSUBROT"> F  </i>
     <i name="WEIMIN">      0.00100000</i>
     <i name="EBREAK">      0.00000021</i>
     <i name="DEPER">      0.30000000</i>
     <i type="int" name="NRMM">     4</i>
     <i name="TIME">      0.40000000</i>
    </separator>
   </separator>
   <separator name="electronic mixer" >
    <i name="AMIX">      0.40000000</i>
    <i name="BMIX">      1.00000000</i>
    <i name="AMIN">      0.10000000</i>
    <i name="AMIX_MAG">      1.60000000</i>
    <i name="BMIX_MAG">      1.00000000</i>
    <separator name="electronic mixer details" >
     <i type="int" name="IMIX">     4</i>
     <i type="logical" name="MIXFIRST"> F  </i>
     <i type="int" name="MAXMIX">   -45</i>
     <i name="WC">    100.00000000</i>
     <i type="int" name="INIMIX">     1</i>
     <i type="int" name="MIXPRE">     1</i>
     <i type="int" name="MREMOVE">     5</i>
    </separator>
   </separator>
   <separator name="electronic dipolcorrection" >
    <i type="logical" name="LDIPOL"> F  </i>
    <i type="logical" name="LMONO"> F  </i>
    <i type="int" name="IDIPOL">     0</i>
    <i name="EPSILON">      1.00000000</i>
    <v name="DIPOL">   -100.00000000   -100.00000000   -100.00000000</v>
    <i name="EFIELD">      0.00000000</i>
   </separator>
  </separator>
  <separator name="grids" >
   <i type="int" name="NGX">    42</i>
   <i type="int" name="NGY">    42</i>
   <i type="int" name="NGZ">   126</i>
   <i type="int" name="NGXF">    84</i>
   <i type="int" name="NGYF">    84</i>
   <i type="int" name="NGZF">   252</i>
   <i type="logical" name="ADDGRID"> F  </i>
  </separator>
  <separator name="ionic" >
   <i type="int" name="NSW">   100</i>
   <i type="int" name="IBRION">     1</i>
   <i type="int" name="ISIF">     3</i>
   <i name="PSTRESS">      0.00000000</i>
   <i name="EDIFFG">      0.00100000</i>
   <i type="int" name="NFREE">     0</i>
   <i name="POTIM">      0.50000000</i>
   <i name="SMASS">     -3.00000000</i>
   <i name="SCALEE">      1.00000000</i>
  </separator>
  <separator name="ionic md" >
   <i name="TEBEG">      0.00010000</i>
   <i name="TEEND">      0.00010000</i>
   <i type="int" name="NBLOCK">     1</i>
   <i type="int" name="KBLOCK">   100</i>
   <i type="int" name="NPACO">   256</i>
   <i name="APACO">     16.00000000</i>
  </separator>
  <separator name="symmetry" >
   <i type="int" name="ISYM">     0</i>
   <i name="SYMPREC">      0.00000001</i>
  </separator>
  <separator name="dos" >
   <i type="logical" name="LORBIT"> F  </i>
   <v name="RWIGS">     -1.00000000     -1.00000000     -1.00000000     -1.00000000</v>
   <i type="int" name="NEDOS">   301</i>
   <i name="EMIN">     10.00000000</i>
   <i name="EMAX">    -10.00000000</i>
   <i name="EFERMI">      0.00000000</i>
  </separator>
  <separator name="writing" >
   <i type="int" name="NWRITE">     2</i>
   <i type="logical" name="LWAVE"> F  </i>
   <i type="logical" name="LCHARG"> F  </i>
   <i type="logical" name="LPARD"> F  </i>
   <i type="logical" name="LVTOT"> F  </i>
   <i type="logical" name="LVHAR"> F  </i>
   <i type="logical" name="LELF"> F  </i>
   <i type="logical" name="LOPTICS"> F  </i>
   <v name="STM">      0.00000000      0.00000000      0.00000000      0.00000000      0.00000000      0.00000000      0.00000000</v>
  </separator>
  <separator name="performance" >
   <i type="int" name="NPAR">    40</i>
   <i type="int" name="NSIM">     4</i>
   <i type="int" name="NBLK">    -1</i>
   <i type="logical" name="LPLANE"> F  </i>
   <i type="logical" name="LSCALAPACK"> T  </i>
   <i type="logical" name="LSCAAWARE"> F  </i>
   <i type="logical" name="LSCALU"> F  </i>
   <i type="logical" name="LASYNC"> F  </i>
   <i type="logical" name="LORBITALREAL"> F  </i>
  </separator>
  <separator name="miscellaneous" >
   <i type="int" name="IDIOT">     3</i>
   <i type="logical" name="LMUSIC"> F  </i>
   <v name="POMASS">     50.94100000     95.94000000    183.85000000     32.06600000</v>
   <v name="DARWINR">      0.00000000      0.00000000      0.00000000      0.00000000</v>
   <v name="DARWINV">      1.00000000      1.00000000      1.00000000      1.00000000</v>
   <i type="logical" name="LCORR"> T  </i>
  </separator>
  <i type="logical" name="GGA_COMPAT"> T  </i>
  <i type="logical" name="LBERRY"> F  </i>
  <i type="int" name="ICORELEVEL">     0</i>
  <i type="logical" name="LDAU"> F  </i>
  <i type="int" name="I_CONSTRAINED_M">     0</i>
  <separator name="electronic exchange-correlation" >
   <i type="string" name="GGA">--</i>
   <i type="int" name="VOSKOWN">     0</i>
   <i type="logical" name="LHFCALC"> F  </i>
   <i type="string" name="PRECFOCK"></i>
   <i type="logical" name="LSYMGRAD"> F  </i>
   <i type="logical" name="LHFONE"> F  </i>
   <i type="logical" name="LRHFCALC"> F  </i>
   <i type="logical" name="LTHOMAS"> F  </i>
   <i type="logical" name="LMODELHF"> F  </i>
   <i name="ENCUT4O">     -1.00000000</i>
   <i type="int" name="EXXOEP">     0</i>
   <i type="int" name="FOURORBIT">     0</i>
   <i name="AEXX">      0.00000000</i>
   <i name="HFALPHA">      0.00000000</i>
   <i name="MCALPHA">      0.00000000</i>
   <i name="ALDAX">      1.00000000</i>
   <i name="AGGAX">      1.00000000</i>
   <i name="ALDAC">      1.00000000</i>
   <i name="AGGAC">      1.00000000</i>
   <i type="int" name="NKREDX">     1</i>
   <i type="int" name="NKREDY">     1</i>
   <i type="int" name="NKREDZ">     1</i>
   <i type="logical" name="SHIFTRED"> F  </i>
   <i type="logical" name="ODDONLY"> F  </i>
   <i type="logical" name="EVENONLY"> F  </i>
   <i type="int" name="LMAXFOCK">     0</i>
   <i type="int" name="NMAXFOCKAE">     0</i>
   <i type="logical" name="LFOCKAEDFT"> F  </i>
   <i name="HFSCREEN">      0.00000000</i>
   <i name="HFSCREENC">      0.00000000</i>
   <i type="int" name="NBANDSGWLOW">     0</i>
  </separator>
  <separator name="vdW DFT" >
   <i type="logical" name="LUSE_VDW"> F  </i>
   <i name="Zab_VDW">     -0.84910000</i>
   <i name="PARAM1">      0.12340000</i>
   <i name="PARAM2">      1.00000000</i>
   <i name="PARAM3">      0.00000000</i>
  </separator>
  <separator name="model GW" >
   <i type="int" name="MODEL_GW">     0</i>
   <i name="MODEL_EPS0">     58.26239943</i>
   <i name="MODEL_ALPHA">      1.00000000</i>
  </separator>
  <separator name="linear response parameters" >
   <i type="logical" name="LEPSILON"> F  </i>
   <i type="logical" name="LRPA"> F  </i>
   <i type="logical" name="LNABLA"> F  </i>
   <i type="logical" name="LVEL"> F  </i>
   <i type="int" name="KINTER">     0</i>
   <i name="CSHIFT">      0.10000000</i>
   <i name="OMEGAMAX">     -1.00000000</i>
   <i name="DEG_THRESHOLD">      0.00200000</i>
  </separator>
  <separator name="orbital magnetization" >
   <i type="logical" name="NUCIND"> F  </i>
   <v name="MAGPOS">      0.00000000      0.00000000      0.00000000</v>
   <i type="logical" name="LNICSALL"> T  </i>
   <i type="logical" name="ORBITALMAG"> F  </i>
   <i type="logical" name="LMAGBLOCH"> F  </i>
   <i type="logical" name="LCHIMAG"> F  </i>
   <i type="logical" name="LGAUGE"> T  </i>
   <i type="int" name="MAGATOM">     0</i>
   <v name="MAGDIPOL">      0.00000000      0.00000000      0.00000000</v>
   <v name="AVECCONST">      0.00000000      0.00000000      0.00000000</v>
  </separator>
  <separator name="response functions" >
   <i type="logical" name="LADDER"> F  </i>
   <i type="logical" name="LFXC"> F  </i>
   <i type="logical" name="LHARTREE"> T  </i>
   <i type="int" name="IBSE">     0</i>
   <v type="int" name="KPOINT">    -1     0     0     0</v>
   <i type="logical" name="LTCTE"> F  </i>
   <i type="logical" name="LTETE"> F  </i>
   <i type="logical" name="LTRIPLET"> F  </i>
   <i type="logical" name="LFXCEPS"> F  </i>
   <i type="logical" name="LFXHEG"> F  </i>
   <i type="int" name="NATURALO">     0</i>
   <i type="logical" name="L2ORDER"> F  </i>
   <i type="logical" name="LUSEW"> F  </i>
   <i name="ENCUTGW">     -2.00000000</i>
   <i name="ENCUTGWSOFT">     -2.00000000</i>
   <i name="ENCUTLF">     -1.00000000</i>
   <i type="int" name="LMAXMP2">    -1</i>
   <i name="SCISSOR">      0.00000000</i>
   <i type="int" name="NOMEGA">     0</i>
   <i type="int" name="NOMEGAR">     0</i>
   <i type="int" name="NBANDSGW">    -1</i>
   <i type="int" name="NBANDSO">    -1</i>
   <i type="int" name="NBANDSV">    -1</i>
   <i type="int" name="NELM">     1</i>
   <i type="int" name="NELMHF">     1</i>
   <i type="int" name="DIM">     3</i>
   <i type="int" name="ANTIRES">     0</i>
   <i name="OMEGAMAX">    -30.00000000</i>
   <i name="OMEGAMIN">    -30.00000000</i>
   <i name="OMEGATL">   -200.00000000</i>
   <i type="int" name="OMEGAGRID">     0</i>
   <i name="CSHIFT">     -0.10000000</i>
   <i type="logical" name="SELFENERGY"> F  </i>
   <i type="logical" name="LSPECTRAL"> F  </i>
   <i type="logical" name="LSPECTRALGW"> F  </i>
   <i type="logical" name="LSINGLES"> F  </i>
   <i type="logical" name="LFERMIGW"> F  </i>
   <i type="logical" name="ODDONLYGW"> F  </i>
   <i type="logical" name="EVENONLYGW"> F  </i>
   <i type="int" name="NKREDLFX">     1</i>
   <i type="int" name="NKREDLFY">     1</i>
   <i type="int" name="NKREDLFZ">     1</i>
   <i type="int" name="MAXMEM">  1800</i>
   <i type="int" name="TELESCOPE">     0</i>
   <i type="int" name="TAUPAR">     1</i>
   <i type="int" name="OMEGAPAR">    -1</i>
   <i name="LAMBDA">      1.00000000</i>
  </separator>
  <separator name="External order field" >
   <i name="OFIELD_KAPPA">      0.00000000</i>
   <v name="OFIELD_K">      0.00000000      0.00000000      0.00000000</v>
   <i name="OFIELD_Q6_NEAR">      0.00000000</i>
   <i name="OFIELD_Q6_FAR">      0.00000000</i>
   <i name="OFIELD_A">      0.00000000</i>
  </separator>
 </parameters>
 <atominfo>
  <atoms>      27 </atoms>
  <types>       4 </types>
  <array name="atoms" >
   <dimension dim="1">ion</dimension>
   <field type="string">element</field>
   <field type="int">atomtype</field>
   <set>
    <rc><c>V </c><c>   1</c></rc>
    <rc><c>V </c><c>   1</c></rc>
    <rc><c>V </c><c>   1</c></rc>
    <rc><c>Mo</c><c>   2</c></rc>
    <rc><c>Mo</c><c>   2</c></rc>
    <rc><c>Mo</c><c>   2</c></rc>
    <rc><c>W </c><c>   3</c></rc>
    <rc><c>W </c><c>   3</c></rc>
    <rc><c>W </c><c>   3</c></rc>
    <rc><c>S </c><c>   4</c></rc>
    <rc><c>S </c><c>   4</c></rc>
    <rc><c>S </c><c>   4</c></rc>
    <rc><c>S </c><c>   4</c></rc>
    <rc><c>S </c><c>   4</c></rc>
    <rc><c>S </c><c>   4</c></rc>
    <rc><c>S </c><c>   4</c></rc>
    <rc><c>S </c><c>   4</c></rc>
    <rc><c>S </c><c>   4</c></rc>
    <rc><c>S </c><c>   4</c></rc>
    <rc><c>S </c><c>   4</c></rc>
    <rc><c>S </c><c>   4</c></rc>
    <rc><c>S </c><c>   4</c></rc>
    <rc><c>S </c><c>   4</c></rc>
    <rc><c>S </c><c>   4</c></rc>
    <rc><c>S </c><c>   4</c></rc>
    <rc><c>S </c><c>   4</c></rc>
    <rc><c>S </c><c>   4</c></rc>
   </set>
  </array>
  <array name="atomtypes" >
   <dimension dim="1">type</dimension>
   <field type="int">atomspertype</field>
   <field type="string">element</field>
   <field>mass</field>
   <field>valence</field>
   <field type="string">pseudopotential</field>
   <set>
    <rc><c>   3</c><c>V </c><c>     50.94100000</c><c>      5.00000000</c><c> PAW_PBE V 08Apr2002                    </c></rc>
    <rc><c>   3</c><c>Mo</c><c>     95.94000000</c><c>      6.00000000</c><c> PAW_PBE Mo 08Apr2002                   </c></rc>
    <rc><c>   3</c><c>W </c><c>    183.85000000</c><c>      6.00000000</c><c> PAW_PBE W 08Apr2002                    </c></rc>
    <rc><c>  18</c><c>S </c><c>     32.06600000</c><c>      6.00000000</c><c>  PAW_PBE S 17Jan2003                   </c></rc>
   </set>
  </array>
 </atominfo>
 <structure name="initialpos" >
  <crystal>
   <varray name="basis" >
    <v>       8.66999996       5.03999989       0.00000000 </v>
    <v>      -8.66999982       5.04000013       0.00000000 </v>
    <v>       0.00000000       0.00000000      30.00000000 </v>
   </varray>
   <i name="volume">   2621.80797419 </i>
   <varray name="rec_basis" >
    <v>       0.05767013       0.09920635       0.00000000 </v>
    <v>      -0.05767013       0.09920635       0.00000000 </v>
    <v>       0.00000000       0.00000000       0.03333333 </v>
   </varray>
  </crystal>
  <varray name="positions" >
   <v>       0.33333334       0.66666669       0.00000000 </v>
   <v>       0.66666669       0.33333334       0.00000000 </v>
   <v>       1.00000000       0.33333334       0.00000000 </v>
   <v>       0.33333334       0.33333334       0.00000000 </v>
   <v>       0.00000000       0.00000000       0.00000000 </v>
   <v>       0.33333334       0.00000000       0.00000000 </v>
   <v>       0.00000000       0.66666669       0.00000000 </v>
   <v>       0.66666669       0.00000000       0.00000000 </v>
   <v>       0.66666669       0.66666669       0.00000000 </v>
   <v>       0.11068511       0.22244981       0.95539999 </v>
   <v>       0.22244981       0.11068511       0.04460000 </v>
   <v>       0.11068511       0.55578315       0.95539999 </v>
   <v>       0.22244981       0.44401845       0.04460000 </v>
   <v>       0.11068511       0.88911647       0.95539999 </v>
   <v>       0.22244981       0.77735180       0.04460000 </v>
   <v>       0.44401845       0.22244981       0.95539999 </v>
   <v>       0.55578315       0.11068511       0.04460000 </v>
   <v>       0.44401845       0.55578315       0.95539999 </v>
   <v>       0.55578315       0.44401845       0.04460000 </v>
   <v>       0.44401845       0.88911647       0.95539999 </v>
   <v>       0.55578315       0.77735180       0.04460000 </v>
   <v>       0.77735180       0.22244981       0.95539999 </v>
   <v>       0.88911647       0.11068511       0.04460000 </v>
   <v>       0.77735180       0.55578315       0.95539999 </v>
   <v>       0.88911647       0.44401845       0.04460000 </v>
   <v>       0.77735180       0.88911647       0.95539999 </v>
   <v>       0.88911647       0.77735180       0.04460000 </v>
  </varray>
 </structure>
 <calculation>
  <scstep>
   <time name="dav">   21.82   21.88</time>
   <time name="total">   21.87   21.92</time>
   <energy>
    <i name="alphaZ">     81.65567618 </i>
    <i name="ewald">  41890.23011113 </i>
    <i name="hartreedc"> -47722.85856335 </i>
    <i name="XCdc">   -242.92965722 </i>
    <i name="pawpsdc">   3467.42045192 </i>
    <i name="pawaedc">  -2871.19716117 </i>
    <i name="eentropy">     -0.53278671 </i>
    <i name="bandstr">   -238.62163913 </i>
    <i name="atom">   6761.44252427 </i>
    <i name="e_fr_energy">   1124.60895592 </i>
    <i name="e_wo_entrp">   1125.14174263 </i>
    <i name="e_0_energy">   1124.87534927 </i>
   </energy>
  </scstep>
  <scstep>
   <time name="dav">   28.12   28.19</time>
   <time name="total">   28.12   28.19</time>
   <energy>
    <i name="e_fr_energy">     -2.59862128 </i>
    <i name="e_wo_entrp">     -2.40792793 </i>
    <i name="e_0_energy">     -2.50327461 </i>
   </energy>
  </scstep>
  <scstep>
   <time name="dav">   27.63   27.70</time>
   <time name="total">   27.64   27.71</time>
   <energy>
    <i name="e_fr_energy">   -199.69992736 </i>
    <i name="e_wo_entrp">   -199.42493826 </i>
    <i name="e_0_energy">   -199.56243281 </i>
   </energy>
  </scstep>
  <scstep>
   <time name="dav">   30.29   30.37</time>
   <time name="total">   30.30   30.38</time>
   <energy>
    <i name="e_fr_energy">   -208.92994730 </i>
    <i name="e_wo_entrp">   -208.62161743 </i>
    <i name="e_0_energy">   -208.77578237 </i>
   </energy>
  </scstep>
  <scstep>
   <time name="dav">   29.13   29.21</time>
   <time name="total">   29.60   29.68</time>
   <energy>
    <i name="e_fr_energy">   -209.24880927 </i>
    <i name="e_wo_entrp">   -208.94373273 </i>
    <i name="e_0_energy">   -209.09627100 </i>
   </energy>
  </scstep>
  <scstep>
   <time name="dav">   31.70   31.78</time>
   <time name="total">   32.21   32.29</time>
   <energy>
    <i name="e_fr_energy">   -236.67279976 </i>
    <i name="e_wo_entrp">   -236.39780002 </i>
    <i name="e_0_energy">   -236.53529989 </i>
   </energy>
  </scstep>
  <scstep>
   <time name="dav">   32.14   32.22</time>
   <time name="total">   32.65   32.74</time>
   <energy>
    <i name="e_fr_energy">   -196.76729651 </i>
    <i name="e_wo_entrp">   -196.42685223 </i>
    <i name="e_0_energy">   -196.59707437 </i>
   </energy>
  </scstep>
  <scstep>
   <time name="dav">   29.22   29.29</time>
   <time name="total">   29.73   29.81</time>
   <energy>
    <i name="e_fr_energy">   -190.22342048 </i>
    <i name="e_wo_entrp">   -189.95571853 </i>
    <i name="e_0_energy">   -190.08956950 </i>
   </energy>
  </scstep>
  <scstep>
   <time name="dav">   30.05   30.13</time>
   <time name="total">   30.57   30.66</time>
   <energy>
    <i name="e_fr_energy">   -188.30791151 </i>
    <i name="e_wo_entrp">   -187.97873411 </i>
    <i name="e_0_energy">   -188.14332281 </i>
   </energy>
  </scstep>
  <scstep>
   <time name="dav">   32.48   32.55</time>
   <time name="total">   33.01   33.09</time>
   <energy>
    <i name="e_fr_energy">   -187.16389221 </i>
    <i name="e_wo_entrp">   -186.82206986 </i>
    <i name="e_0_energy">   -186.99298103 </i>
   </energy>
  </scstep>
  <scstep>
   <time name="dav">   31.13   31.21</time>
   <time name="total">   31.67   31.75</time>
   <energy>
    <i name="e_fr_energy">   -187.00049708 </i>
    <i name="e_wo_entrp">   -186.65171114 </i>
    <i name="e_0_energy">   -186.82610411 </i>
   </energy>
  </scstep>
  <scstep>
   <time name="dav">   32.58   32.66</time>
   <time name="total">   33.12   33.20</time>
   <energy>
    <i name="e_fr_energy">   -187.08597836 </i>
    <i name="e_wo_entrp">   -186.75262523 </i>
    <i name="e_0_energy">   -186.91930179 </i>
   </energy>
  </scstep>
  <scstep>
   <time name="dav">   32.16   32.24</time>
   <time name="total">   32.70   32.78</time>
   <energy>
    <i name="e_fr_energy">   -186.93678954 </i>
    <i name="e_wo_entrp">   -186.60137422 </i>
    <i name="e_0_energy">   -186.76908188 </i>
   </energy>
  </scstep>
  <scstep>
   <time name="dav">   32.80   32.88</time>
   <time name="total">   33.34   33.43</time>
   <energy>
    <i name="e_fr_energy">   -186.90382907 </i>
    <i name="e_wo_entrp">   -186.56307272 </i>
    <i name="e_0_energy">   -186.73345089 </i>
   </energy>
  </scstep>
  <scstep>
   <time name="dav">   31.51   31.59</time>
   <time name="total">   32.04   32.13</time>
   <energy>
    <i name="e_fr_energy">   -186.89662591 </i>
    <i name="e_wo_entrp">   -186.55341520 </i>
    <i name="e_0_energy">   -186.72502056 </i>
   </energy>
  </scstep>
  <scstep>
   <time name="dav">   31.85   31.93</time>
   <time name="total">   32.39   32.47</time>
   <energy>
    <i name="e_fr_energy">   -186.88925331 </i>
    <i name="e_wo_entrp">   -186.54574268 </i>
    <i name="e_0_energy">   -186.71749800 </i>
   </energy>
  </scstep>
  <scstep>
   <time name="dav">   31.85   31.93</time>
   <time name="total">   32.39   32.48</time>
   <energy>
    <i name="e_fr_energy">   -186.88697633 </i>
    <i name="e_wo_entrp">   -186.54461240 </i>
    <i name="e_0_energy">   -186.71579436 </i>
   </energy>
  </scstep>
  <scstep>
   <time name="dav">   31.43   31.51</time>
   <time name="total">   31.97   32.06</time>
   <energy>
    <i name="e_fr_energy">   -186.88605467 </i>
    <i name="e_wo_entrp">   -186.54471585 </i>
    <i name="e_0_energy">   -186.71538526 </i>
   </energy>
  </scstep>
  <scstep>
   <time name="dav">   28.84   28.91</time>
   <time name="total">   29.38   29.45</time>
   <energy>
    <i name="e_fr_energy">   -186.88574633 </i>
    <i name="e_wo_entrp">   -186.54378908 </i>
    <i name="e_0_energy">   -186.71476771 </i>
   </energy>
  </scstep>
  <scstep>
   <time name="dav">   23.61   23.66</time>
   <time name="total">   24.14   24.21</time>
   <energy>
    <i name="e_fr_energy">   -186.88654390 </i>
    <i name="e_wo_entrp">   -186.54494215 </i>
    <i name="e_0_energy">   -186.71574303 </i>
   </energy>
  </scstep>
  <scstep>
   <time name="dav">   21.96   22.01</time>
   <time name="total">   22.49   22.55</time>
   <energy>
    <i name="e_fr_energy">   -186.88711600 </i>
    <i name="e_wo_entrp">   -186.54542596 </i>
    <i name="e_0_energy">   -186.71627098 </i>
   </energy>
  </scstep>
  <scstep>
   <time name="dav">   20.36   20.41</time>
   <time name="total">   20.90   20.96</time>
   <energy>
    <i name="e_fr_energy">   -186.88821795 </i>
    <i name="e_wo_entrp">   -186.54649228 </i>
    <i name="e_0_energy">   -186.71735511 </i>
   </energy>
  </scstep>
  <scstep>
   <time name="dav">   20.47   20.52</time>
   <time name="total">   21.00   21.06</time>
   <energy>
    <i name="e_fr_energy">   -186.88945382 </i>
    <i name="e_wo_entrp">   -186.54784982 </i>
    <i name="e_0_energy">   -186.71865182 </i>
   </energy>
  </scstep>
  <scstep>
   <time name="dav">   18.98   19.02</time>
   <time name="total">   19.51   19.57</time>
   <energy>
    <i name="e_fr_energy">   -186.89003531 </i>
    <i name="e_wo_entrp">   -186.54838500 </i>
    <i name="e_0_energy">   -186.71921015 </i>
   </energy>
  </scstep>
  <scstep>
   <time name="dav">   16.38   16.42</time>
   <time name="total">   16.92   16.96</time>
   <energy>
    <i name="e_fr_energy">   -186.89041641 </i>
    <i name="e_wo_entrp">   -186.54873611 </i>
    <i name="e_0_energy">   -186.71957626 </i>
   </energy>
  </scstep>
  <scstep>
   <time name="dav">   19.07   19.11</time>
   <time name="total">   19.60   19.66</time>
   <energy>
    <i name="e_fr_energy">   -186.89065626 </i>
    <i name="e_wo_entrp">   -186.54899308 </i>
    <i name="e_0_energy">   -186.71982467 </i>
   </energy>
  </scstep>
  <scstep>
   <time name="dav">   20.05   20.10</time>
   <time name="total">   20.09   20.14</time>
   <energy>
    <i name="alphaZ">     81.65567618 </i>
    <i name="ewald">  41890.23011113 </i>
    <i name="hartreedc"> -47833.15370432 </i>
    <i name="XCdc">   -231.59892704 </i>
    <i name="pawpsdc">   4192.17896436 </i>
    <i name="pawaedc">  -3610.20291269 </i>
    <i name="eentropy">     -0.34166533 </i>
    <i name="bandstr">  -1437.10082126 </i>
    <i name="atom">   6761.44252427 </i>
    <i name="e_fr_energy">   -186.89075471 </i>
    <i name="e_wo_entrp">   -186.54908938 </i>
    <i name="e_0_energy">   -186.71992205 </i>
   </energy>
  </scstep>
  <structure>
   <crystal>
    <varray name="basis" >
     <v>       8.66999996       5.03999989       0.00000000 </v>
     <v>      -8.66999982       5.04000013       0.00000000 </v>
     <v>       0.00000000       0.00000000      30.00000000 </v>
    </varray>
    <i name="volume">   2621.80797419 </i>
    <varray name="rec_basis" >
     <v>       0.05767013       0.09920635       0.00000000 </v>
     <v>      -0.05767013       0.09920635       0.00000000 </v>
     <v>       0.00000000       0.00000000       0.03333333 </v>
    </varray>
   </crystal>
   <varray name="positions" >
    <v>       0.33333334       0.66666669       0.00000000 </v>
    <v>       0.66666669       0.33333334       0.00000000 </v>
    <v>       1.00000000       0.33333334       0.00000000 </v>
    <v>       0.33333334       0.33333334       0.00000000 </v>
    <v>       0.00000000       0.00000000       0.00000000 </v>
    <v>       0.33333334       0.00000000       0.00000000 </v>
    <v>       0.00000000       0.66666669       0.00000000 </v>
    <v>       0.66666669       0.00000000       0.00000000 </v>
    <v>       0.66666669       0.66666669       0.00000000 </v>
    <v>       0.11068511       0.22244981       0.95539999 </v>
    <v>       0.22244981       0.11068511       0.04460000 </v>
    <v>       0.11068511       0.55578315       0.95539999 </v>
    <v>       0.22244981       0.44401845       0.04460000 </v>
    <v>       0.11068511       0.88911647       0.95539999 </v>
    <v>       0.22244981       0.77735180       0.04460000 </v>
    <v>       0.44401845       0.22244981       0.95539999 </v>
    <v>       0.55578315       0.11068511       0.04460000 </v>
    <v>       0.44401845       0.55578315       0.95539999 </v>
    <v>       0.55578315       0.44401845       0.04460000 </v>
    <v>       0.44401845       0.88911647       0.95539999 </v>
    <v>       0.55578315       0.77735180       0.04460000 </v>
    <v>       0.77735180       0.22244981       0.95539999 </v>
    <v>       0.88911647       0.11068511       0.04460000 </v>
    <v>       0.77735180       0.55578315       0.95539999 </v>
    <v>       0.88911647       0.44401845       0.04460000 </v>
    <v>       0.77735180       0.88911647       0.95539999 </v>
    <v>       0.88911647       0.77735180       0.04460000 </v>
   </varray>
  </structure>
  <varray name="forces" >
   <v>       0.00767152      -0.06033355       0.09007545 </v>
   <v>      -0.14513451      -0.30327173      -0.06989143 </v>
   <v>       0.35875224       0.04105371       0.04570944 </v>
   <v>       0.21289504      -0.43499240       0.00145885 </v>
   <v>       0.27152322       0.42178424      -0.01827277 </v>
   <v>      -0.53410946      -0.00930486      -0.14527384 </v>
   <v>      -0.12100642       0.38082371       0.05019265 </v>
   <v>      -0.08489088       0.06456539      -0.04638283 </v>
   <v>       0.00332219      -0.06001799       0.09468504 </v>
   <v>      -0.74575794      -0.00426748      -2.13076078 </v>
   <v>      -0.13630177      -0.00252781       2.93953280 </v>
   <v>       0.74623739      -0.00271420      -1.46118537 </v>
   <v>      -0.91378444       0.00873131       1.46242152 </v>
   <v>       0.20945141      -0.13402368      -2.93549141 </v>
   <v>       0.69455085      -0.16437394       2.11041075 </v>
   <v>       0.54710094       0.70323573      -2.19214750 </v>
   <v>      -0.35370114       0.69670903       2.13683352 </v>
   <v>      -0.65816609       0.14587261      -2.07362938 </v>
   <v>       0.64948250       0.16760984       2.09431172 </v>
   <v>       0.60561322      -0.54133918      -2.10607409 </v>
   <v>      -0.46115519      -0.60063327       2.21829967 </v>
   <v>      -0.25542104       0.50793062      -1.43975110 </v>
   <v>      -0.60262474       0.53950623       2.14242853 </v>
   <v>       0.49056882      -0.59967889      -2.17957237 </v>
   <v>       0.23035674      -0.52253980       1.36044041 </v>
   <v>       0.06326100      -0.10002700      -2.86086476 </v>
   <v>      -0.07873346      -0.13777663       2.91249728 </v>
  </varray>
  <varray name="stress" >
   <v>       7.43152506      -0.03959615      -1.61160463 </v>
   <v>      -0.03959617       4.34134457       0.00797394 </v>
   <v>      -1.61160451       0.00797416      30.27856606 </v>
  </varray>
  <energy>
   <i name="e_fr_energy">   -186.89075471 </i>
   <i name="e_wo_entrp">   -186.71992205 </i>
   <i name="e_0_energy">     -0.34166533 </i>
  </energy>
  <time name="totalsc">  791.90  794.01</time>
 </calculation>
 <calculation>
  <scstep>
   <time name="dav">   21.80   21.85</time>
   <time name="total">   22.35   22.40</time>
   <energy>
    <i name="alphaZ">     78.91739136 </i>
    <i name="ewald">  39378.50923162 </i>
    <i name="hartreedc"> -45336.07798181 </i>
    <i name="XCdc">   -239.05509162 </i>
    <i name="pawpsdc">   4192.15923691 </i>
    <i name="pawaedc">  -3610.18339553 </i>
    <i name="eentropy">     -0.27968664 </i>
    <i name="bandstr">  -1412.96525088 </i>
    <i name="atom">   6761.44252427 </i>
    <i name="e_fr_energy">   -187.53302231 </i>
    <i name="e_wo_entrp">   -187.25333567 </i>
    <i name="e_0_energy">   -187.39317899 </i>
   </energy>
  </scstep>
  <scstep>
   <time name="dav">   30.58   30.66</time>
   <time name="total">   31.12   31.20</time>
   <energy>
    <i name="e_fr_energy">   -189.54538879 </i>
    <i name="e_wo_entrp">   -189.21181898 </i>
    <i name="e_0_energy">   -189.37860388 </i>
   </energy>
  </scstep>
  <scstep>
   <time name="dav">   30.59   30.66</time>
   <time name="total">   31.15   31.23</time>
   <energy>
    <i name="e_fr_energy">   -189.35723567 </i>
    <i name="e_wo_entrp">   -189.08602716 </i>
    <i name="e_0_energy">   -189.22163142 </i>
   </energy>
  </scstep>
  <scstep>
   <time name="dav">   30.76   30.83</time>
   <time name="total">   31.30   31.38</time>
   <energy>
    <i name="e_fr_energy">   -188.78772213 </i>
    <i name="e_wo_entrp">   -188.50810423 </i>
    <i name="e_0_energy">   -188.64791318 </i>
   </energy>
  </scstep>
  <scstep>
   <time name="dav">   29.38   29.45</time>
   <time name="total">   29.93   30.01</time>
   <energy>
    <i name="e_fr_energy">   -188.88657304 </i>
    <i name="e_wo_entrp">   -188.59692528 </i>
    <i name="e_0_energy">   -188.74174916 </i>
   </energy>
  </scstep>
  <scstep>
   <time name="dav">   31.57   31.65</time>
   <time name="total">   32.12   32.21</time>
   <energy>
    <i name="e_fr_energy">   -188.75523368 </i>
    <i name="e_wo_entrp">   -188.47654845 </i>
    <i name="e_0_energy">   -188.61589106 </i>
   </energy>
  </scstep>
  <scstep>
   <time name="dav">   29.30   29.37</time>
   <time name="total">   29.85   29.93</time>
   <energy>
    <i name="e_fr_energy">   -188.72974463 </i>
    <i name="e_wo_entrp">   -188.45071895 </i>
    <i name="e_0_energy">   -188.59023179 </i>
   </energy>
  </scstep>
  <scstep>
   <time name="dav">   33.10   33.18</time>
   <time name="total">   33.65   33.74</time>
   <energy>
    <i name="e_fr_energy">   -188.71209013 </i>
    <i name="e_wo_entrp">   -188.43266169 </i>
    <i name="e_0_energy">   -188.57237591 </i>
   </energy>
  </scstep>
  <scstep>
   <time name="dav">   29.89   29.96</time>
   <time name="total">   30.44   30.52</time>
   <energy>
    <i name="e_fr_energy">   -188.70164054 </i>
    <i name="e_wo_entrp">   -188.42312169 </i>
    <i name="e_0_energy">   -188.56238112 </i>
   </energy>
  </scstep>
  <scstep>
   <time name="dav">   28.50   28.57</time>
   <time name="total">   29.04   29.12</time>
   <energy>
    <i name="e_fr_energy">   -188.70103835 </i>
    <i name="e_wo_entrp">   -188.42291750 </i>
    <i name="e_0_energy">   -188.56197793 </i>
   </energy>
  </scstep>
  <scstep>
   <time name="dav">   30.88   30.95</time>
   <time name="total">   31.43   31.51</time>
   <energy>
    <i name="e_fr_energy">   -188.70043345 </i>
    <i name="e_wo_entrp">   -188.42257790 </i>
    <i name="e_0_energy">   -188.56150568 </i>
   </energy>
  </scstep>
  <scstep>
   <time name="dav">   27.48   27.54</time>
   <time name="total">   28.02   28.10</time>
   <energy>
    <i name="e_fr_energy">   -188.70057007 </i>
    <i name="e_wo_entrp">   -188.42271856 </i>
    <i name="e_0_energy">   -188.56164432 </i>
   </energy>
  </scstep>
  <scstep>
   <time name="dav">   22.08   22.13</time>
   <time name="total">   22.11   22.17</time>
   <energy>
    <i name="alphaZ">     78.91739136 </i>
    <i name="ewald">  39378.50923162 </i>
    <i name="hartreedc"> -45346.80875017 </i>
    <i name="XCdc">   -237.96878956 </i>
    <i name="pawpsdc">   3950.52263074 </i>
    <i name="pawaedc">  -3365.04256392 </i>
    <i name="eentropy">     -0.27788754 </i>
    <i name="bandstr">  -1407.99434218 </i>
    <i name="atom">   6761.44252427 </i>
    <i name="e_fr_energy">   -188.70055538 </i>
    <i name="e_wo_entrp">   -188.42266784 </i>
    <i name="e_0_energy">   -188.56161161 </i>
   </energy>
  </scstep>
  <structure>
   <crystal>
    <varray name="basis" >
     <v>       8.85780513       5.10297146       0.00000000 </v>
     <v>      -8.85897199       5.10497922       0.00000000 </v>
     <v>       0.00000000       0.00000000      30.00000000 </v>
    </varray>
    <i name="volume">   2712.77977191 </i>
    <varray name="rec_basis" >
     <v>       0.05645478       0.09796931       0.00000000 </v>
     <v>      -0.05643257       0.09795640       0.00000000 </v>
     <v>       0.00000000       0.00000000       0.03333333 </v>
    </varray>
   </crystal>
   <varray name="positions" >
    <v>       0.33306593       0.66635659       0.00014485 </v>
    <v>       0.66481145       0.33228568      -0.00011239 </v>
    <v>       1.00119459       0.33253172       0.00007350 </v>
    <v>       0.33184379       0.33065917       0.00000235 </v>
    <v>       0.00277407       0.00126323      -0.00002938 </v>
    <v>       0.33180283       0.00144145      -0.00023361 </v>
    <v>       0.00148595       0.66882596       0.00008071 </v>
    <v>       0.66673952       0.00054519      -0.00007459 </v>
    <v>       0.66638868       0.66637020       0.00015226 </v>
    <v>       0.10858987       0.22450420       0.95197354 </v>
    <v>       0.22205850       0.11105223       0.04932703 </v>
    <v>       0.11274827       0.55369401       0.95305027 </v>
    <v>       0.21994930       0.44660254       0.04695170 </v>
    <v>       0.11062640       0.88789230       0.95067946 </v>
    <v>       0.22359547       0.77463276       0.04799373 </v>
    <v>       0.44890625       0.22429336       0.95187482 </v>
    <v>       0.55813353       0.11500360       0.04803622 </v>
    <v>       0.44288547       0.55831242       0.95206541 </v>
    <v>       0.55839229       0.44301367       0.04796784 </v>
    <v>       0.44311253       0.88484072       0.95201324 </v>
    <v>       0.55162553       0.77576019       0.04816722 </v>
    <v>       0.77907212       0.22559138       0.95308474 </v>
    <v>       0.89002193       0.11494377       0.04804521 </v>
    <v>       0.77584659       0.55154826       0.95189504 </v>
    <v>       0.88725649       0.44087670       0.04678771 </v>
    <v>       0.77704907       0.88846174       0.95079947 </v>
    <v>       0.88823802       0.77691145       0.04928355 </v>
   </varray>
  </structure>
  <varray name="forces" >
   <v>       0.06226170       0.02436400      -0.03740180 </v>
   <v>      -0.13187201      -0.28133170       0.05086641 </v>
   <v>       0.29306662       0.00575975       0.09685427 </v>
   <v>       0.32274150      -0.49974006      -0.01017168 </v>
   <v>       0.44594583       0.35812746      -0.00165099 </v>
   <v>      -0.64640742      -0.10687642      -0.03059871 </v>
   <v>      -0.34135816       0.41337565       0.10405861 </v>
   <v>       0.07201872      -0.05044659      -0.08247599 </v>
   <v>      -0.05069335       0.08674140      -0.05803673 </v>
   <v>      -0.06062489       0.00980033      -0.16672320 </v>
   <v>       0.01170601       0.00728171       0.35349084 </v>
   <v>      -0.10446690      -0.00666673       0.18258198 </v>
   <v>      -0.02593959      -0.01560557      -0.06539829 </v>
   <v>       0.04980291      -0.09532806      -0.28319338 </v>
   <v>      -0.03128572      -0.09450344      -0.00977105 </v>
   <v>       0.02224797       0.06341070      -0.20405107 </v>
   <v>       0.10488850       0.04583788      -0.08888814 </v>
   <v>       0.02677369       0.09509059       0.14001776 </v>
   <v>      -0.01496643       0.10218475      -0.02448858 </v>
   <v>       0.07174775       0.05894096       0.12471514 </v>
   <v>       0.04568957       0.04211880      -0.01472822 </v>
   <v>       0.05720893      -0.06851875       0.11074623 </v>
   <v>      -0.07543923      -0.05439318      -0.05453203 </v>
   <v>      -0.03924345       0.05431701       0.14288575 </v>
   <v>      -0.06276904       0.08083938      -0.31429247 </v>
   <v>      -0.06099592      -0.08918925       0.10858397 </v>
   <v>       0.05996240      -0.08559064       0.03160137 </v>
  </varray>
  <varray name="stress" >
   <v>     -19.89934423       0.01269004       0.04992386 </v>
   <v>       0.01268999     -19.44017222       0.01122608 </v>
   <v>       0.04992409       0.01122585      -1.75214121 </v>
  </varray>
  <energy>
   <i name="e_fr_energy">   -188.70055538 </i>
   <i name="e_wo_entrp">   -188.56161161 </i>
   <i name="e_0_energy">     -0.27788754 </i>
  </energy>
  <time name="totalsc">  425.14  426.26</time>
 </calculation>
 <calculation>
  <scstep>
   <time name="dav">   23.55   23.61</time>
   <time name="total">   24.09   24.15</time>
   <energy>
    <i name="alphaZ">     82.34471541 </i>
    <i name="ewald">  41303.39535050 </i>
    <i name="hartreedc"> -47302.14709672 </i>
    <i name="XCdc">   -233.84429515 </i>
    <i name="pawpsdc">   3949.66713373 </i>
    <i name="pawaedc">  -3364.17962683 </i>
    <i name="eentropy">     -0.23478177 </i>
    <i name="bandstr">  -1387.07259421 </i>
    <i name="atom">   6761.44252427 </i>
    <i name="e_fr_energy">   -190.62867077 </i>
    <i name="e_wo_entrp">   -190.39388900 </i>
    <i name="e_0_energy">   -190.51127989 </i>
   </energy>
  </scstep>
  <scstep>
   <time name="dav">   28.14   28.20</time>
   <time name="total">   28.66   28.74</time>
   <energy>
    <i name="e_fr_energy">   -190.57509903 </i>
    <i name="e_wo_entrp">   -190.34140710 </i>
    <i name="e_0_energy">   -190.45825306 </i>
   </energy>
  </scstep>
  <scstep>
   <time name="dav">   30.41   30.48</time>
   <time name="total">   30.94   31.02</time>
   <energy>
    <i name="e_fr_energy">   -190.11049133 </i>
    <i name="e_wo_entrp">   -189.86007082 </i>
    <i name="e_0_energy">   -189.98528108 </i>
   </energy>
  </scstep>
  <scstep>
   <time name="dav">   31.39   31.47</time>
   <time name="total">   31.93   32.02</time>
   <energy>
    <i name="e_fr_energy">   -189.90081759 </i>
    <i name="e_wo_entrp">   -189.66761331 </i>
    <i name="e_0_energy">   -189.78421545 </i>
   </energy>
  </scstep>
  <scstep>
   <time name="dav">   30.22   30.30</time>
   <time name="total">   30.75   30.84</time>
   <energy>
    <i name="e_fr_energy">   -189.88177247 </i>
    <i name="e_wo_entrp">   -189.64367590 </i>
    <i name="e_0_energy">   -189.76272419 </i>
   </energy>
  </scstep>
  <scstep>
   <time name="dav">   31.03   31.10</time>
   <time name="total">   31.56   31.65</time>
   <energy>
    <i name="e_fr_energy">   -189.80210346 </i>
    <i name="e_wo_entrp">   -189.56505894 </i>
    <i name="e_0_energy">   -189.68358120 </i>
   </energy>
  </scstep>
  <scstep>
   <time name="dav">   28.78   28.85</time>
   <time name="total">   29.31   29.39</time>
   <energy>
    <i name="e_fr_energy">   -189.79577465 </i>
    <i name="e_wo_entrp">   -189.55938976 </i>
    <i name="e_0_energy">   -189.67758221 </i>
   </energy>
  </scstep>
  <scstep>
   <time name="dav">   30.12   30.19</time>
   <time name="total">   30.65   30.73</time>
   <energy>
    <i name="e_fr_energy">   -189.79645767 </i>
    <i name="e_wo_entrp">   -189.56003550 </i>
    <i name="e_0_energy">   -189.67824658 </i>
   </energy>
  </scstep>
  <scstep>
   <time name="dav">   26.39   26.45</time>
   <time name="total">   26.92   27.00</time>
   <energy>
    <i name="e_fr_energy">   -189.79574603 </i>
    <i name="e_wo_entrp">   -189.55926456 </i>
    <i name="e_0_energy">   -189.67750529 </i>
   </energy>
  </scstep>
  <scstep>
   <time name="dav">   25.14   25.20</time>
   <time name="total">   25.68   25.75</time>
   <energy>
    <i name="e_fr_energy">   -189.79605650 </i>
    <i name="e_wo_entrp">   -189.55960045 </i>
    <i name="e_0_energy">   -189.67782847 </i>
   </energy>
  </scstep>
  <scstep>
   <time name="dav">   24.07   24.13</time>
   <time name="total">   24.60   24.67</time>
   <energy>
    <i name="e_fr_energy">   -189.79578092 </i>
    <i name="e_wo_entrp">   -189.55921361 </i>
    <i name="e_0_energy">   -189.67749727 </i>
   </energy>
  </scstep>
  <scstep>
   <time name="dav">   20.12   20.17</time>
   <time name="total">   20.16   20.21</time>
   <energy>
    <i name="alphaZ">     82.34471541 </i>
    <i name="ewald">  41303.39535050 </i>
    <i name="hartreedc"> -47275.66505926 </i>
    <i name="XCdc">   -235.23606269 </i>
    <i name="pawpsdc">   4039.02853771 </i>
    <i name="pawaedc">  -3454.74498937 </i>
    <i name="eentropy">     -0.23655631 </i>
    <i name="bandstr">  -1410.12426634 </i>
    <i name="atom">   6761.44252427 </i>
    <i name="e_fr_energy">   -189.79580608 </i>
    <i name="e_wo_entrp">   -189.55924977 </i>
    <i name="e_0_energy">   -189.67752793 </i>
   </energy>
  </scstep>
  <structure>
   <crystal>
    <varray name="basis" >
     <v>       8.66940278       4.99701880       0.00000000 </v>
     <v>      -8.67040630       4.99874443       0.00000000 </v>
     <v>       0.00000000       0.00000000      30.00000000 </v>
    </varray>
    <i name="volume">   2599.86936465 </i>
    <varray name="rec_basis" >
     <v>       0.05768072       0.10004818       0.00000000 </v>
     <v>      -0.05766081       0.10003660       0.00000000 </v>
     <v>       0.00000000       0.00000000       0.03333333 </v>
    </varray>
   </crystal>
   <varray name="positions" >
    <v>       0.33316656       0.66633737       0.00012359 </v>
    <v>       0.66421456       0.33194268      -0.00008348 </v>
    <v>       1.00148631       0.33225935       0.00012855 </v>
    <v>       0.33131967       0.32951395      -0.00000344 </v>
    <v>       0.00380156       0.00143229      -0.00003032 </v>
    <v>       0.33100208       0.00188492      -0.00025100 </v>
    <v>       0.00184789       0.66984485       0.00013986 </v>
    <v>       0.66672457       0.00039163      -0.00012146 </v>
    <v>       0.66648478       0.66656385       0.00011928 </v>
    <v>       0.10854788       0.22457891       0.95187878 </v>
    <v>       0.22208193       0.11105312       0.04952794 </v>
    <v>       0.11263658       0.55378340       0.95315405 </v>
    <v>       0.21989827       0.44660143       0.04691453 </v>
    <v>       0.11051510       0.88768516       0.95051851 </v>
    <v>       0.22340749       0.77450502       0.04798817 </v>
    <v>       0.44903359       0.22437786       0.95175885 </v>
    <v>       0.55831107       0.11497923       0.04798570 </v>
    <v>       0.44307009       0.55844548       0.95214499 </v>
    <v>       0.55854858       0.44319874       0.04795392 </v>
    <v>       0.44328005       0.88487012       0.95208412 </v>
    <v>       0.55173986       0.77578657       0.04815885 </v>
    <v>       0.77901273       0.22542189       0.95314769 </v>
    <v>       0.88985845       0.11492551       0.04801422 </v>
    <v>       0.77589955       0.55167674       0.95197625 </v>
    <v>       0.88733111       0.44107212       0.04660908 </v>
    <v>       0.77684137       0.88837146       0.95086118 </v>
    <v>       0.88815277       0.77671080       0.04930151 </v>
   </varray>
  </structure>
  <varray name="forces" >
   <v>       0.08628002       0.07929163      -0.05715443 </v>
   <v>      -0.14902783      -0.27861035       0.06987810 </v>
   <v>       0.28607629      -0.01717880       0.08776881 </v>
   <v>       0.35228946      -0.49310678      -0.01275988 </v>
   <v>       0.49870096       0.31499489       0.00200734 </v>
   <v>      -0.67355725      -0.14147850       0.00152966 </v>
   <v>      -0.41635835       0.41784934       0.08694338 </v>
   <v>       0.12744648      -0.09873962      -0.06275753 </v>
   <v>      -0.07113205       0.13394516      -0.07614672 </v>
   <v>      -0.12778347       0.00938328      -0.66420602 </v>
   <v>       0.01332057       0.01035003       0.91672596 </v>
   <v>       0.03585181      -0.01179108      -0.26092472 </v>
   <v>      -0.07902368      -0.01133227       0.38072048 </v>
   <v>       0.01044983      -0.02521480      -0.86583646 </v>
   <v>       0.07387018       0.00326413       0.48640623 </v>
   <v>       0.05319973       0.12126533      -0.71611531 </v>
   <v>      -0.01522612       0.08395408       0.39055802 </v>
   <v>      -0.07054013       0.00224837      -0.33500991 </v>
   <v>       0.08420996       0.01858438       0.46194047 </v>
   <v>       0.04183161      -0.07521417      -0.35322471 </v>
   <v>      -0.03364738      -0.08026361       0.50871856 </v>
   <v>      -0.02377966       0.08093298      -0.35019618 </v>
   <v>      -0.05422943       0.07051285       0.43344527 </v>
   <v>       0.04623405      -0.05723131      -0.35362946 </v>
   <v>       0.00854888      -0.04079949       0.11764631 </v>
   <v>      -0.01025567      -0.00490914      -0.43432313 </v>
   <v>       0.00625122      -0.01070653       0.59799587 </v>
  </varray>
  <varray name="stress" >
   <v>     -10.14830225       0.00803904       0.04919758 </v>
   <v>       0.00803910      -9.78270861       0.01088178 </v>
   <v>       0.04919770       0.01088199       6.48996368 </v>
  </varray>
  <energy>
   <i name="e_fr_energy">   -189.79580608 </i>
   <i name="e_wo_entrp">   -189.67752793 </i>
   <i name="e_0_energy">     -0.23655631 </i>
  </energy>
  <time name="totalsc">  377.81  378.81</time>
 </calculation>
 <calculation>
  <scstep>
   <time name="dav">   21.85   21.90</time>
   <time name="total">   22.38   22.43</time>
   <energy>
    <i name="alphaZ">     85.81334781 </i>
    <i name="ewald">  42830.80957104 </i>
    <i name="hartreedc"> -48847.42110345 </i>
    <i name="XCdc">   -232.95510092 </i>
    <i name="pawpsdc">   4039.11641675 </i>
    <i name="pawaedc">  -3454.83084417 </i>
    <i name="eentropy">     -0.20493575 </i>
    <i name="bandstr">  -1373.13685091 </i>
    <i name="atom">   6761.44252427 </i>
    <i name="e_fr_energy">   -191.36697534 </i>
    <i name="e_wo_entrp">   -191.16203959 </i>
    <i name="e_0_energy">   -191.26450746 </i>
   </energy>
  </scstep>
  <scstep>
   <time name="dav">   32.27   32.34</time>
   <time name="total">   32.78   32.87</time>
   <energy>
    <i name="e_fr_energy">   -191.20368917 </i>
    <i name="e_wo_entrp">   -190.99878798 </i>
    <i name="e_0_energy">   -191.10123857 </i>
   </energy>
  </scstep>
  <scstep>
   <time name="dav">   30.08   30.15</time>
   <time name="total">   30.59   30.67</time>
   <energy>
    <i name="e_fr_energy">   -191.31214317 </i>
    <i name="e_wo_entrp">   -191.08390242 </i>
    <i name="e_0_energy">   -191.19802279 </i>
   </energy>
  </scstep>
  <scstep>
   <time name="dav">   30.59   30.66</time>
   <time name="total">   31.11   31.19</time>
   <energy>
    <i name="e_fr_energy">   -190.93902538 </i>
    <i name="e_wo_entrp">   -190.73070772 </i>
    <i name="e_0_energy">   -190.83486655 </i>
   </energy>
  </scstep>
  <scstep>
   <time name="dav">   30.86   30.94</time>
   <time name="total">   31.38   31.47</time>
   <energy>
    <i name="e_fr_energy">   -190.89549522 </i>
    <i name="e_wo_entrp">   -190.68883033 </i>
    <i name="e_0_energy">   -190.79216278 </i>
   </energy>
  </scstep>
  <scstep>
   <time name="dav">   30.24   30.32</time>
   <time name="total">   30.76   30.84</time>
   <energy>
    <i name="e_fr_energy">   -190.80551034 </i>
    <i name="e_wo_entrp">   -190.59502459 </i>
    <i name="e_0_energy">   -190.70026746 </i>
   </energy>
  </scstep>
  <scstep>
   <time name="dav">   31.12   31.20</time>
   <time name="total">   31.64   31.73</time>
   <energy>
    <i name="e_fr_energy">   -190.79160065 </i>
    <i name="e_wo_entrp">   -190.58195143 </i>
    <i name="e_0_energy">   -190.68677604 </i>
   </energy>
  </scstep>
  <scstep>
   <time name="dav">   28.45   28.52</time>
   <time name="total">   28.98   29.06</time>
   <energy>
    <i name="e_fr_energy">   -190.79004746 </i>
    <i name="e_wo_entrp">   -190.58052123 </i>
    <i name="e_0_energy">   -190.68528434 </i>
   </energy>
  </scstep>
  <scstep>
   <time name="dav">   27.46   27.53</time>
   <time name="total">   27.98   28.05</time>
   <energy>
    <i name="e_fr_energy">   -190.78882928 </i>
    <i name="e_wo_entrp">   -190.57934161 </i>
    <i name="e_0_energy">   -190.68408545 </i>
   </energy>
  </scstep>
  <scstep>
   <time name="dav">   28.51   28.58</time>
   <time name="total">   29.03   29.11</time>
   <energy>
    <i name="e_fr_energy">   -190.78906894 </i>
    <i name="e_wo_entrp">   -190.57952155 </i>
    <i name="e_0_energy">   -190.68429525 </i>
   </energy>
  </scstep>
  <scstep>
   <time name="dav">   24.89   24.95</time>
   <time name="total">   25.41   25.48</time>
   <energy>
    <i name="e_fr_energy">   -190.78891567 </i>
    <i name="e_wo_entrp">   -190.57938649 </i>
    <i name="e_0_energy">   -190.68415108 </i>
   </energy>
  </scstep>
  <scstep>
   <time name="dav">   19.59   19.63</time>
   <time name="total">   19.62   19.68</time>
   <energy>
    <i name="alphaZ">     85.81334781 </i>
    <i name="ewald">  42830.80957104 </i>
    <i name="hartreedc"> -48818.93831588 </i>
    <i name="XCdc">   -234.28052735 </i>
    <i name="pawpsdc">   4064.20394520 </i>
    <i name="pawaedc">  -3480.10054155 </i>
    <i name="eentropy">     -0.20957094 </i>
    <i name="bandstr">  -1399.52934789 </i>
    <i name="atom">   6761.44252427 </i>
    <i name="e_fr_energy">   -190.78891529 </i>
    <i name="e_wo_entrp">   -190.57934435 </i>
    <i name="e_0_energy">   -190.68412982 </i>
   </energy>
  </scstep>
  <structure>
   <crystal>
    <varray name="basis" >
     <v>       8.48746309       4.89806865       0.00000000 </v>
     <v>      -8.48823365       4.89939249       0.00000000 </v>
     <v>       0.00000000       0.00000000      30.00000000 </v>
    </varray>
    <i name="volume">   2494.78092161 </i>
    <varray name="rec_basis" >
     <v>       0.05891570       0.10207189       0.00000000 </v>
     <v>      -0.05889978       0.10206263       0.00000000 </v>
     <v>       0.00000000       0.00000000       0.03333333 </v>
    </varray>
   </crystal>
   <varray name="positions" >
    <v>       0.33414660       0.66662482      -0.00001149 </v>
    <v>       0.66191157       0.33076627       0.00007733 </v>
    <v>       1.00234560       0.33107088       0.00030262 </v>
    <v>       0.32956091       0.32512440      -0.00003205 </v>
    <v>       0.00754707       0.00142163      -0.00002307 </v>
    <v>       0.32755549       0.00338488      -0.00022063 </v>
    <v>       0.00286576       0.67408700       0.00030542 </v>
    <v>       0.66652561      -0.00088738      -0.00023473 </v>
    <v>       0.66715546       0.66780718      -0.00005375 </v>
    <v>       0.10804747       0.22519469       0.95008207 </v>
    <v>       0.22220491       0.11107518       0.05190326 </v>
    <v>       0.11288072       0.55336606       0.95223819 </v>
    <v>       0.21947610       0.44690268       0.04808068 </v>
    <v>       0.11051286       0.88772022       0.94823214 </v>
    <v>       0.22408905       0.77435107       0.04941557 </v>
    <v>       0.45017439       0.22504527       0.94984230 </v>
    <v>       0.55870491       0.11582747       0.04920043 </v>
    <v>       0.44245863       0.55862296       0.95104903 </v>
    <v>       0.55890365       0.44266077       0.04932240 </v>
    <v>       0.44258305       0.88395663       0.95094797 </v>
    <v>       0.55069680       0.77521430       0.04965554 </v>
    <v>       0.77968987       0.22650303       0.95203220 </v>
    <v>       0.89044568       0.11584381       0.04932500 </v>
    <v>       0.77555290       0.55075090       0.95082354 </v>
    <v>       0.88690584       0.44038063       0.04721842 </v>
    <v>       0.77705601       0.88851472       0.94950208 </v>
    <v>       0.88821757       0.77688441       0.05101945 </v>
   </varray>
  </structure>
  <varray name="forces" >
   <v>       0.13432384       0.13151917      -0.06171283 </v>
   <v>      -0.13699764      -0.28211817       0.07287099 </v>
   <v>       0.24907520      -0.03951838       0.03918334 </v>
   <v>       0.34311987      -0.45348010      -0.02249190 </v>
   <v>       0.52099488       0.24062836       0.00538367 </v>
   <v>      -0.64991537      -0.16334607       0.02540523 </v>
   <v>      -0.43125008       0.41870688       0.02204543 </v>
   <v>       0.15775576      -0.13444904      -0.01262539 </v>
   <v>      -0.10810838       0.17604217      -0.04983864 </v>
   <v>       0.01796585      -0.00555146      -0.46548271 </v>
   <v>      -0.00962478       0.00142918       0.71435180 </v>
   <v>      -0.02780335      -0.00153092      -0.13327010 </v>
   <v>       0.04465206      -0.01150710       0.30365777 </v>
   <v>      -0.00913888       0.04711846      -0.68209578 </v>
   <v>      -0.03538268       0.06167908       0.30844335 </v>
   <v>       0.00952746      -0.01161477      -0.55791081 </v>
   <v>      -0.03337183      -0.04434778       0.20856105 </v>
   <v>       0.03709620      -0.08383157      -0.18738146 </v>
   <v>      -0.01609629      -0.03712630       0.26824429 </v>
   <v>      -0.08681391      -0.02294928      -0.20431801 </v>
   <v>      -0.01866658      -0.04783155       0.39289057 </v>
   <v>       0.00148817       0.03814853      -0.23740156 </v>
   <v>       0.05270878       0.02297149       0.26687260 </v>
   <v>       0.04479908       0.00768713      -0.20442579 </v>
   <v>      -0.03467863       0.03542951       0.02920224 </v>
   <v>       0.04728976       0.10226826      -0.30111110 </v>
   <v>      -0.06294849       0.05557427       0.46295376 </v>
  </varray>
  <varray name="stress" >
   <v>      -5.58190870       0.00084335      -0.14531261 </v>
   <v>       0.00084303      -5.78578052      -0.03450506 </v>
   <v>      -0.14531265      -0.03450487       4.48686798 </v>
  </varray>
  <energy>
   <i name="e_fr_energy">   -190.78891529 </i>
   <i name="e_wo_entrp">   -190.68412982 </i>
   <i name="e_0_energy">     -0.20957094 </i>
  </energy>
  <time name="totalsc">  384.00  385.02</time>
 </calculation>
 <calculation>
  <scstep>
   <time name="dav">   21.84   21.89</time>
   <time name="total">   22.35   22.40</time>
   <energy>
    <i name="alphaZ">     90.04557727 </i>
    <i name="ewald">  44613.78190529 </i>
    <i name="hartreedc"> -50655.59254360 </i>
    <i name="XCdc">   -231.88532820 </i>
    <i name="pawpsdc">   4064.14067366 </i>
    <i name="pawaedc">  -3480.03341715 </i>
    <i name="eentropy">     -0.20263561 </i>
    <i name="bandstr">  -1353.79316770 </i>
    <i name="atom">   6761.44252427 </i>
    <i name="e_fr_energy">   -192.09641175 </i>
    <i name="e_wo_entrp">   -191.89377614 </i>
    <i name="e_0_energy">   -191.99509395 </i>
   </energy>
  </scstep>
  <scstep>
   <time name="dav">   28.66   28.73</time>
   <time name="total">   29.16   29.24</time>
   <energy>
    <i name="e_fr_energy">   -191.85575149 </i>
    <i name="e_wo_entrp">   -191.64751631 </i>
    <i name="e_0_energy">   -191.75163390 </i>
   </energy>
  </scstep>
  <scstep>
   <time name="dav">   27.86   27.92</time>
   <time name="total">   28.36   28.44</time>
   <energy>
    <i name="e_fr_energy">   -192.05367408 </i>
    <i name="e_wo_entrp">   -191.83397824 </i>
    <i name="e_0_energy">   -191.94382616 </i>
   </energy>
  </scstep>
  <scstep>
   <time name="dav">   28.60   28.67</time>
   <time name="total">   29.11   29.19</time>
   <energy>
    <i name="e_fr_energy">   -191.74213200 </i>
    <i name="e_wo_entrp">   -191.52757780 </i>
    <i name="e_0_energy">   -191.63485490 </i>
   </energy>
  </scstep>
  <scstep>
   <time name="dav">   30.42   30.50</time>
   <time name="total">   30.93   31.01</time>
   <energy>
    <i name="e_fr_energy">   -191.57293947 </i>
    <i name="e_wo_entrp">   -191.37369549 </i>
    <i name="e_0_energy">   -191.47331748 </i>
   </energy>
  </scstep>
  <scstep>
   <time name="dav">   30.23   30.30</time>
   <time name="total">   30.74   30.82</time>
   <energy>
    <i name="e_fr_energy">   -191.44497986 </i>
    <i name="e_wo_entrp">   -191.23302121 </i>
    <i name="e_0_energy">   -191.33900054 </i>
   </energy>
  </scstep>
  <scstep>
   <time name="dav">   30.23   30.31</time>
   <time name="total">   30.74   30.82</time>
   <energy>
    <i name="e_fr_energy">   -191.43139546 </i>
    <i name="e_wo_entrp">   -191.22117140 </i>
    <i name="e_0_energy">   -191.32628343 </i>
   </energy>
  </scstep>
  <scstep>
   <time name="dav">   27.20   27.26</time>
   <time name="total">   27.71   27.78</time>
   <energy>
    <i name="e_fr_energy">   -191.42747259 </i>
    <i name="e_wo_entrp">   -191.21744204 </i>
    <i name="e_0_energy">   -191.32245732 </i>
   </energy>
  </scstep>
  <scstep>
   <time name="dav">   31.06   31.13</time>
   <time name="total">   31.57   31.65</time>
   <energy>
    <i name="e_fr_energy">   -191.42844433 </i>
    <i name="e_wo_entrp">   -191.21863207 </i>
    <i name="e_0_energy">   -191.32353820 </i>
   </energy>
  </scstep>
  <scstep>
   <time name="dav">   28.37   28.43</time>
   <time name="total">   28.87   28.95</time>
   <energy>
    <i name="e_fr_energy">   -191.42728154 </i>
    <i name="e_wo_entrp">   -191.21707076 </i>
    <i name="e_0_energy">   -191.32217615 </i>
   </energy>
  </scstep>
  <scstep>
   <time name="dav">   23.96   24.02</time>
   <time name="total">   24.00   24.06</time>
   <energy>
    <i name="alphaZ">     90.04557727 </i>
    <i name="ewald">  44613.78190529 </i>
    <i name="hartreedc"> -50622.69907183 </i>
    <i name="XCdc">   -233.36493158 </i>
    <i name="pawpsdc">   4086.04151579 </i>
    <i name="pawaedc">  -3502.04205839 </i>
    <i name="eentropy">     -0.21016634 </i>
    <i name="bandstr">  -1384.42264136 </i>
    <i name="atom">   6761.44252427 </i>
    <i name="e_fr_energy">   -191.42734687 </i>
    <i name="e_wo_entrp">   -191.21718054 </i>
    <i name="e_0_energy">   -191.32226370 </i>
   </energy>
  </scstep>
  <structure>
   <crystal>
    <varray name="basis" >
     <v>       8.29026793       4.77891244       0.00000000 </v>
     <v>      -8.29099754       4.78016420       0.00000000 </v>
     <v>       0.00000000       0.00000000      30.00000000 </v>
    </varray>
    <i name="volume">   2377.52379874 </i>
    <varray name="rec_basis" >
     <v>       0.06031693       0.10461722       0.00000000 </v>
     <v>      -0.06030113       0.10460801       0.00000000 </v>
     <v>       0.00000000       0.00000000       0.03333333 </v>
    </varray>
   </crystal>
   <varray name="positions" >
    <v>       0.33671910       0.66734773      -0.00026921 </v>
    <v>       0.65754886       0.32837969       0.00037881 </v>
    <v>       1.00359281       0.32881972       0.00047239 </v>
    <v>       0.32650387       0.31720090      -0.00011748 </v>
    <v>       0.01411112       0.00063729      -0.00000030 </v>
    <v>       0.32096343       0.00593133      -0.00010326 </v>
    <v>       0.00480994       0.68221965       0.00040897 </v>
    <v>       0.66598843      -0.00373166      -0.00029137 </v>
    <v>       0.66858495       0.67073162      -0.00027936 </v>
    <v>       0.10788602       0.22526838       0.94768975 </v>
    <v>       0.22220199       0.11115803       0.05533314 </v>
    <v>       0.11292182       0.55322694       0.95123315 </v>
    <v>       0.21946030       0.44666637       0.04972879 </v>
    <v>       0.11104877       0.88847203       0.94491977 </v>
    <v>       0.22503044       0.77524496       0.05118153 </v>
    <v>       0.45056420       0.22512338       0.94709547 </v>
    <v>       0.55807761       0.11601239       0.05056191 </v>
    <v>       0.44133514       0.55749521       0.94979228 </v>
    <v>       0.55845527       0.44193338       0.05093000 </v>
    <v>       0.44132176       0.88375595       0.94962156 </v>
    <v>       0.54946164       0.77451884       0.05174561 </v>
    <v>       0.78048817       0.22758580       0.95061096 </v>
    <v>       0.89144385       0.11624168       0.05091472 </v>
    <v>       0.77568038       0.54998210       0.94947905 </v>
    <v>       0.88678561       0.44043347       0.04778519 </v>
    <v>       0.77870096       0.88944874       0.94774382 </v>
    <v>       0.88852801       0.77811051       0.05343401 </v>
   </varray>
  </structure>
  <varray name="forces" >
   <v>       0.21787904       0.13701308       0.01582584 </v>
   <v>      -0.09069598      -0.29834165      -0.02014998 </v>
   <v>       0.21676591      -0.04778384      -0.00201014 </v>
   <v>       0.09112794      -0.14317885       0.02665912 </v>
   <v>       0.07240724      -0.09652829       0.04997752 </v>
   <v>      -0.11596336       0.00585041      -0.01413261 </v>
   <v>      -0.29624221       0.23778157      -0.05101232 </v>
   <v>       0.20264842      -0.11380430      -0.00875549 </v>
   <v>      -0.16494034       0.27749995       0.02490866 </v>
   <v>       0.16168474      -0.05011607      -0.09455194 </v>
   <v>      -0.05038414      -0.03377151       0.26630012 </v>
   <v>      -0.11293135       0.02095948       0.11777496 </v>
   <v>       0.15316008       0.01317081       0.00810140 </v>
   <v>      -0.01009733       0.08810967      -0.27678671 </v>
   <v>      -0.15144658       0.09735060      -0.02530252 </v>
   <v>      -0.01429741      -0.12542164      -0.16004705 </v>
   <v>      -0.02001010      -0.20894670      -0.05343418 </v>
   <v>       0.17780493      -0.13037254       0.05049221 </v>
   <v>      -0.12853133      -0.06053875      -0.07118903 </v>
   <v>      -0.21518870       0.04706420       0.07841650 </v>
   <v>       0.03193865      -0.01330867       0.15444956 </v>
   <v>       0.01808308      -0.03346537       0.02853835 </v>
   <v>       0.16503349      -0.05904198      -0.00472397 </v>
   <v>      -0.00663501       0.08220538       0.05668285 </v>
   <v>      -0.11046913       0.14015148      -0.19070540 </v>
   <v>       0.08083836       0.18595135      -0.09001848 </v>
   <v>      -0.10153891       0.08151216       0.18469275 </v>
  </varray>
  <varray name="stress" >
   <v>       0.39978921      -0.03574233      -0.31865200 </v>
   <v>      -0.03574208      -0.05715210      -0.14749183 </v>
   <v>      -0.31865195      -0.14749207      -0.48547381 </v>
  </varray>
  <energy>
   <i name="e_fr_energy">   -191.42734687 </i>
   <i name="e_wo_entrp">   -191.32226370 </i>
   <i name="e_0_energy">     -0.21016634 </i>
  </energy>
  <time name="totalsc">  356.62  357.55</time>
 </calculation>
 <calculation>
  <scstep>
   <time name="dav">   21.85   21.91</time>
   <time name="total">   22.36   22.42</time>
   <energy>
    <i name="alphaZ">     89.91231097 </i>
    <i name="ewald">  44539.74590880 </i>
    <i name="hartreedc"> -50547.80363987 </i>
    <i name="XCdc">   -233.51478384 </i>
    <i name="pawpsdc">   4086.20391736 </i>
    <i name="pawaedc">  -3502.20179445 </i>
    <i name="eentropy">     -0.21323158 </i>
    <i name="bandstr">  -1385.04524571 </i>
    <i name="atom">   6761.44252427 </i>
    <i name="e_fr_energy">   -191.47403406 </i>
    <i name="e_wo_entrp">   -191.26080247 </i>
    <i name="e_0_energy">   -191.36741826 </i>
   </energy>
  </scstep>
  <scstep>
   <time name="dav">   30.95   31.02</time>
   <time name="total">   31.45   31.53</time>
   <energy>
    <i name="e_fr_energy">   -191.52431880 </i>
    <i name="e_wo_entrp">   -191.30170101 </i>
    <i name="e_0_energy">   -191.41300991 </i>
   </energy>
  </scstep>
  <scstep>
   <time name="dav">   30.58   30.65</time>
   <time name="total">   31.09   31.17</time>
   <energy>
    <i name="e_fr_energy">   -191.48349876 </i>
    <i name="e_wo_entrp">   -191.26977308 </i>
    <i name="e_0_energy">   -191.37663592 </i>
   </energy>
  </scstep>
  <scstep>
   <time name="dav">   28.52   28.59</time>
   <time name="total">   29.03   29.10</time>
   <energy>
    <i name="e_fr_energy">   -191.48505607 </i>
    <i name="e_wo_entrp">   -191.26985631 </i>
    <i name="e_0_energy">   -191.37745619 </i>
   </energy>
  </scstep>
  <scstep>
   <time name="dav">   26.08   26.14</time>
   <time name="total">   26.59   26.66</time>
   <energy>
    <i name="e_fr_energy">   -191.48190736 </i>
    <i name="e_wo_entrp">   -191.26712030 </i>
    <i name="e_0_energy">   -191.37451383 </i>
   </energy>
  </scstep>
  <scstep>
   <time name="dav">   26.85   26.91</time>
   <time name="total">   27.36   27.43</time>
   <energy>
    <i name="e_fr_energy">   -191.48182899 </i>
    <i name="e_wo_entrp">   -191.26696058 </i>
    <i name="e_0_energy">   -191.37439479 </i>
   </energy>
  </scstep>
  <scstep>
   <time name="dav">   26.23   26.30</time>
   <time name="total">   26.74   26.81</time>
   <energy>
    <i name="e_fr_energy">   -191.48155629 </i>
    <i name="e_wo_entrp">   -191.26696533 </i>
    <i name="e_0_energy">   -191.37426081 </i>
   </energy>
  </scstep>
  <scstep>
   <time name="dav">   21.33   21.38</time>
   <time name="total">   21.36   21.42</time>
   <energy>
    <i name="alphaZ">     89.91231097 </i>
    <i name="ewald">  44539.74590880 </i>
    <i name="hartreedc"> -50549.74062824 </i>
    <i name="XCdc">   -233.45650427 </i>
    <i name="pawpsdc">   4082.85971839 </i>
    <i name="pawaedc">  -3498.80872455 </i>
    <i name="eentropy">     -0.21468736 </i>
    <i name="bandstr">  -1383.22148172 </i>
    <i name="atom">   6761.44252427 </i>
    <i name="e_fr_energy">   -191.48156371 </i>
    <i name="e_wo_entrp">   -191.26687635 </i>
    <i name="e_0_energy">   -191.37422003 </i>
   </energy>
  </scstep>
  <structure>
   <crystal>
    <varray name="basis" >
     <v>       8.30072515       4.77895879       0.00000000 </v>
     <v>      -8.30232793       4.78172371       0.00000000 </v>
     <v>       0.00000000       0.00000000      30.00000000 </v>
    </varray>
    <i name="volume">   2381.04771896 </i>
    <varray name="rec_basis" >
     <v>       0.06024731       0.10460514       0.00000000 </v>
     <v>      -0.06021247       0.10458495       0.00000000 </v>
     <v>       0.00000000       0.00000000       0.03333333 </v>
    </varray>
   </crystal>
   <varray name="positions" >
    <v>       0.33793791       0.66738621      -0.00023882 </v>
    <v>       0.65594115       0.32723570       0.00034076 </v>
    <v>       1.00394061       0.32803058       0.00046531 </v>
    <v>       0.32613035       0.31642536      -0.00007437 </v>
    <v>       0.01369992      -0.00001635       0.00007656 </v>
    <v>       0.32081353       0.00622862      -0.00012799 </v>
    <v>       0.00509422       0.68402452       0.00032746 </v>
    <v>       0.66601520      -0.00478772      -0.00030358 </v>
    <v>       0.66943895       0.67247683      -0.00023539 </v>
    <v>       0.10810236       0.22456636       0.94760450 </v>
    <v>       0.22189608       0.11113326       0.05566060 </v>
    <v>       0.11270253       0.55365292       0.95144491 </v>
    <v>       0.21995660       0.44630334       0.04969820 </v>
    <v>       0.11143636       0.88891006       0.94457363 </v>
    <v>       0.22505174       0.77612395       0.05109512 </v>
    <v>       0.44989906       0.22454798       0.94691647 </v>
    <v>       0.55701789       0.11504172       0.05044102 </v>
    <v>       0.44123011       0.55638641       0.94990599 </v>
    <v>       0.55780918       0.44202119       0.05077603 </v>
    <v>       0.44098112       0.88459979       0.94978008 </v>
    <v>       0.54952165       0.77438380       0.05193050 </v>
    <v>       0.78035366       0.22733910       0.95069380 </v>
    <v>       0.89159197       0.11547640       0.05086424 </v>
    <v>       0.77606266       0.55042538       0.94960459 </v>
    <v>       0.88716445       0.44143205       0.04747059 </v>
    <v>       0.77979358       0.89010483       0.94765183 </v>
    <v>       0.88863161       0.77876219       0.05365785 </v>
   </varray>
  </structure>
  <varray name="forces" >
   <v>       0.22370654       0.10981221      -0.02016572 </v>
   <v>      -0.06410681      -0.33482651       0.00625327 </v>
   <v>       0.24891477      -0.03951359      -0.00908306 </v>
   <v>       0.11219731      -0.23043943       0.03481761 </v>
   <v>       0.11352958      -0.07200359       0.01867712 </v>
   <v>      -0.24255081       0.01249410       0.03184195 </v>
   <v>      -0.31306481       0.24771274      -0.02814474 </v>
   <v>       0.22267057      -0.09783597      -0.02748550 </v>
   <v>      -0.18047630       0.33970631      -0.00182984 </v>
   <v>       0.09647100      -0.03430975      -0.07152705 </v>
   <v>      -0.02276466      -0.03219343       0.14476197 </v>
   <v>      -0.07263495       0.02605480       0.15613453 </v>
   <v>       0.09210349       0.01252498       0.00201263 </v>
   <v>      -0.03074666       0.07438626      -0.19010875 </v>
   <v>      -0.08625764       0.05766155      -0.04207915 </v>
   <v>      -0.02291974      -0.06742058      -0.14836879 </v>
   <v>       0.01501738      -0.13300509      -0.04580175 </v>
   <v>       0.12306535      -0.05653084       0.07248582 </v>
   <v>      -0.08930049      -0.02253106      -0.09418209 </v>
   <v>      -0.10849958       0.02483476       0.08519129 </v>
   <v>       0.02173203      -0.00532861       0.15573956 </v>
   <v>       0.01728468      -0.02787848       0.05027604 </v>
   <v>       0.08106482      -0.04201843       0.02766723 </v>
   <v>      -0.03283915       0.05533720       0.07476496 </v>
   <v>      -0.07546001       0.08804754      -0.23583026 </v>
   <v>       0.03172314       0.11283097      -0.12147412 </v>
   <v>      -0.05785907       0.03443195       0.17545686 </v>
  </varray>
  <varray name="stress" >
   <v>      -0.21894571      -0.05988570      -0.12337347 </v>
   <v>      -0.05988556      -0.20586137      -0.16751802 </v>
   <v>      -0.12337376      -0.16751799      -0.99918649 </v>
  </varray>
  <energy>
   <i name="e_fr_energy">   -191.48156371 </i>
   <i name="e_wo_entrp">   -191.37422003 </i>
   <i name="e_0_energy">     -0.21468736 </i>
  </energy>
  <time name="totalsc">  258.34  259.02</time>
 </calculation>
 <calculation>
  <scstep>
   <time name="dav">   21.84   21.89</time>
   <time name="total">   22.35   22.40</time>
   <energy>
    <i name="alphaZ">     90.07235889 </i>
    <i name="ewald">  44605.44348816 </i>
    <i name="hartreedc"> -50617.38062037 </i>
    <i name="XCdc">   -233.37793696 </i>
    <i name="pawpsdc">   4082.76211962 </i>
    <i name="pawaedc">  -3498.70970679 </i>
    <i name="eentropy">     -0.21661146 </i>
    <i name="bandstr">  -1381.57628291 </i>
    <i name="atom">   6761.44252427 </i>
    <i name="e_fr_energy">   -191.54066753 </i>
    <i name="e_wo_entrp">   -191.32405608 </i>
    <i name="e_0_energy">   -191.43236181 </i>
   </energy>
  </scstep>
  <scstep>
   <time name="dav">   33.17   33.25</time>
   <time name="total">   33.68   33.77</time>
   <energy>
    <i name="e_fr_energy">   -191.58027768 </i>
    <i name="e_wo_entrp">   -191.35145813 </i>
    <i name="e_0_energy">   -191.46586791 </i>
   </energy>
  </scstep>
  <scstep>
   <time name="dav">   30.52   30.59</time>
   <time name="total">   31.03   31.11</time>
   <energy>
    <i name="e_fr_energy">   -191.54920844 </i>
    <i name="e_wo_entrp">   -191.33288866 </i>
    <i name="e_0_energy">   -191.44104855 </i>
   </energy>
  </scstep>
  <scstep>
   <time name="dav">   28.06   28.13</time>
   <time name="total">   28.56   28.64</time>
   <energy>
    <i name="e_fr_energy">   -191.54838705 </i>
    <i name="e_wo_entrp">   -191.32937509 </i>
    <i name="e_0_energy">   -191.43888107 </i>
   </energy>
  </scstep>
  <scstep>
   <time name="dav">   26.91   26.98</time>
   <time name="total">   27.42   27.49</time>
   <energy>
    <i name="e_fr_energy">   -191.54651294 </i>
    <i name="e_wo_entrp">   -191.32831779 </i>
    <i name="e_0_energy">   -191.43741536 </i>
   </energy>
  </scstep>
  <scstep>
   <time name="dav">   25.50   25.56</time>
   <time name="total">   26.00   26.07</time>
   <energy>
    <i name="e_fr_energy">   -191.54554538 </i>
    <i name="e_wo_entrp">   -191.32659014 </i>
    <i name="e_0_energy">   -191.43606776 </i>
   </energy>
  </scstep>
  <scstep>
   <time name="dav">   26.51   26.57</time>
   <time name="total">   27.02   27.09</time>
   <energy>
    <i name="e_fr_energy">   -191.54533548 </i>
    <i name="e_wo_entrp">   -191.32630172 </i>
    <i name="e_0_energy">   -191.43581860 </i>
   </energy>
  </scstep>
  <scstep>
   <time name="dav">   24.60   24.66</time>
   <time name="total">   24.63   24.70</time>
   <energy>
    <i name="alphaZ">     90.07235889 </i>
    <i name="ewald">  44605.44348816 </i>
    <i name="hartreedc"> -50616.53838998 </i>
    <i name="XCdc">   -233.41784290 </i>
    <i name="pawpsdc">   4084.18577273 </i>
    <i name="pawaedc">  -3500.14862289 </i>
    <i name="eentropy">     -0.21890895 </i>
    <i name="bandstr">  -1382.36573782 </i>
    <i name="atom">   6761.44252427 </i>
    <i name="e_fr_energy">   -191.54535849 </i>
    <i name="e_wo_entrp">   -191.32644954 </i>
[...]
      <set comment="kpoint 31">
       <r>  -17.5102    1.0000 </r>
       <r>  -17.2294    1.0000 </r>
       <r>  -16.9050    1.0000 </r>
       <r>  -16.5081    1.0000 </r>
       <r>  -16.4672    1.0000 </r>
       <r>  -16.3700    1.0000 </r>
       <r>  -16.2805    1.0000 </r>
       <r>  -16.1534    1.0000 </r>
       <r>  -16.0568    1.0000 </r>
       <r>  -16.0165    1.0000 </r>
       <r>  -15.9237    1.0000 </r>
       <r>  -15.8720    1.0000 </r>
       <r>  -15.8177    1.0000 </r>
       <r>  -15.7637    1.0000 </r>
       <r>  -15.6180    1.0000 </r>
       <r>  -15.5863    1.0000 </r>
       <r>  -15.4999    1.0000 </r>
       <r>  -15.4198    1.0000 </r>
       <r>   -9.7255    1.0000 </r>
       <r>   -9.4027    1.0000 </r>
       <r>   -9.3149    1.0000 </r>
       <r>   -8.9277    1.0000 </r>
       <r>   -8.8511    1.0000 </r>
       <r>   -8.7610    1.0000 </r>
       <r>   -8.5056    1.0000 </r>
       <r>   -8.4539    1.0000 </r>
       <r>   -8.3870    1.0000 </r>
       <r>   -8.3123    1.0000 </r>
       <r>   -8.2387    1.0000 </r>
       <r>   -8.2191    1.0000 </r>
       <r>   -8.1696    1.0000 </r>
       <r>   -8.0993    1.0000 </r>
       <r>   -7.9536    1.0000 </r>
       <r>   -7.8696    1.0000 </r>
       <r>   -7.7734    1.0000 </r>
       <r>   -7.6112    1.0000 </r>
       <r>   -7.5596    1.0000 </r>
       <r>   -7.4171    1.0000 </r>
       <r>   -7.3217    1.0000 </r>
       <r>   -7.1854    1.0000 </r>
       <r>   -7.0535    1.0000 </r>
       <r>   -7.0093    1.0000 </r>
       <r>   -6.9829    1.0000 </r>
       <r>   -6.9342    1.0000 </r>
       <r>   -6.8659    1.0000 </r>
       <r>   -6.7711    1.0000 </r>
       <r>   -6.7264    1.0000 </r>
       <r>   -6.6821    1.0000 </r>
       <r>   -6.6024    1.0000 </r>
       <r>   -6.5142    1.0000 </r>
       <r>   -6.4346    1.0000 </r>
       <r>   -6.3174    1.0000 </r>
       <r>   -6.2344    1.0000 </r>
       <r>   -6.1948    1.0000 </r>
       <r>   -6.1322    1.0000 </r>
       <r>   -6.0478    1.0000 </r>
       <r>   -5.9676    1.0000 </r>
       <r>   -5.9104    1.0000 </r>
       <r>   -5.8633    1.0000 </r>
       <r>   -5.8072    1.0000 </r>
       <r>   -5.6809    1.0000 </r>
       <r>   -5.6485    1.0000 </r>
       <r>   -5.5800    1.0000 </r>
       <r>   -5.5352    1.0000 </r>
       <r>   -5.2904    1.0000 </r>
       <r>   -5.1341    1.0000 </r>
       <r>   -5.0779    1.0000 </r>
       <r>   -4.9256    1.0000 </r>
       <r>   -4.8742    1.0000 </r>
       <r>   -4.7320    1.0000 </r>
       <r>   -4.5685    1.0000 </r>
       <r>   -4.4585    1.0000 </r>
       <r>   -4.3596    1.0000 </r>
       <r>   -4.0400    1.0000 </r>
       <r>   -3.8642    1.0000 </r>
       <r>   -3.7199    1.0000 </r>
       <r>   -3.6823    0.9999 </r>
       <r>   -3.5084    0.9946 </r>
       <r>   -3.3170    0.8836 </r>
       <r>   -3.1636    0.5433 </r>
       <r>   -3.0053    0.1560 </r>
       <r>   -2.8296    0.0121 </r>
       <r>   -2.7779    0.0044 </r>
       <r>   -2.6556    0.0002 </r>
       <r>   -2.5252    0.0000 </r>
       <r>   -2.4506    0.0000 </r>
       <r>   -2.3955    0.0000 </r>
       <r>   -2.3417    0.0000 </r>
       <r>   -2.1797    0.0000 </r>
       <r>   -2.1204    0.0000 </r>
       <r>   -1.8502    0.0000 </r>
       <r>   -1.5336    0.0000 </r>
       <r>   -1.3984    0.0000 </r>
       <r>   -1.3249    0.0000 </r>
       <r>   -1.1998    0.0000 </r>
       <r>   -1.1193    0.0000 </r>
       <r>   -1.0724    0.0000 </r>
       <r>   -1.0179    0.0000 </r>
       <r>   -0.9412    0.0000 </r>
       <r>   -0.8030    0.0000 </r>
       <r>   -0.7548    0.0000 </r>
       <r>   -0.7087    0.0000 </r>
       <r>   -0.6267    0.0000 </r>
       <r>   -0.5855    0.0000 </r>
       <r>   -0.4637    0.0000 </r>
       <r>   -0.4113    0.0000 </r>
       <r>   -0.2839    0.0000 </r>
       <r>   -0.1891    0.0000 </r>
       <r>   -0.0186    0.0000 </r>
       <r>    0.1093    0.0000 </r>
       <r>    0.4599    0.0000 </r>
       <r>    0.6878    0.0000 </r>
       <r>    0.9486    0.0000 </r>
       <r>    1.0404    0.0000 </r>
       <r>    1.2260    0.0000 </r>
       <r>    1.3951    0.0000 </r>
       <r>    1.5427    0.0000 </r>
       <r>    2.1544    0.0000 </r>
       <r>    2.3008    0.0000 </r>
       <r>    2.4125    0.0000 </r>
      </set>
      <set comment="kpoint 32">
       <r>  -17.5149    1.0000 </r>
       <r>  -17.1700    1.0000 </r>
       <r>  -17.0161    1.0000 </r>
       <r>  -16.5037    1.0000 </r>
       <r>  -16.3718    1.0000 </r>
       <r>  -16.3262    1.0000 </r>
       <r>  -16.2401    1.0000 </r>
       <r>  -16.2232    1.0000 </r>
       <r>  -16.0913    1.0000 </r>
       <r>  -16.0072    1.0000 </r>
       <r>  -15.9637    1.0000 </r>
       <r>  -15.9075    1.0000 </r>
       <r>  -15.8320    1.0000 </r>
       <r>  -15.7286    1.0000 </r>
       <r>  -15.6156    1.0000 </r>
       <r>  -15.5606    1.0000 </r>
       <r>  -15.5120    1.0000 </r>
       <r>  -15.4136    1.0000 </r>
       <r>   -9.6399    1.0000 </r>
       <r>   -9.5371    1.0000 </r>
       <r>   -9.3997    1.0000 </r>
       <r>   -8.9029    1.0000 </r>
       <r>   -8.7483    1.0000 </r>
       <r>   -8.5428    1.0000 </r>
       <r>   -8.5294    1.0000 </r>
       <r>   -8.4089    1.0000 </r>
       <r>   -8.3618    1.0000 </r>
       <r>   -8.3333    1.0000 </r>
       <r>   -8.2973    1.0000 </r>
       <r>   -8.2676    1.0000 </r>
       <r>   -8.1727    1.0000 </r>
       <r>   -8.1327    1.0000 </r>
       <r>   -8.1010    1.0000 </r>
       <r>   -7.8908    1.0000 </r>
       <r>   -7.8142    1.0000 </r>
       <r>   -7.6094    1.0000 </r>
       <r>   -7.4455    1.0000 </r>
       <r>   -7.3678    1.0000 </r>
       <r>   -7.3118    1.0000 </r>
       <r>   -7.1750    1.0000 </r>
       <r>   -7.1204    1.0000 </r>
       <r>   -7.0798    1.0000 </r>
       <r>   -6.9841    1.0000 </r>
       <r>   -6.9363    1.0000 </r>
       <r>   -6.8295    1.0000 </r>
       <r>   -6.7810    1.0000 </r>
       <r>   -6.7288    1.0000 </r>
       <r>   -6.6454    1.0000 </r>
       <r>   -6.5624    1.0000 </r>
       <r>   -6.5418    1.0000 </r>
       <r>   -6.4627    1.0000 </r>
       <r>   -6.3913    1.0000 </r>
       <r>   -6.2733    1.0000 </r>
       <r>   -6.1930    1.0000 </r>
       <r>   -6.1445    1.0000 </r>
       <r>   -6.0542    1.0000 </r>
       <r>   -5.9784    1.0000 </r>
       <r>   -5.8813    1.0000 </r>
       <r>   -5.8135    1.0000 </r>
       <r>   -5.7172    1.0000 </r>
       <r>   -5.6648    1.0000 </r>
       <r>   -5.5533    1.0000 </r>
       <r>   -5.4575    1.0000 </r>
       <r>   -5.3965    1.0000 </r>
       <r>   -5.3727    1.0000 </r>
       <r>   -5.2365    1.0000 </r>
       <r>   -5.1479    1.0000 </r>
       <r>   -5.0422    1.0000 </r>
       <r>   -4.9859    1.0000 </r>
       <r>   -4.6738    1.0000 </r>
       <r>   -4.5687    1.0000 </r>
       <r>   -4.4521    1.0000 </r>
       <r>   -4.3286    1.0000 </r>
       <r>   -4.1033    1.0000 </r>
       <r>   -3.8572    1.0000 </r>
       <r>   -3.7519    1.0000 </r>
       <r>   -3.6707    0.9999 </r>
       <r>   -3.4778    0.9901 </r>
       <r>   -3.3108    0.8748 </r>
       <r>   -3.1046    0.3787 </r>
       <r>   -3.0126    0.1687 </r>
       <r>   -2.8026    0.0073 </r>
       <r>   -2.7526    0.0026 </r>
       <r>   -2.6939    0.0007 </r>
       <r>   -2.5240    0.0000 </r>
       <r>   -2.5006    0.0000 </r>
       <r>   -2.3969    0.0000 </r>
       <r>   -2.3070    0.0000 </r>
       <r>   -2.1697    0.0000 </r>
       <r>   -2.0937    0.0000 </r>
       <r>   -1.8812    0.0000 </r>
       <r>   -1.5498    0.0000 </r>
       <r>   -1.3947    0.0000 </r>
       <r>   -1.3374    0.0000 </r>
       <r>   -1.2106    0.0000 </r>
       <r>   -1.1131    0.0000 </r>
       <r>   -1.0804    0.0000 </r>
       <r>   -1.0297    0.0000 </r>
       <r>   -0.9006    0.0000 </r>
       <r>   -0.8344    0.0000 </r>
       <r>   -0.8074    0.0000 </r>
       <r>   -0.7182    0.0000 </r>
       <r>   -0.6037    0.0000 </r>
       <r>   -0.5511    0.0000 </r>
       <r>   -0.4721    0.0000 </r>
       <r>   -0.3614    0.0000 </r>
       <r>   -0.2695    0.0000 </r>
       <r>   -0.1556    0.0000 </r>
       <r>    0.0356    0.0000 </r>
       <r>    0.1512    0.0000 </r>
       <r>    0.4673    0.0000 </r>
       <r>    0.6946    0.0000 </r>
       <r>    0.8927    0.0000 </r>
       <r>    0.9995    0.0000 </r>
       <r>    1.1772    0.0000 </r>
       <r>    1.3344    0.0000 </r>
       <r>    1.5370    0.0000 </r>
       <r>    2.1226    0.0000 </r>
       <r>    2.2716    0.0000 </r>
       <r>    2.5861    0.0000 </r>
      </set>
      <set comment="kpoint 33">
       <r>  -17.4857    1.0000 </r>
       <r>  -17.2841    1.0000 </r>
       <r>  -16.8738    1.0000 </r>
       <r>  -16.5055    1.0000 </r>
       <r>  -16.4333    1.0000 </r>
       <r>  -16.3889    1.0000 </r>
       <r>  -16.2675    1.0000 </r>
       <r>  -16.1666    1.0000 </r>
       <r>  -16.0838    1.0000 </r>
       <r>  -16.0156    1.0000 </r>
       <r>  -15.9479    1.0000 </r>
       <r>  -15.8971    1.0000 </r>
       <r>  -15.8111    1.0000 </r>
       <r>  -15.6814    1.0000 </r>
       <r>  -15.6149    1.0000 </r>
       <r>  -15.5956    1.0000 </r>
       <r>  -15.5010    1.0000 </r>
       <r>  -15.4453    1.0000 </r>
       <r>   -9.7246    1.0000 </r>
       <r>   -9.4004    1.0000 </r>
       <r>   -9.3344    1.0000 </r>
       <r>   -8.9153    1.0000 </r>
       <r>   -8.8425    1.0000 </r>
       <r>   -8.7427    1.0000 </r>
       <r>   -8.5338    1.0000 </r>
       <r>   -8.4622    1.0000 </r>
       <r>   -8.3771    1.0000 </r>
       <r>   -8.3320    1.0000 </r>
       <r>   -8.2669    1.0000 </r>
       <r>   -8.1817    1.0000 </r>
       <r>   -8.1479    1.0000 </r>
       <r>   -8.0687    1.0000 </r>
       <r>   -7.9487    1.0000 </r>
       <r>   -7.8854    1.0000 </r>
       <r>   -7.8276    1.0000 </r>
       <r>   -7.6279    1.0000 </r>
       <r>   -7.5094    1.0000 </r>
       <r>   -7.3590    1.0000 </r>
       <r>   -7.3157    1.0000 </r>
       <r>   -7.1788    1.0000 </r>
       <r>   -7.0970    1.0000 </r>
       <r>   -7.0446    1.0000 </r>
       <r>   -6.9841    1.0000 </r>
       <r>   -6.9285    1.0000 </r>
       <r>   -6.8705    1.0000 </r>
       <r>   -6.8033    1.0000 </r>
       <r>   -6.6774    1.0000 </r>
       <r>   -6.6537    1.0000 </r>
       <r>   -6.5835    1.0000 </r>
       <r>   -6.5331    1.0000 </r>
       <r>   -6.4618    1.0000 </r>
       <r>   -6.3481    1.0000 </r>
       <r>   -6.2504    1.0000 </r>
       <r>   -6.1668    1.0000 </r>
       <r>   -6.1345    1.0000 </r>
       <r>   -6.0562    1.0000 </r>
       <r>   -6.0047    1.0000 </r>
       <r>   -5.8957    1.0000 </r>
       <r>   -5.8507    1.0000 </r>
       <r>   -5.8208    1.0000 </r>
       <r>   -5.6988    1.0000 </r>
       <r>   -5.6224    1.0000 </r>
       <r>   -5.6176    1.0000 </r>
       <r>   -5.4621    1.0000 </r>
       <r>   -5.2775    1.0000 </r>
       <r>   -5.1609    1.0000 </r>
       <r>   -5.0497    1.0000 </r>
       <r>   -4.9607    1.0000 </r>
       <r>   -4.8418    1.0000 </r>
       <r>   -4.7251    1.0000 </r>
       <r>   -4.5350    1.0000 </r>
       <r>   -4.4633    1.0000 </r>
       <r>   -4.3562    1.0000 </r>
       <r>   -4.1524    1.0000 </r>
       <r>   -3.8932    1.0000 </r>
       <r>   -3.7641    1.0000 </r>
       <r>   -3.6725    0.9999 </r>
       <r>   -3.4970    0.9932 </r>
       <r>   -3.2994    0.8573 </r>
       <r>   -3.0942    0.3513 </r>
       <r>   -3.0508    0.2454 </r>
       <r>   -2.7976    0.0066 </r>
       <r>   -2.7287    0.0015 </r>
       <r>   -2.6773    0.0004 </r>
       <r>   -2.5481    0.0000 </r>
       <r>   -2.4792    0.0000 </r>
       <r>   -2.3591    0.0000 </r>
       <r>   -2.2632    0.0000 </r>
       <r>   -2.1828    0.0000 </r>
       <r>   -2.0992    0.0000 </r>
       <r>   -1.8932    0.0000 </r>
       <r>   -1.5580    0.0000 </r>
       <r>   -1.3912    0.0000 </r>
       <r>   -1.3700    0.0000 </r>
       <r>   -1.2065    0.0000 </r>
       <r>   -1.1229    0.0000 </r>
       <r>   -1.0707    0.0000 </r>
       <r>   -1.0179    0.0000 </r>
       <r>   -0.9173    0.0000 </r>
       <r>   -0.8474    0.0000 </r>
       <r>   -0.7653    0.0000 </r>
       <r>   -0.7035    0.0000 </r>
       <r>   -0.6663    0.0000 </r>
       <r>   -0.5973    0.0000 </r>
       <r>   -0.4804    0.0000 </r>
       <r>   -0.3633    0.0000 </r>
       <r>   -0.2373    0.0000 </r>
       <r>   -0.0671    0.0000 </r>
       <r>   -0.0204    0.0000 </r>
       <r>    0.2991    0.0000 </r>
       <r>    0.4575    0.0000 </r>
       <r>    0.7048    0.0000 </r>
       <r>    0.8149    0.0000 </r>
       <r>    1.0058    0.0000 </r>
       <r>    1.1488    0.0000 </r>
       <r>    1.3200    0.0000 </r>
       <r>    1.5518    0.0000 </r>
       <r>    2.1547    0.0000 </r>
       <r>    2.3039    0.0000 </r>
       <r>    2.4122    0.0000 </r>
      </set>
      <set comment="kpoint 34">
       <r>  -17.4404    1.0000 </r>
       <r>  -17.3686    1.0000 </r>
       <r>  -16.6850    1.0000 </r>
       <r>  -16.6487    1.0000 </r>
       <r>  -16.4837    1.0000 </r>
       <r>  -16.4077    1.0000 </r>
       <r>  -16.2345    1.0000 </r>
       <r>  -16.1819    1.0000 </r>
       <r>  -16.0715    1.0000 </r>
       <r>  -16.0105    1.0000 </r>
       <r>  -15.9396    1.0000 </r>
       <r>  -15.9018    1.0000 </r>
       <r>  -15.7222    1.0000 </r>
       <r>  -15.7072    1.0000 </r>
       <r>  -15.6146    1.0000 </r>
       <r>  -15.6041    1.0000 </r>
       <r>  -15.5069    1.0000 </r>
       <r>  -15.4707    1.0000 </r>
       <r>   -9.7664    1.0000 </r>
       <r>   -9.3017    1.0000 </r>
       <r>   -9.1744    1.0000 </r>
       <r>   -9.0559    1.0000 </r>
       <r>   -8.9431    1.0000 </r>
       <r>   -8.8116    1.0000 </r>
       <r>   -8.5900    1.0000 </r>
       <r>   -8.4796    1.0000 </r>
       <r>   -8.3891    1.0000 </r>
       <r>   -8.3183    1.0000 </r>
       <r>   -8.2738    1.0000 </r>
       <r>   -8.1597    1.0000 </r>
       <r>   -8.1094    1.0000 </r>
       <r>   -7.9860    1.0000 </r>
       <r>   -7.9199    1.0000 </r>
       <r>   -7.7983    1.0000 </r>
       <r>   -7.7462    1.0000 </r>
       <r>   -7.6470    1.0000 </r>
       <r>   -7.6232    1.0000 </r>
       <r>   -7.3635    1.0000 </r>
       <r>   -7.3288    1.0000 </r>
       <r>   -7.2018    1.0000 </r>
       <r>   -7.1306    1.0000 </r>
       <r>   -7.0502    1.0000 </r>
       <r>   -6.9751    1.0000 </r>
       <r>   -6.8974    1.0000 </r>
       <r>   -6.8609    1.0000 </r>
       <r>   -6.7506    1.0000 </r>
       <r>   -6.6652    1.0000 </r>
       <r>   -6.6211    1.0000 </r>
       <r>   -6.5612    1.0000 </r>
       <r>   -6.5242    1.0000 </r>
       <r>   -6.4324    1.0000 </r>
       <r>   -6.3988    1.0000 </r>
       <r>   -6.2778    1.0000 </r>
       <r>   -6.1714    1.0000 </r>
       <r>   -6.1532    1.0000 </r>
       <r>   -6.0745    1.0000 </r>
       <r>   -6.0202    1.0000 </r>
       <r>   -5.9067    1.0000 </r>
       <r>   -5.8580    1.0000 </r>
       <r>   -5.7972    1.0000 </r>
       <r>   -5.7792    1.0000 </r>
       <r>   -5.6551    1.0000 </r>
       <r>   -5.6453    1.0000 </r>
       <r>   -5.5348    1.0000 </r>
       <r>   -5.3628    1.0000 </r>
       <r>   -5.0640    1.0000 </r>
       <r>   -5.0078    1.0000 </r>
       <r>   -4.7954    1.0000 </r>
       <r>   -4.7101    1.0000 </r>
       <r>   -4.6777    1.0000 </r>
       <r>   -4.6530    1.0000 </r>
       <r>   -4.5128    1.0000 </r>
       <r>   -4.3663    1.0000 </r>
       <r>   -4.1449    1.0000 </r>
       <r>   -3.9155    1.0000 </r>
       <r>   -3.7517    1.0000 </r>
       <r>   -3.7291    1.0000 </r>
       <r>   -3.5017    0.9938 </r>
       <r>   -3.2853    0.8337 </r>
       <r>   -3.0980    0.3612 </r>
       <r>   -3.0733    0.2981 </r>
       <r>   -2.8269    0.0115 </r>
       <r>   -2.7120    0.0010 </r>
       <r>   -2.6593    0.0003 </r>
       <r>   -2.5309    0.0000 </r>
       <r>   -2.4629    0.0000 </r>
       <r>   -2.3384    0.0000 </r>
       <r>   -2.2442    0.0000 </r>
       <r>   -2.1974    0.0000 </r>
       <r>   -2.1100    0.0000 </r>
       <r>   -1.8917    0.0000 </r>
       <r>   -1.5586    0.0000 </r>
       <r>   -1.3893    0.0000 </r>
       <r>   -1.3879    0.0000 </r>
       <r>   -1.1807    0.0000 </r>
       <r>   -1.1582    0.0000 </r>
       <r>   -1.0677    0.0000 </r>
       <r>   -1.0056    0.0000 </r>
       <r>   -0.9206    0.0000 </r>
       <r>   -0.8367    0.0000 </r>
       <r>   -0.7476    0.0000 </r>
       <r>   -0.7022    0.0000 </r>
       <r>   -0.6721    0.0000 </r>
       <r>   -0.6513    0.0000 </r>
       <r>   -0.4957    0.0000 </r>
       <r>   -0.3840    0.0000 </r>
       <r>   -0.1876    0.0000 </r>
       <r>   -0.0582    0.0000 </r>
       <r>   -0.0382    0.0000 </r>
       <r>    0.3583    0.0000 </r>
       <r>    0.4575    0.0000 </r>
       <r>    0.7199    0.0000 </r>
       <r>    0.7748    0.0000 </r>
       <r>    1.0168    0.0000 </r>
       <r>    1.1331    0.0000 </r>
       <r>    1.3335    0.0000 </r>
       <r>    1.5642    0.0000 </r>
       <r>    2.2479    0.0000 </r>
       <r>    2.2544    0.0000 </r>
       <r>    2.3883    0.0000 </r>
      </set>
     </set>
    </set>
   </array>
  </eigenvalues>
  <separator name="orbital magnetization" >
   <v name="MAGDIPOLOUT">      0.00000000      0.00000000      0.00000000</v>
  </separator>
 </calculation>
 <structure name="finalpos" >
  <crystal>
   <varray name="basis" >
    <v>       8.33758841       4.82053874       0.00000000 </v>
    <v>      -8.32095837       4.79160305       0.00000000 </v>
    <v>       0.00000000       0.00000000      30.00000000 </v>
   </varray>
   <i name="volume">   2401.85748643 </i>
   <varray name="rec_basis" >
    <v>       0.05984872       0.10393154       0.00000000 </v>
    <v>      -0.06021013       0.10413926       0.00000000 </v>
    <v>       0.00000000       0.00000000       0.03333333 </v>
   </varray>
  </crystal>
  <varray name="positions" >
   <v>       0.35454821       0.67606483      -0.00028201 </v>
   <v>       0.66557648       0.33768020      -0.00023678 </v>
   <v>       0.99654845       0.33616495       0.00077222 </v>
   <v>       0.32712082       0.30998717       0.00026965 </v>
   <v>       0.02951038       0.00490666       0.00030903 </v>
   <v>       0.31709363       0.00323060      -0.00013183 </v>
   <v>       0.00322564       0.68433422      -0.00029323 </v>
   <v>       0.64859683      -0.02046173       0.00006917 </v>
   <v>       0.65684491       0.67220150      -0.00002727 </v>
   <v>       0.10988999       0.22358323       0.94875814 </v>
   <v>       0.22536937       0.10960209       0.05727294 </v>
   <v>       0.11551459       0.55617726       0.95219084 </v>
   <v>       0.22053916       0.44574551       0.04786541 </v>
   <v>       0.11309691       0.88930974       0.94348672 </v>
   <v>       0.22352899       0.77367128       0.05007186 </v>
   <v>       0.45005248       0.22173718       0.94724706 </v>
   <v>       0.55690866       0.11450376       0.04945061 </v>
   <v>       0.43902860       0.55181710       0.94949233 </v>
   <v>       0.55846625       0.44253446       0.05076277 </v>
   <v>       0.43857918       0.88309183       0.94797003 </v>
   <v>       0.54743318       0.77245228       0.05502120 </v>
   <v>       0.77669510       0.22363163       0.95153950 </v>
   <v>       0.89030827       0.11147931       0.04777774 </v>
   <v>       0.77408350       0.55424290       0.94954817 </v>
   <v>       0.88640970       0.44494406       0.04855378 </v>
   <v>       0.78468124       0.89413229       0.95009414 </v>
   <v>       0.88856393       0.78145017       0.05244772 </v>
  </varray>
 </structure>
</modeling>
