unknown system                          
           1
     8.857805    5.102971    0.000000
    -8.858972    5.104979    0.000000
     0.000000    0.000000   30.000000
   V    Mo   W    S 
   3   3   3  18
Direct configuration=     1
   0.33333334  0.66666669  0.00000000
   0.66666669  0.33333334  0.00000000
   1.00000000  0.33333334  0.00000000
   0.33333334  0.33333334  0.00000000
   0.00000000  0.00000000  0.00000000
   0.33333334  0.00000000  0.00000000
   0.00000000  0.66666669  0.00000000
   0.66666669  0.00000000  0.00000000
   0.66666669  0.66666669  0.00000000
   0.11068511  0.22244981  0.95539999
   0.22244981  0.11068511  0.04460000
   0.11068511  0.55578315  0.95539999
   0.22244981  0.44401845  0.04460000
   0.11068511  0.88911647  0.95539999
   0.22244981  0.77735180  0.04460000
   0.44401845  0.22244981  0.95539999
   0.55578315  0.11068511  0.04460000
   0.44401845  0.55578315  0.95539999
   0.55578315  0.44401845  0.04460000
   0.44401845  0.88911647  0.95539999
   0.55578315  0.77735180  0.04460000
   0.77735180  0.22244981  0.95539999
   0.88911647  0.11068511  0.04460000
   0.77735180  0.55578315  0.95539999
   0.88911647  0.44401845  0.04460000
   0.77735180  0.88911647  0.95539999
   0.88911647  0.77735180  0.04460000
unknown system                          
           1
     8.669403    4.997019    0.000000
    -8.670406    4.998744    0.000000
     0.000000    0.000000   30.000000
   V    Mo   W    S 
   3   3   3  18
Direct configuration=     2
   0.33306593  0.66635659  0.00014485
   0.66481145  0.33228568 -0.00011239
   1.00119459  0.33253172  0.00007350
   0.33184379  0.33065917  0.00000235
   0.00277407  0.00126323 -0.00002938
   0.33180283  0.00144145 -0.00023361
   0.00148595  0.66882596  0.00008071
   0.66673952  0.00054519 -0.00007459
   0.66638868  0.66637020  0.00015226
   0.10858987  0.22450420  0.95197354
   0.22205850  0.11105223  0.04932703
   0.11274827  0.55369401  0.95305027
   0.21994930  0.44660254  0.04695170
   0.11062640  0.88789230  0.95067946
   0.22359547  0.77463276  0.04799373
   0.44890625  0.22429336  0.95187482
   0.55813353  0.11500360  0.04803622
   0.44288547  0.55831242  0.95206541
   0.55839229  0.44301367  0.04796784
   0.44311253  0.88484072  0.95201324
   0.55162553  0.77576019  0.04816722
   0.77907212  0.22559138  0.95308474
   0.89002193  0.11494377  0.04804521
   0.77584659  0.55154826  0.95189504
   0.88725649  0.44087670  0.04678771
   0.77704907  0.88846174  0.95079947
   0.88823802  0.77691145  0.04928355
unknown system                          
           1
     8.487463    4.898069    0.000000
    -8.488234    4.899392    0.000000
     0.000000    0.000000   30.000000
   V    Mo   W    S 
   3   3   3  18
Direct configuration=     3
   0.33316656  0.66633737  0.00012359
   0.66421456  0.33194268 -0.00008348
   1.00148631  0.33225935  0.00012855
   0.33131967  0.32951395 -0.00000344
   0.00380156  0.00143229 -0.00003032
   0.33100208  0.00188492 -0.00025100
   0.00184789  0.66984485  0.00013986
   0.66672457  0.00039163 -0.00012146
   0.66648478  0.66656385  0.00011928
   0.10854788  0.22457891  0.95187878
   0.22208193  0.11105312  0.04952794
   0.11263658  0.55378340  0.95315405
   0.21989827  0.44660143  0.04691453
   0.11051510  0.88768516  0.95051851
   0.22340749  0.77450502  0.04798817
   0.44903359  0.22437786  0.95175885
   0.55831107  0.11497923  0.04798570
   0.44307009  0.55844548  0.95214499
   0.55854858  0.44319874  0.04795392
   0.44328005  0.88487012  0.95208412
   0.55173986  0.77578657  0.04815885
   0.77901273  0.22542189  0.95314769
   0.88985845  0.11492551  0.04801422
   0.77589955  0.55167674  0.95197625
   0.88733111  0.44107212  0.04660908
   0.77684137  0.88837146  0.95086118
   0.88815277  0.77671080  0.04930151
unknown system                          
           1
     8.290268    4.778912    0.000000
    -8.290998    4.780164    0.000000
     0.000000    0.000000   30.000000
   V    Mo   W    S 
   3   3   3  18
Direct configuration=     4
   0.33414660  0.66662482 -0.00001149
   0.66191157  0.33076627  0.00007733
   1.00234560  0.33107088  0.00030262
   0.32956091  0.32512440 -0.00003205
   0.00754707  0.00142163 -0.00002307
   0.32755549  0.00338488 -0.00022063
   0.00286576  0.67408700  0.00030542
   0.66652561 -0.00088738 -0.00023473
   0.66715546  0.66780718 -0.00005375
   0.10804747  0.22519469  0.95008207
   0.22220491  0.11107518  0.05190326
   0.11288072  0.55336606  0.95223819
   0.21947610  0.44690268  0.04808068
   0.11051286  0.88772022  0.94823214
   0.22408905  0.77435107  0.04941557
   0.45017439  0.22504527  0.94984230
   0.55870491  0.11582747  0.04920043
   0.44245863  0.55862296  0.95104903
   0.55890365  0.44266077  0.04932240
   0.44258305  0.88395663  0.95094797
   0.55069680  0.77521430  0.04965554
   0.77968987  0.22650303  0.95203220
   0.89044568  0.11584381  0.04932500
   0.77555290  0.55075090  0.95082354
   0.88690584  0.44038063  0.04721842
   0.77705601  0.88851472  0.94950208
   0.88821757  0.77688441  0.05101945
unknown system                          
           1
     8.300725    4.778959    0.000000
    -8.302328    4.781724    0.000000
     0.000000    0.000000   30.000000
   V    Mo   W    S 
   3   3   3  18
Direct configuration=     5
   0.33671910  0.66734773 -0.00026921
   0.65754886  0.32837969  0.00037881
   1.00359281  0.32881972  0.00047239
   0.32650387  0.31720090 -0.00011748
   0.01411112  0.00063729 -0.00000030
   0.32096343  0.00593133 -0.00010326
   0.00480994  0.68221965  0.00040897
   0.66598843 -0.00373166 -0.00029137
   0.66858495  0.67073162 -0.00027936
   0.10788602  0.22526838  0.94768975
   0.22220199  0.11115803  0.05533314
   0.11292182  0.55322694  0.95123315
   0.21946030  0.44666637  0.04972879
   0.11104877  0.88847203  0.94491977
   0.22503044  0.77524496  0.05118153
   0.45056420  0.22512338  0.94709547
   0.55807761  0.11601239  0.05056191
   0.44133514  0.55749521  0.94979228
   0.55845527  0.44193338  0.05093000
   0.44132176  0.88375595  0.94962156
   0.54946164  0.77451884  0.05174561
   0.78048817  0.22758580  0.95061096
   0.89144385  0.11624168  0.05091472
   0.77568038  0.54998210  0.94947905
   0.88678561  0.44043347  0.04778519
   0.77870096  0.88944874  0.94774382
   0.88852801  0.77811051  0.05343401
unknown system                          
           1
     8.292685    4.773232    0.000000
    -8.295895    4.778790    0.000000
     0.000000    0.000000   30.000000
   V    Mo   W    S 
   3   3   3  18
Direct configuration=     6
   0.33793791  0.66738621 -0.00023882
   0.65594115  0.32723570  0.00034076
   1.00394061  0.32803058  0.00046531
   0.32613035  0.31642536 -0.00007437
   0.01369992 -0.00001635  0.00007656
   0.32081353  0.00622862 -0.00012799
   0.00509422  0.68402452  0.00032746
   0.66601520 -0.00478772 -0.00030358
   0.66943895  0.67247683 -0.00023539
   0.10810236  0.22456636  0.94760450
   0.22189608  0.11113326  0.05566060
   0.11270253  0.55365292  0.95144491
   0.21995660  0.44630334  0.04969820
   0.11143636  0.88891006  0.94457363
   0.22505174  0.77612395  0.05109512
   0.44989906  0.22454798  0.94691647
   0.55701789  0.11504172  0.05044102
   0.44123011  0.55638641  0.94990599
   0.55780918  0.44202119  0.05077603
   0.44098112  0.88459979  0.94978008
   0.54952165  0.77438380  0.05193050
   0.78035366  0.22733910  0.95069380
   0.89159197  0.11547640  0.05086424
   0.77606266  0.55042538  0.94960459
   0.88716445  0.44143205  0.04747059
   0.77979358  0.89010483  0.94765183
   0.88863161  0.77876219  0.05365785
unknown system                          
           1
     8.297013    4.774994    0.000000
    -8.300805    4.781559    0.000000
     0.000000    0.000000   30.000000
   V    Mo   W    S 
   3   3   3  18
Direct configuration=     7
   0.33929790  0.66730747 -0.00027765
   0.65382725  0.32557601  0.00035718
   1.00452746  0.32698803  0.00045429
   0.32517498  0.31465896 -0.00001668
   0.01380881 -0.00078060  0.00011138
   0.31998096  0.00709710 -0.00007286
   0.00550351  0.68653265  0.00028007
   0.66616181 -0.00608273 -0.00035132
   0.67074113  0.67493695 -0.00024261
   0.10821463  0.22407458  0.94741434
   0.22164761  0.11103457  0.05600882
   0.11261635  0.55401618  0.95168093
   0.22031592  0.44607476  0.04974800
   0.11176187  0.88942923  0.94415188
   0.22512467  0.77674064  0.05107378
   0.44946793  0.22424786  0.94658610
   0.55631193  0.11427484  0.05040203
   0.44126716  0.55565060  0.94999200
   0.55738728  0.44215132  0.05066134
   0.44073336  0.88507659  0.94988733
   0.54952272  0.77426399  0.05225727
   0.78027946  0.22716841  0.95073812
   0.89165270  0.11499970  0.05095595
   0.77626705  0.55080333  0.94969240
   0.88740482  0.44215066  0.04708656
   0.78056463  0.89064884  0.94739349
   0.88865053  0.77917454  0.05402775
unknown system                          
           1
     8.286461    4.768174    0.000000
    -8.289212    4.772931    0.000000
     0.000000    0.000000   30.000000
   V    Mo   W    S 
   3   3   3  18
Direct configuration=     8
   0.33957552  0.66722763 -0.00028501
   0.65332027  0.32509753  0.00036012
   1.00464470  0.32674723  0.00045437
   0.32502603  0.31442544 -0.00000785
   0.01349869 -0.00096933  0.00012055
   0.32008050  0.00733836 -0.00007993
   0.00549258  0.68687166  0.00027279
   0.66625987 -0.00632352 -0.00036144
   0.67112300  0.67561448 -0.00023575
   0.10823537  0.22398112  0.94742935
   0.22154707  0.11099341  0.05599648
   0.11260984  0.55410179  0.95178247
   0.22038366  0.44605356  0.04971498
   0.11183798  0.88954084  0.94415615
   0.22511217  0.77681594  0.05100834
   0.44939667  0.22421722  0.94659319
   0.55621713  0.11412584  0.05035237
   0.44137231  0.55556617  0.95006189
   0.55734444  0.44222698  0.05056045
   0.44073566  0.88515010  0.94996606
   0.54957581  0.77428114  0.05227540
   0.78023286  0.22710495  0.95079704
   0.89160542  0.11492464  0.05094577
   0.77629073  0.55090254  0.94976943
   0.88742218  0.44227304  0.04694506
   0.78065490  0.89073352  0.94735238
   0.88861911  0.77919218  0.05405525
unknown system                          
           1
     8.278479    4.763114    0.000000
    -8.281017    4.767506    0.000000
     0.000000    0.000000   30.000000
   V    Mo   W    S 
   3   3   3  18
Direct configuration=     9
   0.33982727  0.66778577 -0.00027868
   0.65345730  0.32572954  0.00035006
   1.00439328  0.32726729  0.00045697
   0.32577916  0.31456780 -0.00002817
   0.01429789 -0.00105470  0.00014232
   0.31982187  0.00716282 -0.00011176
   0.00558353  0.68698765  0.00026949
   0.66551003 -0.00653542 -0.00033833
   0.67036633  0.67455242 -0.00025985
   0.10832856  0.22382897  0.94725706
   0.22168967  0.11108758  0.05624358
   0.11273408  0.55426636  0.95157005
   0.22060280  0.44617270  0.04985281
   0.11183919  0.88946925  0.94391606
   0.22516814  0.77688262  0.05119141
   0.44942659  0.22410905  0.94648991
   0.55614138  0.11427943  0.05042132
   0.44098086  0.55540302  0.94991276
   0.55723555  0.44192536  0.05080053
   0.44055614  0.88513776  0.94979926
   0.54931751  0.77409885  0.05238274
   0.78012503  0.22716031  0.95064742
   0.89169485  0.11461849  0.05102397
   0.77636224  0.55071361  0.94960337
   0.88734766  0.44243042  0.04717166
   0.78087441  0.89075899  0.94738149
   0.88875313  0.77940853  0.05413246
unknown system                          
           1
     8.273873    4.760397    0.000000
    -8.276494    4.764931    0.000000
     0.000000    0.000000   30.000000
   V    Mo   W    S 
   3   3   3  18
Direct configuration=    10
   0.34024914  0.66838813 -0.00024055
   0.65367138  0.32648789  0.00031125
   1.00425602  0.32780867  0.00046344
   0.32632092  0.31475723 -0.00001274
   0.01516885 -0.00093917  0.00014865
   0.31958375  0.00684984 -0.00007979
   0.00572870  0.68707713  0.00025671
   0.66473106 -0.00690411 -0.00032314
   0.66945926  0.67348621 -0.00029216
   0.10845672  0.22368870  0.94722852
   0.22188256  0.11117530  0.05636733
   0.11288084  0.55446157  0.95143233
   0.22081457  0.44628430  0.04987622
   0.11187332  0.88941950  0.94374108
   0.22517899  0.77696339  0.05130080
   0.44946292  0.22399079  0.94636617
   0.55603356  0.11433048  0.05047637
   0.44062670  0.55525857  0.94978753
   0.55717450  0.44171125  0.05105075
   0.44035090  0.88509444  0.94962124
   0.54908942  0.77387190  0.05248201
   0.77997926  0.22711911  0.95057955
   0.89172352  0.11432003  0.05098874
   0.77642133  0.55060498  0.94946967
   0.88730210  0.44261951  0.04734208
   0.78103425  0.89077632  0.94749184
   0.88875991  0.77951249  0.05416601
unknown system                          
           1
     8.297371    4.773208    0.000000
    -8.302377    4.781892    0.000000
     0.000000    0.000000   30.000000
   V    Mo   W    S 
   3   3   3  18
Direct configuration=    11
   0.33992316  0.66821827 -0.00023631
   0.65373499  0.32637540  0.00032262
   1.00419471  0.32779926  0.00046085
   0.32629371  0.31471849 -0.00001223
   0.01502919 -0.00101436  0.00013781
   0.31956788  0.00691281 -0.00005271
   0.00573185  0.68696268  0.00026615
   0.66497508 -0.00662790 -0.00031958
   0.66969409  0.67358089 -0.00030400
   0.10844182  0.22371853  0.94718575
   0.22187631  0.11117081  0.05635275
   0.11284598  0.55441063  0.95138866
   0.22079576  0.44627888  0.04991254
   0.11181733  0.88937190  0.94374976
   0.22519657  0.77695285  0.05130734
   0.44951296  0.22404881  0.94637033
   0.55604291  0.11437802  0.05048799
   0.44065665  0.55530138  0.94979088
   0.55715129  0.44168304  0.05102750
   0.44038577  0.88512188  0.94963538
   0.54909742  0.77392979  0.05244225
   0.78002045  0.22719203  0.95053111
   0.89173909  0.11436701  0.05105272
   0.77642412  0.55055152  0.94946906
   0.88727830  0.44254614  0.04738501
   0.78097052  0.89075057  0.94745919
   0.88881656  0.77951513  0.05418904
unknown system                          
           1
     8.298959    4.772783    0.000000
    -8.304062    4.781633    0.000000
     0.000000    0.000000   30.000000
   V    Mo   W    S 
   3   3   3  18
Direct configuration=    12
   0.34282244  0.66881762 -0.00024384
   0.65216983  0.32562152  0.00028638
   1.00538146  0.32692795  0.00049036
   0.32502654  0.31371658  0.00008632
   0.01558569 -0.00065853  0.00021750
   0.31922584  0.00714907 -0.00001896
   0.00607037  0.68893419  0.00021913
   0.66394092 -0.00924642 -0.00038993
   0.66932071  0.67542153 -0.00026775
   0.10852592  0.22339687  0.94742006
   0.22172125  0.11102789  0.05636086
   0.11304882  0.55486826  0.95199937
   0.22101128  0.44627904  0.04957921
   0.11227063  0.88999827  0.94363860
   0.22507752  0.77721890  0.05100380
   0.44897536  0.22370940  0.94621124
   0.55566585  0.11352610  0.05031362
   0.44079246  0.55490903  0.94996292
   0.55708688  0.44214723  0.05089475
   0.44014303  0.88500809  0.94975468
   0.54908527  0.77363266  0.05275084
   0.77978823  0.22657091  0.95098102
   0.89152313  0.11407358  0.05066842
   0.77646028  0.55127145  0.94968279
   0.88761294  0.44324026  0.04669299
   0.78148305  0.89110238  0.94751593
   0.88839875  0.77955062  0.05418961
unknown system                          
           1
     8.297403    4.772807    0.000000
    -8.301473    4.779861    0.000000
     0.000000    0.000000   30.000000
   V    Mo   W    S 
   3   3   3  18
Direct configuration=    13
   0.34360921  0.66851871 -0.00029201
   0.65036862  0.32399616  0.00031982
   1.00568811  0.32585634  0.00048273
   0.32461652  0.31264950  0.00008243
   0.01486373 -0.00118667  0.00022837
   0.31945204  0.00821550 -0.00010515
   0.00583060  0.69010855  0.00018001
   0.66435198 -0.00993755 -0.00044225
   0.67068750  0.67760233 -0.00025079
   0.10851723  0.22326652  0.94730225
   0.22143421  0.11093053  0.05648005
   0.11294544  0.55500779  0.95223756
   0.22111536  0.44615028  0.04964041
   0.11245898  0.89031725  0.94360709
   0.22509473  0.77737094  0.05090104
   0.44881817  0.22372584  0.94622002
   0.55554884  0.11328645  0.05021698
   0.44114658  0.55462128  0.95006179
   0.55699436  0.44231710  0.05059717
   0.44014467  0.88522617  0.94991725
   0.54932258  0.77380490  0.05294084
   0.77970854  0.22648277  0.95109740
   0.89137422  0.11401713  0.05077979
   0.77647276  0.55148185  0.94988802
   0.88760091  0.44340436  0.04630286
   0.78172904  0.89134867  0.94726995
   0.88831954  0.77963175  0.05433628
unknown system                          
           1
     8.298430    4.779542    0.000000
    -8.295522    4.774479    0.000000
     0.000000    0.000000   30.000000
   V    Mo   W    S 
   3   3   3  18
Direct configuration=    14
   0.34377172  0.66878236 -0.00029218
   0.65071830  0.32451214  0.00030275
   1.00570467  0.32613847  0.00047981
   0.32478330  0.31287007  0.00007489
   0.01535869 -0.00097283  0.00023323
   0.31935372  0.00797232 -0.00013564
   0.00591063  0.69000106  0.00016744
   0.66392349 -0.01009685 -0.00043722
   0.67006489  0.67693681 -0.00025297
   0.10850237  0.22326138  0.94735432
   0.22153947  0.11097800  0.05646211
   0.11300451  0.55502503  0.95222204
   0.22111174  0.44620860  0.04960993
   0.11242850  0.89026169  0.94363791
   0.22508044  0.77732443  0.05091735
   0.44876519  0.22366254  0.94628122
   0.55560442  0.11333112  0.05019918
   0.44101150  0.55464308  0.95003409
   0.55701531  0.44227679  0.05066315
   0.44012308  0.88513892  0.94987657
   0.54924698  0.77372637  0.05293528
   0.77968141  0.22640897  0.95113121
   0.89137897  0.11396701  0.05068965
   0.77647499  0.55150694  0.94986626
   0.88763919  0.44344317  0.04634826
   0.78170446  0.89127490  0.94738911
   0.88831251  0.77963197  0.05424215
unknown system                          
           1
     8.301458    4.783743    0.000000
    -8.295929    4.774132    0.000000
     0.000000    0.000000   30.000000
   V    Mo   W    S 
   3   3   3  18
Direct configuration=    15
   0.34344256  0.67036625 -0.00021486
   0.65440757  0.32897527  0.00021865
   1.00524627  0.32862383  0.00048449
   0.32641592  0.31528573  0.00005933
   0.01856157  0.00051733  0.00025540
   0.31884200  0.00570913 -0.00016413
   0.00631518  0.68808870  0.00017523
   0.66137855 -0.00992653 -0.00032498
   0.66563909  0.67104599 -0.00028463
   0.10835097  0.22335413  0.94761748
   0.22249223  0.11138647  0.05636542
   0.11331230  0.55487261  0.95174435
   0.22093710  0.44658427  0.04952643
   0.11206171  0.88964422  0.94369431
   0.22503315  0.77696462  0.05120092
   0.44880004  0.22344017  0.94657192
   0.55610259  0.11402111  0.05020219
   0.43986186  0.55486682  0.94964245
   0.55718407  0.44173344  0.05134898
   0.43995231  0.88461474  0.94935692
   0.54858061  0.77315811  0.05282479
   0.77959752  0.22621548  0.95113228
   0.89162739  0.11374135  0.05018006
   0.77640598  0.55120023  0.94948642
   0.88778783  0.44339424  0.04704444
   0.78144919  0.89067938  0.94820125
   0.88842887  0.77965734  0.05365478
unknown system                          
           1
     8.305859    4.787656    0.000000
    -8.298627    4.775087    0.000000
     0.000000    0.000000   30.000000
   V    Mo   W    S 
   3   3   3  18
Direct configuration=    16
   0.34414446  0.67208438 -0.00013934
   0.65711194  0.33359354  0.00014286
   1.00515726  0.33070545  0.00050148
   0.32844548  0.31737954  0.00011263
   0.02310283  0.00278580  0.00026244
   0.31820677  0.00378562 -0.00006244
   0.00672966  0.68688824  0.00018370
   0.65775974 -0.01086383 -0.00026638
   0.66015998  0.66458334 -0.00031362
   0.10840631  0.22331243  0.94780610
   0.22371996  0.11177519  0.05636105
   0.11363073  0.55506581  0.95144093
   0.22088974  0.44688534  0.04947799
   0.11190488  0.88931041  0.94359643
   0.22476877  0.77660823  0.05129460
   0.44896124  0.22338472  0.94682599
   0.55662483  0.11474168  0.05006172
   0.43880272  0.55478803  0.94920209
   0.55729366  0.44114627  0.05196154
   0.43967658  0.88422591  0.94880109
   0.54802957  0.77248250  0.05291890
   0.77908104  0.22585472  0.95133584
   0.89158614  0.11295305  0.04962628
   0.77627088  0.55101124  0.94922265
   0.88786100  0.44360297  0.04741158
   0.78156804  0.89023687  0.94915901
   0.88832026  0.77988699  0.05307481
unknown system                          
           1
     8.307043    4.788716    0.000000
    -8.299209    4.775101    0.000000
     0.000000    0.000000   30.000000
   V    Mo   W    S 
   3   3   3  18
Direct configuration=    17
   0.34480742  0.67228248 -0.00014680
   0.65707352  0.33439348  0.00007317
   1.00547453  0.33051813  0.00052522
   0.32880409  0.31752255  0.00011751
   0.02428888  0.00375700  0.00023600
   0.31800358  0.00352815 -0.00009737
   0.00690804  0.68730618  0.00017593
   0.65675072 -0.01157404 -0.00029986
   0.65866667  0.66339328 -0.00029364
   0.10858541  0.22331636  0.94778537
   0.22406540  0.11188570  0.05648705
   0.11364693  0.55518767  0.95152318
   0.22093289  0.44689410  0.04947931
   0.11205654  0.88945461  0.94354576
   0.22475631  0.77653350  0.05124454
   0.44898880  0.22336207  0.94683723
   0.55675366  0.11480780  0.05003433
   0.43866261  0.55459624  0.94909362
   0.55734700  0.44116729  0.05207059
   0.43946878  0.88415586  0.94873449
   0.54797621  0.77230046  0.05302093
   0.77879263  0.22574479  0.95149271
   0.89147799  0.11263630  0.04948950
   0.77609940  0.55105751  0.94923541
   0.88785160  0.44371483  0.04728700
   0.78179644  0.89020833  0.94942557
   0.88817841  0.78006383  0.05292315
unknown system                          
           1
     8.305938    4.788523    0.000000
    -8.297663    4.774142    0.000000
     0.000000    0.000000   30.000000
   V    Mo   W    S 
   3   3   3  18
Direct configuration=    18
   0.34534258  0.67214204 -0.00016256
   0.65635723  0.33422009  0.00005482
   1.00586547  0.32983497  0.00054963
   0.32874138  0.31724671  0.00015457
   0.02466461  0.00426494  0.00024709
   0.31796980  0.00377232 -0.00006776
   0.00699964  0.68797847  0.00018523
   0.65643245 -0.01214962 -0.00033108
   0.65831515  0.66353639 -0.00027415
   0.10877243  0.22335438  0.94770064
   0.22416214  0.11189880  0.05654682
   0.11357756  0.55526698  0.95167090
   0.22099243  0.44681470  0.04949331
   0.11219134  0.88967389  0.94349648
   0.22475859  0.77654507  0.05115124
   0.44896315  0.22335403  0.94677354
   0.55679500  0.11472090  0.04999824
   0.43871805  0.55440107  0.94905982
   0.55733512  0.44125209  0.05205254
   0.43933589  0.88415255  0.94876345
   0.54801807  0.77227805  0.05311683
   0.77861223  0.22566115  0.95161202
   0.89135350  0.11246013  0.04947676
   0.77600580  0.55118729  0.94929967
   0.88785516  0.44381696  0.04706056
   0.78198912  0.89028678  0.94948858
   0.88809058  0.78024331  0.05288271
unknown system                          
           1
     8.313318    4.791895    0.000000
    -8.305475    4.778264    0.000000
     0.000000    0.000000   30.000000
   V    Mo   W    S 
   3   3   3  18
Direct configuration=    19
   0.34551877  0.67217179 -0.00016145
   0.65633333  0.33434065  0.00003712
   1.00590075  0.32974691  0.00055970
   0.32878308  0.31714800  0.00016338
   0.02491432  0.00447315  0.00024385
   0.31785065  0.00371601 -0.00006607
   0.00703772  0.68816059  0.00018952
   0.65624758 -0.01231080 -0.00033711
   0.65807073  0.66340712 -0.00025733
   0.10882016  0.22333812  0.94769611
   0.22423276  0.11190682  0.05657308
   0.11357202  0.55531892  0.95170231
   0.22101117  0.44680489  0.04948948
   0.11224237  0.88971464  0.94347594
   0.22474327  0.77654159  0.05112864
   0.44897584  0.22335570  0.94677178
   0.55680689  0.11470000  0.04998849
   0.43872442  0.55432776  0.94903985
   0.55735523  0.44128948  0.05205142
   0.43930008  0.88418218  0.94875445
   0.54805065  0.77224885  0.05314364
   0.77852211  0.22563481  0.95165011
   0.89130850  0.11236533  0.04943673
   0.77594679  0.55121344  0.94931460
   0.88784875  0.44386367  0.04701840
   0.78205954  0.89028936  0.94954828
   0.88803699  0.78026546  0.05284498
unknown system                          
           1
     8.317319    4.794683    0.000000
    -8.308148    4.778747    0.000000
     0.000000    0.000000   30.000000
   V    Mo   W    S 
   3   3   3  18
Direct configuration=    20
   0.34596289  0.67189983 -0.00018913
   0.65516804  0.33380029  0.00004027
   1.00649609  0.32891384  0.00056665
   0.32867257  0.31707191  0.00017942
   0.02491056  0.00475487  0.00025119
   0.31810906  0.00420210 -0.00006660
   0.00708568  0.68880190  0.00019572
   0.65612948 -0.01288021 -0.00039204
   0.65800644  0.66379568 -0.00027075
   0.10899917  0.22342096  0.94758277
   0.22424655  0.11195346  0.05662770
   0.11348463  0.55533700  0.95187168
   0.22106898  0.44670326  0.04952741
   0.11236542  0.88998015  0.94347592
   0.22477547  0.77657137  0.05101491
   0.44891915  0.22337477  0.94669527
   0.55686913  0.11465339  0.04995094
   0.43880804  0.55423077  0.94904178
   0.55729342  0.44135631  0.05202107
   0.43916724  0.88407421  0.94884344
   0.54803532  0.77225283  0.05322391
   0.77843228  0.22554112  0.95178205
   0.89122138  0.11231028  0.04950946
   0.77593687  0.55133555  0.94940019
   0.88784198  0.44389260  0.04673305
   0.78217114  0.89038220  0.94952724
   0.88803748  0.78048402  0.05285638
unknown system                          
           1
     8.306850    4.788006    0.000000
    -8.299867    4.775868    0.000000
     0.000000    0.000000   30.000000
   V    Mo   W    S 
   3   3   3  18
Direct configuration=    21
   0.34675833  0.67163429 -0.00021635
   0.65398032  0.33370761  0.00000201
   1.00729765  0.32788145  0.00059995
   0.32860009  0.31689099  0.00021909
   0.02569007  0.00572303  0.00026421
   0.31821610  0.00464971 -0.00004192
   0.00723263  0.68972295  0.00018733
   0.65551444 -0.01385996 -0.00044112
   0.65715407  0.66363495 -0.00027154
   0.10926041  0.22350790  0.94746543
   0.22442690  0.11202095  0.05672679
   0.11337988  0.55538277  0.95208251
   0.22111514  0.44661173  0.04955564
   0.11255409  0.89031009  0.94341317
   0.22482302  0.77657090  0.05090242
   0.44885462  0.22334490  0.94660352
   0.55698046  0.11460978  0.04990396
   0.43879473  0.55399091  0.94896592
   0.55726865  0.44142598  0.05207704
   0.43891059  0.88397647  0.94885487
   0.54800296  0.77218602  0.05337006
   0.77821377  0.22542167  0.95198068
   0.89108896  0.11209820  0.04949060
   0.77583007  0.55147108  0.94946942
   0.88788934  0.44400622  0.04639264
   0.78245104  0.89047797  0.94963583
   0.88792611  0.78081590  0.05280776
unknown system                          
           1
     8.302850    4.785351    0.000000
    -8.297492    4.776033    0.000000
     0.000000    0.000000   30.000000
   V    Mo   W    S 
   3   3   3  18
Direct configuration=    22
   0.34449087  0.67242692 -0.00010835
   0.65767520  0.33390096  0.00009721
   1.00446107  0.33079950  0.00051969
   0.32877426  0.31683217  0.00008245
   0.02356389  0.00315247  0.00021895
   0.31776219  0.00350657 -0.00010203
   0.00668420  0.68696918  0.00012033
   0.65755001 -0.01065639 -0.00022104
   0.65984371  0.66425351 -0.00025953
   0.10846870  0.22319269  0.94789233
   0.22381474  0.11163675  0.05643300
   0.11376805  0.55537970  0.95148060
   0.22095523  0.44684224  0.04938995
   0.11199746  0.88923017  0.94353948
   0.22472678  0.77657791  0.05127258
   0.44918857  0.22342152  0.94691383
   0.55650724  0.11465976  0.05003317
   0.43896704  0.55461331  0.94924429
   0.55744272  0.44120492  0.05182101
   0.43964588  0.88442310  0.94878875
   0.54827285  0.77249523  0.05295548
   0.77874279  0.22583714  0.95133415
   0.89142351  0.11264871  0.04949191
   0.77604409  0.55105444  0.94930794
   0.88762844  0.44375953  0.04742733
   0.78172204  0.89028604  0.94929544
   0.88809291  0.77976643  0.05303097
unknown system                          
           1
     8.306110    4.787686    0.000000
    -8.299037    4.775392    0.000000
     0.000000    0.000000   30.000000
   V    Mo   W    S 
   3   3   3  18
Direct configuration=    23
   0.34357838  0.67322320 -0.00003605
   0.66046329  0.33382599  0.00014486
   1.00209385  0.33267144  0.00049381
   0.32866012  0.31628977  0.00000675
   0.02223368  0.00139581  0.00016560
   0.31724678  0.00260368 -0.00016664
   0.00627152  0.68539289  0.00010436
   0.65874849 -0.00876118 -0.00010960
   0.66167324  0.66525088 -0.00024484
   0.10804957  0.22300158  0.94819090
   0.22337842  0.11129123  0.05634216
   0.11407621  0.55547095  0.95118345
   0.22085128  0.44690683  0.04917074
   0.11172815  0.88867605  0.94355337
   0.22456575  0.77652970  0.05145590
   0.44943526  0.22333686  0.94705678
   0.55603247  0.11455896  0.05012532
   0.43912228  0.55483121  0.94948864
   0.55753755  0.44105088  0.05161929
   0.44014542  0.88482214  0.94879910
   0.54853063  0.77272785  0.05273366
   0.77899896  0.22615577  0.95088859
   0.89162600  0.11292936  0.04945742
   0.77611762  0.55086698  0.94920740
   0.88745823  0.44371874  0.04807020
   0.78138463  0.89031551  0.94912740
   0.88820665  0.77913135  0.05317134
unknown system                          
           1
     8.313092    4.790872    0.000000
    -8.305717    4.778055    0.000000
     0.000000    0.000000   30.000000
   V    Mo   W    S 
   3   3   3  18
Direct configuration=    24
   0.34424932  0.67376234 -0.00004281
   0.66151598  0.33326189  0.00012600
   1.00059666  0.33332070  0.00051778
   0.32822788  0.31505567  0.00000374
   0.02207338  0.00062750  0.00017295
   0.31685440  0.00250858 -0.00017236
   0.00596582  0.68529893  0.00001122
   0.65883703 -0.00870272 -0.00002634
   0.66245531  0.66669479 -0.00024714
   0.10796768  0.22293941  0.94835777
   0.22311377  0.11093719  0.05638153
   0.11420246  0.55557676  0.95127539
   0.22077743  0.44682837  0.04891146
   0.11170032  0.88857987  0.94346834
   0.22442446  0.77642862  0.05144146
   0.44952982  0.22306218  0.94706880
   0.55571175  0.11433579  0.05010542
   0.43923756  0.55459939  0.94969600
   0.55765307  0.44108334  0.05141859
   0.44026039  0.88506226  0.94882660