       N       E                     dE             d eps       ncg     rms          rms(c)
DAV:   1     0.112416188030E+04    0.11242E+04   -0.35870E+04  8160   0.577E+02
DAV:   2    -0.751196298451E+00   -0.11249E+04   -0.10819E+04 11120   0.173E+02
DAV:   3    -0.199759427245E+03   -0.19901E+03   -0.19081E+03 10920   0.821E+01
DAV:   4    -0.209003108765E+03   -0.92437E+01   -0.89825E+01 12200   0.262E+01
DAV:   5    -0.209304017078E+03   -0.30091E+00   -0.30006E+00 11120   0.354E+00    0.275E+01
DAV:   6    -0.237861538252E+03   -0.28558E+02   -0.10801E+02 12600   0.601E+01    0.595E+01
DAV:   7    -0.196567952078E+03    0.41294E+02   -0.17523E+02 13360   0.152E+02    0.200E+01
DAV:   8    -0.189472039738E+03    0.70959E+01   -0.17649E+01 12040   0.127E+01    0.125E+01
DAV:   9    -0.188127482789E+03    0.13446E+01   -0.30339E+00 13520   0.635E+00    0.912E+00
DAV:  10    -0.186936182705E+03    0.11913E+01   -0.17274E+00 13360   0.761E+00    0.215E+00
DAV:  11    -0.187026740622E+03   -0.90558E-01   -0.59381E-01 13520   0.260E+00    0.373E+00
DAV:  12    -0.186951539528E+03    0.75201E-01   -0.71674E-01 12680   0.393E+00    0.330E+00
DAV:  13    -0.186865347373E+03    0.86192E-01   -0.24639E-01 13240   0.297E+00    0.181E+00
DAV:  14    -0.186827224341E+03    0.38123E-01   -0.90843E-02 12960   0.164E+00    0.607E-01
DAV:  15    -0.186823417722E+03    0.38066E-02   -0.10425E-02 11680   0.345E-01    0.314E-01
DAV:  16    -0.186824304594E+03   -0.88687E-03   -0.96627E-03 12600   0.524E-01    0.575E-01
DAV:  17    -0.186821644939E+03    0.26597E-02   -0.71953E-03 13120   0.462E-01    0.212E-01
DAV:  18    -0.186821210336E+03    0.43460E-03   -0.13350E-03 11400   0.178E-01    0.652E-02
DAV:  19    -0.186821764260E+03   -0.55392E-03   -0.79320E-04 10760   0.790E-02    0.902E-02
DAV:  20    -0.186822063792E+03   -0.29953E-03   -0.40082E-04  8040   0.561E-02    0.552E-02
DAV:  21    -0.186823275928E+03   -0.12121E-02   -0.30994E-04  8680   0.600E-02    0.257E-02
DAV:  22    -0.186824063358E+03   -0.78743E-03   -0.77530E-05  6600   0.242E-02    0.245E-02
DAV:  23    -0.186824890700E+03   -0.82734E-03   -0.84937E-05  7480   0.232E-02    0.836E-03
DAV:  24    -0.186825505324E+03   -0.61462E-03   -0.24866E-05  6280   0.127E-02    0.568E-03
DAV:  25    -0.186825955416E+03   -0.45009E-03   -0.17310E-05  6040   0.111E-02    0.318E-03
DAV:  26    -0.186826131063E+03   -0.17565E-03   -0.68834E-06  6960   0.644E-03    0.174E-03
DAV:  27    -0.186826234284E+03   -0.10322E-03   -0.38387E-06  6640   0.409E-03    0.132E-03
DAV:  28    -0.186826282709E+03   -0.48425E-04   -0.20988E-06  7160   0.284E-03
   1 F= -.18682628E+03 E0= -.18665571E+03  d E =-.186826E+03
       N       E                     dE             d eps       ncg     rms          rms(c)
DAV:   1    -0.187491773160E+03   -0.66554E+00   -0.27400E+02  8160   0.351E+01    0.461E+00
DAV:   2    -0.189350127289E+03   -0.18584E+01   -0.20002E+01 12280   0.151E+01    0.844E+00
DAV:   3    -0.189347729050E+03    0.23982E-02   -0.35707E+00 12480   0.119E+01    0.660E+00
DAV:   4    -0.188742596887E+03    0.60513E+00   -0.63082E-01 12760   0.472E+00    0.170E+00
DAV:   5    -0.188725542179E+03    0.17055E-01   -0.28745E-01 10440   0.144E+00    0.193E+00
DAV:   6    -0.188691173122E+03    0.34369E-01   -0.25996E-01 12160   0.176E+00    0.168E+00
DAV:   7    -0.188699420763E+03   -0.82476E-02   -0.18146E-01 13000   0.232E+00    0.218E+00
DAV:   8    -0.188657716413E+03    0.41704E-01   -0.63567E-02 13200   0.148E+00    0.360E-01
DAV:   9    -0.188656153842E+03    0.15626E-02   -0.62176E-03 10560   0.275E-01    0.225E-01
DAV:  10    -0.188656479194E+03   -0.32535E-03   -0.39405E-03 13160   0.312E-01    0.352E-01
DAV:  11    -0.188655751594E+03    0.72760E-03   -0.33292E-03 13080   0.319E-01    0.180E-01
DAV:  12    -0.188655607244E+03    0.14435E-03   -0.83664E-04 11800   0.122E-01    0.761E-02
DAV:  13    -0.188655591089E+03    0.16155E-04   -0.18909E-04  7560   0.505E-02
   2 F= -.18865559E+03 E0= -.18851746E+03  d E =-.182931E+01
       N       E                     dE             d eps       ncg     rms          rms(c)
DAV:   1    -0.190581147401E+03   -0.19255E+01   -0.31266E+01  9280   0.142E+01    0.444E+00
DAV:   2    -0.190521695649E+03    0.59452E-01   -0.27434E+00 11760   0.939E+00    0.713E+00
DAV:   3    -0.190068414743E+03    0.45328E+00   -0.12937E+00 12480   0.859E+00    0.424E+00
DAV:   4    -0.189854597102E+03    0.21382E+00   -0.67008E-01 12960   0.429E+00    0.247E+00
DAV:   5    -0.189764369246E+03    0.90228E-01   -0.28757E-01 11640   0.195E+00    0.889E-01
DAV:   6    -0.189753332581E+03    0.11037E-01   -0.45075E-02 12000   0.102E+00    0.640E-01
DAV:   7    -0.189750857222E+03    0.24754E-02   -0.11815E-02 12240   0.620E-01    0.277E-01
DAV:   8    -0.189750328401E+03    0.52882E-03   -0.20711E-03 11800   0.198E-01    0.129E-01
DAV:   9    -0.189750806902E+03   -0.47850E-03   -0.11344E-03 11320   0.140E-01    0.173E-01
DAV:  10    -0.189750761192E+03    0.45709E-04   -0.13020E-03 10240   0.222E-01    0.188E-01
DAV:  11    -0.189750470599E+03    0.29059E-03   -0.56974E-04 10400   0.148E-01    0.315E-02
DAV:  12    -0.189750478492E+03   -0.78923E-05   -0.54699E-05  6120   0.300E-02
   3 F= -.18975048E+03 E0= -.18963471E+03  d E =-.109489E+01
       N       E                     dE             d eps       ncg     rms          rms(c)
DAV:   1    -0.191355014612E+03   -0.16045E+01   -0.78649E+01  8160   0.202E+01    0.460E+00
DAV:   2    -0.191135905587E+03    0.21911E+00   -0.53740E+00 13400   0.732E+00    0.417E+00
DAV:   3    -0.191332630509E+03   -0.19672E+00   -0.14938E+00 12240   0.901E+00    0.681E+00
DAV:   4    -0.190912060823E+03    0.42057E+00   -0.13140E+00 13000   0.793E+00    0.278E+00
DAV:   5    -0.190807901787E+03    0.10416E+00   -0.30209E-01 11000   0.249E+00    0.151E+00
DAV:   6    -0.190799110016E+03    0.87918E-02   -0.13228E-01 12720   0.241E+00    0.156E+00
DAV:   7    -0.190779691673E+03    0.19418E-01   -0.52445E-02 12000   0.152E+00    0.511E-01
DAV:   8    -0.190775475867E+03    0.42158E-02   -0.72505E-03 10200   0.399E-01    0.178E-01
DAV:   9    -0.190776278087E+03   -0.80222E-03   -0.26736E-03 12840   0.327E-01    0.316E-01
DAV:  10    -0.190775773056E+03    0.50503E-03   -0.24578E-03 11120   0.313E-01    0.129E-01
DAV:  11    -0.190775573868E+03    0.19919E-03   -0.58654E-04 10160   0.102E-01    0.459E-02
DAV:  12    -0.190775564704E+03    0.91637E-05   -0.85861E-05  7280   0.352E-02
   4 F= -.19077556E+03 E0= -.19067923E+03  d E =-.102509E+01
       N       E                     dE             d eps       ncg     rms          rms(c)
DAV:   1    -0.192209516100E+03   -0.14339E+01   -0.18444E+02  8160   0.300E+01    0.566E+00
DAV:   2    -0.191940005460E+03    0.26951E+00   -0.96055E+00 10240   0.753E+00    0.309E+00
DAV:   3    -0.191759924812E+03    0.18008E+00   -0.12371E+00 10880   0.396E+00    0.259E+00
DAV:   4    -0.191806169590E+03   -0.46245E-01   -0.60960E-01 11920   0.529E+00    0.474E+00
DAV:   5    -0.191631775958E+03    0.17439E+00   -0.70659E-01 11080   0.575E+00    0.199E+00
DAV:   6    -0.191604761232E+03    0.27015E-01   -0.15278E-01 12240   0.272E+00    0.152E+00
DAV:   7    -0.191584345184E+03    0.20416E-01   -0.68596E-02 12400   0.198E+00    0.657E-01
DAV:   8    -0.191577740606E+03    0.66046E-02   -0.11734E-02 12200   0.657E-01    0.155E-01
DAV:   9    -0.191577961687E+03   -0.22108E-03   -0.22823E-03 10960   0.173E-01    0.109E-01
DAV:  10    -0.191578231484E+03   -0.26980E-03   -0.11801E-03 11280   0.248E-01    0.184E-01
DAV:  11    -0.191577911159E+03    0.32032E-03   -0.51407E-04  9200   0.167E-01    0.273E-02
DAV:  12    -0.191577922573E+03   -0.11413E-04   -0.51266E-05  6400   0.294E-02
   5 F= -.19157792E+03 E0= -.19149165E+03  d E =-.802358E+00
       N       E                     dE             d eps       ncg     rms          rms(c)
DAV:   1    -0.191689349802E+03   -0.11144E+00   -0.94187E+00  8160   0.648E+00    0.772E-01
DAV:   2    -0.191761137074E+03   -0.71787E-01   -0.39687E-01 13040   0.327E+00    0.217E+00
DAV:   3    -0.191708737405E+03    0.52400E-01   -0.10503E-01 12560   0.249E+00    0.433E-01
DAV:   4    -0.191709688964E+03   -0.95156E-03   -0.11639E-02 11640   0.742E-01    0.654E-01
DAV:   5    -0.191705959607E+03    0.37294E-02   -0.90322E-03 11800   0.726E-01    0.266E-01
DAV:   6    -0.191705539895E+03    0.41971E-03   -0.32698E-03 11520   0.262E-01    0.116E-01
DAV:   7    -0.191705211765E+03    0.32813E-03   -0.80187E-04 11600   0.112E-01    0.376E-02
DAV:   8    -0.191705271057E+03   -0.59292E-04   -0.18967E-04  6680   0.906E-02
   6 F= -.19170527E+03 E0= -.19161997E+03  d E =-.127348E+00
       N       E                     dE             d eps       ncg     rms          rms(c)
DAV:   1    -0.191835481390E+03   -0.13027E+00   -0.17785E+01  8160   0.889E+00    0.896E-01
DAV:   2    -0.191904961811E+03   -0.69480E-01   -0.53040E-01 12400   0.307E+00    0.192E+00
DAV:   3    -0.191867031525E+03    0.37930E-01   -0.11436E-01 12520   0.256E+00    0.722E-01
DAV:   4    -0.191865690996E+03    0.13405E-02   -0.20190E-02 12240   0.101E+00    0.788E-01
DAV:   5    -0.191860226509E+03    0.54645E-02   -0.14295E-02 12440   0.943E-01    0.363E-01
DAV:   6    -0.191859569157E+03    0.65735E-03   -0.56528E-03 12480   0.374E-01    0.187E-01
DAV:   7    -0.191859119070E+03    0.45009E-03   -0.22801E-03 11560   0.275E-01    0.174E-01
DAV:   8    -0.191858874935E+03    0.24414E-03   -0.82886E-04  9400   0.212E-01    0.737E-02
DAV:   9    -0.191858818539E+03    0.56396E-04   -0.15506E-04  6280   0.762E-02
   7 F= -.19185882E+03 E0= -.19177720E+03  d E =-.153547E+00
       N       E                     dE             d eps       ncg     rms          rms(c)
DAV:   1    -0.191976139034E+03   -0.11726E+00   -0.22874E+01  8160   0.102E+01    0.105E+00
DAV:   2    -0.192052413635E+03   -0.76275E-01   -0.77229E-01 12480   0.336E+00    0.173E+00
DAV:   3    -0.192027959556E+03    0.24454E-01   -0.11507E-01 12320   0.263E+00    0.943E-01
DAV:   4    -0.192018603677E+03    0.93559E-02   -0.26908E-02 11280   0.119E+00    0.742E-01
DAV:   5    -0.192016149222E+03    0.24545E-02   -0.20232E-02 12440   0.111E+00    0.605E-01
DAV:   6    -0.192013560228E+03    0.25890E-02   -0.12384E-02 12560   0.661E-01    0.254E-01
DAV:   7    -0.192012051617E+03    0.15086E-02   -0.31936E-03 10640   0.221E-01    0.584E-02
DAV:   8    -0.192012103690E+03   -0.52073E-04   -0.46181E-04 10800   0.115E-01
   8 F= -.19201210E+03 E0= -.19193198E+03  d E =-.153285E+00
       N       E                     dE             d eps       ncg     rms          rms(c)
DAV:   1    -0.192085062881E+03   -0.73011E-01   -0.14952E+01  8160   0.821E+00    0.856E-01
DAV:   2    -0.192125682414E+03   -0.40620E-01   -0.55853E-01 12000   0.198E+00    0.609E-01
DAV:   3    -0.192133808539E+03   -0.81261E-02   -0.51877E-02 11720   0.153E+00    0.117E+00
DAV:   4    -0.192121035237E+03    0.12773E-01   -0.30327E-02 11520   0.136E+00    0.491E-01
DAV:   5    -0.192119494444E+03    0.15408E-02   -0.94303E-03 12360   0.683E-01    0.399E-01
DAV:   6    -0.192119609600E+03   -0.11516E-03   -0.75851E-03 11960   0.691E-01    0.368E-01
DAV:   7    -0.192117775498E+03    0.18341E-02   -0.35821E-03 11520   0.406E-01    0.119E-01
DAV:   8    -0.192117719356E+03    0.56143E-04   -0.58782E-04  9520   0.183E-01
   9 F= -.19211772E+03 E0= -.19203721E+03  d E =-.105616E+00
       N       E                     dE             d eps       ncg     rms          rms(c)
DAV:   1    -0.192165414779E+03   -0.47639E-01   -0.12300E+01  8160   0.750E+00    0.846E-01
DAV:   2    -0.192200537986E+03   -0.35123E-01   -0.48509E-01 11720   0.194E+00    0.853E-01
DAV:   3    -0.192211900652E+03   -0.11363E-01   -0.71939E-02 12080   0.198E+00    0.146E+00
DAV:   4    -0.192190724143E+03    0.21177E-01   -0.35680E-02 12360   0.144E+00    0.354E-01
DAV:   5    -0.192189588679E+03    0.11355E-02   -0.81485E-03 10960   0.494E-01    0.310E-01
DAV:   6    -0.192190703401E+03   -0.11147E-02   -0.71402E-03 11240   0.679E-01    0.454E-01
DAV:   7    -0.192188377286E+03    0.23261E-02   -0.39031E-03 11680   0.493E-01    0.113E-01
DAV:   8    -0.192188341050E+03    0.36236E-04   -0.59531E-04  9840   0.188E-01
  10 F= -.19218834E+03 E0= -.19210585E+03  d E =-.706217E-01
       N       E                     dE             d eps       ncg     rms          rms(c)
DAV:   1    -0.192214266403E+03   -0.25889E-01   -0.48497E+00  8160   0.466E+00    0.583E-01
DAV:   2    -0.192242213573E+03   -0.27947E-01   -0.22373E-01 12320   0.188E+00    0.116E+00
DAV:   3    -0.192228057791E+03    0.14156E-01   -0.41394E-02 11280   0.159E+00    0.528E-01
DAV:   4    -0.192227125477E+03    0.93231E-03   -0.10346E-02 12520   0.760E-01    0.469E-01
DAV:   5    -0.192224984447E+03    0.21410E-02   -0.55846E-03 11800   0.630E-01    0.228E-01
DAV:   6    -0.192224655960E+03    0.32849E-03   -0.22415E-03 12160   0.265E-01    0.121E-01
DAV:   7    -0.192224377392E+03    0.27857E-03   -0.94607E-04 10480   0.111E-01    0.300E-02
DAV:   8    -0.192224390202E+03   -0.12809E-04   -0.94405E-05  8040   0.615E-02
  11 F= -.19222439E+03 E0= -.19214193E+03  d E =-.360492E-01
       N       E                     dE             d eps       ncg     rms          rms(c)
DAV:   1    -0.192233068642E+03   -0.86912E-02   -0.39976E-01  8160   0.137E+00    0.198E-01
DAV:   2    -0.192235270788E+03   -0.22021E-02   -0.18146E-02 12040   0.561E-01    0.398E-01
DAV:   3    -0.192233823373E+03    0.14474E-02   -0.50863E-03 12640   0.559E-01    0.209E-01
DAV:   4    -0.192233455105E+03    0.36827E-03   -0.10689E-03 10320   0.240E-01    0.119E-01
DAV:   5    -0.192233372597E+03    0.82508E-04   -0.57877E-04 10200   0.208E-01
  12 F= -.19223337E+03 E0= -.19215168E+03  d E =-.898240E-02
       N       E                     dE             d eps       ncg     rms          rms(c)
DAV:   1    -0.192246708706E+03   -0.13254E-01   -0.77027E-01  8160   0.187E+00    0.271E-01
DAV:   2    -0.192252657682E+03   -0.59490E-02   -0.36730E-02 11400   0.929E-01    0.636E-01
DAV:   3    -0.192248060034E+03    0.45976E-02   -0.94041E-03 11800   0.779E-01    0.191E-01
DAV:   4    -0.192248332499E+03   -0.27246E-03   -0.19894E-03 11360   0.351E-01    0.249E-01
DAV:   5    -0.192247669831E+03    0.66267E-03   -0.13294E-03 10640   0.316E-01    0.930E-02
DAV:   6    -0.192247660033E+03    0.97981E-05   -0.48179E-04 10120   0.114E-01
  13 F= -.19224766E+03 E0= -.19216683E+03  d E =-.142874E-01
       N       E                     dE             d eps       ncg     rms          rms(c)
DAV:   1    -0.192274310501E+03   -0.26641E-01   -0.59866E+00  8160   0.522E+00    0.701E-01
DAV:   2    -0.192309605714E+03   -0.35295E-01   -0.25932E-01 11480   0.223E+00    0.141E+00
DAV:   3    -0.192286066265E+03    0.23539E-01   -0.54048E-02 12280   0.188E+00    0.485E-01
DAV:   4    -0.192285517162E+03    0.54910E-03   -0.10883E-02 12560   0.755E-01    0.498E-01
DAV:   5    -0.192283357522E+03    0.21596E-02   -0.71449E-03 12640   0.733E-01    0.294E-01
DAV:   6    -0.192282732805E+03    0.62472E-03   -0.32531E-03 11840   0.339E-01    0.137E-01
DAV:   7    -0.192282314113E+03    0.41869E-03   -0.11413E-03 10760   0.134E-01    0.382E-02
DAV:   8    -0.192282347401E+03   -0.33288E-04   -0.15426E-04  8400   0.966E-02
  14 F= -.19228235E+03 E0= -.19220521E+03  d E =-.346874E-01
       N       E                     dE             d eps       ncg     rms          rms(c)
DAV:   1    -0.192299259539E+03   -0.16945E-01   -0.86698E+00  8160   0.627E+00    0.825E-01
DAV:   2    -0.192344010074E+03   -0.44751E-01   -0.37347E-01 11480   0.248E+00    0.148E+00
DAV:   3    -0.192319050198E+03    0.24960E-01   -0.65841E-02 12040   0.214E+00    0.625E-01
DAV:   4    -0.192316129568E+03    0.29206E-02   -0.14640E-02 12560   0.877E-01    0.492E-01
DAV:   5    -0.192314394092E+03    0.17355E-02   -0.86903E-03 12680   0.809E-01    0.368E-01
DAV:   6    -0.192313352496E+03    0.10416E-02   -0.48457E-03 12320   0.459E-01    0.173E-01
DAV:   7    -0.192312696268E+03    0.65623E-03   -0.16629E-03 10960   0.168E-01    0.353E-02
DAV:   8    -0.192312705752E+03   -0.94845E-05   -0.15745E-04  8200   0.643E-02
  15 F= -.19231271E+03 E0= -.19224026E+03  d E =-.303584E-01
       N       E                     dE             d eps       ncg     rms          rms(c)
DAV:   1    -0.192318094170E+03   -0.53979E-02   -0.75472E-01  8160   0.183E+00    0.239E-01
DAV:   2    -0.192321960313E+03   -0.38661E-02   -0.37198E-02 10600   0.739E-01    0.396E-01
DAV:   3    -0.192320453721E+03    0.15066E-02   -0.50097E-03 13200   0.613E-01    0.201E-01
DAV:   4    -0.192320055987E+03    0.39773E-03   -0.11076E-03 10640   0.270E-01    0.133E-01
DAV:   5    -0.192319975267E+03    0.80720E-04   -0.66460E-04 11080   0.228E-01
  16 F= -.19231998E+03 E0= -.19224921E+03  d E =-.726951E-02
       N       E                     dE             d eps       ncg     rms          rms(c)
DAV:   1    -0.192324248417E+03   -0.41924E-02   -0.66082E-01  8160   0.172E+00    0.246E-01
DAV:   2    -0.192327582384E+03   -0.33340E-02   -0.32184E-02 10840   0.737E-01    0.409E-01
DAV:   3    -0.192325819142E+03    0.17632E-02   -0.50693E-03 12840   0.613E-01    0.186E-01
DAV:   4    -0.192325453838E+03    0.36530E-03   -0.10468E-03 10400   0.249E-01    0.125E-01
DAV:   5    -0.192325441655E+03    0.12182E-04   -0.74312E-04 10880   0.232E-01
  17 F= -.19232544E+03 E0= -.19225622E+03  d E =-.546639E-02
       N       E                     dE             d eps       ncg     rms          rms(c)
DAV:   1    -0.192328494110E+03   -0.30403E-02   -0.10362E+00  8160   0.216E+00    0.275E-01
DAV:   2    -0.192332509356E+03   -0.40152E-02   -0.49145E-02 11440   0.699E-01    0.313E-01
DAV:   3    -0.192332191828E+03    0.31753E-03   -0.54331E-03 12480   0.617E-01    0.297E-01
DAV:   4    -0.192331175519E+03    0.10163E-02   -0.19309E-03 11760   0.379E-01    0.131E-01
DAV:   5    -0.192331087915E+03    0.87604E-04   -0.85763E-04 10480   0.219E-01
  18 F= -.19233109E+03 E0= -.19226346E+03  d E =-.564626E-02
       N       E                     dE             d eps       ncg     rms          rms(c)
DAV:   1    -0.192333023889E+03   -0.18484E-02   -0.96832E-01  8160   0.210E+00    0.279E-01
DAV:   2    -0.192338596035E+03   -0.55721E-02   -0.48096E-02 12520   0.834E-01    0.489E-01
DAV:   3    -0.192335979699E+03    0.26163E-02   -0.74064E-03 12120   0.737E-01    0.232E-01
DAV:   4    -0.192335533194E+03    0.44650E-03   -0.15883E-03 10960   0.313E-01    0.156E-01
DAV:   5    -0.192335381770E+03    0.15142E-03   -0.95460E-04 11480   0.269E-01    0.126E-01
DAV:   6    -0.192335305961E+03    0.75809E-04   -0.59139E-04 10000   0.161E-01
  19 F= -.19233531E+03 E0= -.19226861E+03  d E =-.421805E-02
       N       E                     dE             d eps       ncg     rms          rms(c)
DAV:   1    -0.192336064895E+03   -0.68313E-03   -0.65529E-02  8160   0.550E-01    0.779E-02
DAV:   2    -0.192336307343E+03   -0.24245E-03   -0.34259E-03 11440   0.193E-01    0.937E-02
DAV:   3    -0.192336316006E+03   -0.86637E-05   -0.57643E-04 11040   0.200E-01
  20 F= -.19233632E+03 E0= -.19226973E+03  d E =-.101005E-02
       N       E                     dE             d eps       ncg     rms          rms(c)
DAV:   1    -0.192337313902E+03   -0.10066E-02   -0.16847E-01  8160   0.877E-01    0.134E-01
DAV:   2    -0.192338552865E+03   -0.12390E-02   -0.79673E-03 12640   0.467E-01    0.305E-01
DAV:   3    -0.192337519206E+03    0.10337E-02   -0.24301E-03 12280   0.407E-01    0.103E-01
DAV:   4    -0.192337406602E+03    0.11260E-03   -0.36956E-04  9200   0.121E-01    0.597E-02
DAV:   5    -0.192337348021E+03    0.58581E-04   -0.16650E-04  6800   0.711E-02
  21 F= -.19233735E+03 E0= -.19227070E+03  d E =-.103201E-02
       N       E                     dE             d eps       ncg     rms          rms(c)
DAV:   1    -0.192337983022E+03   -0.57642E-03   -0.61891E-02  8160   0.537E-01    0.720E-02
DAV:   2    -0.192338512851E+03   -0.52983E-03   -0.34812E-03 11880   0.248E-01    0.163E-01
DAV:   3    -0.192338191106E+03    0.32174E-03   -0.68591E-04 10360   0.226E-01    0.545E-02
DAV:   4    -0.192338175249E+03    0.15858E-04   -0.61886E-05  6000   0.696E-02
  22 F= -.19233818E+03 E0= -.19227171E+03  d E =-.827228E-03
