 vasp.5.4.1 05Feb16 (build Jul 05 2020 17:13:04) complex                        
  
 executed on           IFC91_ompi date 2024.04.19  22:58:44
 running on   40 total cores
 distrk:  each k-point on   40 cores,    1 groups
 distr:  one band on NCORES_PER_BAND=   1 cores,   40 groups


--------------------------------------------------------------------------------------------------------


 INCAR:
 POTCAR:   PAW_PBE V 08Apr2002                    
 POTCAR:   PAW_PBE Mo 08Apr2002                   
 POTCAR:   PAW_PBE W 08Apr2002                    
 POTCAR:    PAW_PBE S 17Jan2003                   

 ----------------------------------------------------------------------------- 
|                                                                             |
|           W    W    AA    RRRRR   N    N  II  N    N   GGGG   !!!           |
|           W    W   A  A   R    R  NN   N  II  NN   N  G    G  !!!           |
|           W    W  A    A  R    R  N N  N  II  N N  N  G       !!!           |
|           W WW W  AAAAAA  RRRRR   N  N N  II  N  N N  G  GGG   !            |
|           WW  WW  A    A  R   R   N   NN  II  N   NN  G    G                |
|           W    W  A    A  R    R  N    N  II  N    N   GGGG   !!!           |
|                                                                             |
|      For optimal performance we recommend to set                            |
|        NCORE= 4 - approx SQRT( number of cores)                             |
|      NCORE specifies how many cores store one orbital (NPAR=cpu/NCORE).     |
|      This setting can  greatly improve the performance of VASP for DFT.     |
|      The default, NPAR=number of cores might be grossly inefficient         |
|      on modern multi-core architectures or massively parallel machines.     |
|      Do your own testing !!!!                                               |
|      Unfortunately you need to use the default for GW and RPA calculations. |
|      (for HF NCORE is supported but not extensively tested yet)             |
|                                                                             |
 ----------------------------------------------------------------------------- 

 POTCAR:   PAW_PBE V 08Apr2002                    
   VRHFIN =V: p6 d4 s1                                                          
   LEXCH  = PE                                                                  
   EATOM  =   170.8679 eV,   12.5584 Ry                                         
                                                                                
   TITEL  = PAW_PBE V 08Apr2002                                                 
   LULTRA =        F    use ultrasoft PP ?                                      
   IUNSCR =        1    unscreen: 0-lin 1-nonlin 2-no                           
   RPACOR =    2.000    partial core radius                                     
   POMASS =   50.941; ZVAL   =    5.000    mass and valenz                      
   RCORE  =    2.700    outmost cutoff radius                                   
   RWIGS  =    2.500; RWIGS  =    1.323    wigner-seitz radius (au A)           
   ENMAX  =  192.543; ENMIN  =  144.408 eV                                      
   RCLOC  =    1.779    cutoff for local pot                                    
   LCOR   =        T    correct aug charges                                     
   LPAW   =        T    paw PP                                                  
   EAUG   =  358.662                                                            
   DEXC   =    -.034                                                            
   RMAX   =    3.323    core radius for proj-oper                               
   RAUG   =    1.300    factor for augmentation sphere                          
   RDEP   =    2.762    radius for radial grids                                 
   QCUT   =   -3.762; QGAM   =    7.524    optimization parameters              
                                                                                
   Description                                                                  
     l     E      TYP  RCUT    TYP  RCUT                                        
     2   .000     23  2.700                                                     
     2   .000     23  2.700                                                     
     0   .000     23  2.700                                                     
     0  2.000     23  2.700                                                     
     1   .000     23  2.700                                                     
     1  2.000     23  2.700                                                     
     3   .000      7   .000                                                     
  local pseudopotential read in
  partial core-charges read in
  atomic valenz-charges read in
  non local Contribution for L=           2  read in
    real space projection operators read in
  non local Contribution for L=           2  read in
    real space projection operators read in
  non local Contribution for L=           0  read in
    real space projection operators read in
  non local Contribution for L=           0  read in
    real space projection operators read in
  non local Contribution for L=           1  read in
    real space projection operators read in
  non local Contribution for L=           1  read in
    real space projection operators read in
    PAW grid and wavefunctions read in
 
   number of l-projection  operators is LMAX  =           6
   number of lm-projection operators is LMMAX =          18
 
 POTCAR:   PAW_PBE Mo 08Apr2002                   
   VRHFIN =Mo: 4p5s4d                                                           
   LEXCH  = PE                                                                  
   EATOM  =   217.5180 eV,   15.9871 Ry                                         
                                                                                
   TITEL  = PAW_PBE Mo 08Apr2002                                                
   LULTRA =        F    use ultrasoft PP ?                                      
   IUNSCR =        1    unscreen: 0-lin 1-nonlin 2-no                           
   RPACOR =    2.200    partial core radius                                     
   POMASS =   95.940; ZVAL   =    6.000    mass and valenz                      
   RCORE  =    2.750    outmost cutoff radius                                   
   RWIGS  =    2.750; RWIGS  =    1.455    wigner-seitz radius (au A)           
   ENMAX  =  224.584; ENMIN  =  168.438 eV                                      
   RCLOC  =    2.111    cutoff for local pot                                    
   LCOR   =        T    correct aug charges                                     
   LPAW   =        T    paw PP                                                  
   EAUG   =  345.278                                                            
   DEXC   =    -.088                                                            
   RMAX   =    3.077    core radius for proj-oper                               
   RAUG   =    1.300    factor for augmentation sphere                          
   RDEP   =    2.815    radius for radial grids                                 
   QCUT   =   -4.063; QGAM   =    8.126    optimization parameters              
                                                                                
   Description                                                                  
     l     E      TYP  RCUT    TYP  RCUT                                        
     2   .000     23  2.500                                                     
     2   .000     23  2.500                                                     
     0   .000     23  2.600                                                     
     0  1.000     23  2.600                                                     
     1   .400     23  2.750                                                     
     1  2.000     23  2.750                                                     
     3   .000      7   .000                                                     
  local pseudopotential read in
  partial core-charges read in
  atomic valenz-charges read in
  non local Contribution for L=           2  read in
    real space projection operators read in
  non local Contribution for L=           2  read in
    real space projection operators read in
  non local Contribution for L=           0  read in
    real space projection operators read in
  non local Contribution for L=           0  read in
    real space projection operators read in
  non local Contribution for L=           1  read in
    real space projection operators read in
  non local Contribution for L=           1  read in
    real space projection operators read in
    PAW grid and wavefunctions read in
 
   number of l-projection  operators is LMAX  =           6
   number of lm-projection operators is LMMAX =          18
 
 POTCAR:   PAW_PBE W 08Apr2002                    
   VRHFIN =W : 6s5d                                                             
   LEXCH  = PE                                                                  
   EATOM  =   204.6100 eV,   15.0384 Ry                                         
                                                                                
   TITEL  = PAW_PBE W 08Apr2002                                                 
   LULTRA =        F    use ultrasoft PP ?                                      
   IUNSCR =        1    unscreen: 0-lin 1-nonlin 2-no                           
   RPACOR =    2.330    partial core radius                                     
   POMASS =  183.850; ZVAL   =    6.000    mass and valenz                      
   RCORE  =    2.750    outmost cutoff radius                                   
   RWIGS  =    2.750; RWIGS  =    1.455    wigner-seitz radius (au A)           
   ENMAX  =  223.057; ENMIN  =  167.293 eV                                      
   RCLOC  =    2.147    cutoff for local pot                                    
   LCOR   =        T    correct aug charges                                     
   LPAW   =        T    paw PP                                                  
   EAUG   =  373.438                                                            
   DEXC   =    -.060                                                            
   RMAX   =    3.087    core radius for proj-oper                               
   RAUG   =    1.300    factor for augmentation sphere                          
   RDEP   =    2.886    radius for radial grids                                 
   QCUT   =   -4.049; QGAM   =    8.098    optimization parameters              
                                                                                
   Description                                                                  
     l     E      TYP  RCUT    TYP  RCUT                                        
     2   .000     23  2.500                                                     
     2   .000     23  2.500                                                     
     0   .000     23  2.500                                                     
     0   .000     23  2.500                                                     
     1   .200     23  2.750                                                     
     1  2.000     23  2.750                                                     
     3   .000      7   .000                                                     
  local pseudopotential read in
  partial core-charges read in
  atomic valenz-charges read in
  non local Contribution for L=           2  read in
    real space projection operators read in
  non local Contribution for L=           2  read in
    real space projection operators read in
  non local Contribution for L=           0  read in
    real space projection operators read in
  non local Contribution for L=           0  read in
    real space projection operators read in
  non local Contribution for L=           1  read in
    real space projection operators read in
  non local Contribution for L=           1  read in
    real space projection operators read in
    PAW grid and wavefunctions read in
 
   number of l-projection  operators is LMAX  =           6
   number of lm-projection operators is LMMAX =          18
 
 POTCAR:    PAW_PBE S 17Jan2003                   
   VRHFIN =S : s2p4                                                             
   LEXCH  = PE                                                                  
   EATOM  =   276.8230 eV,   20.3459 Ry                                         
                                                                                
   TITEL  = PAW_PBE S 17Jan2003                                                 
   LULTRA =        F    use ultrasoft PP ?                                      
   IUNSCR =        1    unscreen: 0-lin 1-nonlin 2-no                           
   RPACOR =    1.500    partial core radius                                     
   POMASS =   32.066; ZVAL   =    6.000    mass and valenz                      
   RCORE  =    1.900    outmost cutoff radius                                   
   RWIGS  =    2.200; RWIGS  =    1.164    wigner-seitz radius (au A)           
   ENMAX  =  280.000; ENMIN  =  194.016 eV                                      
   ICORE  =        2    local potential                                         
   LCOR   =        T    correct aug charges                                     
   LPAW   =        T    paw PP                                                  
   EAUG   =  335.092                                                            
   DEXC   =     .000                                                            
   RMAX   =    2.867    core radius for proj-oper                               
   RAUG   =    1.300    factor for augmentation sphere                          
   RDEP   =    1.954    radius for radial grids                                 
   QCUT   =   -4.360; QGAM   =    8.721    optimization parameters              
                                                                                
   Description                                                                  
     l     E      TYP  RCUT    TYP  RCUT                                        
     0   .000     23  1.900                                                     
     0   .000     23  1.900                                                     
     1   .000     23  1.900                                                     
     1   .000     23  1.900                                                     
     2   .000     23  1.900                                                     
  local pseudopotential read in
  partial core-charges read in
  atomic valenz-charges read in
  non local Contribution for L=           0  read in
    real space projection operators read in
  non local Contribution for L=           0  read in
    real space projection operators read in
  non local Contribution for L=           1  read in
    real space projection operators read in
  non local Contribution for L=           1  read in
    real space projection operators read in
    PAW grid and wavefunctions read in
 
   number of l-projection  operators is LMAX  =           4
   number of lm-projection operators is LMMAX =           8
 

 ----------------------------------------------------------------------------- 
|                                                                             |
|  ADVICE TO THIS USER RUNNING 'VASP/VAMP'   (HEAR YOUR MASTER'S VOICE ...):  |
|                                                                             |
|      You have a (more or less) 'large supercell' and for larger cells       |
|      it might be more efficient to use real space projection operators      |
|      So try LREAL= Auto  in the INCAR   file.                               |
|      Mind: If you want to do a very accurate calculations keep the          |
|      reciprocal projection scheme          (i.e. LREAL=.FALSE.)             |
|                                                                             |
 ----------------------------------------------------------------------------- 

 PAW_PBE V 08Apr2002                    :
 energy of atom  1       EATOM= -170.8679
 kinetic energy error for atom=    0.0047 (will be added to EATOM!!)
 PAW_PBE Mo 08Apr2002                   :
 energy of atom  2       EATOM= -217.5180
 kinetic energy error for atom=    0.0215 (will be added to EATOM!!)
 PAW_PBE W 08Apr2002                    :
 energy of atom  3       EATOM= -204.6100
 kinetic energy error for atom=    0.0205 (will be added to EATOM!!)
  PAW_PBE S 17Jan2003                   :
 energy of atom  4       EATOM= -276.8230
 kinetic energy error for atom=    0.0122 (will be added to EATOM!!)
 
 
 POSCAR: crystal structure from VMoWS2 with Hexag
  positions in cartesian coordinates
  No initial velocities read in
 exchange correlation table for  LEXCH =        8
   RHO(1)=    0.500       N(1)  =     2000
   RHO(2)=  100.500       N(2)  =     4000
 


--------------------------------------------------------------------------------------------------------


 ion  position               nearest neighbor table
   1  0.333  0.000  0.000-  11 2.34  20 2.34  17 2.36  16 2.36  15 2.36  14 2.36
   2  0.667  0.333  0.000-  19 2.34  22 2.34  25 2.36  24 2.36  17 2.36  16 2.36
   3  0.667  0.000  0.000-  17 2.34  26 2.34  23 2.36  22 2.36  21 2.36  20 2.36
   4  0.333  0.667  0.000-  15 2.34  18 2.34  20 2.36  21 2.36  13 2.36  12 2.36   9 3.34   6 3.34
                             5 3.34   8 3.36
   5  0.667  0.667  0.000-  21 2.34  24 2.34  27 2.36  26 2.36  19 2.36  18 2.36   6 3.34   4 3.34
                             7 3.36   9 3.36
   6  0.000  0.667  0.000-  27 2.34  12 2.34  14 2.36  15 2.36  24 2.36  25 2.36   5 3.34   7 3.34
                             8 3.34   4 3.34
   7  0.000  0.000  0.000-  23 2.34  14 2.34  11 2.36  10 2.36  27 2.36  26 2.36   6 3.34   8 3.34
                             5 3.36   9 3.36
   8  1.000  0.333  0.000-  25 2.34  10 2.34  13 2.36  12 2.36  22 2.36  23 2.36   6 3.34   7 3.34
                             9 3.34   4 3.36
   9  0.333  0.333  0.000-  13 2.34  16 2.34  19 2.36  18 2.36  11 2.36  10 2.36   4 3.34   8 3.34
                             7 3.36   5 3.36
  10  0.111  0.222  0.955-   8 2.34   7 2.36   9 2.36
  11  0.222  0.111  0.045-   1 2.34   7 2.36   9 2.36
  12  0.111  0.556  0.955-   6 2.34   8 2.36   4 2.36
  13  0.222  0.444  0.045-   9 2.34   8 2.36   4 2.36
  14  0.111  0.889  0.955-   7 2.34   6 2.36   1 2.36
  15  0.222  0.777  0.045-   4 2.34   6 2.36   1 2.36
  16  0.444  0.222  0.955-   9 2.34   1 2.36   2 2.36
  17  0.556  0.111  0.045-   3 2.34   1 2.36   2 2.36
  18  0.444  0.556  0.955-   4 2.34   9 2.36   5 2.36
  19  0.556  0.444  0.045-   2 2.34   9 2.36   5 2.36
  20  0.444  0.889  0.955-   1 2.34   4 2.36   3 2.36
  21  0.556  0.777  0.045-   5 2.34   4 2.36   3 2.36
  22  0.777  0.222  0.955-   2 2.34   3 2.36   8 2.36
  23  0.889  0.111  0.045-   7 2.34   3 2.36   8 2.36
  24  0.777  0.556  0.955-   5 2.34   2 2.36   6 2.36
  25  0.889  0.444  0.045-   8 2.34   2 2.36   6 2.36
  26  0.777  0.889  0.955-   3 2.34   5 2.36   7 2.36
  27  0.889  0.777  0.045-   6 2.34   5 2.36   7 2.36
 

IMPORTANT INFORMATION: All symmetrisations will be switched off!
NOSYMM: (Re-)initialisation of all symmetry stuff for point group C_1.

 
 
 KPOINTS: K-POINTS 	#supercell of CrS2 in hexagona

Automatic generation of k-mesh.
Space group operators:
 irot       det(A)        alpha          n_x          n_y          n_z        tau_x        tau_y        tau_z
    1     1.000000     0.000000     1.000000     0.000000     0.000000     0.000000     0.000000     0.000000
 
 Subroutine IBZKPT returns following result:
 ===========================================
 
 Found     34 irreducible k-points:
 
 Following reciprocal coordinates:
            Coordinates               Weight
  0.000000  0.000000  0.000000      1.000000
  0.125000  0.000000  0.000000      2.000000
  0.250000  0.000000  0.000000      2.000000
  0.375000  0.000000  0.000000      2.000000
  0.500000  0.000000  0.000000      1.000000
  0.000000  0.125000  0.000000      2.000000
  0.125000  0.125000  0.000000      2.000000
  0.250000  0.125000  0.000000      2.000000
  0.375000  0.125000  0.000000      2.000000
  0.500000  0.125000  0.000000      2.000000
 -0.375000  0.125000  0.000000      2.000000
 -0.250000  0.125000  0.000000      2.000000
 -0.125000  0.125000  0.000000      2.000000
  0.000000  0.250000  0.000000      2.000000
  0.125000  0.250000  0.000000      2.000000
  0.250000  0.250000  0.000000      2.000000
  0.375000  0.250000  0.000000      2.000000
  0.500000  0.250000  0.000000      2.000000
 -0.375000  0.250000  0.000000      2.000000
 -0.250000  0.250000  0.000000      2.000000
 -0.125000  0.250000  0.000000      2.000000
 -0.000000  0.375000  0.000000      2.000000
  0.125000  0.375000  0.000000      2.000000
  0.250000  0.375000  0.000000      2.000000
  0.375000  0.375000  0.000000      2.000000
  0.500000  0.375000  0.000000      2.000000
 -0.375000  0.375000  0.000000      2.000000
 -0.250000  0.375000  0.000000      2.000000
 -0.125000  0.375000  0.000000      2.000000
  0.000000  0.500000  0.000000      1.000000
  0.125000  0.500000  0.000000      2.000000
  0.250000  0.500000  0.000000      2.000000
  0.375000  0.500000  0.000000      2.000000
  0.500000  0.500000  0.000000      1.000000
 
 Following cartesian coordinates:
            Coordinates               Weight
  0.000000  0.000000  0.000000      1.000000
  0.007209  0.012401  0.000000      2.000000
  0.014418  0.024802  0.000000      2.000000
  0.021626  0.037202  0.000000      2.000000
  0.028835  0.049603  0.000000      1.000000
 -0.007209  0.012401  0.000000      2.000000
  0.000000  0.024802  0.000000      2.000000
  0.007209  0.037202  0.000000      2.000000
  0.014418  0.049603  0.000000      2.000000
  0.021626  0.062004  0.000000      2.000000
 -0.028835 -0.024802  0.000000      2.000000
 -0.021626 -0.012401  0.000000      2.000000
 -0.014418  0.000000  0.000000      2.000000
 -0.014418  0.024802  0.000000      2.000000
 -0.007209  0.037202  0.000000      2.000000
  0.000000  0.049603  0.000000      2.000000
  0.007209  0.062004  0.000000      2.000000
  0.014418  0.074405  0.000000      2.000000
 -0.036044 -0.012401  0.000000      2.000000
 -0.028835  0.000000  0.000000      2.000000
 -0.021626  0.012401  0.000000      2.000000
 -0.021626  0.037202  0.000000      2.000000
 -0.014418  0.049603  0.000000      2.000000
 -0.007209  0.062004  0.000000      2.000000
  0.000000  0.074405  0.000000      2.000000
  0.007209  0.086806  0.000000      2.000000
 -0.043253  0.000000  0.000000      2.000000
 -0.036044  0.012401  0.000000      2.000000
 -0.028835  0.024802  0.000000      2.000000
 -0.028835  0.049603  0.000000      1.000000
 -0.021626  0.062004  0.000000      2.000000
 -0.014418  0.074405  0.000000      2.000000
 -0.007209  0.086806  0.000000      2.000000
  0.000000  0.099206  0.000000      1.000000
 


--------------------------------------------------------------------------------------------------------




 Dimension of arrays:
   k-points           NKPTS =     34   k-points in BZ     NKDIM =     34   number of bands    NBANDS=    120
   number of dos      NEDOS =    301   number of ions     NIONS =     27
   non local maximal  LDIM  =      6   non local SUM 2l+1 LMDIM =     18
   total plane-waves  NPLWV = 222264
   max r-space proj   IRMAX =      1   max aug-charges    IRDMAX=   5642
   dimension x,y,z NGX =    42 NGY =   42 NGZ =  126
   dimension x,y,z NGXF=    84 NGYF=   84 NGZF=  252
   support grid    NGXF=    84 NGYF=   84 NGZF=  252
   ions per type =               3   3   3  18
 NGX,Y,Z   is equivalent  to a cutoff of   6.96,  6.96,  6.98 a.u.
 NGXF,Y,Z  is equivalent  to a cutoff of  13.92, 13.92, 13.96 a.u.


 I would recommend the setting:
   dimension x,y,z NGX =    41 NGY =   41 NGZ =  123
 SYSTEM =  unknown system                          
 POSCAR =  crystal structure from VMoWS2 with Hexag

 Startparameter for this run:
   NWRITE =      2    write-flag & timer
   PREC   = normal    normal or accurate (medium, high low for compatibility)
   ISTART =      0    job   : 0-new  1-cont  2-samecut
   ICHARG =      2    charge: 1-file 2-atom 10-const
   ISPIN  =      1    spin polarized calculation?
   LNONCOLLINEAR =      F non collinear calculations
   LSORBIT =      F    spin-orbit coupling
   INIWAV =      1    electr: 0-lowe 1-rand  2-diag
   LASPH  =      F    aspherical Exc in radial PAW
   METAGGA=      F    non-selfconsistent MetaGGA calc.

 Electronic Relaxation 1
   ENCUT  =  280.0 eV  20.58 Ry    4.54 a.u.  13.68 13.68 40.93*2*pi/ulx,y,z
   ENINI  =  280.0     initial cutoff
   ENAUG  =  373.4 eV  augmentation charge cutoff
   NELM   =     60;   NELMIN=  2; NELMDL= -5     # of ELM steps 
   EDIFF  = 0.1E-03   stopping-criterion for ELM
   LREAL  =      F    real-space projection
   NLSPLINE    = F    spline interpolate recip. space projectors
   LCOMPAT=      F    compatible to vasp.4.4
   GGA_COMPAT  = T    GGA compatible to vasp.4.4-vasp.4.6
   LMAXPAW     = -100 max onsite density
   LMAXMIX     =    2 max onsite mixed and CHGCAR
   VOSKOWN=      0    Vosko Wilk Nusair interpolation
   ROPT   =    0.00000   0.00000   0.00000   0.00000
 Ionic relaxation
   EDIFFG = 0.1E-02   stopping-criterion for IOM
   NSW    =    100    number of steps for IOM
   NBLOCK =      1;   KBLOCK =    100    inner block; outer block 
   IBRION =      1    ionic relax: 0-MD 1-quasi-New 2-CG
   NFREE  =      0    steps in history (QN), initial steepest desc. (CG)
   ISIF   =      3    stress and relaxation
   IWAVPR =     11    prediction:  0-non 1-charg 2-wave 3-comb
   ISYM   =      0    0-nonsym 1-usesym 2-fastsym
   LCORR  =      T    Harris-Foulkes like correction to forces

   POTIM  = 0.5000    time-step for ionic-motion
   TEIN   =    0.0    initial temperature
   TEBEG  =    0.0;   TEEND  =   0.0 temperature during run
   SMASS  =  -3.00    Nose mass-parameter (am)
   estimated Nose-frequenzy (Omega)   =  0.10E-29 period in steps =****** mass=  -0.230E-26a.u.
   SCALEE = 1.0000    scale energy and forces
   NPACO  =    256;   APACO  = 16.0  distance and # of slots for P.C.
   PSTRESS=    0.0 pullay stress

  Mass of Ions in am
   POMASS =  50.94 95.94183.85 32.07
  Ionic Valenz
   ZVAL   =   5.00  6.00  6.00  6.00
  Atomic Wigner-Seitz radii
   RWIGS  =  -1.00 -1.00 -1.00 -1.00
  virtual crystal weights 
   VCA    =   1.00  1.00  1.00  1.00
   NELECT =     159.0000    total number of electrons
   NUPDOWN=      -1.0000    fix difference up-down

 DOS related values:
   EMIN   =  10.00;   EMAX   =-10.00  energy-range for DOS
   EFERMI =   0.00
   ISMEAR =     0;   SIGMA  =   0.20  broadening in eV -4-tet -1-fermi 0-gaus

 Electronic relaxation 2 (details)
   IALGO  =     38    algorithm
   LDIAG  =      T    sub-space diagonalisation (order eigenvalues)
   LSUBROT=      F    optimize rotation matrix (better conditioning)
   TURBO    =      0    0=normal 1=particle mesh
   IRESTART =      0    0=no restart 2=restart with 2 vectors
   NREBOOT  =      0    no. of reboots
   NMIN     =      0    reboot dimension
   EREF     =   0.00    reference energy to select bands
   IMIX   =      4    mixing-type and parameters
     AMIX     =   0.40;   BMIX     =  1.00
     AMIX_MAG =   1.60;   BMIX_MAG =  1.00
     AMIN     =   0.10
     WC   =   100.;   INIMIX=   1;  MIXPRE=   1;  MAXMIX= -45

 Intra band minimization:
   WEIMIN = 0.0010     energy-eigenvalue tresh-hold
   EBREAK =  0.21E-06  absolut break condition
   DEPER  =   0.30     relativ break condition  

   TIME   =   0.40     timestep for ELM

  volume/ion in A,a.u.               =      97.10       655.29
  Fermi-wavevector in a.u.,A,eV,Ry     =   0.643191  1.215456  5.628665  0.413695
  Thomas-Fermi vector in A             =   1.710110
 
 Write flags
   LWAVE  =      F    write WAVECAR
   LCHARG =      F    write CHGCAR
   LVTOT  =      F    write LOCPOT, total local potential
   LVHAR  =      F    write LOCPOT, Hartree potential only
   LELF   =      F    write electronic localiz. function (ELF)
   LORBIT =      0    0 simple, 1 ext, 2 COOP (PROOUT)


 Dipole corrections
   LMONO  =      F    monopole corrections only (constant potential shift)
   LDIPOL =      F    correct potential (dipole corrections)
   IDIPOL =      0    1-x, 2-y, 3-z, 4-all directions 
   EPSILON=  1.0000000 bulk dielectric constant

 Exchange correlation treatment:
   GGA     =    --    GGA type
   LEXCH   =     8    internal setting for exchange type
   VOSKOWN=      0    Vosko Wilk Nusair interpolation
   LHFCALC =     F    Hartree Fock is set to
   LHFONE  =     F    Hartree Fock one center treatment
   AEXX    =    0.0000 exact exchange contribution

 Linear response parameters
   LEPSILON=     F    determine dielectric tensor
   LRPA    =     F    only Hartree local field effects (RPA)
   LNABLA  =     F    use nabla operator in PAW spheres
   LVEL    =     F    velocity operator in full k-point grid
   LINTERFAST=   F  fast interpolation
   KINTER  =     0    interpolate to denser k-point grid
   CSHIFT  =0.1000    complex shift for real part using Kramers Kronig
   OMEGAMAX=  -1.0    maximum frequency
   DEG_THRESHOLD= 0.2000000E-02 threshold for treating states as degnerate
   RTIME   =    0.100 relaxation time in fs

 Orbital magnetization related:
   ORBITALMAG=     F  switch on orbital magnetization
   LCHIMAG   =     F  perturbation theory with respect to B field
   DQ        =  0.001000  dq finite difference perturbation B field



--------------------------------------------------------------------------------------------------------


 quasi-Newton-method for relaxation of ions
 charge density and potential will be updated during run
 non-spin polarized calculation
 Variant of blocked Davidson
 Davidson routine will perform the subspace rotation
 perform sub-space diagonalisation
    after iterative eigenvector-optimisation
 modified Broyden-mixing scheme, WC =      100.0
 initial mixing is a Kerker type mixing with AMIX =  0.4000 and BMIX =      1.0000
 Hartree-type preconditioning will be used
 using additional bands           40
 reciprocal scheme for non local part
 use partial core corrections
 calculate Harris-corrections to forces 
   (improved forces if not selfconsistent)
 use gradient corrections 
 use of overlap-Matrix (Vanderbilt PP)
 Gauss-broadening in eV      SIGMA  =   0.20


--------------------------------------------------------------------------------------------------------


  energy-cutoff  :      280.00
  volume of cell :     2621.81
      direct lattice vectors                 reciprocal lattice vectors
     8.669999960  5.039999894  0.000000000     0.057670129  0.099206348  0.000000000
    -8.669999821  5.040000133  0.000000000    -0.057670126  0.099206350  0.000000000
     0.000000000  0.000000000 30.000000000     0.000000000  0.000000000  0.033333333

  length of vectors
    10.028484344 10.028484344 30.000000000     0.114750788  0.114750788  0.033333333


 
 k-points in units of 2pi/SCALE and weight: K-POINTS 	#supercell of CrS2 in hexagona
   0.00000000  0.00000000  0.00000000       0.016
   0.00720877  0.01240079  0.00000000       0.031
   0.01441753  0.02480159  0.00000000       0.031
   0.02162630  0.03720238  0.00000000       0.031
   0.02883506  0.04960317  0.00000000       0.016
  -0.00720877  0.01240079  0.00000000       0.031
   0.00000000  0.02480159  0.00000000       0.031
   0.00720877  0.03720238  0.00000000       0.031
   0.01441753  0.04960317  0.00000000       0.031
   0.02162630  0.06200397  0.00000000       0.031
  -0.02883506 -0.02480159  0.00000000       0.031
  -0.02162630 -0.01240079  0.00000000       0.031
  -0.01441753  0.00000000  0.00000000       0.031
  -0.01441753  0.02480159  0.00000000       0.031
  -0.00720877  0.03720238  0.00000000       0.031
   0.00000000  0.04960317  0.00000000       0.031
   0.00720877  0.06200397  0.00000000       0.031
   0.01441753  0.07440476  0.00000000       0.031
  -0.03604383 -0.01240079  0.00000000       0.031
  -0.02883506  0.00000000  0.00000000       0.031
  -0.02162630  0.01240079  0.00000000       0.031
  -0.02162630  0.03720238  0.00000000       0.031
  -0.01441753  0.04960317  0.00000000       0.031
  -0.00720877  0.06200397  0.00000000       0.031
   0.00000000  0.07440476  0.00000000       0.031
   0.00720877  0.08680556  0.00000000       0.031
  -0.04325260  0.00000000  0.00000000       0.031
  -0.03604383  0.01240079  0.00000000       0.031
  -0.02883506  0.02480159  0.00000000       0.031
  -0.02883506  0.04960317  0.00000000       0.016
  -0.02162630  0.06200397  0.00000000       0.031
  -0.01441753  0.07440476  0.00000000       0.031
  -0.00720876  0.08680556  0.00000000       0.031
   0.00000000  0.09920635  0.00000000       0.016
 
 k-points in reciprocal lattice and weights: K-POINTS 	#supercell of CrS2 in hexagona
   0.00000000  0.00000000  0.00000000       0.016
   0.12500000  0.00000000  0.00000000       0.031
   0.25000000  0.00000000  0.00000000       0.031
   0.37500000  0.00000000  0.00000000       0.031
   0.50000000  0.00000000  0.00000000       0.016
   0.00000000  0.12500000  0.00000000       0.031
   0.12500000  0.12500000  0.00000000       0.031
   0.25000000  0.12500000  0.00000000       0.031
   0.37500000  0.12500000  0.00000000       0.031
   0.50000000  0.12500000  0.00000000       0.031
  -0.37500000  0.12500000  0.00000000       0.031
  -0.25000000  0.12500000  0.00000000       0.031
  -0.12500000  0.12500000  0.00000000       0.031
   0.00000000  0.25000000  0.00000000       0.031
   0.12500000  0.25000000  0.00000000       0.031
   0.25000000  0.25000000  0.00000000       0.031
   0.37500000  0.25000000  0.00000000       0.031
   0.50000000  0.25000000  0.00000000       0.031
  -0.37500000  0.25000000  0.00000000       0.031
  -0.25000000  0.25000000  0.00000000       0.031
  -0.12500000  0.25000000  0.00000000       0.031
  -0.00000000  0.37500000  0.00000000       0.031
   0.12500000  0.37500000  0.00000000       0.031
   0.25000000  0.37500000  0.00000000       0.031
   0.37500000  0.37500000  0.00000000       0.031
   0.50000000  0.37500000  0.00000000       0.031
  -0.37500000  0.37500000  0.00000000       0.031
  -0.25000000  0.37500000  0.00000000       0.031
  -0.12500000  0.37500000  0.00000000       0.031
   0.00000000  0.50000000  0.00000000       0.016
   0.12500000  0.50000000  0.00000000       0.031
   0.25000000  0.50000000  0.00000000       0.031
   0.37500000  0.50000000  0.00000000       0.031
   0.50000000  0.50000000  0.00000000       0.016
 
 position of ions in fractional coordinates (direct lattice) 
   0.33333334  0.00000000  0.00000000
   0.66666669  0.33333334  0.00000000
   0.66666669  0.00000000  0.00000000
   0.33333334  0.66666669  0.00000000
   0.66666669  0.66666669  0.00000000
   0.00000000  0.66666669  0.00000000
   0.00000000  0.00000000  0.00000000
   1.00000000  0.33333334  0.00000000
   0.33333334  0.33333334  0.00000000
   0.11068511  0.22244981  0.95539999
   0.22244981  0.11068511  0.04460000
   0.11068511  0.55578315  0.95539999
   0.22244981  0.44401845  0.04460000
   0.11068511  0.88911647  0.95539999
   0.22244981  0.77735180  0.04460000
   0.44401845  0.22244981  0.95539999
   0.55578315  0.11068511  0.04460000
   0.44401845  0.55578315  0.95539999
   0.55578315  0.44401845  0.04460000
   0.44401845  0.88911647  0.95539999
   0.55578315  0.77735180  0.04460000
   0.77735180  0.22244981  0.95539999
   0.88911647  0.11068511  0.04460000
   0.77735180  0.55578315  0.95539999
   0.88911647  0.44401845  0.04460000
   0.77735180  0.88911647  0.95539999
   0.88911647  0.77735180  0.04460000
 
 position of ions in cartesian coordinates  (Angst):
   2.89000007  1.68000002  0.00000000
   2.89000012  5.04000012  0.00000000
   5.78000015  3.36000003  0.00000000
  -2.88999998  5.04000020  0.00000000
   0.00000009  6.72000022  0.00000000
  -5.78000005  3.36000019  0.00000000
   0.00000000  0.00000000  0.00000000
   5.77999993  6.71999999  0.00000000
   0.00000005  3.36000011  0.00000000
  -0.96899991  1.67900001 28.66199970
   0.96899995  1.67899998  1.33799996
  -3.85899993  3.35900011 28.66199970
  -1.92100007  3.35900008  1.33799996
  -6.74899970  5.03900005 28.66199970
  -4.81100010  5.03900017  1.33799996
   1.92100017  3.35900003 28.66199970
   3.85900003  3.35900000  1.33799996
  -0.96899986  5.03900012 28.66199970
   0.96900000  5.03900009  1.33799996
  -3.85899963  6.71900006 28.66199970
  -1.92100003  6.71900019  1.33799996
   4.81100024  5.03900004 28.66199970
   6.74899984  5.03899987  1.33799996
   1.92100021  6.71900014 28.66199970
   3.85899981  6.71899996  1.33799996
  -0.96899956  8.39900008 28.66199970
   0.96899979  8.39900005  1.33799996
 


--------------------------------------------------------------------------------------------------------


 k-point  1 :   0.0000 0.0000 0.0000  plane waves:   27959
 k-point  2 :   0.1250 0.0000 0.0000  plane waves:   27889
 k-point  3 :   0.2500 0.0000 0.0000  plane waves:   27875
 k-point  4 :   0.3750 0.0000 0.0000  plane waves:   27893
 k-point  5 :   0.5000 0.0000 0.0000  plane waves:   27932
 k-point  6 :   0.0000 0.1250 0.0000  plane waves:   27889
 k-point  7 :   0.1250 0.1250 0.0000  plane waves:   27906
 k-point  8 :   0.2500 0.1250 0.0000  plane waves:   27898
 k-point  9 :   0.3750 0.1250 0.0000  plane waves:   27888
 k-point 10 :   0.5000 0.1250 0.0000  plane waves:   27873
 k-point 11 :  -0.3750 0.1250 0.0000  plane waves:   27874
 k-point 12 :  -0.2500 0.1250 0.0000  plane waves:   27895
 k-point 13 :  -0.1250 0.1250 0.0000  plane waves:   27879
 k-point 14 :   0.0000 0.2500 0.0000  plane waves:   27875
 k-point 15 :   0.1250 0.2500 0.0000  plane waves:   27898
 k-point 16 :   0.2500 0.2500 0.0000  plane waves:   27920
 k-point 17 :   0.3750 0.2500 0.0000  plane waves:   27901
 k-point 18 :   0.5000 0.2500 0.0000  plane waves:   27875
 k-point 19 :  -0.3750 0.2500 0.0000  plane waves:   27894
 k-point 20 :  -0.2500 0.2500 0.0000  plane waves:   27870
 k-point 21 :  -0.1250 0.2500 0.0000  plane waves:   27895
 k-point 22 :  -0.0000 0.3750 0.0000  plane waves:   27893
 k-point 23 :   0.1250 0.3750 0.0000  plane waves:   27888
 k-point 24 :   0.2500 0.3750 0.0000  plane waves:   27901
 k-point 25 :   0.3750 0.3750 0.0000  plane waves:   27860
 k-point 26 :   0.5000 0.3750 0.0000  plane waves:   27895
 k-point 27 :  -0.3750 0.3750 0.0000  plane waves:   27858
 k-point 28 :  -0.2500 0.3750 0.0000  plane waves:   27894
 k-point 29 :  -0.1250 0.3750 0.0000  plane waves:   27874
 k-point 30 :   0.0000 0.5000 0.0000  plane waves:   27932
 k-point 31 :   0.1250 0.5000 0.0000  plane waves:   27873
 k-point 32 :   0.2500 0.5000 0.0000  plane waves:   27875
 k-point 33 :   0.3750 0.5000 0.0000  plane waves:   27895
 k-point 34 :   0.5000 0.5000 0.0000  plane waves:   27910

 maximum and minimum number of plane-waves per node :     27959    27858

 maximum number of plane-waves:     27959
 maximum index in each direction: 
   IXMAX=   14   IYMAX=   13   IZMAX=   40
   IXMIN=  -14   IYMIN=  -14   IZMIN=  -40

 WARNING: aliasing errors must be expected set NGX to  58 to avoid them
 WARNING: aliasing errors must be expected set NGY to  56 to avoid them
 WARNING: aliasing errors must be expected set NGZ to 162 to avoid them
 aliasing errors are usually negligible using standard VASP settings
 and one can safely disregard these warnings

 serial   3D FFT for wavefunctions

 total amount of memory used by VASP on root node   650782. kBytes
========================================================================

   base      :      30000. kBytes
   nonl-proj :     559647. kBytes
   fftplans  :       2414. kBytes
   grid      :      12150. kBytes
   one-center:        419. kBytes
   wavefun   :      46152. kBytes
 
     INWAV:  cpu time    0.0000: real time    0.0000
 Broyden mixing: mesh for mixing (old mesh)
   NGX = 27   NGY = 27   NGZ = 81
  (NGX  = 84   NGY  = 84   NGZ  =252)
  gives a total of  59049 points

 initial charge density was supplied:
 charge density of overlapping atoms calculated
 number of electron     159.0000000 magnetization 
 keeping initial charge density in first step


--------------------------------------------------------------------------------------------------------


 Maximum index for augmentation-charges          139 (set IRDMAX)


--------------------------------------------------------------------------------------------------------


 First call to EWALD:  gamma=   0.129
 Maximum number of real-space cells 4x 4x 2
 Maximum number of reciprocal cells 2x 2x 5

 FEWALD executed in parallel
    FEWALD:  cpu time    0.0015: real time    0.0016


----------------------------------------- Iteration    1(   1)  ---------------------------------------


    POTLOK:  cpu time    0.0371: real time    0.0375
    SETDIJ:  cpu time    0.0032: real time    0.0033
     EDDAV:  cpu time   21.8359: real time   21.8902
       DOS:  cpu time    0.0013: real time    0.0014
    --------------------------------------------
      LOOP:  cpu time   21.8822: real time   21.9383

 eigenvalue-minimisations  :  8160
 total energy-change (2. order) : 0.1124162E+04  (-0.3586998E+04)
 number of electron     159.0000000 magnetization 
 augmentation part      159.0000000 magnetization 

 Free energy of the ion-electron system (eV)
  ---------------------------------------------------
  alpha Z        PSCENC =        81.65567618
  Ewald energy   TEWEN  =     41891.17178071
  -Hartree energ DENC   =    -47723.81767867
  -exchange      EXHF   =         0.00000000
  -V(xc)+E(xc)   XCENC  =      -242.92468737
  PAW double counting   =      3467.42045192    -2871.19716117
  entropy T*S    EENTRO =        -0.53496198
  eigenvalues    EBANDS =      -239.05406359
  atomic energy  EATOM  =      6761.44252427
  Solvation  Ediel_sol  =         0.00000000
  ---------------------------------------------------
  free energy    TOTEN  =      1124.16188030 eV

  energy without entropy =     1124.69684228  energy(sigma->0) =     1124.42936129


--------------------------------------------------------------------------------------------------------




----------------------------------------- Iteration    1(   2)  ---------------------------------------


     EDDAV:  cpu time   28.0711: real time   28.1388
       DOS:  cpu time    0.0011: real time    0.0011
    --------------------------------------------
      LOOP:  cpu time   28.0733: real time   28.1490

 eigenvalue-minimisations  : 11120
 total energy-change (2. order) :-0.1124913E+04  (-0.1081919E+04)
 number of electron     159.0000000 magnetization 
 augmentation part      159.0000000 magnetization 

 Free energy of the ion-electron system (eV)
  ---------------------------------------------------
  alpha Z        PSCENC =        81.65567618
  Ewald energy   TEWEN  =     41891.17178071
  -Hartree energ DENC   =    -47723.81767867
  -exchange      EXHF   =         0.00000000
  -V(xc)+E(xc)   XCENC  =      -242.92468737
  PAW double counting   =      3467.42045192    -2871.19716117
  entropy T*S    EENTRO =        -0.19884902
  eigenvalues    EBANDS =     -1364.30325314
  atomic energy  EATOM  =      6761.44252427
  Solvation  Ediel_sol  =         0.00000000
  ---------------------------------------------------
  free energy    TOTEN  =        -0.75119630 eV

  energy without entropy =       -0.55234728  energy(sigma->0) =       -0.65177179


--------------------------------------------------------------------------------------------------------




----------------------------------------- Iteration    1(   3)  ---------------------------------------


     EDDAV:  cpu time   27.7323: real time   27.7990
       DOS:  cpu time    0.0010: real time    0.0010
    --------------------------------------------
      LOOP:  cpu time   27.7342: real time   27.8070

 eigenvalue-minimisations  : 10920
 total energy-change (2. order) :-0.1990082E+03  (-0.1908090E+03)
 number of electron     159.0000000 magnetization 
 augmentation part      159.0000000 magnetization 

 Free energy of the ion-electron system (eV)
  ---------------------------------------------------
  alpha Z        PSCENC =        81.65567618
  Ewald energy   TEWEN  =     41891.17178071
  -Hartree energ DENC   =    -47723.81767867
  -exchange      EXHF   =         0.00000000
  -V(xc)+E(xc)   XCENC  =      -242.92468737
  PAW double counting   =      3467.42045192    -2871.19716117
  entropy T*S    EENTRO =        -0.25599347
  eigenvalues    EBANDS =     -1563.25433964
  atomic energy  EATOM  =      6761.44252427
  Solvation  Ediel_sol  =         0.00000000
  ---------------------------------------------------
  free energy    TOTEN  =      -199.75942724 eV

  energy without entropy =     -199.50343377  energy(sigma->0) =     -199.63143051


--------------------------------------------------------------------------------------------------------




----------------------------------------- Iteration    1(   4)  ---------------------------------------


     EDDAV:  cpu time   30.3621: real time   30.4348
       DOS:  cpu time    0.0010: real time    0.0010
    --------------------------------------------
      LOOP:  cpu time   30.3641: real time   30.4436

 eigenvalue-minimisations  : 12200
 total energy-change (2. order) :-0.9243682E+01  (-0.8982463E+01)
 number of electron     159.0000000 magnetization 
 augmentation part      159.0000000 magnetization 

 Free energy of the ion-electron system (eV)
  ---------------------------------------------------
  alpha Z        PSCENC =        81.65567618
  Ewald energy   TEWEN  =     41891.17178071
  -Hartree energ DENC   =    -47723.81767867
  -exchange      EXHF   =         0.00000000
  -V(xc)+E(xc)   XCENC  =      -242.92468737
  PAW double counting   =      3467.42045192    -2871.19716117
  entropy T*S    EENTRO =        -0.29077073
  eigenvalues    EBANDS =     -1572.46324390
  atomic energy  EATOM  =      6761.44252427
  Solvation  Ediel_sol  =         0.00000000
  ---------------------------------------------------
  free energy    TOTEN  =      -209.00310876 eV

  energy without entropy =     -208.71233803  energy(sigma->0) =     -208.85772340


--------------------------------------------------------------------------------------------------------




----------------------------------------- Iteration    1(   5)  ---------------------------------------


     EDDAV:  cpu time   28.0277: real time   28.0952
       DOS:  cpu time    0.0002: real time    0.0010
    CHARGE:  cpu time    0.4700: real time    0.4711
    MIXING:  cpu time    0.0020: real time    0.0022
    --------------------------------------------
      LOOP:  cpu time   28.5016: real time   28.5773

 eigenvalue-minimisations  : 11120
 total energy-change (2. order) :-0.3009083E+00  (-0.3000557E+00)
 number of electron     159.0000110 magnetization 
 augmentation part       -9.8025800 magnetization 

 Broyden mixing:
  rms(total) = 0.27508E+01    rms(broyden)= 0.27503E+01
  rms(prec ) = 0.29366E+01
  weight for this iteration     100.00

 Free energy of the ion-electron system (eV)
  ---------------------------------------------------
  alpha Z        PSCENC =        81.65567618
  Ewald energy   TEWEN  =     41891.17178071
  -Hartree energ DENC   =    -47723.81767867
  -exchange      EXHF   =         0.00000000
  -V(xc)+E(xc)   XCENC  =      -242.92468737
  PAW double counting   =      3467.42045192    -2871.19716117
  entropy T*S    EENTRO =        -0.28806538
  eigenvalues    EBANDS =     -1572.76685756
  atomic energy  EATOM  =      6761.44252427
  Solvation  Ediel_sol  =         0.00000000
  ---------------------------------------------------
  free energy    TOTEN  =      -209.30401708 eV

  energy without entropy =     -209.01595169  energy(sigma->0) =     -209.15998439


--------------------------------------------------------------------------------------------------------




----------------------------------------- Iteration    1(   6)  ---------------------------------------


    POTLOK:  cpu time    0.0335: real time    0.0338
    SETDIJ:  cpu time    0.0026: real time    0.0026
     EDDAV:  cpu time   31.0079: real time   31.0825
       DOS:  cpu time    0.0010: real time    0.0010
    CHARGE:  cpu time    0.4641: real time    0.4652
    MIXING:  cpu time    0.0020: real time    0.0018
    --------------------------------------------
      LOOP:  cpu time   31.5123: real time   31.5958

 eigenvalue-minimisations  : 12600
 total energy-change (2. order) :-0.2855752E+02  (-0.1080079E+02)
 number of electron     159.0000107 magnetization 
 augmentation part        7.0795809 magnetization 

 Broyden mixing:
  rms(total) = 0.59491E+01    rms(broyden)= 0.59484E+01
  rms(prec ) = 0.65603E+01
  weight for this iteration     100.00

 eigenvalues of (default mixing * dielectric matrix)
  average eigenvalue GAMMA=   0.2937
  0.2937

 Free energy of the ion-electron system (eV)
  ---------------------------------------------------
  alpha Z        PSCENC =        81.65567618
  Ewald energy   TEWEN  =     41891.17178071
  -Hartree energ DENC   =    -47702.18397492
  -exchange      EXHF   =         0.00000000
  -V(xc)+E(xc)   XCENC  =      -233.61861196
  PAW double counting   =      3676.52773209    -3082.61878624
  entropy T*S    EENTRO =        -0.25236549
  eigenvalues    EBANDS =     -1629.98551289
  atomic energy  EATOM  =      6761.44252427
  Solvation  Ediel_sol  =         0.00000000
  ---------------------------------------------------
  free energy    TOTEN  =      -237.86153825 eV

  energy without entropy =     -237.60917276  energy(sigma->0) =     -237.73535551


--------------------------------------------------------------------------------------------------------




----------------------------------------- Iteration    1(   7)  ---------------------------------------


    POTLOK:  cpu time    0.0320: real time    0.0321
    SETDIJ:  cpu time    0.0024: real time    0.0024
     EDDAV:  cpu time   32.6926: real time   32.7711
       DOS:  cpu time    0.0011: real time    0.0011
    CHARGE:  cpu time    0.4720: real time    0.4731
    MIXING:  cpu time    0.0012: real time    0.0012
    --------------------------------------------
      LOOP:  cpu time   33.2025: real time   33.2904

 eigenvalue-minimisations  : 13360
 total energy-change (2. order) : 0.4129359E+02  (-0.1752310E+02)
 number of electron     159.0000088 magnetization 
 augmentation part       -6.2628499 magnetization 

 Broyden mixing:
  rms(total) = 0.20020E+01    rms(broyden)= 0.20000E+01
  rms(prec ) = 0.22236E+01
  weight for this iteration     100.00

 eigenvalues of (default mixing * dielectric matrix)
  average eigenvalue GAMMA=   0.5522
  0.8932  0.2112

 Free energy of the ion-electron system (eV)
  ---------------------------------------------------
  alpha Z        PSCENC =        81.65567618
  Ewald energy   TEWEN  =     41891.17178071
  -Hartree energ DENC   =    -47739.17889433
  -exchange      EXHF   =         0.00000000
  -V(xc)+E(xc)   XCENC  =      -234.98964056
  PAW double counting   =      3763.79350150    -3177.82796588
  entropy T*S    EENTRO =        -0.35579597
  eigenvalues    EBANDS =     -1542.27913800
  atomic energy  EATOM  =      6761.44252427
  Solvation  Ediel_sol  =         0.00000000
  ---------------------------------------------------
  free energy    TOTEN  =      -196.56795208 eV

  energy without entropy =     -196.21215611  energy(sigma->0) =     -196.39005410


--------------------------------------------------------------------------------------------------------




----------------------------------------- Iteration    1(   8)  ---------------------------------------


    POTLOK:  cpu time    0.0300: real time    0.0303
    SETDIJ:  cpu time    0.0024: real time    0.0024
     EDDAV:  cpu time   30.0112: real time   30.0829
       DOS:  cpu time    0.0011: real time    0.0011
    CHARGE:  cpu time    0.4797: real time    0.4809
    MIXING:  cpu time    0.0012: real time    0.0012
    --------------------------------------------
      LOOP:  cpu time   30.5269: real time   30.6078

 eigenvalue-minimisations  : 12040
 total energy-change (2. order) : 0.7095912E+01  (-0.1764918E+01)
 number of electron     159.0000095 magnetization 
 augmentation part       -6.3738174 magnetization 

 Broyden mixing:
  rms(total) = 0.12524E+01    rms(broyden)= 0.12522E+01
  rms(prec ) = 0.13529E+01
  weight for this iteration     100.00

 eigenvalues of (default mixing * dielectric matrix)
  average eigenvalue GAMMA=   0.5863
  1.1359  0.2311  0.3920

 Free energy of the ion-electron system (eV)
  ---------------------------------------------------
  alpha Z        PSCENC =        81.65567618
  Ewald energy   TEWEN  =     41891.17178071
  -Hartree energ DENC   =    -47762.29929234
  -exchange      EXHF   =         0.00000000
  -V(xc)+E(xc)   XCENC  =      -235.00439908
  PAW double counting   =      3907.17194041    -3322.83826805
  entropy T*S    EENTRO =        -0.31148587
  eigenvalues    EBANDS =     -1510.46051597
  atomic energy  EATOM  =      6761.44252427
  Solvation  Ediel_sol  =         0.00000000
  ---------------------------------------------------
  free energy    TOTEN  =      -189.47203974 eV

  energy without entropy =     -189.16055387  energy(sigma->0) =     -189.31629680


--------------------------------------------------------------------------------------------------------




----------------------------------------- Iteration    1(   9)  ---------------------------------------


    POTLOK:  cpu time    0.0297: real time    0.0299
    SETDIJ:  cpu time    0.0023: real time    0.0023
     EDDAV:  cpu time   33.0477: real time   33.1272
       DOS:  cpu time    0.0012: real time    0.0012
    CHARGE:  cpu time    0.4887: real time    0.4898
    MIXING:  cpu time    0.0012: real time    0.0012
    --------------------------------------------
      LOOP:  cpu time   33.5719: real time   33.6605

 eigenvalue-minimisations  : 13520
 total energy-change (2. order) : 0.1344557E+01  (-0.3033931E+00)
 number of electron     159.0000091 magnetization 
 augmentation part       -5.5496426 magnetization 

 Broyden mixing:
  rms(total) = 0.91158E+00    rms(broyden)= 0.91135E+00
  rms(prec ) = 0.98887E+00
  weight for this iteration     100.00

 eigenvalues of (default mixing * dielectric matrix)
  average eigenvalue GAMMA=   0.7415
  1.8138  0.6218  0.2201  0.3103

 Free energy of the ion-electron system (eV)
  ---------------------------------------------------
  alpha Z        PSCENC =        81.65567618
  Ewald energy   TEWEN  =     41891.17178071
  -Hartree energ DENC   =    -47766.96170642
  -exchange      EXHF   =         0.00000000
  -V(xc)+E(xc)   XCENC  =      -234.10908753
  PAW double counting   =      3977.27402189    -3393.81308414
  entropy T*S    EENTRO =        -0.32117709
  eigenvalues    EBANDS =     -1504.46643066
  atomic energy  EATOM  =      6761.44252427
  Solvation  Ediel_sol  =         0.00000000
  ---------------------------------------------------
  free energy    TOTEN  =      -188.12748279 eV

  energy without entropy =     -187.80630570  energy(sigma->0) =     -187.96689424


--------------------------------------------------------------------------------------------------------




----------------------------------------- Iteration    1(  10)  ---------------------------------------


    POTLOK:  cpu time    0.0326: real time    0.0329
    SETDIJ:  cpu time    0.0024: real time    0.0024
     EDDAV:  cpu time   32.6989: real time   32.7778
       DOS:  cpu time    0.0011: real time    0.0011
    CHARGE:  cpu time    0.5021: real time    0.5033
    MIXING:  cpu time    0.0013: real time    0.0013
    --------------------------------------------
      LOOP:  cpu time   33.2397: real time   33.3283

 eigenvalue-minimisations  : 13360
 total energy-change (2. order) : 0.1191300E+01  (-0.1727417E+00)
 number of electron     159.0000092 magnetization 
 augmentation part       -4.2537584 magnetization 

 Broyden mixing:
  rms(total) = 0.21529E+00    rms(broyden)= 0.21471E+00
  rms(prec ) = 0.22723E+00
  weight for this iteration     100.00

 eigenvalues of (default mixing * dielectric matrix)
  average eigenvalue GAMMA=   0.8375
  1.8544  1.1826  0.6413  0.2205  0.2889

 Free energy of the ion-electron system (eV)
  ---------------------------------------------------
  alpha Z        PSCENC =        81.65567618
  Ewald energy   TEWEN  =     41891.17178071
  -Hartree energ DENC   =    -47780.19489873
  -exchange      EXHF   =         0.00000000
  -V(xc)+E(xc)   XCENC  =      -232.57247632
  PAW double counting   =      4105.50522234    -3523.64941368
  entropy T*S    EENTRO =        -0.35108417
  eigenvalues    EBANDS =     -1489.94351330
  atomic energy  EATOM  =      6761.44252427
  Solvation  Ediel_sol  =         0.00000000
  ---------------------------------------------------
  free energy    TOTEN  =      -186.93618270 eV

  energy without entropy =     -186.58509853  energy(sigma->0) =     -186.76064062


--------------------------------------------------------------------------------------------------------




----------------------------------------- Iteration    1(  11)  ---------------------------------------


    POTLOK:  cpu time    0.0305: real time    0.0305
    SETDIJ:  cpu time    0.0023: real time    0.0023
     EDDAV:  cpu time   33.0391: real time   33.1180
       DOS:  cpu time    0.0010: real time    0.0010
    CHARGE:  cpu time    0.5034: real time    0.5046
    MIXING:  cpu time    0.0013: real time    0.0013
    --------------------------------------------
      LOOP:  cpu time   33.5786: real time   33.6665

 eigenvalue-minimisations  : 13520
 total energy-change (2. order) :-0.9055792E-01  (-0.5938146E-01)
 number of electron     159.0000090 magnetization 
 augmentation part       -4.4460217 magnetization 

 Broyden mixing:
  rms(total) = 0.37317E+00    rms(broyden)= 0.37294E+00
  rms(prec ) = 0.41290E+00
  weight for this iteration     100.00

 eigenvalues of (default mixing * dielectric matrix)
  average eigenvalue GAMMA=   0.8517
  1.8566  1.8566  0.6390  0.2184  0.2848  0.2549

 Free energy of the ion-electron system (eV)
  ---------------------------------------------------
  alpha Z        PSCENC =        81.65567618
  Ewald energy   TEWEN  =     41891.17178071
  -Hartree energ DENC   =    -47790.04818993
  -exchange      EXHF   =         0.00000000
  -V(xc)+E(xc)   XCENC  =      -232.24481509
  PAW double counting   =      4151.49394704    -3569.75444934
  entropy T*S    EENTRO =        -0.33802980
  eigenvalues    EBANDS =     -1480.40518466
  atomic energy  EATOM  =      6761.44252427
  Solvation  Ediel_sol  =         0.00000000
  ---------------------------------------------------
  free energy    TOTEN  =      -187.02674062 eV

  energy without entropy =     -186.68871083  energy(sigma->0) =     -186.85772572


--------------------------------------------------------------------------------------------------------




----------------------------------------- Iteration    1(  12)  ---------------------------------------


    POTLOK:  cpu time    0.0301: real time    0.0314
    SETDIJ:  cpu time    0.0024: real time    0.0024
     EDDAV:  cpu time   31.2900: real time   31.3653
       DOS:  cpu time    0.0010: real time    0.0010
    CHARGE:  cpu time    0.5003: real time    0.5015
    MIXING:  cpu time    0.0014: real time    0.0014
    --------------------------------------------
      LOOP:  cpu time   31.8276: real time   31.9127

 eigenvalue-minimisations  : 12680
 total energy-change (2. order) : 0.7520109E-01  (-0.7167433E-01)
 number of electron     159.0000088 magnetization 
 augmentation part       -4.4533012 magnetization 

 Broyden mixing:
  rms(total) = 0.32976E+00    rms(broyden)= 0.32954E+00
  rms(prec ) = 0.36547E+00
  weight for this iteration     100.00

 eigenvalues of (default mixing * dielectric matrix)
  average eigenvalue GAMMA=   0.8063
  1.9638  1.9638  0.6385  0.3961  0.2983  0.2197  0.1635

 Free energy of the ion-electron system (eV)
  ---------------------------------------------------
  alpha Z        PSCENC =        81.65567618
  Ewald energy   TEWEN  =     41891.17178071
  -Hartree energ DENC   =    -47797.24206934
  -exchange      EXHF   =         0.00000000
  -V(xc)+E(xc)   XCENC  =      -232.04345154
  PAW double counting   =      4179.24277549    -3597.48583193
  entropy T*S    EENTRO =        -0.33238361
  eigenvalues    EBANDS =     -1473.36055975
  atomic energy  EATOM  =      6761.44252427
  Solvation  Ediel_sol  =         0.00000000
  ---------------------------------------------------
  free energy    TOTEN  =      -186.95153953 eV

  energy without entropy =     -186.61915592  energy(sigma->0) =     -186.78534772


--------------------------------------------------------------------------------------------------------




----------------------------------------- Iteration    1(  13)  ---------------------------------------


    POTLOK:  cpu time    0.0305: real time    0.0305
    SETDIJ:  cpu time    0.0023: real time    0.0023
     EDDAV:  cpu time   32.4438: real time   32.5218
       DOS:  cpu time    0.0010: real time    0.0010
    CHARGE:  cpu time    0.5049: real time    0.5061
    MIXING:  cpu time    0.0013: real time    0.0013
    --------------------------------------------
      LOOP:  cpu time   32.9849: real time   33.0726

 eigenvalue-minimisations  : 13240
 total energy-change (2. order) : 0.8619215E-01  (-0.2463881E-01)
 number of electron     159.0000087 magnetization 
 augmentation part       -4.3755772 magnetization 

 Broyden mixing:
  rms(total) = 0.18127E+00    rms(broyden)= 0.18113E+00
  rms(prec ) = 0.20344E+00
  weight for this iteration     100.00

 eigenvalues of (default mixing * dielectric matrix)
  average eigenvalue GAMMA=   0.7914
  2.2287  1.7372  0.8101  0.6360  0.2994  0.2200  0.2564  0.1432

 Free energy of the ion-electron system (eV)
  ---------------------------------------------------
  alpha Z        PSCENC =        81.65567618
  Ewald energy   TEWEN  =     41891.17178071
  -Hartree energ DENC   =    -47800.41044755
  -exchange      EXHF   =         0.00000000
  -V(xc)+E(xc)   XCENC  =      -231.95953525
  PAW double counting   =      4187.94983223    -3606.16221098
  entropy T*S    EENTRO =        -0.33531224
  eigenvalues    EBANDS =     -1470.21765473
  atomic energy  EATOM  =      6761.44252427
  Solvation  Ediel_sol  =         0.00000000
  ---------------------------------------------------
  free energy    TOTEN  =      -186.86534737 eV

  energy without entropy =     -186.53003513  energy(sigma->0) =     -186.69769125


--------------------------------------------------------------------------------------------------------




----------------------------------------- Iteration    1(  14)  ---------------------------------------


    POTLOK:  cpu time    0.0315: real time    0.0316
    SETDIJ:  cpu time    0.0023: real time    0.0023
     EDDAV:  cpu time   31.8581: real time   31.9351
       DOS:  cpu time    0.0011: real time    0.0011
    CHARGE:  cpu time    0.5038: real time    0.5050
    MIXING:  cpu time    0.0015: real time    0.0015
    --------------------------------------------
      LOOP:  cpu time   32.4002: real time   32.4858

 eigenvalue-minimisations  : 12960
 total energy-change (2. order) : 0.3812303E-01  (-0.9084258E-02)
 number of electron     159.0000089 magnetization 
 augmentation part       -4.1396264 magnetization 

 Broyden mixing:
  rms(total) = 0.60723E-01    rms(broyden)= 0.60529E-01
  rms(prec ) = 0.68516E-01
  weight for this iteration     100.00

 eigenvalues of (default mixing * dielectric matrix)
  average eigenvalue GAMMA=   0.7796
  2.2359  1.7977  0.9572  0.5854  0.5282  0.2982  0.2203  0.2521  0.1415

 Free energy of the ion-electron system (eV)
  ---------------------------------------------------
  alpha Z        PSCENC =        81.65567618
  Ewald energy   TEWEN  =     41891.17178071
  -Hartree energ DENC   =    -47804.04538081
  -exchange      EXHF   =         0.00000000
  -V(xc)+E(xc)   XCENC  =      -231.87473429
  PAW double counting   =      4191.93842529    -3610.09242660
  entropy T*S    EENTRO =        -0.34340082
  eigenvalues    EBANDS =     -1466.67968827
  atomic energy  EATOM  =      6761.44252427
  Solvation  Ediel_sol  =         0.00000000
  ---------------------------------------------------
  free energy    TOTEN  =      -186.82722434 eV

  energy without entropy =     -186.48382352  energy(sigma->0) =     -186.65552393


--------------------------------------------------------------------------------------------------------




----------------------------------------- Iteration    1(  15)  ---------------------------------------


    POTLOK:  cpu time    0.0302: real time    0.0314
    SETDIJ:  cpu time    0.0024: real time    0.0024
     EDDAV:  cpu time   29.2302: real time   29.3005
       DOS:  cpu time    0.0010: real time    0.0010
    CHARGE:  cpu time    0.5033: real time    0.5046
    MIXING:  cpu time    0.0016: real time    0.0016
    --------------------------------------------
      LOOP:  cpu time   29.7710: real time   29.8512

 eigenvalue-minimisations  : 11680
 total energy-change (2. order) : 0.3806619E-02  (-0.1042545E-02)
 number of electron     159.0000089 magnetization 
 augmentation part       -4.1624194 magnetization 

 Broyden mixing:
  rms(total) = 0.31440E-01    rms(broyden)= 0.31421E-01
  rms(prec ) = 0.36374E-01
  weight for this iteration     100.00

 eigenvalues of (default mixing * dielectric matrix)
  average eigenvalue GAMMA=   0.8244
  2.3007  2.0170  1.2758  0.6850  0.6850  0.3704  0.2982  0.2203  0.2501  0.1416

 Free energy of the ion-electron system (eV)
  ---------------------------------------------------
  alpha Z        PSCENC =        81.65567618
  Ewald energy   TEWEN  =     41891.17178071
  -Hartree energ DENC   =    -47806.91042415
  -exchange      EXHF   =         0.00000000
  -V(xc)+E(xc)   XCENC  =      -231.83225029
  PAW double counting   =      4193.06395498    -3611.17717863
  entropy T*S    EENTRO =        -0.34228468
  eigenvalues    EBANDS =     -1463.89521613
  atomic energy  EATOM  =      6761.44252427
  Solvation  Ediel_sol  =         0.00000000
  ---------------------------------------------------
  free energy    TOTEN  =      -186.82341772 eV

  energy without entropy =     -186.48113304  energy(sigma->0) =     -186.65227538


--------------------------------------------------------------------------------------------------------




----------------------------------------- Iteration    1(  16)  ---------------------------------------


    POTLOK:  cpu time    0.0302: real time    0.0303
    SETDIJ:  cpu time    0.0024: real time    0.0024
     EDDAV:  cpu time   31.0219: real time   31.0963
       DOS:  cpu time    0.0010: real time    0.0010
    CHARGE:  cpu time    0.5044: real time    0.5056
    MIXING:  cpu time    0.0017: real time    0.0017
    --------------------------------------------
      LOOP:  cpu time   31.5626: real time   31.6469

 eigenvalue-minimisations  : 12600
 total energy-change (2. order) :-0.8868716E-03  (-0.9662725E-03)
 number of electron     159.0000089 magnetization 
 augmentation part       -4.2047840 magnetization 

 Broyden mixing:
  rms(total) = 0.57477E-01    rms(broyden)= 0.57454E-01
  rms(prec ) = 0.63942E-01
  weight for this iteration     100.00

 eigenvalues of (default mixing * dielectric matrix)
  average eigenvalue GAMMA=   0.8009
  2.4122  2.1298  1.3941  0.7616  0.6561  0.4021  0.2986  0.2203  0.2506  0.1418
  0.1429

 Free energy of the ion-electron system (eV)
  ---------------------------------------------------
  alpha Z        PSCENC =        81.65567618
  Ewald energy   TEWEN  =     41891.17178071
  -Hartree energ DENC   =    -47811.79770258
  -exchange      EXHF   =         0.00000000
  -V(xc)+E(xc)   XCENC  =      -231.76786114
  PAW double counting   =      4194.61767475    -3612.67790539
  entropy T*S    EENTRO =        -0.34113936
  eigenvalues    EBANDS =     -1459.12735204
  atomic energy  EATOM  =      6761.44252427
  Solvation  Ediel_sol  =         0.00000000
  ---------------------------------------------------
  free energy    TOTEN  =      -186.82430459 eV

  energy without entropy =     -186.48316524  energy(sigma->0) =     -186.65373492


--------------------------------------------------------------------------------------------------------




----------------------------------------- Iteration    1(  17)  ---------------------------------------


    POTLOK:  cpu time    0.0313: real time    0.0314
    SETDIJ:  cpu time    0.0024: real time    0.0024
     EDDAV:  cpu time   32.2178: real time   32.2948
       DOS:  cpu time    0.0010: real time    0.0011
    CHARGE:  cpu time    0.5050: real time    0.5062
    MIXING:  cpu time    0.0018: real time    0.0018
    --------------------------------------------
      LOOP:  cpu time   32.7605: real time   32.8469

 eigenvalue-minimisations  : 13120
 total energy-change (2. order) : 0.2659654E-02  (-0.7195344E-03)
 number of electron     159.0000089 magnetization 
 augmentation part       -4.2145540 magnetization 

 Broyden mixing:
  rms(total) = 0.21217E-01    rms(broyden)= 0.21176E-01
  rms(prec ) = 0.24624E-01
  weight for this iteration     100.00

 eigenvalues of (default mixing * dielectric matrix)
  average eigenvalue GAMMA=   0.8203
  2.3051  2.3051  1.3529  1.1515  0.6591  0.6591  0.3770  0.2976  0.2202  0.2504
  0.1416  0.1246

 Free energy of the ion-electron system (eV)
  ---------------------------------------------------
  alpha Z        PSCENC =        81.65567618
  Ewald energy   TEWEN  =     41891.17178071
  -Hartree energ DENC   =    -47813.88840093
  -exchange      EXHF   =         0.00000000
  -V(xc)+E(xc)   XCENC  =      -231.74203671
  PAW double counting   =      4195.06721891    -3613.10770615
  entropy T*S    EENTRO =        -0.34093489
  eigenvalues    EBANDS =     -1457.07976633
  atomic energy  EATOM  =      6761.44252427
  Solvation  Ediel_sol  =         0.00000000
  ---------------------------------------------------
  free energy    TOTEN  =      -186.82164494 eV

  energy without entropy =     -186.48071005  energy(sigma->0) =     -186.65117749


--------------------------------------------------------------------------------------------------------




----------------------------------------- Iteration    1(  18)  ---------------------------------------


    POTLOK:  cpu time    0.0304: real time    0.0307
    SETDIJ:  cpu time    0.0023: real time    0.0024
     EDDAV:  cpu time   28.5254: real time   28.5947
       DOS:  cpu time    0.0010: real time    0.0010
    CHARGE:  cpu time    0.5043: real time    0.5055
    MIXING:  cpu time    0.0019: real time    0.0019
    --------------------------------------------
      LOOP:  cpu time   29.0666: real time   29.1453

 eigenvalue-minimisations  : 11400
 total energy-change (2. order) : 0.4346033E-03  (-0.1334988E-03)
 number of electron     159.0000089 magnetization 
 augmentation part       -4.1863337 magnetization 

 Broyden mixing:
  rms(total) = 0.65160E-02    rms(broyden)= 0.65015E-02
  rms(prec ) = 0.94040E-02
  weight for this iteration     100.00

 eigenvalues of (default mixing * dielectric matrix)
  average eigenvalue GAMMA=   0.8751
  2.4753  2.4753  1.5246  1.2563  0.9563  0.6395  0.6395  0.3748  0.2977  0.2202
  0.2504  0.1416  0.1243

 Free energy of the ion-electron system (eV)
  ---------------------------------------------------
  alpha Z        PSCENC =        81.65567618
  Ewald energy   TEWEN  =     41891.17178071
  -Hartree energ DENC   =    -47817.22496377
  -exchange      EXHF   =         0.00000000
  -V(xc)+E(xc)   XCENC  =      -231.71045190
  PAW double counting   =      4194.68419037    -3612.70410942
  entropy T*S    EENTRO =        -0.34157188
  eigenvalues    EBANDS =     -1453.79428490
  atomic energy  EATOM  =      6761.44252427
  Solvation  Ediel_sol  =         0.00000000
  ---------------------------------------------------
  free energy    TOTEN  =      -186.82121034 eV

  energy without entropy =     -186.47963846  energy(sigma->0) =     -186.65042440


--------------------------------------------------------------------------------------------------------




----------------------------------------- Iteration    1(  19)  ---------------------------------------


    POTLOK:  cpu time    0.0302: real time    0.0305
    SETDIJ:  cpu time    0.0023: real time    0.0023
     EDDAV:  cpu time   27.1382: real time   27.2035
       DOS:  cpu time    0.0003: real time    0.0011
    CHARGE:  cpu time    0.5047: real time    0.5059
    MIXING:  cpu time    0.0019: real time    0.0019
    --------------------------------------------
      LOOP:  cpu time   27.6796: real time   27.7538

 eigenvalue-minimisations  : 10760
 total energy-change (2. order) :-0.5539241E-03  (-0.7931975E-04)
 number of electron     159.0000089 magnetization 
 augmentation part       -4.1955648 magnetization 

 Broyden mixing:
  rms(total) = 0.90178E-02    rms(broyden)= 0.90108E-02
  rms(prec ) = 0.11133E-01
  weight for this iteration     100.00

 eigenvalues of (default mixing * dielectric matrix)
  average eigenvalue GAMMA=   0.8742
  2.6294  2.6294  1.6489  1.3272  1.0156  0.6463  0.6463  0.3752  0.2202  0.2505
  0.2977  0.2866  0.1416  0.1243

 Free energy of the ion-electron system (eV)
  ---------------------------------------------------
  alpha Z        PSCENC =        81.65567618
  Ewald energy   TEWEN  =     41891.17178071
  -Hartree energ DENC   =    -47821.87525468
  -exchange      EXHF   =         0.00000000
  -V(xc)+E(xc)   XCENC  =      -231.67187378
  PAW double counting   =      4193.62668852    -3611.62859351
  entropy T*S    EENTRO =        -0.34119845
  eigenvalues    EBANDS =     -1449.20151353
  atomic energy  EATOM  =      6761.44252427
  Solvation  Ediel_sol  =         0.00000000
  ---------------------------------------------------
  free energy    TOTEN  =      -186.82176426 eV

  energy without entropy =     -186.48056581  energy(sigma->0) =     -186.65116503


--------------------------------------------------------------------------------------------------------




----------------------------------------- Iteration    1(  20)  ---------------------------------------


    POTLOK:  cpu time    0.0328: real time    0.0331
    SETDIJ:  cpu time    0.0024: real time    0.0024
     EDDAV:  cpu time   21.6869: real time   21.7401
       DOS:  cpu time    0.0002: real time    0.0011
    CHARGE:  cpu time    0.5042: real time    0.5054
    MIXING:  cpu time    0.0020: real time    0.0020
    --------------------------------------------
      LOOP:  cpu time   22.2306: real time   22.2936

 eigenvalue-minimisations  :  8040
 total energy-change (2. order) :-0.2995321E-03  (-0.4008178E-04)
 number of electron     159.0000089 magnetization 
 augmentation part       -4.1977602 magnetization 

 Broyden mixing:
  rms(total) = 0.55171E-02    rms(broyden)= 0.55092E-02
  rms(prec ) = 0.69787E-02
  weight for this iteration     100.00

 eigenvalues of (default mixing * dielectric matrix)
  average eigenvalue GAMMA=   0.9525
  3.2750  2.5154  1.8123  1.7237  1.0051  1.0051  0.6438  0.6438  0.3753  0.2977
  0.2202  0.1416  0.2505  0.2533  0.1243

 Free energy of the ion-electron system (eV)
  ---------------------------------------------------
  alpha Z        PSCENC =        81.65567618
  Ewald energy   TEWEN  =     41891.17178071
  -Hartree energ DENC   =    -47824.33426494
  -exchange      EXHF   =         0.00000000
  -V(xc)+E(xc)   XCENC  =      -231.65253184
  PAW double counting   =      4193.10800859    -3611.10287753
  entropy T*S    EENTRO =        -0.34106447
  eigenvalues    EBANDS =     -1446.76931477
  atomic energy  EATOM  =      6761.44252427
  Solvation  Ediel_sol  =         0.00000000
  ---------------------------------------------------
  free energy    TOTEN  =      -186.82206379 eV

  energy without entropy =     -186.48099932  energy(sigma->0) =     -186.65153156


--------------------------------------------------------------------------------------------------------




----------------------------------------- Iteration    1(  21)  ---------------------------------------


    POTLOK:  cpu time    0.0316: real time    0.0316
    SETDIJ:  cpu time    0.0023: real time    0.0023
     EDDAV:  cpu time   22.9000: real time   22.9561
       DOS:  cpu time    0.0010: real time    0.0010
    CHARGE:  cpu time    0.5035: real time    0.5047
    MIXING:  cpu time    0.0019: real time    0.0019
    --------------------------------------------
      LOOP:  cpu time   23.4423: real time   23.5063

 eigenvalue-minimisations  :  8680
 total energy-change (2. order) :-0.1212135E-02  (-0.3099366E-04)
 number of electron     159.0000089 magnetization 
 augmentation part       -4.1891812 magnetization 

 Broyden mixing:
  rms(total) = 0.25739E-02    rms(broyden)= 0.25698E-02
  rms(prec ) = 0.34298E-02
  weight for this iteration     100.00

 eigenvalues of (default mixing * dielectric matrix)
  average eigenvalue GAMMA=   0.9922
  3.7421  2.4861  2.1350  1.6728  1.0817  1.0817  0.7432  0.6351  0.6351  0.3752
  0.2977  0.2202  0.1416  0.2505  0.2527  0.1243

 Free energy of the ion-electron system (eV)
  ---------------------------------------------------
  alpha Z        PSCENC =        81.65567618
  Ewald energy   TEWEN  =     41891.17178071
  -Hartree energ DENC   =    -47828.40123341
  -exchange      EXHF   =         0.00000000
  -V(xc)+E(xc)   XCENC  =      -231.62474695
  PAW double counting   =      4192.47912551    -3610.47190184
  entropy T*S    EENTRO =        -0.34117668
  eigenvalues    EBANDS =     -1442.73332372
  atomic energy  EATOM  =      6761.44252427
  Solvation  Ediel_sol  =         0.00000000
  ---------------------------------------------------
  free energy    TOTEN  =      -186.82327593 eV

  energy without entropy =     -186.48209924  energy(sigma->0) =     -186.65268759


--------------------------------------------------------------------------------------------------------




----------------------------------------- Iteration    1(  22)  ---------------------------------------


    POTLOK:  cpu time    0.0305: real time    0.0318
    SETDIJ:  cpu time    0.0023: real time    0.0023
     EDDAV:  cpu time   18.6876: real time   18.7322
       DOS:  cpu time    0.0011: real time    0.0011
    CHARGE:  cpu time    0.5056: real time    0.5068
    MIXING:  cpu time    0.0021: real time    0.0021
    --------------------------------------------
      LOOP:  cpu time   19.2313: real time   19.2859

 eigenvalue-minimisations  :  6600
 total energy-change (2. order) :-0.7874306E-03  (-0.7752978E-05)
 number of electron     159.0000089 magnetization 
 augmentation part       -4.1896905 magnetization 

 Broyden mixing:
  rms(total) = 0.24502E-02    rms(broyden)= 0.24483E-02
  rms(prec ) = 0.30575E-02
  weight for this iteration     100.00

 eigenvalues of (default mixing * dielectric matrix)
  average eigenvalue GAMMA=   1.0672
  4.7691  2.4855  2.4855  1.6578  1.3741  1.0554  0.9829  0.6404  0.6404  0.3752
  0.3893  0.2977  0.2202  0.2505  0.2526  0.1416  0.1243

 Free energy of the ion-electron system (eV)
  ---------------------------------------------------
  alpha Z        PSCENC =        81.65567618
  Ewald energy   TEWEN  =     41891.17178071
  -Hartree energ DENC   =    -47830.20009651
[...]
    104      -0.5521      0.00000
    105      -0.4539      0.00000
    106      -0.3624      0.00000
    107      -0.2807      0.00000
    108      -0.1145      0.00000
    109       0.0379      0.00000
    110       0.1547      0.00000
    111       0.3618      0.00000
    112       0.5860      0.00000
    113       0.7506      0.00000
    114       0.9961      0.00000
    115       1.1343      0.00000
    116       1.2800      0.00000
    117       1.5051      0.00000
    118       2.1576      0.00000
    119       2.3175      0.00000
    120       2.4245      0.00000

 k-point    34 :       0.5000    0.5000    0.0000
  band No.  band energies     occupation 
      1     -17.5053      2.00000
      2     -17.3492      2.00000
      3     -16.7442      2.00000
      4     -16.7168      2.00000
      5     -16.5815      2.00000
      6     -16.5540      2.00000
      7     -16.2775      2.00000
      8     -16.1979      2.00000
      9     -16.1194      2.00000
     10     -16.0821      2.00000
     11     -15.8785      2.00000
     12     -15.8365      2.00000
     13     -15.7709      2.00000
     14     -15.6973      2.00000
     15     -15.6411      2.00000
     16     -15.4311      2.00000
     17     -15.3391      2.00000
     18     -15.2103      2.00000
     19      -9.8138      2.00000
     20      -9.3526      2.00000
     21      -9.3033      2.00000
     22      -9.0064      2.00000
     23      -8.9386      2.00000
     24      -8.8308      2.00000
     25      -8.6806      2.00000
     26      -8.6631      2.00000
     27      -8.4391      2.00000
     28      -8.2916      2.00000
     29      -8.2272      2.00000
     30      -8.1316      2.00000
     31      -8.0825      2.00000
     32      -8.0106      2.00000
     33      -7.9208      2.00000
     34      -7.8465      2.00000
     35      -7.7483      2.00000
     36      -7.6823      2.00000
     37      -7.6432      2.00000
     38      -7.6002      2.00000
     39      -7.4692      2.00000
     40      -7.3377      2.00000
     41      -7.0909      2.00000
     42      -7.0748      2.00000
     43      -7.0000      2.00000
     44      -6.8545      2.00000
     45      -6.8234      2.00000
     46      -6.7145      2.00000
     47      -6.6529      2.00000
     48      -6.5902      2.00000
     49      -6.5234      2.00000
     50      -6.4618      2.00000
     51      -6.4131      2.00000
     52      -6.3456      2.00000
     53      -6.2711      2.00000
     54      -6.1833      2.00000
     55      -6.1105      2.00000
     56      -6.0949      2.00000
     57      -6.0104      2.00000
     58      -5.8476      2.00000
     59      -5.8181      2.00000
     60      -5.7927      2.00000
     61      -5.6292      2.00000
     62      -5.5969      2.00000
     63      -5.5326      2.00000
     64      -5.4083      2.00000
     65      -5.2233      2.00000
     66      -5.0706      2.00000
     67      -4.9990      2.00000
     68      -4.9527      2.00000
     69      -4.8322      2.00000
     70      -4.6312      2.00000
     71      -4.5818      2.00000
     72      -4.4533      2.00000
     73      -4.3325      2.00000
     74      -4.1784      2.00000
     75      -4.0349      2.00000
     76      -4.0131      2.00000
     77      -3.8576      1.99998
     78      -3.6856      1.99802
     79      -3.4849      1.90597
     80      -3.3275      1.42547
     81      -2.9890      0.06693
     82      -2.9556      0.03862
     83      -2.6594      0.00003
     84      -2.6110      0.00001
     85      -2.4606      0.00000
     86      -2.3359      0.00000
     87      -2.1897      0.00000
     88      -2.1020      0.00000
     89      -1.9237      0.00000
     90      -1.8465      0.00000
     91      -1.6622      0.00000
     92      -1.5717      0.00000
     93      -1.3914      0.00000
     94      -1.3626      0.00000
     95      -1.1987      0.00000
     96      -1.0933      0.00000
     97      -1.0716      0.00000
     98      -0.9992      0.00000
     99      -0.9301      0.00000
    100      -0.8947      0.00000
    101      -0.8247      0.00000
    102      -0.7103      0.00000
    103      -0.6347      0.00000
    104      -0.6028      0.00000
    105      -0.4835      0.00000
    106      -0.4072      0.00000
    107      -0.2949      0.00000
    108      -0.1237      0.00000
    109       0.0213      0.00000
    110       0.1956      0.00000
    111       0.2739      0.00000
    112       0.5855      0.00000
    113       0.7706      0.00000
    114       1.0417      0.00000
    115       1.1396      0.00000
    116       1.3264      0.00000
    117       1.5674      0.00000
    118       2.2519      0.00000
    119       2.2661      0.00000
    120       2.4056      0.00000


--------------------------------------------------------------------------------------------------------


 soft charge-density along one line, spin component           1
         0         1         2         3         4         5         6         7         8         9
 total charge-density along one line
 
 pseudopotential strength for first ion, spin component:           1
 -7.211   0.003   0.007  -0.003  -0.001   0.671  -0.002  -0.002
  0.003  -7.096   0.001  -0.005   0.002  -0.002   0.637  -0.000
  0.007   0.001  -7.068   0.006   0.023  -0.002  -0.000   0.630
 -0.003  -0.005   0.006  -7.131   0.019   0.001   0.001  -0.002
 -0.001   0.002   0.023   0.019  -7.209   0.000  -0.001  -0.007
  0.671  -0.002  -0.002   0.001   0.000   0.334   0.001   0.001
 -0.002   0.637  -0.000   0.001  -0.001   0.001   0.344  -0.000
 -0.002  -0.000   0.630  -0.002  -0.007   0.001  -0.000   0.346
  0.001   0.001  -0.002   0.647  -0.005  -0.000  -0.000   0.001
  0.000  -0.001  -0.007  -0.005   0.671  -0.000   0.000   0.002
  0.002   0.001  -0.021  -0.004   0.007  -0.000  -0.000   0.005
  0.001   0.000  -0.007  -0.001   0.002  -0.000  -0.000   0.002
  0.003   0.004   0.002  -0.003   0.007   0.000  -0.001   0.001
 -0.003  -0.010   0.002   0.005  -0.002   0.000   0.000  -0.001
 -0.007  -0.003  -0.000   0.000   0.003  -0.001   0.000  -0.000
  0.001   0.003   0.001  -0.003   0.005  -0.000  -0.001  -0.000
 -0.003  -0.008   0.000   0.004  -0.002   0.000   0.001  -0.000
 -0.004  -0.003   0.001  -0.001   0.001   0.001   0.000  -0.000
 total augmentation occupancy for first ion, spin component:           1
  0.797   0.155   0.017  -0.019  -0.029   0.436   0.210   0.001  -0.012  -0.007  -0.028   0.002  -0.005  -0.053   0.023  -0.001
  0.155   1.060  -0.017   0.010  -0.003   0.207   0.643  -0.035   0.011   0.006  -0.016  -0.004   0.058  -0.064  -0.062   0.002
  0.017  -0.017   0.864   0.031   0.049   0.001  -0.035   0.346   0.020   0.003   0.147   0.005  -0.066   0.001   0.043  -0.003
 -0.019   0.010   0.031   1.083  -0.143  -0.011   0.011   0.021   0.649  -0.216  -0.003   0.002  -0.050   0.053  -0.025  -0.002
 -0.029  -0.003   0.049  -0.143   0.845  -0.007   0.005   0.005  -0.219   0.445  -0.019  -0.000  -0.001  -0.041   0.001  -0.003
  0.436   0.207   0.001  -0.011  -0.007   0.372   0.216  -0.006  -0.012   0.007   0.014   0.002   0.017  -0.065  -0.025   0.000
  0.210   0.643  -0.035   0.011   0.005   0.216   0.577  -0.023   0.003   0.005  -0.039  -0.005   0.046  -0.086  -0.060   0.004
  0.001  -0.035   0.346   0.021   0.005  -0.006  -0.023   0.276   0.014  -0.001   0.040   0.009  -0.020   0.004   0.012  -0.004
 -0.012   0.011   0.020   0.649  -0.219  -0.012   0.003   0.014   0.578  -0.218   0.004   0.002  -0.063   0.053  -0.026  -0.005
 -0.007   0.006   0.003  -0.216   0.445   0.007   0.005  -0.001  -0.218   0.369   0.006   0.000   0.023  -0.038   0.016  -0.001
 -0.028  -0.016   0.147  -0.003  -0.019   0.014  -0.039   0.040   0.004   0.006   1.388   0.139  -0.029   0.019   0.034  -0.002
  0.002  -0.004   0.005   0.002  -0.000   0.002  -0.005   0.009   0.002   0.000   0.139   0.026  -0.009   0.001   0.005  -0.001
 -0.005   0.058  -0.066  -0.050  -0.001   0.017   0.046  -0.020  -0.063   0.023  -0.029  -0.009   0.359  -0.009  -0.005   0.027
 -0.053  -0.064   0.001   0.053  -0.041  -0.065  -0.086   0.004   0.053  -0.038   0.019   0.001  -0.009   0.420   0.000  -0.000
  0.023  -0.062   0.043  -0.025   0.001  -0.025  -0.060   0.012  -0.026   0.016   0.034   0.005  -0.005   0.000   0.350   0.000
 -0.001   0.002  -0.003  -0.002  -0.003   0.000   0.004  -0.004  -0.005  -0.001  -0.002  -0.001   0.027  -0.000   0.000   0.003
 -0.002   0.002   0.000  -0.000  -0.002  -0.005  -0.005   0.000   0.003  -0.003   0.001   0.000  -0.000   0.029  -0.000  -0.000
  0.003  -0.002   0.001  -0.000  -0.001   0.001  -0.005   0.002  -0.002  -0.000   0.001   0.000   0.000  -0.000   0.027   0.000


------------------------ aborting loop because EDIFF is reached ----------------------------------------


    CHARGE:  cpu time    0.4575: real time    0.4586
    FORLOC:  cpu time    0.0067: real time    0.0257
    FORNL :  cpu time    5.3762: real time    5.3892
    STRESS:  cpu time   32.3978: real time   32.4919
    FORCOR:  cpu time    0.0338: real time    0.0339
    FORHAR:  cpu time    0.0126: real time    0.0127
    MIXING:  cpu time    0.0011: real time    0.0011
    OFIELD:  cpu time    0.0001: real time    0.0001

  FORCE on cell =-STRESS in cart. coord.  units (eV):
  Direction    XX          YY          ZZ          XY          YZ          ZX
  --------------------------------------------------------------------------------------
  Alpha Z    89.47752    89.47752    89.47752
  Ewald   49339.88856 49293.27808-54255.71872    39.46613   -21.72464    12.14231
  Hartree 50045.48715 50015.84455-49676.46282    25.27280   -12.14383     6.93271
  E(xc)    -609.57232  -610.63454  -617.85683     0.92245     0.95713    -0.54127
  Local  ************************101369.66279   -57.87431    42.03233   -23.73373
  n-local  1213.53048  1215.42871  1248.73860    -1.65220     2.30442    -1.42844
  augment  -213.33806  -212.84591  -214.64963    -0.46816    -1.00138     0.57167
  Kinetic  2008.23270  2014.84783  2054.79854    -5.65781   -10.23496     5.94709
  Fock        0.00000     0.00000     0.00000     0.00000     0.00000     0.00000
  -------------------------------------------------------------------------------------
  Total      -0.21370    -0.19632    -2.01056     0.00889     0.18908    -0.10966
  in kB      -0.14310    -0.13146    -1.34634     0.00595     0.12661    -0.07343
  external pressure =       -0.54 kB  Pullay stress =        0.00 kB


 VOLUME and BASIS-vectors are now :
 -----------------------------------------------------------------------------
  energy-cutoff  :      280.00
  volume of cell :     2392.62
      direct lattice vectors                 reciprocal lattice vectors
     8.288769176  4.787780562  0.000000000     0.060467835  0.104181063  0.000000000
    -8.308849021  4.822547401  0.000000000    -0.060031909  0.103929291  0.000000000
     0.000000000  0.000000000 30.000000000     0.000000000  0.000000000  0.033333333

  length of vectors
     9.572175153  9.606973274 30.000000000     0.120457682  0.120021363  0.033333333


 FORCES acting on ions
    electron-ion (+dipol)            ewald-force                    non-local-force                 convergence-correction
 -----------------------------------------------------------------------------------------------
   0.113E+02 -.220E+02 0.164E+02   -.118E+02 0.234E+02 -.161E+02   0.498E+00 -.147E+01 -.222E+00   -.858E-02 0.266E-01 -.291E-01
   -.131E+02 0.230E+02 -.141E+02   0.139E+02 -.243E+02 0.138E+02   -.759E+00 0.133E+01 0.273E+00   -.140E-02 -.243E-01 0.274E-01
   0.128E+02 -.204E+02 0.161E+02   -.139E+02 0.216E+02 -.159E+02   0.104E+01 -.118E+01 -.232E+00   -.325E-01 -.119E-02 -.267E-01
   0.498E+01 -.122E+02 0.327E+01   -.488E+01 0.120E+02 -.325E+01   -.101E+00 0.179E+00 -.133E-01   -.237E-01 0.832E-02 -.511E-02
   0.636E+01 0.450E+01 0.212E+01   -.616E+01 -.431E+01 -.214E+01   -.215E+00 -.156E+00 0.293E-01   0.238E-01 -.179E-01 0.465E-02
   -.554E+01 -.233E+01 0.198E+01   0.533E+01 0.224E+01 -.200E+01   0.245E+00 0.934E-01 0.257E-01   0.143E-02 0.999E-02 -.622E-04
   0.175E+02 -.298E+02 0.197E+02   -.179E+02 0.305E+02 -.196E+02   0.384E+00 -.657E+00 -.167E+00   0.175E-01 0.283E-01 -.781E-02
   -.145E+02 0.300E+02 -.236E+02   0.149E+02 -.309E+02 0.234E+02   -.317E+00 0.835E+00 0.213E+00   -.924E-02 -.220E-01 0.621E-02
   -.185E+02 0.268E+02 -.240E+02   0.190E+02 -.275E+02 0.238E+02   -.591E+00 0.715E+00 0.225E+00   0.427E-01 -.472E-02 0.997E-02
   -.639E+01 0.107E+02 0.505E+03   0.619E+01 -.104E+02 -.510E+03   0.186E+00 -.297E+00 0.524E+01   0.231E-01 -.359E-02 -.109E-01
   0.151E+01 -.963E+01 -.496E+03   -.107E+01 0.921E+01 0.501E+03   -.469E+00 0.398E+00 -.505E+01   0.373E-01 0.131E-01 -.218E-01
   -.313E+01 0.989E+01 0.614E+03   0.405E+01 -.109E+02 -.617E+03   -.916E+00 0.101E+01 0.349E+01   -.457E-02 0.156E-01 -.218E-01
   -.113E+02 0.185E+02 -.633E+03   0.115E+02 -.189E+02 0.637E+03   -.206E+00 0.356E+00 -.404E+01   0.149E-01 0.259E-02 0.631E-02
   0.736E+01 -.239E+02 0.611E+03   -.769E+01 0.247E+02 -.614E+03   0.322E+00 -.766E+00 0.364E+01   0.145E-01 0.517E-01 0.286E-01
   0.542E+01 -.152E+02 -.591E+03   -.622E+01 0.169E+02 0.594E+03   0.823E+00 -.168E+01 -.310E+01   -.195E-01 0.405E-01 -.220E-01
   -.803E+01 0.110E+02 0.487E+03   0.835E+01 -.109E+02 -.492E+03   -.355E+00 -.941E-01 0.486E+01   0.399E-01 -.596E-02 0.379E-01
   0.367E+01 -.656E+01 -.479E+03   -.349E+01 0.633E+01 0.484E+03   -.112E+00 0.214E+00 -.457E+01   -.586E-01 0.107E-01 -.307E-01
   -.673E+01 0.678E+01 0.611E+03   0.721E+01 -.810E+01 -.614E+03   -.491E+00 0.132E+01 0.350E+01   0.675E-02 -.549E-02 -.174E-01
   -.128E+02 0.201E+02 -.606E+03   0.133E+02 -.207E+02 0.610E+03   -.570E+00 0.640E+00 -.367E+01   0.585E-01 -.204E-01 -.325E-01
   0.111E+02 -.206E+02 0.587E+03   -.116E+02 0.216E+02 -.590E+03   0.591E+00 -.101E+01 0.323E+01   -.580E-01 0.685E-02 0.304E-01
   0.981E+01 -.114E+02 -.588E+03   -.109E+02 0.131E+02 0.591E+03   0.104E+01 -.163E+01 -.309E+01   -.308E-02 -.105E-01 0.245E-01
   -.570E+01 0.130E+02 0.488E+03   0.550E+01 -.133E+02 -.493E+03   0.241E+00 0.256E+00 0.487E+01   -.498E-01 -.128E-01 0.894E-02
   0.750E+01 -.555E+01 -.496E+03   -.737E+01 0.493E+01 0.501E+03   -.123E+00 0.597E+00 -.505E+01   -.216E-02 0.107E-01 0.156E-01
   -.854E+01 0.151E+02 0.606E+03   0.919E+01 -.163E+02 -.609E+03   -.658E+00 0.124E+01 0.318E+01   0.192E-01 -.468E-01 0.369E-02
   -.106E+02 0.216E+02 -.606E+03   0.109E+02 -.224E+02 0.610E+03   -.278E+00 0.823E+00 -.366E+01   -.275E-01 -.612E-01 -.195E-01
   0.176E+02 -.178E+02 0.610E+03   -.180E+02 0.185E+02 -.614E+03   0.493E+00 -.656E+00 0.366E+01   -.259E-02 0.137E-01 -.903E-02
   0.758E+01 -.128E+02 -.620E+03   -.830E+01 0.139E+02 0.624E+03   0.715E+00 -.113E+01 -.347E+01   0.175E-02 0.173E-02 0.177E-01
 -----------------------------------------------------------------------------------------------
   -.410E+00 0.729E+00 -.733E-01   -.338E-13 -.604E-13 0.568E-12   0.413E+00 -.736E+00 0.109E+00   0.928E-04 0.337E-02 -.325E-01
 
 
 POSITION                                       TOTAL-FORCE (eV/Angst)
 -----------------------------------------------------------------------------------
      2.90044      1.34068     -0.05951        -0.001067      0.017145     -0.027257
      2.62157      5.03313      0.05367        -0.000400      0.006900      0.027479
      5.67549      2.94337     -0.05785        -0.003045     -0.001694     -0.029055
     -2.75173      4.73864     -0.00962        -0.027487     -0.035664      0.002326
      0.03995      6.43887     -0.00626         0.003794      0.007026      0.006502
     -5.58171      3.19259     -0.00597         0.033459      0.011382      0.007233
      0.16778     -0.28821     -0.06341        -0.003285      0.001657     -0.016127
      5.37269      6.68581      0.07237         0.000427     -0.006286      0.013983
     -0.18734      3.47697      0.07331        -0.002602     -0.000510      0.017993
     -0.92153      1.59751     28.67134         0.002160      0.000407      0.007249
      0.93284      1.60048      1.30855         0.007782     -0.004640     -0.005490
     -3.72506      3.24055     28.35004         0.007612     -0.021433     -0.006963
     -1.88568      3.26414      1.74397        -0.006302     -0.000705      0.013237
     -6.42645      4.81151     28.32954         0.001239     -0.005931     -0.020692
     -4.63369      4.83030      1.57783        -0.001136      0.021565      0.006889
      1.84568      3.20511     28.72115        -0.002190      0.014909      0.010004
      3.68765      3.18330      1.25506         0.006879     -0.003270     -0.011682
     -0.94686      4.85069     28.35801         0.001895     -0.008938      0.016789
      0.94165      4.83093      1.65793        -0.013562      0.017680      0.013420
     -3.70787      6.42188     28.40209         0.013259     -0.019153     -0.027237
     -1.86370      6.42681      1.57070        -0.017404      0.006953     -0.018176
      4.59087      4.79042     28.71914        -0.009254     -0.000907      0.007918
      6.43747      4.77938      1.30748         0.000590     -0.014178     -0.009874
      1.85144      6.36935     28.37642         0.009124     -0.007682      0.027583
      3.63702      6.38606      1.65807        -0.006253      0.017787      0.015713
     -0.95048      7.97377     28.33132         0.006842     -0.004646     -0.018340
      0.92739      7.97050      1.66465        -0.001076      0.012225     -0.003425
 -----------------------------------------------------------------------------------
    total drift:                                0.003068     -0.004267      0.003167


--------------------------------------------------------------------------------------------------------



  FREE ENERGIE OF THE ION-ELECTRON SYSTEM (eV)
  ---------------------------------------------------
  free  energy   TOTEN  =      -192.33817525 eV

  energy  without entropy=     -192.20523486  energy(sigma->0) =     -192.27170506
 
 d Force = 0.8951716E-03[ 0.819E-03, 0.972E-03]  d Energy = 0.8272277E-03 0.679E-04
 d Force =-0.2790858E+01[-0.279E+01,-0.279E+01]  d Ewald  =-0.5700415E+01 0.291E+01


--------------------------------------------------------------------------------------------------------


    POTLOK:  cpu time    0.0360: real time    0.0364


--------------------------------------------------------------------------------------------------------


 Quasi-Newton relaxation of ions (Broydens 2nd method)
  g(Force)  = 0.722E-03   g(Stress)= 0.151E-03

 retain information from N=  1 steps
 eigenvalues of (default step * inverse Hessian matrix)
  average eigenvalue of G=   0.1136
 eigenvalue spectrum of G is  0.1136


--------------------------------------------------------------------------------------------------------


  
 reached required accuracy - stopping structural energy minimisation
     LOOP+:  cpu time  135.2970: real time  135.9052
    4ORBIT:  cpu time    0.0000: real time    0.0000

 total amount of memory used by VASP on root node   650782. kBytes
========================================================================

   base      :      30000. kBytes
   nonl-proj :     559647. kBytes
   fftplans  :       2414. kBytes
   grid      :      12150. kBytes
   one-center:        419. kBytes
   wavefun   :      46152. kBytes
 
  
  
 General timing and accounting informations for this job:
 ========================================================
  
                  Total CPU time used (sec):     6121.307
                            User time (sec):     6097.376
                          System time (sec):       23.931
                         Elapsed time (sec):     6137.929
  
                   Maximum memory used (kb):      740492.
                   Average memory used (kb):           0.
  
                          Minor page faults:      1023105
                          Major page faults:            2
                 Voluntary context switches:         4684
