<?xml version="1.0" encoding="ISO-8859-1"?>
<modeling>
 <generator>
  <i name="program" type="string">vasp </i>
  <i name="version" type="string">5.4.1  </i>
  <i name="subversion" type="string">05Feb16 (build Jul 05 2020 17:13:04) complex                          parallel </i>
  <i name="platform" type="string">IFC91_ompi </i>
  <i name="date" type="string">2024 04 19 </i>
  <i name="time" type="string">22:58:44 </i>
 </generator>
 <incar>
  <i type="int" name="ISTART">     0</i>
  <i type="string" name="PREC">normal</i>
  <i type="string" name="ALGO"> Normal</i>
  <i type="int" name="ISPIN">     1</i>
  <i type="int" name="ICHARG">     2</i>
  <i type="int" name="IBRION">     1</i>
  <i type="int" name="NSW">   100</i>
  <i type="int" name="ISIF">     3</i>
  <i type="int" name="ISYM">     0</i>
  <i name="SYMPREC">      0.00000001</i>
  <i name="POTIM">      0.50000000</i>
  <i type="logical" name="LREAL"> F  </i>
  <i type="logical" name="LPLANE"> F  </i>
  <i type="int" name="ISMEAR">     0</i>
  <i type="logical" name="LWAVE"> F  </i>
  <i type="logical" name="LCHARG"> F  </i>
  <v type="int" name="KPOINT_BSE">    -1     0     0     0</v>
 </incar>
 <kpoints>
  <generation param="Gamma">
   <v type="int" name="divisions">       8        8        1 </v>
   <v name="usershift">      0.00000000       0.00000000       0.00000000 </v>
   <v name="genvec1">      0.12500000       0.00000000       0.00000000 </v>
   <v name="genvec2">     -0.00000000       0.12500000       0.00000000 </v>
   <v name="genvec3">      0.00000000       0.00000000       1.00000000 </v>
   <v name="shift">      0.00000000       0.00000000       0.00000000 </v>
  </generation>
  <varray name="kpointlist" >
   <v>       0.00000000       0.00000000       0.00000000 </v>
   <v>       0.12500000       0.00000000       0.00000000 </v>
   <v>       0.25000000       0.00000000       0.00000000 </v>
   <v>       0.37500000       0.00000000       0.00000000 </v>
   <v>       0.50000000       0.00000000       0.00000000 </v>
   <v>       0.00000000       0.12500000       0.00000000 </v>
   <v>       0.12500000       0.12500000       0.00000000 </v>
   <v>       0.25000000       0.12500000       0.00000000 </v>
   <v>       0.37500000       0.12500000       0.00000000 </v>
   <v>       0.50000000       0.12500000       0.00000000 </v>
   <v>      -0.37500000       0.12500000       0.00000000 </v>
   <v>      -0.25000000       0.12500000       0.00000000 </v>
   <v>      -0.12500000       0.12500000       0.00000000 </v>
   <v>       0.00000000       0.25000000       0.00000000 </v>
   <v>       0.12500000       0.25000000       0.00000000 </v>
   <v>       0.25000000       0.25000000       0.00000000 </v>
   <v>       0.37500000       0.25000000       0.00000000 </v>
   <v>       0.50000000       0.25000000       0.00000000 </v>
   <v>      -0.37500000       0.25000000       0.00000000 </v>
   <v>      -0.25000000       0.25000000       0.00000000 </v>
   <v>      -0.12500000       0.25000000       0.00000000 </v>
   <v>      -0.00000000       0.37500000       0.00000000 </v>
   <v>       0.12500000       0.37500000       0.00000000 </v>
   <v>       0.25000000       0.37500000       0.00000000 </v>
   <v>       0.37500000       0.37500000       0.00000000 </v>
   <v>       0.50000000       0.37500000       0.00000000 </v>
   <v>      -0.37500000       0.37500000       0.00000000 </v>
   <v>      -0.25000000       0.37500000       0.00000000 </v>
   <v>      -0.12500000       0.37500000       0.00000000 </v>
   <v>       0.00000000       0.50000000       0.00000000 </v>
   <v>       0.12500000       0.50000000       0.00000000 </v>
   <v>       0.25000000       0.50000000       0.00000000 </v>
   <v>       0.37500000       0.50000000       0.00000000 </v>
   <v>       0.50000000       0.50000000       0.00000000 </v>
  </varray>
  <varray name="weights" >
   <v>       0.01562500 </v>
   <v>       0.03125000 </v>
   <v>       0.03125000 </v>
   <v>       0.03125000 </v>
   <v>       0.01562500 </v>
   <v>       0.03125000 </v>
   <v>       0.03125000 </v>
   <v>       0.03125000 </v>
   <v>       0.03125000 </v>
   <v>       0.03125000 </v>
   <v>       0.03125000 </v>
   <v>       0.03125000 </v>
   <v>       0.03125000 </v>
   <v>       0.03125000 </v>
   <v>       0.03125000 </v>
   <v>       0.03125000 </v>
   <v>       0.03125000 </v>
   <v>       0.03125000 </v>
   <v>       0.03125000 </v>
   <v>       0.03125000 </v>
   <v>       0.03125000 </v>
   <v>       0.03125000 </v>
   <v>       0.03125000 </v>
   <v>       0.03125000 </v>
   <v>       0.03125000 </v>
   <v>       0.03125000 </v>
   <v>       0.03125000 </v>
   <v>       0.03125000 </v>
   <v>       0.03125000 </v>
   <v>       0.01562500 </v>
   <v>       0.03125000 </v>
   <v>       0.03125000 </v>
   <v>       0.03125000 </v>
   <v>       0.01562500 </v>
  </varray>
 </kpoints>
 <parameters>
  <separator name="general" >
   <i type="string" name="SYSTEM">unknown system</i>
   <i type="logical" name="LCOMPAT"> F  </i>
  </separator>
  <separator name="electronic" >
   <i type="string" name="PREC">normal</i>
   <i name="ENMAX">    280.00000000</i>
   <i name="ENAUG">    373.43800000</i>
   <i name="EDIFF">      0.00010000</i>
   <i type="int" name="IALGO">    38</i>
   <i type="int" name="IWAVPR">    11</i>
   <i type="int" name="NBANDS">   120</i>
   <i name="NELECT">    159.00000000</i>
   <i type="int" name="TURBO">     0</i>
   <i type="int" name="IRESTART">     0</i>
   <i type="int" name="NREBOOT">     0</i>
   <i type="int" name="NMIN">     0</i>
   <i name="EREF">      0.00000000</i>
   <separator name="electronic smearing" >
    <i type="int" name="ISMEAR">     0</i>
    <i name="SIGMA">      0.20000000</i>
    <i name="KSPACING">      0.50000000</i>
    <i type="logical" name="KGAMMA"> T  </i>
   </separator>
   <separator name="electronic projectors" >
    <i type="logical" name="LREAL"> F  </i>
    <v name="ROPT">      0.00000000      0.00000000      0.00000000      0.00000000</v>
    <i type="int" name="LMAXPAW">  -100</i>
    <i type="int" name="LMAXMIX">     2</i>
    <i type="logical" name="NLSPLINE"> F  </i>
   </separator>
   <separator name="electronic startup" >
    <i type="int" name="ISTART">     0</i>
    <i type="int" name="ICHARG">     2</i>
    <i type="int" name="INIWAV">     1</i>
   </separator>
   <separator name="electronic spin" >
    <i type="int" name="ISPIN">     1</i>
    <i type="logical" name="LNONCOLLINEAR"> F  </i>
    <v name="MAGMOM">      1.00000000      1.00000000      1.00000000      1.00000000      1.00000000      1.00000000      1.00000000      1.00000000      1.00000000      1.00000000      1.00000000      1.00000000      1.00000000      1.00000000      1.00000000      1.00000000      1.00000000      1.00000000      1.00000000      1.00000000
      1.00000000      1.00000000      1.00000000      1.00000000      1.00000000      1.00000000      1.00000000</v>
    <i name="NUPDOWN">     -1.00000000</i>
    <i type="logical" name="LSORBIT"> F  </i>
    <v name="SAXIS">      0.00000000      0.00000000      1.00000000</v>
    <i type="logical" name="LSPIRAL"> F  </i>
    <v name="QSPIRAL">      0.00000000      0.00000000      0.00000000</v>
    <i type="logical" name="LZEROZ"> F  </i>
   </separator>
   <separator name="electronic exchange-correlation" >
    <i type="logical" name="LASPH"> F  </i>
    <i type="logical" name="LMETAGGA"> F  </i>
   </separator>
   <separator name="electronic convergence" >
    <i type="int" name="NELM">    60</i>
    <i type="int" name="NELMDL">    -5</i>
    <i type="int" name="NELMIN">     2</i>
    <i name="ENINI">    280.00000000</i>
    <separator name="electronic convergence detail" >
     <i type="logical" name="LDIAG"> T  </i>
     <i type="logical" name="LSUBROT"> F  </i>
     <i name="WEIMIN">      0.00100000</i>
     <i name="EBREAK">      0.00000021</i>
     <i name="DEPER">      0.30000000</i>
     <i type="int" name="NRMM">     4</i>
     <i name="TIME">      0.40000000</i>
    </separator>
   </separator>
   <separator name="electronic mixer" >
    <i name="AMIX">      0.40000000</i>
    <i name="BMIX">      1.00000000</i>
    <i name="AMIN">      0.10000000</i>
    <i name="AMIX_MAG">      1.60000000</i>
    <i name="BMIX_MAG">      1.00000000</i>
    <separator name="electronic mixer details" >
     <i type="int" name="IMIX">     4</i>
     <i type="logical" name="MIXFIRST"> F  </i>
     <i type="int" name="MAXMIX">   -45</i>
     <i name="WC">    100.00000000</i>
     <i type="int" name="INIMIX">     1</i>
     <i type="int" name="MIXPRE">     1</i>
     <i type="int" name="MREMOVE">     5</i>
    </separator>
   </separator>
   <separator name="electronic dipolcorrection" >
    <i type="logical" name="LDIPOL"> F  </i>
    <i type="logical" name="LMONO"> F  </i>
    <i type="int" name="IDIPOL">     0</i>
    <i name="EPSILON">      1.00000000</i>
    <v name="DIPOL">   -100.00000000   -100.00000000   -100.00000000</v>
    <i name="EFIELD">      0.00000000</i>
   </separator>
  </separator>
  <separator name="grids" >
   <i type="int" name="NGX">    42</i>
   <i type="int" name="NGY">    42</i>
   <i type="int" name="NGZ">   126</i>
   <i type="int" name="NGXF">    84</i>
   <i type="int" name="NGYF">    84</i>
   <i type="int" name="NGZF">   252</i>
   <i type="logical" name="ADDGRID"> F  </i>
  </separator>
  <separator name="ionic" >
   <i type="int" name="NSW">   100</i>
   <i type="int" name="IBRION">     1</i>
   <i type="int" name="ISIF">     3</i>
   <i name="PSTRESS">      0.00000000</i>
   <i name="EDIFFG">      0.00100000</i>
   <i type="int" name="NFREE">     0</i>
   <i name="POTIM">      0.50000000</i>
   <i name="SMASS">     -3.00000000</i>
   <i name="SCALEE">      1.00000000</i>
  </separator>
  <separator name="ionic md" >
   <i name="TEBEG">      0.00010000</i>
   <i name="TEEND">      0.00010000</i>
   <i type="int" name="NBLOCK">     1</i>
   <i type="int" name="KBLOCK">   100</i>
   <i type="int" name="NPACO">   256</i>
   <i name="APACO">     16.00000000</i>
  </separator>
  <separator name="symmetry" >
   <i type="int" name="ISYM">     0</i>
   <i name="SYMPREC">      0.00000001</i>
  </separator>
  <separator name="dos" >
   <i type="logical" name="LORBIT"> F  </i>
   <v name="RWIGS">     -1.00000000     -1.00000000     -1.00000000     -1.00000000</v>
   <i type="int" name="NEDOS">   301</i>
   <i name="EMIN">     10.00000000</i>
   <i name="EMAX">    -10.00000000</i>
   <i name="EFERMI">      0.00000000</i>
  </separator>
  <separator name="writing" >
   <i type="int" name="NWRITE">     2</i>
   <i type="logical" name="LWAVE"> F  </i>
   <i type="logical" name="LCHARG"> F  </i>
   <i type="logical" name="LPARD"> F  </i>
   <i type="logical" name="LVTOT"> F  </i>
   <i type="logical" name="LVHAR"> F  </i>
   <i type="logical" name="LELF"> F  </i>
   <i type="logical" name="LOPTICS"> F  </i>
   <v name="STM">      0.00000000      0.00000000      0.00000000      0.00000000      0.00000000      0.00000000      0.00000000</v>
  </separator>
  <separator name="performance" >
   <i type="int" name="NPAR">    40</i>
   <i type="int" name="NSIM">     4</i>
   <i type="int" name="NBLK">    -1</i>
   <i type="logical" name="LPLANE"> F  </i>
   <i type="logical" name="LSCALAPACK"> T  </i>
   <i type="logical" name="LSCAAWARE"> F  </i>
   <i type="logical" name="LSCALU"> F  </i>
   <i type="logical" name="LASYNC"> F  </i>
   <i type="logical" name="LORBITALREAL"> F  </i>
  </separator>
  <separator name="miscellaneous" >
   <i type="int" name="IDIOT">     3</i>
   <i type="logical" name="LMUSIC"> F  </i>
   <v name="POMASS">     50.94100000     95.94000000    183.85000000     32.06600000</v>
   <v name="DARWINR">      0.00000000      0.00000000      0.00000000      0.00000000</v>
   <v name="DARWINV">      1.00000000      1.00000000      1.00000000      1.00000000</v>
   <i type="logical" name="LCORR"> T  </i>
  </separator>
  <i type="logical" name="GGA_COMPAT"> T  </i>
  <i type="logical" name="LBERRY"> F  </i>
  <i type="int" name="ICORELEVEL">     0</i>
  <i type="logical" name="LDAU"> F  </i>
  <i type="int" name="I_CONSTRAINED_M">     0</i>
  <separator name="electronic exchange-correlation" >
   <i type="string" name="GGA">--</i>
   <i type="int" name="VOSKOWN">     0</i>
   <i type="logical" name="LHFCALC"> F  </i>
   <i type="string" name="PRECFOCK"></i>
   <i type="logical" name="LSYMGRAD"> F  </i>
   <i type="logical" name="LHFONE"> F  </i>
   <i type="logical" name="LRHFCALC"> F  </i>
   <i type="logical" name="LTHOMAS"> F  </i>
   <i type="logical" name="LMODELHF"> F  </i>
   <i name="ENCUT4O">     -1.00000000</i>
   <i type="int" name="EXXOEP">     0</i>
   <i type="int" name="FOURORBIT">     0</i>
   <i name="AEXX">      0.00000000</i>
   <i name="HFALPHA">      0.00000000</i>
   <i name="MCALPHA">      0.00000000</i>
   <i name="ALDAX">      1.00000000</i>
   <i name="AGGAX">      1.00000000</i>
   <i name="ALDAC">      1.00000000</i>
   <i name="AGGAC">      1.00000000</i>
   <i type="int" name="NKREDX">     1</i>
   <i type="int" name="NKREDY">     1</i>
   <i type="int" name="NKREDZ">     1</i>
   <i type="logical" name="SHIFTRED"> F  </i>
   <i type="logical" name="ODDONLY"> F  </i>
   <i type="logical" name="EVENONLY"> F  </i>
   <i type="int" name="LMAXFOCK">     0</i>
   <i type="int" name="NMAXFOCKAE">     0</i>
   <i type="logical" name="LFOCKAEDFT"> F  </i>
   <i name="HFSCREEN">      0.00000000</i>
   <i name="HFSCREENC">      0.00000000</i>
   <i type="int" name="NBANDSGWLOW">     0</i>
  </separator>
  <separator name="vdW DFT" >
   <i type="logical" name="LUSE_VDW"> F  </i>
   <i name="Zab_VDW">     -0.84910000</i>
   <i name="PARAM1">      0.12340000</i>
   <i name="PARAM2">      1.00000000</i>
   <i name="PARAM3">      0.00000000</i>
  </separator>
  <separator name="model GW" >
   <i type="int" name="MODEL_GW">     0</i>
   <i name="MODEL_EPS0">     58.26239943</i>
   <i name="MODEL_ALPHA">      1.00000000</i>
  </separator>
  <separator name="linear response parameters" >
   <i type="logical" name="LEPSILON"> F  </i>
   <i type="logical" name="LRPA"> F  </i>
   <i type="logical" name="LNABLA"> F  </i>
   <i type="logical" name="LVEL"> F  </i>
   <i type="int" name="KINTER">     0</i>
   <i name="CSHIFT">      0.10000000</i>
   <i name="OMEGAMAX">     -1.00000000</i>
   <i name="DEG_THRESHOLD">      0.00200000</i>
  </separator>
  <separator name="orbital magnetization" >
   <i type="logical" name="NUCIND"> F  </i>
   <v name="MAGPOS">      0.00000000      0.00000000      0.00000000</v>
   <i type="logical" name="LNICSALL"> T  </i>
   <i type="logical" name="ORBITALMAG"> F  </i>
   <i type="logical" name="LMAGBLOCH"> F  </i>
   <i type="logical" name="LCHIMAG"> F  </i>
   <i type="logical" name="LGAUGE"> T  </i>
   <i type="int" name="MAGATOM">     0</i>
   <v name="MAGDIPOL">      0.00000000      0.00000000      0.00000000</v>
   <v name="AVECCONST">      0.00000000      0.00000000      0.00000000</v>
  </separator>
  <separator name="response functions" >
   <i type="logical" name="LADDER"> F  </i>
   <i type="logical" name="LFXC"> F  </i>
   <i type="logical" name="LHARTREE"> T  </i>
   <i type="int" name="IBSE">     0</i>
   <v type="int" name="KPOINT">    -1     0     0     0</v>
   <i type="logical" name="LTCTE"> F  </i>
   <i type="logical" name="LTETE"> F  </i>
   <i type="logical" name="LTRIPLET"> F  </i>
   <i type="logical" name="LFXCEPS"> F  </i>
   <i type="logical" name="LFXHEG"> F  </i>
   <i type="int" name="NATURALO">     0</i>
   <i type="logical" name="L2ORDER"> F  </i>
   <i type="logical" name="LUSEW"> F  </i>
   <i name="ENCUTGW">     -2.00000000</i>
   <i name="ENCUTGWSOFT">     -2.00000000</i>
   <i name="ENCUTLF">     -1.00000000</i>
   <i type="int" name="LMAXMP2">    -1</i>
   <i name="SCISSOR">      0.00000000</i>
   <i type="int" name="NOMEGA">     0</i>
   <i type="int" name="NOMEGAR">     0</i>
   <i type="int" name="NBANDSGW">    -1</i>
   <i type="int" name="NBANDSO">    -1</i>
   <i type="int" name="NBANDSV">    -1</i>
   <i type="int" name="NELM">     1</i>
   <i type="int" name="NELMHF">     1</i>
   <i type="int" name="DIM">     3</i>
   <i type="int" name="ANTIRES">     0</i>
   <i name="OMEGAMAX">    -30.00000000</i>
   <i name="OMEGAMIN">    -30.00000000</i>
   <i name="OMEGATL">   -200.00000000</i>
   <i type="int" name="OMEGAGRID">     0</i>
   <i name="CSHIFT">     -0.10000000</i>
   <i type="logical" name="SELFENERGY"> F  </i>
   <i type="logical" name="LSPECTRAL"> F  </i>
   <i type="logical" name="LSPECTRALGW"> F  </i>
   <i type="logical" name="LSINGLES"> F  </i>
   <i type="logical" name="LFERMIGW"> F  </i>
   <i type="logical" name="ODDONLYGW"> F  </i>
   <i type="logical" name="EVENONLYGW"> F  </i>
   <i type="int" name="NKREDLFX">     1</i>
   <i type="int" name="NKREDLFY">     1</i>
   <i type="int" name="NKREDLFZ">     1</i>
   <i type="int" name="MAXMEM">  1800</i>
   <i type="int" name="TELESCOPE">     0</i>
   <i type="int" name="TAUPAR">     1</i>
   <i type="int" name="OMEGAPAR">    -1</i>
   <i name="LAMBDA">      1.00000000</i>
  </separator>
  <separator name="External order field" >
   <i name="OFIELD_KAPPA">      0.00000000</i>
   <v name="OFIELD_K">      0.00000000      0.00000000      0.00000000</v>
   <i name="OFIELD_Q6_NEAR">      0.00000000</i>
   <i name="OFIELD_Q6_FAR">      0.00000000</i>
   <i name="OFIELD_A">      0.00000000</i>
  </separator>
 </parameters>
 <atominfo>
  <atoms>      27 </atoms>
  <types>       4 </types>
  <array name="atoms" >
   <dimension dim="1">ion</dimension>
   <field type="string">element</field>
   <field type="int">atomtype</field>
   <set>
    <rc><c>V </c><c>   1</c></rc>
    <rc><c>V </c><c>   1</c></rc>
    <rc><c>V </c><c>   1</c></rc>
    <rc><c>Mo</c><c>   2</c></rc>
    <rc><c>Mo</c><c>   2</c></rc>
    <rc><c>Mo</c><c>   2</c></rc>
    <rc><c>W </c><c>   3</c></rc>
    <rc><c>W </c><c>   3</c></rc>
    <rc><c>W </c><c>   3</c></rc>
    <rc><c>S </c><c>   4</c></rc>
    <rc><c>S </c><c>   4</c></rc>
    <rc><c>S </c><c>   4</c></rc>
    <rc><c>S </c><c>   4</c></rc>
    <rc><c>S </c><c>   4</c></rc>
    <rc><c>S </c><c>   4</c></rc>
    <rc><c>S </c><c>   4</c></rc>
    <rc><c>S </c><c>   4</c></rc>
    <rc><c>S </c><c>   4</c></rc>
    <rc><c>S </c><c>   4</c></rc>
    <rc><c>S </c><c>   4</c></rc>
    <rc><c>S </c><c>   4</c></rc>
    <rc><c>S </c><c>   4</c></rc>
    <rc><c>S </c><c>   4</c></rc>
    <rc><c>S </c><c>   4</c></rc>
    <rc><c>S </c><c>   4</c></rc>
    <rc><c>S </c><c>   4</c></rc>
    <rc><c>S </c><c>   4</c></rc>
   </set>
  </array>
  <array name="atomtypes" >
   <dimension dim="1">type</dimension>
   <field type="int">atomspertype</field>
   <field type="string">element</field>
   <field>mass</field>
   <field>valence</field>
   <field type="string">pseudopotential</field>
   <set>
    <rc><c>   3</c><c>V </c><c>     50.94100000</c><c>      5.00000000</c><c> PAW_PBE V 08Apr2002                    </c></rc>
    <rc><c>   3</c><c>Mo</c><c>     95.94000000</c><c>      6.00000000</c><c> PAW_PBE Mo 08Apr2002                   </c></rc>
    <rc><c>   3</c><c>W </c><c>    183.85000000</c><c>      6.00000000</c><c> PAW_PBE W 08Apr2002                    </c></rc>
    <rc><c>  18</c><c>S </c><c>     32.06600000</c><c>      6.00000000</c><c>  PAW_PBE S 17Jan2003                   </c></rc>
   </set>
  </array>
 </atominfo>
 <structure name="initialpos" >
  <crystal>
   <varray name="basis" >
    <v>       8.66999996       5.03999989       0.00000000 </v>
    <v>      -8.66999982       5.04000013       0.00000000 </v>
    <v>       0.00000000       0.00000000      30.00000000 </v>
   </varray>
   <i name="volume">   2621.80797419 </i>
   <varray name="rec_basis" >
    <v>       0.05767013       0.09920635       0.00000000 </v>
    <v>      -0.05767013       0.09920635       0.00000000 </v>
    <v>       0.00000000       0.00000000       0.03333333 </v>
   </varray>
  </crystal>
  <varray name="positions" >
   <v>       0.33333334       0.00000000       0.00000000 </v>
   <v>       0.66666669       0.33333334       0.00000000 </v>
   <v>       0.66666669       0.00000000       0.00000000 </v>
   <v>       0.33333334       0.66666669       0.00000000 </v>
   <v>       0.66666669       0.66666669       0.00000000 </v>
   <v>       0.00000000       0.66666669       0.00000000 </v>
   <v>       0.00000000       0.00000000       0.00000000 </v>
   <v>       1.00000000       0.33333334       0.00000000 </v>
   <v>       0.33333334       0.33333334       0.00000000 </v>
   <v>       0.11068511       0.22244981       0.95539999 </v>
   <v>       0.22244981       0.11068511       0.04460000 </v>
   <v>       0.11068511       0.55578315       0.95539999 </v>
   <v>       0.22244981       0.44401845       0.04460000 </v>
   <v>       0.11068511       0.88911647       0.95539999 </v>
   <v>       0.22244981       0.77735180       0.04460000 </v>
   <v>       0.44401845       0.22244981       0.95539999 </v>
   <v>       0.55578315       0.11068511       0.04460000 </v>
   <v>       0.44401845       0.55578315       0.95539999 </v>
   <v>       0.55578315       0.44401845       0.04460000 </v>
   <v>       0.44401845       0.88911647       0.95539999 </v>
   <v>       0.55578315       0.77735180       0.04460000 </v>
   <v>       0.77735180       0.22244981       0.95539999 </v>
   <v>       0.88911647       0.11068511       0.04460000 </v>
   <v>       0.77735180       0.55578315       0.95539999 </v>
   <v>       0.88911647       0.44401845       0.04460000 </v>
   <v>       0.77735180       0.88911647       0.95539999 </v>
   <v>       0.88911647       0.77735180       0.04460000 </v>
  </varray>
 </structure>
 <calculation>
  <scstep>
   <time name="dav">   21.84   21.89</time>
   <time name="total">   21.88   21.94</time>
   <energy>
    <i name="alphaZ">     81.65567618 </i>
    <i name="ewald">  41891.17178071 </i>
    <i name="hartreedc"> -47723.81767867 </i>
    <i name="XCdc">   -242.92468737 </i>
    <i name="pawpsdc">   3467.42045192 </i>
    <i name="pawaedc">  -2871.19716117 </i>
    <i name="eentropy">     -0.53496198 </i>
    <i name="bandstr">   -239.05406359 </i>
    <i name="atom">   6761.44252427 </i>
    <i name="e_fr_energy">   1124.16188030 </i>
    <i name="e_wo_entrp">   1124.69684228 </i>
    <i name="e_0_energy">   1124.42936129 </i>
   </energy>
  </scstep>
  <scstep>
   <time name="dav">   28.07   28.14</time>
   <time name="total">   28.07   28.15</time>
   <energy>
    <i name="e_fr_energy">     -0.75119630 </i>
    <i name="e_wo_entrp">     -0.55234728 </i>
    <i name="e_0_energy">     -0.65177179 </i>
   </energy>
  </scstep>
  <scstep>
   <time name="dav">   27.73   27.80</time>
   <time name="total">   27.73   27.81</time>
   <energy>
    <i name="e_fr_energy">   -199.75942724 </i>
    <i name="e_wo_entrp">   -199.50343377 </i>
    <i name="e_0_energy">   -199.63143051 </i>
   </energy>
  </scstep>
  <scstep>
   <time name="dav">   30.36   30.43</time>
   <time name="total">   30.36   30.44</time>
   <energy>
    <i name="e_fr_energy">   -209.00310876 </i>
    <i name="e_wo_entrp">   -208.71233803 </i>
    <i name="e_0_energy">   -208.85772340 </i>
   </energy>
  </scstep>
  <scstep>
   <time name="dav">   28.03   28.10</time>
   <time name="total">   28.50   28.58</time>
   <energy>
    <i name="e_fr_energy">   -209.30401708 </i>
    <i name="e_wo_entrp">   -209.01595169 </i>
    <i name="e_0_energy">   -209.15998439 </i>
   </energy>
  </scstep>
  <scstep>
   <time name="dav">   31.01   31.08</time>
   <time name="total">   31.51   31.60</time>
   <energy>
    <i name="e_fr_energy">   -237.86153825 </i>
    <i name="e_wo_entrp">   -237.60917276 </i>
    <i name="e_0_energy">   -237.73535551 </i>
   </energy>
  </scstep>
  <scstep>
   <time name="dav">   32.69   32.77</time>
   <time name="total">   33.20   33.29</time>
   <energy>
    <i name="e_fr_energy">   -196.56795208 </i>
    <i name="e_wo_entrp">   -196.21215611 </i>
    <i name="e_0_energy">   -196.39005410 </i>
   </energy>
  </scstep>
  <scstep>
   <time name="dav">   30.01   30.08</time>
   <time name="total">   30.53   30.61</time>
   <energy>
    <i name="e_fr_energy">   -189.47203974 </i>
    <i name="e_wo_entrp">   -189.16055387 </i>
    <i name="e_0_energy">   -189.31629680 </i>
   </energy>
  </scstep>
  <scstep>
   <time name="dav">   33.05   33.13</time>
   <time name="total">   33.57   33.66</time>
   <energy>
    <i name="e_fr_energy">   -188.12748279 </i>
    <i name="e_wo_entrp">   -187.80630570 </i>
    <i name="e_0_energy">   -187.96689424 </i>
   </energy>
  </scstep>
  <scstep>
   <time name="dav">   32.70   32.78</time>
   <time name="total">   33.24   33.33</time>
   <energy>
    <i name="e_fr_energy">   -186.93618270 </i>
    <i name="e_wo_entrp">   -186.58509853 </i>
    <i name="e_0_energy">   -186.76064062 </i>
   </energy>
  </scstep>
  <scstep>
   <time name="dav">   33.04   33.12</time>
   <time name="total">   33.58   33.67</time>
   <energy>
    <i name="e_fr_energy">   -187.02674062 </i>
    <i name="e_wo_entrp">   -186.68871083 </i>
    <i name="e_0_energy">   -186.85772572 </i>
   </energy>
  </scstep>
  <scstep>
   <time name="dav">   31.29   31.37</time>
   <time name="total">   31.83   31.91</time>
   <energy>
    <i name="e_fr_energy">   -186.95153953 </i>
    <i name="e_wo_entrp">   -186.61915592 </i>
    <i name="e_0_energy">   -186.78534772 </i>
   </energy>
  </scstep>
  <scstep>
   <time name="dav">   32.44   32.52</time>
   <time name="total">   32.98   33.07</time>
   <energy>
    <i name="e_fr_energy">   -186.86534737 </i>
    <i name="e_wo_entrp">   -186.53003513 </i>
    <i name="e_0_energy">   -186.69769125 </i>
   </energy>
  </scstep>
  <scstep>
   <time name="dav">   31.86   31.94</time>
   <time name="total">   32.40   32.49</time>
   <energy>
    <i name="e_fr_energy">   -186.82722434 </i>
    <i name="e_wo_entrp">   -186.48382352 </i>
    <i name="e_0_energy">   -186.65552393 </i>
   </energy>
  </scstep>
  <scstep>
   <time name="dav">   29.23   29.30</time>
   <time name="total">   29.77   29.85</time>
   <energy>
    <i name="e_fr_energy">   -186.82341772 </i>
    <i name="e_wo_entrp">   -186.48113304 </i>
    <i name="e_0_energy">   -186.65227538 </i>
   </energy>
  </scstep>
  <scstep>
   <time name="dav">   31.02   31.10</time>
   <time name="total">   31.56   31.65</time>
   <energy>
    <i name="e_fr_energy">   -186.82430459 </i>
    <i name="e_wo_entrp">   -186.48316524 </i>
    <i name="e_0_energy">   -186.65373492 </i>
   </energy>
  </scstep>
  <scstep>
   <time name="dav">   32.22   32.29</time>
   <time name="total">   32.76   32.85</time>
   <energy>
    <i name="e_fr_energy">   -186.82164494 </i>
    <i name="e_wo_entrp">   -186.48071005 </i>
    <i name="e_0_energy">   -186.65117749 </i>
   </energy>
  </scstep>
  <scstep>
   <time name="dav">   28.53   28.59</time>
   <time name="total">   29.07   29.15</time>
   <energy>
    <i name="e_fr_energy">   -186.82121034 </i>
    <i name="e_wo_entrp">   -186.47963846 </i>
    <i name="e_0_energy">   -186.65042440 </i>
   </energy>
  </scstep>
  <scstep>
   <time name="dav">   27.14   27.20</time>
   <time name="total">   27.68   27.75</time>
   <energy>
    <i name="e_fr_energy">   -186.82176426 </i>
    <i name="e_wo_entrp">   -186.48056581 </i>
    <i name="e_0_energy">   -186.65116503 </i>
   </energy>
  </scstep>
  <scstep>
   <time name="dav">   21.69   21.74</time>
   <time name="total">   22.23   22.29</time>
   <energy>
    <i name="e_fr_energy">   -186.82206379 </i>
    <i name="e_wo_entrp">   -186.48099932 </i>
    <i name="e_0_energy">   -186.65153156 </i>
   </energy>
  </scstep>
  <scstep>
   <time name="dav">   22.90   22.96</time>
   <time name="total">   23.44   23.51</time>
   <energy>
    <i name="e_fr_energy">   -186.82327593 </i>
    <i name="e_wo_entrp">   -186.48209924 </i>
    <i name="e_0_energy">   -186.65268759 </i>
   </energy>
  </scstep>
  <scstep>
   <time name="dav">   18.69   18.73</time>
   <time name="total">   19.23   19.29</time>
   <energy>
    <i name="e_fr_energy">   -186.82406336 </i>
    <i name="e_wo_entrp">   -186.48289977 </i>
    <i name="e_0_energy">   -186.65348156 </i>
   </energy>
  </scstep>
  <scstep>
   <time name="dav">   20.44   20.49</time>
   <time name="total">   20.98   21.04</time>
   <energy>
    <i name="e_fr_energy">   -186.82489070 </i>
    <i name="e_wo_entrp">   -186.48378389 </i>
    <i name="e_0_energy">   -186.65433730 </i>
   </energy>
  </scstep>
  <scstep>
   <time name="dav">   18.06   18.11</time>
   <time name="total">   18.61   18.66</time>
   <energy>
    <i name="e_fr_energy">   -186.82550532 </i>
    <i name="e_wo_entrp">   -186.48436380 </i>
    <i name="e_0_energy">   -186.65493456 </i>
   </energy>
  </scstep>
  <scstep>
   <time name="dav">   17.52   17.56</time>
   <time name="total">   18.06   18.11</time>
   <energy>
    <i name="e_fr_energy">   -186.82595542 </i>
    <i name="e_wo_entrp">   -186.48480490 </i>
    <i name="e_0_energy">   -186.65538016 </i>
   </energy>
  </scstep>
  <scstep>
   <time name="dav">   19.44   19.48</time>
   <time name="total">   19.98   20.04</time>
   <energy>
    <i name="e_fr_energy">   -186.82613106 </i>
    <i name="e_wo_entrp">   -186.48498566 </i>
    <i name="e_0_energy">   -186.65555836 </i>
   </energy>
  </scstep>
  <scstep>
   <time name="dav">   18.74   18.79</time>
   <time name="total">   19.29   19.34</time>
   <energy>
    <i name="e_fr_energy">   -186.82623428 </i>
    <i name="e_wo_entrp">   -186.48509143 </i>
    <i name="e_0_energy">   -186.65566286 </i>
   </energy>
  </scstep>
  <scstep>
   <time name="dav">   19.89   19.93</time>
   <time name="total">   19.92   19.98</time>
   <energy>
    <i name="alphaZ">     81.65567618 </i>
    <i name="ewald">  41891.17178071 </i>
    <i name="hartreedc"> -47833.71041119 </i>
    <i name="XCdc">   -231.60910972 </i>
    <i name="pawpsdc">   4192.07099101 </i>
    <i name="pawaedc">  -3610.06711830 </i>
    <i name="eentropy">     -0.34114355 </i>
    <i name="bandstr">  -1437.43947212 </i>
    <i name="atom">   6761.44252427 </i>
    <i name="e_fr_energy">   -186.82628271 </i>
    <i name="e_wo_entrp">   -186.48513916 </i>
    <i name="e_0_energy">   -186.65571093 </i>
   </energy>
  </scstep>
  <structure>
   <crystal>
    <varray name="basis" >
     <v>       8.66999996       5.03999989       0.00000000 </v>
     <v>      -8.66999982       5.04000013       0.00000000 </v>
     <v>       0.00000000       0.00000000      30.00000000 </v>
    </varray>
    <i name="volume">   2621.80797419 </i>
    <varray name="rec_basis" >
     <v>       0.05767013       0.09920635       0.00000000 </v>
     <v>      -0.05767013       0.09920635       0.00000000 </v>
     <v>       0.00000000       0.00000000       0.03333333 </v>
    </varray>
   </crystal>
   <varray name="positions" >
    <v>       0.33333334       0.00000000       0.00000000 </v>
    <v>       0.66666669       0.33333334       0.00000000 </v>
    <v>       0.66666669       0.00000000       0.00000000 </v>
    <v>       0.33333334       0.66666669       0.00000000 </v>
    <v>       0.66666669       0.66666669       0.00000000 </v>
    <v>       0.00000000       0.66666669       0.00000000 </v>
    <v>       0.00000000       0.00000000       0.00000000 </v>
    <v>       1.00000000       0.33333334       0.00000000 </v>
    <v>       0.33333334       0.33333334       0.00000000 </v>
    <v>       0.11068511       0.22244981       0.95539999 </v>
    <v>       0.22244981       0.11068511       0.04460000 </v>
    <v>       0.11068511       0.55578315       0.95539999 </v>
    <v>       0.22244981       0.44401845       0.04460000 </v>
    <v>       0.11068511       0.88911647       0.95539999 </v>
    <v>       0.22244981       0.77735180       0.04460000 </v>
    <v>       0.44401845       0.22244981       0.95539999 </v>
    <v>       0.55578315       0.11068511       0.04460000 </v>
    <v>       0.44401845       0.55578315       0.95539999 </v>
    <v>       0.55578315       0.44401845       0.04460000 </v>
    <v>       0.44401845       0.88911647       0.95539999 </v>
    <v>       0.55578315       0.77735180       0.04460000 </v>
    <v>       0.77735180       0.22244981       0.95539999 </v>
    <v>       0.88911647       0.11068511       0.04460000 </v>
    <v>       0.77735180       0.55578315       0.95539999 </v>
    <v>       0.88911647       0.44401845       0.04460000 </v>
    <v>       0.77735180       0.88911647       0.95539999 </v>
    <v>       0.88911647       0.77735180       0.04460000 </v>
   </varray>
  </structure>
  <varray name="forces" >
   <v>       0.30701395      -0.19815415       0.03421682 </v>
   <v>      -0.11861425       0.20540831       0.00660028 </v>
   <v>       0.02060600      -0.34981327       0.04349538 </v>
   <v>      -0.01753881       0.00647181       0.13143609 </v>
   <v>       0.00294272       0.00886495      -0.11816079 </v>
   <v>      -0.00631388       0.00216582      -0.11590524 </v>
   <v>       0.29453554      -0.48951111      -0.12927725 </v>
   <v>      -0.35949241       0.37836480       0.08331973 </v>
   <v>      -0.15411544       0.47492667       0.06821837 </v>
   <v>       0.15688192      -0.03444553      -2.86306814 </v>
   <v>       0.58185197       0.01846264       2.08467287 </v>
   <v>       0.17528390      -0.14536782      -2.89758057 </v>
   <v>      -0.04487898      -0.14116321       2.97853015 </v>
   <v>       0.34920288       0.68454054      -2.19171670 </v>
   <v>      -0.49918049       0.70072648       2.14044226 </v>
   <v>       0.74729041      -0.00518907      -1.44407010 </v>
   <v>      -0.05943526      -0.01256281       0.76437635 </v>
   <v>       0.22088823      -0.11952313      -2.89231063 </v>
   <v>       0.66201804      -0.17434795       2.12024847 </v>
   <v>      -0.33034006       0.67778897      -1.42928830 </v>
   <v>      -0.54137165       0.67761556       2.13662029 </v>
   <v>      -0.23416288      -0.52700771      -1.39770037 </v>
   <v>      -0.47488652      -0.54709536       2.12481267 </v>
   <v>       0.51614988      -0.68116610      -2.14739304 </v>
   <v>      -0.34387667      -0.71054244       2.16419936 </v>
   <v>      -0.64647446       0.15642134      -2.14430380 </v>
   <v>      -0.20398370       0.14413177       2.88958582 </v>
  </varray>
  <varray name="stress" >
   <v>       7.25554477      -0.12937137      -1.53282241 </v>
   <v>      -0.12937131       4.49111982      -0.04161298 </v>
   <v>      -1.53282254      -0.04161296      30.31829341 </v>
  </varray>
  <energy>
   <i name="e_fr_energy">   -186.82628271 </i>
   <i name="e_wo_entrp">   -186.65571093 </i>
   <i name="e_0_energy">     -0.34114355 </i>
  </energy>
  <time name="totalsc">  804.34  806.50</time>
 </calculation>
 <calculation>
  <scstep>
   <time name="dav">   21.80   21.86</time>
   <time name="total">   22.35   22.41</time>
   <energy>
    <i name="alphaZ">     78.92303511 </i>
    <i name="ewald">  39379.94330063 </i>
    <i name="hartreedc"> -45337.28596148 </i>
    <i name="XCdc">   -239.07355961 </i>
    <i name="pawpsdc">   4192.05621747 </i>
    <i name="pawaedc">  -3610.05235594 </i>
    <i name="eentropy">     -0.27819820 </i>
    <i name="bandstr">  -1413.16677542 </i>
    <i name="atom">   6761.44252427 </i>
    <i name="e_fr_energy">   -187.49177316 </i>
    <i name="e_wo_entrp">   -187.21357496 </i>
    <i name="e_0_energy">   -187.35267406 </i>
   </energy>
  </scstep>
  <scstep>
   <time name="dav">   30.56   30.64</time>
   <time name="total">   31.11   31.20</time>
   <energy>
    <i name="e_fr_energy">   -189.35012729 </i>
    <i name="e_wo_entrp">   -189.03376496 </i>
    <i name="e_0_energy">   -189.19194612 </i>
   </energy>
  </scstep>
  <scstep>
   <time name="dav">   30.73   30.81</time>
   <time name="total">   31.29   31.37</time>
   <energy>
    <i name="e_fr_energy">   -189.34772905 </i>
    <i name="e_wo_entrp">   -189.08864595 </i>
    <i name="e_0_energy">   -189.21818750 </i>
   </energy>
  </scstep>
  <scstep>
   <time name="dav">   31.36   31.43</time>
   <time name="total">   31.90   31.99</time>
   <energy>
    <i name="e_fr_energy">   -188.74259689 </i>
    <i name="e_wo_entrp">   -188.46206626 </i>
    <i name="e_0_energy">   -188.60233158 </i>
   </energy>
  </scstep>
  <scstep>
   <time name="dav">   26.55   26.62</time>
   <time name="total">   27.10   27.18</time>
   <energy>
    <i name="e_fr_energy">   -188.72554218 </i>
    <i name="e_wo_entrp">   -188.44922665 </i>
    <i name="e_0_energy">   -188.58738442 </i>
   </energy>
  </scstep>
  <scstep>
   <time name="dav">   30.19   30.26</time>
   <time name="total">   30.74   30.82</time>
   <energy>
    <i name="e_fr_energy">   -188.69117312 </i>
    <i name="e_wo_entrp">   -188.41128953 </i>
    <i name="e_0_energy">   -188.55123133 </i>
   </energy>
  </scstep>
  <scstep>
   <time name="dav">   31.91   31.99</time>
   <time name="total">   32.47   32.55</time>
   <energy>
    <i name="e_fr_energy">   -188.69942076 </i>
    <i name="e_wo_entrp">   -188.41896597 </i>
    <i name="e_0_energy">   -188.55919337 </i>
   </energy>
  </scstep>
  <scstep>
   <time name="dav">   32.38   32.46</time>
   <time name="total">   32.93   33.02</time>
   <energy>
    <i name="e_fr_energy">   -188.65771641 </i>
    <i name="e_wo_entrp">   -188.38012943 </i>
    <i name="e_0_energy">   -188.51892292 </i>
   </energy>
  </scstep>
  <scstep>
   <time name="dav">   26.82   26.88</time>
   <time name="total">   27.36   27.44</time>
   <energy>
    <i name="e_fr_energy">   -188.65615384 </i>
    <i name="e_wo_entrp">   -188.37928893 </i>
    <i name="e_0_energy">   -188.51772138 </i>
   </energy>
  </scstep>
  <scstep>
   <time name="dav">   32.31   32.39</time>
   <time name="total">   32.86   32.95</time>
   <energy>
    <i name="e_fr_energy">   -188.65647919 </i>
    <i name="e_wo_entrp">   -188.38026407 </i>
    <i name="e_0_energy">   -188.51837163 </i>
   </energy>
  </scstep>
  <scstep>
   <time name="dav">   32.09   32.17</time>
   <time name="total">   32.64   32.72</time>
   <energy>
    <i name="e_fr_energy">   -188.65575159 </i>
    <i name="e_wo_entrp">   -188.37952896 </i>
    <i name="e_0_energy">   -188.51764028 </i>
   </energy>
  </scstep>
  <scstep>
   <time name="dav">   29.46   29.53</time>
   <time name="total">   30.01   30.09</time>
   <energy>
    <i name="e_fr_energy">   -188.65560724 </i>
    <i name="e_wo_entrp">   -188.37950409 </i>
    <i name="e_0_energy">   -188.51755567 </i>
   </energy>
  </scstep>
  <scstep>
   <time name="dav">   20.79   20.83</time>
   <time name="total">   20.82   20.88</time>
   <energy>
    <i name="alphaZ">     78.92303511 </i>
    <i name="ewald">  39379.94330063 </i>
    <i name="hartreedc"> -45348.16040303 </i>
    <i name="XCdc">   -237.98048711 </i>
    <i name="pawpsdc">   3950.51385467 </i>
    <i name="pawaedc">  -3365.01531847 </i>
    <i name="eentropy">     -0.27626914 </i>
    <i name="bandstr">  -1408.04582803 </i>
    <i name="atom">   6761.44252427 </i>
    <i name="e_fr_energy">   -188.65559109 </i>
    <i name="e_wo_entrp">   -188.37932195 </i>
    <i name="e_0_energy">   -188.51745652 </i>
   </energy>
  </scstep>
  <structure>
   <crystal>
    <varray name="basis" >
     <v>       8.85202109       5.10290280       0.00000000 </v>
     <v>      -8.85583386       5.10946215       0.00000000 </v>
     <v>       0.00000000       0.00000000      30.00000000 </v>
    </varray>
    <i name="volume">   2712.58578240 </i>
    <varray name="rec_basis" >
     <v>       0.05650839       0.09794161       0.00000000 </v>
     <v>      -0.05643585       0.09789944       0.00000000 </v>
     <v>       0.00000000       0.00000000       0.03333333 </v>
    </varray>
   </crystal>
   <varray name="positions" >
    <v>       0.33323914      -0.00180252       0.00005502 </v>
    <v>       0.66731976       0.33464643       0.00001061 </v>
    <v>       0.66504982      -0.00173153       0.00006994 </v>
    <v>       0.33331552       0.66674646       0.00021136 </v>
    <v>       0.66671730       0.66670093      -0.00019001 </v>
    <v>      -0.00000720       0.66669462      -0.00018639 </v>
    <v>      -0.00152334      -0.00316223      -0.00020789 </v>
    <v>       1.00081068       0.33614435       0.00013399 </v>
    <v>       0.33517756       0.33603511       0.00010970 </v>
    <v>       0.11095673       0.22184848       0.95079592 </v>
    <v>       0.22415698       0.10915467       0.04795234 </v>
    <v>       0.11047705       0.55459976       0.95074042 </v>
    <v>       0.22164934       0.44346771       0.04938974 </v>
    <v>       0.11493284       0.89142112       0.95187552 </v>
    <v>       0.22441467       0.78209426       0.04804202 </v>
    <v>       0.44607270       0.22034589       0.95307780 </v>
    <v>       0.55555767       0.11079034       0.04582918 </v>
    <v>       0.44406096       0.55459657       0.95074890 </v>
    <v>       0.55679057       0.44134219       0.04800955 </v>
    <v>       0.44634328       0.89327941       0.95310157 </v>
    <v>       0.55752002       0.78210103       0.04803587 </v>
    <v>       0.77417807       0.22057904       0.95315236 </v>
    <v>       0.88517687       0.10938793       0.04801689 </v>
    <v>       0.77552776       0.55108710       0.95194679 </v>
    <v>       0.88475911       0.44157453       0.04808022 </v>
    <v>       0.77630183       0.89166369       0.95195176 </v>
    <v>       0.88923876       0.77860912       0.04924671 </v>
   </varray>
  </structure>
  <varray name="forces" >
   <v>       0.18968747      -0.23047385       0.08498125 </v>
   <v>      -0.11122721       0.20064457      -0.09697781 </v>
   <v>       0.10085438      -0.28015730       0.09340604 </v>
   <v>       0.18845438      -0.33323061       0.05866104 </v>
   <v>       0.00977091       0.07048166      -0.03061174 </v>
   <v>      -0.06456802       0.02518865      -0.03186831 </v>
   <v>       0.32060677      -0.55588948       0.05304345 </v>
   <v>      -0.17809393       0.59136908      -0.05538628 </v>
   <v>      -0.41761908       0.44735029      -0.05852385 </v>
   <v>      -0.01481767      -0.00463661       0.26532397 </v>
   <v>      -0.10335803       0.00728014      -0.24089821 </v>
   <v>       0.05334965      -0.10320698      -0.13713768 </v>
   <v>       0.06697916      -0.08916546       0.18538776 </v>
   <v>      -0.09556159       0.04879142      -0.09755711 </v>
   <v>      -0.02897137       0.07478740       0.05690914 </v>
   <v>      -0.08852976       0.00822989       0.25489661 </v>
   <v>      -0.01177913      -0.00523772      -0.20471235 </v>
   <v>       0.05185077      -0.10205966      -0.13439862 </v>
   <v>      -0.01936821      -0.10358014       0.06647371 </v>
   <v>      -0.01103142       0.05438314       0.01047008 </v>
   <v>      -0.03335882       0.07099031       0.05323788 </v>
   <v>       0.04519887       0.06281877       0.23246010 </v>
   <v>       0.05650667       0.07653533      -0.26327953 </v>
   <v>       0.03400809      -0.07764409      -0.09448492 </v>
   <v>       0.10110333      -0.05223882       0.05080496 </v>
   <v>       0.01395110       0.09357366      -0.11648446 </v>
   <v>      -0.05403729       0.10509639       0.09626488 </v>
  </varray>
  <varray name="stress" >
   <v>     -19.88863865       0.02386389      -0.01877352 </v>
   <v>       0.02386355     -19.49059642       0.10050430 </v>
   <v>      -0.01877354       0.10050409      -1.77102637 </v>
  </varray>
  <energy>
   <i name="e_fr_energy">   -188.65559109 </i>
   <i name="e_wo_entrp">   -188.51745652 </i>
   <i name="e_0_energy">     -0.27626914 </i>
  </energy>
  <time name="totalsc">  426.11  427.26</time>
 </calculation>
 <calculation>
  <scstep>
   <time name="dav">   24.14   24.20</time>
   <time name="total">   24.68   24.74</time>
   <energy>
    <i name="alphaZ">     82.34679850 </i>
    <i name="ewald">  41303.07693909 </i>
    <i name="hartreedc"> -47301.80322352 </i>
    <i name="XCdc">   -233.85872767 </i>
    <i name="pawpsdc">   3949.71316343 </i>
    <i name="pawaedc">  -3364.20743523 </i>
    <i name="eentropy">     -0.23141272 </i>
    <i name="bandstr">  -1387.05977355 </i>
    <i name="atom">   6761.44252427 </i>
    <i name="e_fr_energy">   -190.58114740 </i>
    <i name="e_wo_entrp">   -190.34973468 </i>
    <i name="e_0_energy">   -190.46544104 </i>
   </energy>
  </scstep>
  <scstep>
   <time name="dav">   29.29   29.36</time>
   <time name="total">   29.82   29.90</time>
   <energy>
    <i name="e_fr_energy">   -190.52169565 </i>
    <i name="e_wo_entrp">   -190.30516532 </i>
    <i name="e_0_energy">   -190.41343048 </i>
   </energy>
  </scstep>
  <scstep>
   <time name="dav">   30.74   30.81</time>
   <time name="total">   31.27   31.35</time>
   <energy>
    <i name="e_fr_energy">   -190.06841474 </i>
    <i name="e_wo_entrp">   -189.82077951 </i>
    <i name="e_0_energy">   -189.94459713 </i>
   </energy>
  </scstep>
  <scstep>
   <time name="dav">   31.84   31.91</time>
   <time name="total">   32.38   32.46</time>
   <energy>
    <i name="e_fr_energy">   -189.85459710 </i>
    <i name="e_wo_entrp">   -189.63203488 </i>
    <i name="e_0_energy">   -189.74331599 </i>
   </energy>
  </scstep>
  <scstep>
   <time name="dav">   28.97   29.04</time>
   <time name="total">   29.51   29.59</time>
   <energy>
    <i name="e_fr_energy">   -189.76436925 </i>
    <i name="e_wo_entrp">   -189.53170318 </i>
    <i name="e_0_energy">   -189.64803621 </i>
   </energy>
  </scstep>
  <scstep>
   <time name="dav">   29.83   29.91</time>
   <time name="total">   30.37   30.45</time>
   <energy>
    <i name="e_fr_energy">   -189.75333258 </i>
    <i name="e_wo_entrp">   -189.52162279 </i>
    <i name="e_0_energy">   -189.63747768 </i>
   </energy>
  </scstep>
  <scstep>
   <time name="dav">   30.21   30.29</time>
   <time name="total">   30.75   30.83</time>
   <energy>
    <i name="e_fr_energy">   -189.75085722 </i>
    <i name="e_wo_entrp">   -189.51954426 </i>
    <i name="e_0_energy">   -189.63520074 </i>
   </energy>
  </scstep>
  <scstep>
   <time name="dav">   29.36   29.43</time>
   <time name="total">   29.90   29.98</time>
   <energy>
    <i name="e_fr_energy">   -189.75032840 </i>
    <i name="e_wo_entrp">   -189.51898479 </i>
    <i name="e_0_energy">   -189.63465660 </i>
   </energy>
  </scstep>
  <scstep>
   <time name="dav">   28.39   28.46</time>
   <time name="total">   28.92   29.00</time>
   <energy>
    <i name="e_fr_energy">   -189.75080690 </i>
    <i name="e_wo_entrp">   -189.51940582 </i>
    <i name="e_0_energy">   -189.63510636 </i>
   </energy>
  </scstep>
  <scstep>
   <time name="dav">   26.13   26.19</time>
   <time name="total">   26.67   26.74</time>
   <energy>
    <i name="e_fr_energy">   -189.75076119 </i>
    <i name="e_wo_entrp">   -189.51922350 </i>
    <i name="e_0_energy">   -189.63499234 </i>
   </energy>
  </scstep>
  <scstep>
   <time name="dav">   26.59   26.65</time>
   <time name="total">   27.12   27.20</time>
   <energy>
    <i name="e_fr_energy">   -189.75047060 </i>
    <i name="e_wo_entrp">   -189.51890336 </i>
    <i name="e_0_energy">   -189.63468698 </i>
   </energy>
  </scstep>
  <scstep>
   <time name="dav">   17.73   17.78</time>
   <time name="total">   17.77   17.82</time>
   <energy>
    <i name="alphaZ">     82.34679850 </i>
    <i name="ewald">  41303.07693909 </i>
    <i name="hartreedc"> -47275.30718225 </i>
    <i name="XCdc">   -235.24916471 </i>
    <i name="pawpsdc">   4038.90853182 </i>
    <i name="pawaedc">  -3454.60583815 </i>
    <i name="eentropy">     -0.23153744 </i>
    <i name="bandstr">  -1410.13154962 </i>
    <i name="atom">   6761.44252427 </i>
    <i name="e_fr_energy">   -189.75047849 </i>
    <i name="e_wo_entrp">   -189.51894105 </i>
    <i name="e_0_energy">   -189.63470977 </i>
   </energy>
  </scstep>
  <structure>
   <crystal>
    <varray name="basis" >
     <v>       8.66429591       4.99700314       0.00000000 </v>
     <v>      -8.66776772       5.00297518       0.00000000 </v>
     <v>       0.00000000       0.00000000      30.00000000 </v>
    </varray>
    <i name="volume">   2599.80359704 </i>
    <varray name="rec_basis" >
     <v>       0.05773100       0.10002026       0.00000000 </v>
     <v>      -0.05766208       0.09998020       0.00000000 </v>
     <v>       0.00000000       0.00000000       0.03333333 </v>
    </varray>
   </crystal>
   <varray name="positions" >
    <v>       0.33303743      -0.00236863       0.00010323 </v>
    <v>       0.66754721       0.33508749      -0.00004439 </v>
    <v>       0.66467988      -0.00229509       0.00012293 </v>
    <v>       0.33294137       0.66601035       0.00024463 </v>
    <v>       0.66684416       0.66680896      -0.00020738 </v>
    <v>      -0.00002731       0.66679859      -0.00020446 </v>
    <v>      -0.00214151      -0.00439617      -0.00017780 </v>
    <v>       1.00162501       0.33730054       0.00010257 </v>
    <v>       0.33552155       0.33718140       0.00007651 </v>
    <v>       0.11093475       0.22185499       0.95094642 </v>
    <v>       0.22406972       0.10926605       0.04781570 </v>
    <v>       0.11035634       0.55437659       0.95066264 </v>
    <v>       0.22156515       0.44325485       0.04949489 </v>
    <v>       0.11492227       0.89159418       0.95182018 </v>
    <v>       0.22451145       0.78224667       0.04807430 </v>
    <v>       0.44600129       0.22044462       0.95322238 </v>
    <v>       0.55553761       0.11079293       0.04571307 </v>
    <v>       0.44394073       0.55437676       0.95067267 </v>
    <v>       0.55659932       0.44118823       0.04804725 </v>
    <v>       0.44642331       0.89338060       0.95310751 </v>
    <v>       0.55760626       0.78225133       0.04806607 </v>
    <v>       0.77432623       0.22064028       0.95328422 </v>
    <v>       0.88535876       0.10946117       0.04786755 </v>
    <v>       0.77543106       0.55092509       0.95189320 </v>
    <v>       0.88476926       0.44139042       0.04810904 </v>
    <v>       0.77647120       0.89180618       0.95188569 </v>
    <v>       0.88936196       0.77883610       0.04930131 </v>
   </varray>
  </structure>
  <varray name="forces" >
   <v>       0.13528673      -0.27339208       0.07612624 </v>
   <v>      -0.12752698       0.22658254      -0.09973599 </v>
   <v>       0.16372967      -0.25715833       0.08051621 </v>
   <v>       0.25758951      -0.45185497       0.02778142 </v>
   <v>       0.01286942       0.09610417      -0.00365884 </v>
   <v>      -0.09007693       0.03495353      -0.00454983 </v>
   <v>       0.33026179      -0.57607670       0.08196645 </v>
   <v>      -0.11574484       0.66689778      -0.06824173 </v>
   <v>      -0.51406135       0.43284214      -0.06751908 </v>
   <v>      -0.00748070      -0.01616180      -0.25424047 </v>
   <v>       0.03113527       0.01626871       0.22508225 </v>
   <v>       0.00511136      -0.01251715      -0.70084128 </v>
   <v>       0.02530847      -0.02078795       0.79228717 </v>
   <v>       0.03914143       0.11829999      -0.62166866 </v>
   <v>      -0.06460352       0.13110505       0.53959001 </v>
   <v>       0.06545439      -0.00013028      -0.18265086 </v>
   <v>      -0.01893537       0.00369716       0.20153516 </v>
   <v>      -0.00089744      -0.01313486      -0.69832657 </v>
   <v>       0.09382806      -0.01879839       0.57352862 </v>
   <v>      -0.03995739       0.10317636      -0.42854725 </v>
   <v>      -0.06599891       0.12712459       0.53697446 </v>
   <v>      -0.02265865      -0.06938218      -0.20321564 </v>
   <v>      -0.01982935      -0.03228507       0.20566003 </v>
   <v>       0.07211004      -0.13992075      -0.58778845 </v>
   <v>      -0.03007532      -0.10726641       0.55931707 </v>
   <v>      -0.11039667       0.01513395      -0.63803231 </v>
   <v>      -0.00358271       0.01668096       0.65865188 </v>
  </varray>
  <varray name="stress" >
   <v>     -10.14555252       0.03203032      -0.04664526 </v>
   <v>       0.03203027      -9.85470379       0.11854109 </v>
   <v>      -0.04664539       0.11854112       6.46764859 </v>
  </varray>
  <energy>
   <i name="e_fr_energy">   -189.75047849 </i>
   <i name="e_wo_entrp">   -189.63470977 </i>
   <i name="e_0_energy">     -0.23153744 </i>
  </energy>
  <time name="totalsc">  381.60  382.61</time>
 </calculation>
 <calculation>
  <scstep>
   <time name="dav">   21.84   21.89</time>
   <time name="total">   22.36   22.42</time>
   <energy>
    <i name="alphaZ">     85.83509735 </i>
    <i name="ewald">  42841.32968790 </i>
    <i name="hartreedc"> -48858.03666553 </i>
    <i name="XCdc">   -232.94858948 </i>
    <i name="pawpsdc">   4038.87686100 </i>
    <i name="pawaedc">  -3454.57125256 </i>
    <i name="eentropy">     -0.18900476 </i>
    <i name="bandstr">  -1373.09367280 </i>
    <i name="atom">   6761.44252427 </i>
    <i name="e_fr_energy">   -191.35501461 </i>
    <i name="e_wo_entrp">   -191.16600985 </i>
    <i name="e_0_energy">   -191.26051223 </i>
   </energy>
  </scstep>
  <scstep>
   <time name="dav">   32.80   32.88</time>
   <time name="total">   33.32   33.41</time>
   <energy>
    <i name="e_fr_energy">   -191.13590559 </i>
    <i name="e_wo_entrp">   -190.95282781 </i>
    <i name="e_0_energy">   -191.04436670 </i>
   </energy>
  </scstep>
  <scstep>
   <time name="dav">   30.22   30.29</time>
   <time name="total">   30.73   30.81</time>
   <energy>
    <i name="e_fr_energy">   -191.33263051 </i>
    <i name="e_wo_entrp">   -191.11440293 </i>
    <i name="e_0_energy">   -191.22351672 </i>
   </energy>
  </scstep>
  <scstep>
   <time name="dav">   31.90   31.98</time>
   <time name="total">   32.43   32.51</time>
   <energy>
    <i name="e_fr_energy">   -190.91206082 </i>
    <i name="e_wo_entrp">   -190.72916924 </i>
    <i name="e_0_energy">   -190.82061503 </i>
   </energy>
  </scstep>
  <scstep>
   <time name="dav">   27.66   27.73</time>
   <time name="total">   28.19   28.26</time>
   <energy>
    <i name="e_fr_energy">   -190.80790179 </i>
    <i name="e_wo_entrp">   -190.61497466 </i>
    <i name="e_0_energy">   -190.71143823 </i>
   </energy>
  </scstep>
  <scstep>
   <time name="dav">   31.26   31.34</time>
   <time name="total">   31.78   31.87</time>
   <energy>
    <i name="e_fr_energy">   -190.79911002 </i>
    <i name="e_wo_entrp">   -190.60476029 </i>
    <i name="e_0_energy">   -190.70193515 </i>
   </energy>
  </scstep>
  <scstep>
   <time name="dav">   29.73   29.80</time>
   <time name="total">   30.26   30.34</time>
   <energy>
    <i name="e_fr_energy">   -190.77969167 </i>
    <i name="e_wo_entrp">   -190.58822697 </i>
    <i name="e_0_energy">   -190.68395932 </i>
   </energy>
  </scstep>
  <scstep>
   <time name="dav">   25.99   26.05</time>
   <time name="total">   26.52   26.59</time>
   <energy>
    <i name="e_fr_energy">   -190.77547587 </i>
    <i name="e_wo_entrp">   -190.58301977 </i>
    <i name="e_0_energy">   -190.67924782 </i>
   </energy>
  </scstep>
  <scstep>
   <time name="dav">   31.56   31.63</time>
   <time name="total">   32.08   32.17</time>
   <energy>
    <i name="e_fr_energy">   -190.77627809 </i>
    <i name="e_wo_entrp">   -190.58363656 </i>
    <i name="e_0_energy">   -190.67995732 </i>
   </energy>
  </scstep>
  <scstep>
   <time name="dav">   27.90   27.97</time>
   <time name="total">   28.43   28.50</time>
   <energy>
    <i name="e_fr_energy">   -190.77577306 </i>
    <i name="e_wo_entrp">   -190.58302049 </i>
    <i name="e_0_energy">   -190.67939677 </i>
   </energy>
  </scstep>
  <scstep>
   <time name="dav">   26.02   26.08</time>
   <time name="total">   26.54   26.62</time>
   <energy>
    <i name="e_fr_energy">   -190.77557387 </i>
    <i name="e_wo_entrp">   -190.58294884 </i>
    <i name="e_0_energy">   -190.67926135 </i>
   </energy>
  </scstep>
  <scstep>
   <time name="dav">   20.15   20.20</time>
   <time name="total">   20.19   20.25</time>
   <energy>
    <i name="alphaZ">     85.83509735 </i>
    <i name="ewald">  42841.32968790 </i>
    <i name="hartreedc"> -48829.37908634 </i>
    <i name="XCdc">   -234.27885211 </i>
    <i name="pawpsdc">   4064.64229519 </i>
    <i name="pawaedc">  -3480.52142672 </i>
    <i name="eentropy">     -0.19267774 </i>
    <i name="bandstr">  -1399.65312650 </i>
    <i name="atom">   6761.44252427 </i>
    <i name="e_fr_energy">   -190.77556470 </i>
    <i name="e_wo_entrp">   -190.58288696 </i>
    <i name="e_0_energy">   -190.67922583 </i>
   </energy>
  </scstep>
  <structure>
   <crystal>
    <varray name="basis" >
     <v>       8.48329871       4.89769669       0.00000000 </v>
     <v>      -8.48540968       4.90131623       0.00000000 </v>
     <v>       0.00000000       0.00000000      30.00000000 </v>
    </varray>
    <i name="volume">   2494.14877534 </i>
    <varray name="rec_basis" >
     <v>       0.05895378       0.10206380       0.00000000 </v>
     <v>      -0.05891024       0.10203840       0.00000000 </v>
     <v>       0.00000000       0.00000000       0.03333333 </v>
    </varray>
   </crystal>
   <varray name="positions" >
    <v>       0.33162881      -0.00459821       0.00025331 </v>
    <v>       0.66854669       0.33705512      -0.00025321 </v>
    <v>       0.66380868      -0.00452996       0.00027868 </v>
    <v>       0.33084598       0.66185543       0.00027596 </v>
    <v>       0.66756108       0.66742368      -0.00019209 </v>
    <v>      -0.00014644       0.66740382      -0.00019071 </v>
    <v>      -0.00459252      -0.00926096       0.00001641 </v>
    <v>       1.00566223       0.34199362      -0.00004961 </v>
    <v>       0.33619927       0.34185134      -0.00007090 </v>
    <v>       0.11078827       0.22174156       0.94997947 </v>
    <v>       0.22450000       0.10908474       0.04867684 </v>
    <v>       0.11045304       0.55457488       0.94873369 </v>
    <v>       0.22163692       0.44326338       0.05164978 </v>
    <v>       0.11617181       0.89217334       0.95008872 </v>
    <v>       0.22518826       0.78349250       0.04960071 </v>
    <v>       0.44643774       0.21996544       0.95247319 </v>
    <v>       0.55550427       0.11091701       0.04647481 </v>
    <v>       0.44400094       0.55459497       0.94874874 </v>
    <v>       0.55719488       0.44078021       0.04966459 </v>
    <v>       0.44700517       0.89433413       0.95184801 </v>
    <v>       0.55825693       0.78347252       0.04958796 </v>
    <v>       0.77338264       0.22005580       0.95249404 </v>
    <v>       0.88470388       0.10916918       0.04869100 </v>
    <v>       0.77471487       0.54957854       0.95025800 </v>
    <v>       0.88366278       0.44087861       0.04969819 </v>
    <v>       0.77579252       0.89228292       0.95012252 </v>
    <v>       0.88930573       0.77866084       0.05114180 </v>
   </varray>
  </structure>
  <varray name="forces" >
   <v>       0.12869254      -0.28502328       0.02558779 </v>
   <v>      -0.11049281       0.19374198      -0.06988849 </v>
   <v>       0.17899819      -0.25473729       0.02509040 </v>
   <v>       0.31933347      -0.55979464      -0.03503785 </v>
   <v>       0.03441833       0.15124969       0.02584314 </v>
   <v>      -0.14602619       0.04462050       0.02618228 </v>
   <v>       0.40615117      -0.70715158       0.03593342 </v>
   <v>      -0.11959675       0.77654660      -0.02621283 </v>
   <v>      -0.61347628       0.48995406      -0.02651392 </v>
   <v>       0.02063362      -0.03745442      -0.04326775 </v>
   <v>      -0.03401936       0.03598909       0.03262778 </v>
   <v>      -0.06559482       0.07558031      -0.54719409 </v>
   <v>      -0.01543931       0.02556832       0.71704555 </v>
   <v>       0.05004904       0.02069276      -0.47844749 </v>
   <v>       0.02211901       0.01898790       0.38104004 </v>
   <v>      -0.02226453       0.00522304      -0.07492276 </v>
   <v>      -0.01369848       0.00643910       0.20126664 </v>
   <v>      -0.03061999       0.09510719      -0.54506615 </v>
   <v>       0.00181136       0.01791786       0.36951202 </v>
   <v>       0.02653011      -0.02326134      -0.29299953 </v>
   <v>      -0.02922198      -0.01075463       0.38084460 </v>
   <v>       0.01847714       0.02244189      -0.08037385 </v>
   <v>      -0.01921282       0.03959243       0.02622850 </v>
   <v>       0.01606425      -0.02360719      -0.45066066 </v>
   <v>      -0.02232090      -0.00198990       0.36560990 </v>
   <v>      -0.03047610      -0.03116825      -0.48289716 </v>
   <v>       0.04918210      -0.08471019       0.54067047 </v>
  </varray>
  <varray name="stress" >
   <v>      -5.79310386      -0.15638158      -0.03049214 </v>
   <v>      -0.15638149      -5.62515980      -0.07236808 </v>
   <v>      -0.03049213      -0.07236812       4.56880107 </v>
  </varray>
  <energy>
   <i name="e_fr_energy">   -190.77556470 </i>
   <i name="e_wo_entrp">   -190.67922583 </i>
   <i name="e_0_energy">     -0.19267774 </i>
  </energy>
  <time name="totalsc">  385.38  386.40</time>
 </calculation>
 <calculation>
  <scstep>
   <time name="dav">   21.90   21.95</time>
   <time name="total">   22.41   22.47</time>
   <energy>
    <i name="alphaZ">     90.11132695 </i>
    <i name="ewald">  44638.73494851 </i>
    <i name="hartreedc"> -50681.00757494 </i>
    <i name="XCdc">   -231.88639342 </i>
    <i name="pawpsdc">   4064.52756404 </i>
    <i name="pawaedc">  -3480.40152212 </i>
    <i name="eentropy">     -0.16471464 </i>
    <i name="bandstr">  -1353.56567475 </i>
    <i name="atom">   6761.44252427 </i>
    <i name="e_fr_energy">   -192.20951610 </i>
    <i name="e_wo_entrp">   -192.04480146 </i>
    <i name="e_0_energy">   -192.12715878 </i>
   </energy>
  </scstep>
  <scstep>
   <time name="dav">   26.16   26.22</time>
   <time name="total">   26.67   26.74</time>
   <energy>
    <i name="e_fr_energy">   -191.94000546 </i>
    <i name="e_wo_entrp">   -191.76344291 </i>
    <i name="e_0_energy">   -191.85172418 </i>
   </energy>
  </scstep>
  <scstep>
   <time name="dav">   27.43   27.50</time>
   <time name="total">   27.94   28.03</time>
   <energy>
    <i name="e_fr_energy">   -191.75992481 </i>
    <i name="e_wo_entrp">   -191.59907739 </i>
    <i name="e_0_energy">   -191.67950110 </i>
   </energy>
  </scstep>
  <scstep>
   <time name="dav">   29.61   29.68</time>
   <time name="total">   30.12   30.20</time>
   <energy>
    <i name="e_fr_energy">   -191.80616959 </i>
    <i name="e_wo_entrp">   -191.61603860 </i>
    <i name="e_0_energy">   -191.71110410 </i>
   </energy>
  </scstep>
  <scstep>
   <time name="dav">   27.85   27.92</time>
   <time name="total">   28.36   28.44</time>
   <energy>
    <i name="e_fr_energy">   -191.63177596 </i>
    <i name="e_wo_entrp">   -191.45468004 </i>
    <i name="e_0_energy">   -191.54322800 </i>
   </energy>
  </scstep>
  <scstep>
   <time name="dav">   30.31   30.38</time>
   <time name="total">   30.82   30.90</time>
   <energy>
    <i name="e_fr_energy">   -191.60476123 </i>
    <i name="e_wo_entrp">   -191.43907506 </i>
    <i name="e_0_energy">   -191.52191815 </i>
   </energy>
  </scstep>
  <scstep>
   <time name="dav">   30.61   30.68</time>
   <time name="total">   31.12   31.20</time>
   <energy>
    <i name="e_fr_energy">   -191.58434518 </i>
    <i name="e_wo_entrp">   -191.41052908 </i>
    <i name="e_0_energy">   -191.49743713 </i>
   </energy>
  </scstep>
  <scstep>
   <time name="dav">   30.24   30.31</time>
   <time name="total">   30.75   30.84</time>
   <energy>
    <i name="e_fr_energy">   -191.57774061 </i>
    <i name="e_wo_entrp">   -191.40557506 </i>
    <i name="e_0_energy">   -191.49165783 </i>
   </energy>
  </scstep>
  <scstep>
   <time name="dav">   27.65   27.72</time>
   <time name="total">   28.16   28.24</time>
   <energy>
    <i name="e_fr_energy">   -191.57796169 </i>
    <i name="e_wo_entrp">   -191.40524816 </i>
    <i name="e_0_energy">   -191.49160492 </i>
   </energy>
  </scstep>
  <scstep>
   <time name="dav">   28.40   28.47</time>
   <time name="total">   28.91   28.99</time>
   <energy>
    <i name="e_fr_energy">   -191.57823148 </i>
    <i name="e_wo_entrp">   -191.40556976 </i>
    <i name="e_0_energy">   -191.49190062 </i>
   </energy>
  </scstep>
  <scstep>
   <time name="dav">   24.12   24.18</time>
   <time name="total">   24.64   24.70</time>
   <energy>
    <i name="e_fr_energy">   -191.57791116 </i>
    <i name="e_wo_entrp">   -191.40540473 </i>
    <i name="e_0_energy">   -191.49165795 </i>
   </energy>
  </scstep>
  <scstep>
   <time name="dav">   18.35   18.40</time>
   <time name="total">   18.39   18.44</time>
   <energy>
    <i name="alphaZ">     90.11132695 </i>
    <i name="ewald">  44638.73494851 </i>
    <i name="hartreedc"> -50648.02962767 </i>
    <i name="XCdc">   -233.35240721 </i>
    <i name="pawpsdc">   4088.36227481 </i>
    <i name="pawaedc">  -3504.33778183 </i>
    <i name="eentropy">     -0.17255255 </i>
    <i name="bandstr">  -1384.33662786 </i>
    <i name="atom">   6761.44252427 </i>
    <i name="e_fr_energy">   -191.57792257 </i>
    <i name="e_wo_entrp">   -191.40537002 </i>
    <i name="e_0_energy">   -191.49164630 </i>
   </energy>
  </scstep>
  <structure>
   <crystal>
    <varray name="basis" >
     <v>       8.27094988       4.77505643       0.00000000 </v>
     <v>      -8.28166991       4.79358808       0.00000000 </v>
     <v>       0.00000000       0.00000000      30.00000000 </v>
    </varray>
    <i name="volume">   2375.78903986 </i>
    <varray name="rec_basis" >
     <v>       0.06053048       0.10457582       0.00000000 </v>
     <v>      -0.06029647       0.10444046       0.00000000 </v>
     <v>       0.00000000       0.00000000       0.03333333 </v>
    </varray>
   </crystal>
   <varray name="positions" >
    <v>       0.32890168      -0.00895550       0.00037180 </v>
    <v>       0.67019896       0.34033187      -0.00054632 </v>
    <v>       0.66212901      -0.00887928       0.00039390 </v>
    <v>       0.32621022       0.65266089       0.00014130 </v>
    <v>       0.66959486       0.66900730      -0.00008005 </v>
    <v>      -0.00060336       0.66896078      -0.00007762 </v>
    <v>      -0.01019832      -0.02041728       0.00020927 </v>
    <v>       1.01434322       0.35213121      -0.00018682 </v>
    <v>       0.33764070       0.35197118      -0.00020509 </v>
    <v>       0.11046769       0.22116220       0.94920451 </v>
    <v>       0.22496873       0.10947172       0.04934925 </v>
    <v>       0.11100773       0.55606761       0.94596372 </v>
    <v>       0.22192520       0.44382526       0.05508850 </v>
    <v>       0.11733072       0.89221957       0.94763237 </v>
    <v>       0.22577229       0.78404496       0.05164227 </v>
    <v>       0.44664419       0.21982126       0.95170546 </v>
    <v>       0.55549061       0.11112722       0.04765400 </v>
    <v>       0.44495224       0.55608768       0.94598712 </v>
    <v>       0.55787074       0.44089327       0.05170764 </v>
    <v>       0.44714165       0.89431821       0.95020640 </v>
    <v>       0.55821640       0.78401344       0.05162850 </v>
    <v>       0.77311569       0.21982730       0.95169881 </v>
    <v>       0.88450305       0.10948395       0.04933428 </v>
    <v>       0.77429324       0.54870541       0.94794351 </v>
    <v>       0.88293950       0.44090477       0.05172192 </v>
    <v>       0.77478330       0.89224962       0.94764493 </v>
    <v>       0.88857455       0.77717982       0.05386633 </v>
   </varray>
  </structure>
  <varray name="forces" >
   <v>       0.23970732      -0.27225068       0.02015117 </v>
   <v>      -0.08914769       0.15195760      -0.01910842 </v>
   <v>       0.11541201      -0.34589175       0.01941361 </v>
   <v>       0.08673737      -0.14562297      -0.13192366 </v>
   <v>       0.10403599       0.12678807       0.01223155 </v>
   <v>      -0.16181017      -0.02549202       0.00983539 </v>
   <v>       0.30847455      -0.53572547      -0.10949419 </v>
   <v>      -0.13850732       0.51488726       0.11800832 </v>
   <v>      -0.38564835       0.38174378       0.11867923 </v>
   <v>       0.06127335      -0.10011720       0.33804624 </v>
   <v>      -0.19674134       0.03455572      -0.34427872 </v>
   <v>      -0.15829230       0.15423194      -0.25595020 </v>
   <v>      -0.02215187       0.03343174       0.40885642 </v>
   <v>       0.00897424      -0.09400093      -0.15601695 </v>
   <v>       0.14369675      -0.09320594       0.05316636 </v>
   <v>      -0.24189941       0.00625718       0.17344630 </v>
   <v>       0.01468913      -0.02257135      -0.02674871 </v>
   <v>      -0.05274392       0.21315454      -0.25560569 </v>
   <v>      -0.09488054       0.02399948       0.05339098 </v>
   <v>       0.08624464      -0.15318629      -0.05050478 </v>
   <v>       0.00606256      -0.17193070       0.05271472 </v>
   <v>       0.11524911       0.21504549       0.17495928 </v>
   <v>       0.06483833       0.19076532      -0.34028664 </v>
   <v>      -0.04442782       0.08085041      -0.13036164 </v>
   <v>       0.02855664       0.09521589       0.05743418 </v>
   <v>       0.08093750      -0.05311931      -0.15563448 </v>
   <v>       0.12136125      -0.20976981       0.36558033 </v>
  </varray>
  <varray name="stress" >
   <v>      -0.05507637      -0.38161937       0.24579798 </v>
   <v>      -0.38161939       0.41782197      -0.45148326 </v>
   <v>       0.24579795      -0.45148340      -0.43340485 </v>
  </varray>
  <energy>
   <i name="e_fr_energy">   -191.57792257 </i>
   <i name="e_wo_entrp">   -191.49164630 </i>
   <i name="e_0_energy">     -0.17255255 </i>
  </energy>
  <time name="totalsc">  370.54  371.54</time>
 </calculation>
 <calculation>
  <scstep>
   <time name="dav">   21.81   21.86</time>
   <time name="total">   22.32   22.38</time>
   <energy>
    <i name="alphaZ">     90.00808940 </i>
    <i name="ewald">  44568.76385302 </i>
    <i name="hartreedc"> -50577.88118743 </i>
    <i name="XCdc">   -233.52286752 </i>
    <i name="pawpsdc">   4088.20960035 </i>
    <i name="pawaedc">  -3504.17741141 </i>
    <i name="eentropy">     -0.16703157 </i>
    <i name="bandstr">  -1384.36491892 </i>
    <i name="atom">   6761.44252427 </i>
    <i name="e_fr_energy">   -191.68934980 </i>
    <i name="e_wo_entrp">   -191.52231823 </i>
    <i name="e_0_energy">   -191.60583402 </i>
   </energy>
  </scstep>
  <scstep>
   <time name="dav">   32.07   32.15</time>
   <time name="total">   32.58   32.66</time>
   <energy>
    <i name="e_fr_energy">   -191.76113707 </i>
    <i name="e_wo_entrp">   -191.57500146 </i>
    <i name="e_0_energy">   -191.66806927 </i>
   </energy>
  </scstep>
  <scstep>
   <time name="dav">   30.99   31.07</time>
   <time name="total">   31.50   31.59</time>
   <energy>
    <i name="e_fr_energy">   -191.70873740 </i>
    <i name="e_wo_entrp">   -191.53995076 </i>
    <i name="e_0_energy">   -191.62434408 </i>
   </energy>
  </scstep>
  <scstep>
   <time name="dav">   29.05   29.12</time>
   <time name="total">   29.56   29.64</time>
   <energy>
    <i name="e_fr_energy">   -191.70968896 </i>
    <i name="e_wo_entrp">   -191.54025655 </i>
    <i name="e_0_energy">   -191.62497276 </i>
   </energy>
  </scstep>
  <scstep>
   <time name="dav">   29.39   29.46</time>
   <time name="total">   29.90   29.98</time>
   <energy>
    <i name="e_fr_energy">   -191.70595961 </i>
    <i name="e_wo_entrp">   -191.53455824 </i>
    <i name="e_0_energy">   -191.62025893 </i>
   </energy>
  </scstep>
  <scstep>
   <time name="dav">   28.81   28.88</time>
   <time name="total">   29.32   29.40</time>
   <energy>
    <i name="e_fr_energy">   -191.70553990 </i>
    <i name="e_wo_entrp">   -191.53453102 </i>
    <i name="e_0_energy">   -191.62003546 </i>
   </energy>
  </scstep>
  <scstep>
   <time name="dav">   29.03   29.10</time>
   <time name="total">   29.54   29.62</time>
   <energy>
    <i name="e_fr_energy">   -191.70521177 </i>
    <i name="e_wo_entrp">   -191.53466347 </i>
    <i name="e_0_energy">   -191.61993762 </i>
   </energy>
  </scstep>
  <scstep>
   <time name="dav">   18.94   18.98</time>
   <time name="total">   18.98   19.03</time>
   <energy>
    <i name="alphaZ">     90.00808940 </i>
    <i name="ewald">  44568.76385302 </i>
    <i name="hartreedc"> -50579.63493071 </i>
    <i name="XCdc">   -233.45575016 </i>
    <i name="pawpsdc">   4085.36150745 </i>
    <i name="pawaedc">  -3501.28455709 </i>
    <i name="eentropy">     -0.17060842 </i>
    <i name="bandstr">  -1382.73539882 </i>
    <i name="atom">   6761.44252427 </i>
    <i name="e_fr_energy">   -191.70527106 </i>
    <i name="e_wo_entrp">   -191.53466264 </i>
    <i name="e_0_energy">   -191.61996685 </i>
   </energy>
  </scstep>
  <structure>
   <crystal>
    <varray name="basis" >
     <v>       8.26586140       4.77251983       0.00000000 </v>
     <v>      -8.28608754       4.80751875       0.00000000 </v>
     <v>       0.00000000       0.00000000      30.00000000 </v>
    </varray>
    <i name="volume">   2378.51402426 </i>
    <varray name="rec_basis" >
     <v>       0.06063684       0.10451173       0.00000000 </v>
     <v>      -0.06019540       0.10425662       0.00000000 </v>
     <v>       0.00000000       0.00000000       0.03333333 </v>
    </varray>
   </crystal>
   <varray name="positions" >
    <v>       0.32825627      -0.01096909       0.00040290 </v>
    <v>       0.67068719       0.34132073      -0.00057453 </v>
    <v>       0.66074887      -0.01090227       0.00042386 </v>
    <v>       0.32576773       0.65175240      -0.00006739 </v>
    <v>       0.67051291       0.66932835      -0.00006145 </v>
    <v>      -0.00119422       0.66928798      -0.00006284 </v>
    <v>      -0.01193982      -0.02389346       0.00003368 </v>
    <v>       1.01644844       0.35502162       0.00000182 </v>
    <v>       0.33842173       0.35490920      -0.00001543 </v>
    <v>       0.11014772       0.22049165       0.94975004 </v>
    <v>       0.22456869       0.11020789       0.04879483 </v>
    <v>       0.11131544       0.55727932       0.94557951 </v>
    <v>       0.22202548       0.44405070       0.05571096 </v>
    <v>       0.11687714       0.89172476       0.94740454 </v>
    <v>       0.22571719       0.78316170       0.05170975 </v>
    <v>       0.44597450       0.22055047       0.95198876 </v>
    <v>       0.55542055       0.11097097       0.04760132 </v>
    <v>       0.44585584       0.55728933       0.94560340 </v>
    <v>       0.55770968       0.44128511       0.05177524 </v>
    <v>       0.44662478       0.89330561       0.95014008 </v>
    <v>       0.55737568       0.78313397       0.05169527 </v>
    <v>       0.77452535       0.22057006       0.95198473 </v>
    <v>       0.88564516       0.11024654       0.04878643 </v>
    <v>       0.77457226       0.54924408       0.94775529 </v>
    <v>       0.88350428       0.44129705       0.05179610 </v>
    <v>       0.77476119       0.89175213       0.94741787 </v>
    <v>       0.88788442       0.77579765       0.05442515 </v>
   </varray>
  </structure>
  <varray name="forces" >
   <v>       0.27516282      -0.28654434       0.04182163 </v>
   <v>      -0.08981106       0.15125833      -0.07017841 </v>
   <v>       0.09232901      -0.37539713       0.04130129 </v>
   <v>       0.06663610      -0.12393081      -0.06145468 </v>
   <v>       0.13848882       0.10725159       0.01177864 </v>
   <v>      -0.16346061      -0.04854253       0.01180743 </v>
   <v>       0.31346549      -0.52476512      -0.00424060 </v>
   <v>      -0.18417768       0.51552765       0.02451513 </v>
   <v>      -0.35805041       0.42072104       0.02561510 </v>
   <v>       0.04900247      -0.08073923       0.37278973 </v>
   <v>      -0.15396659       0.02350156      -0.36960623 </v>
   <v>      -0.10266163       0.08120156      -0.14717986 </v>
   <v>      -0.05920593       0.09952828       0.28789742 </v>
   <v>       0.03752409      -0.07362996      -0.13851999 </v>
   <v>       0.07577052      -0.05846654       0.02174489 </v>
   <v>      -0.17860366      -0.00563703       0.23677945 </v>
   <v>       0.01028577      -0.02530029      -0.09553972 </v>
   <v>      -0.01654359       0.13082387      -0.14780485 </v>
   <v>      -0.05470129       0.03267606       0.07716126 </v>
   <v>       0.04029397      -0.08035951      -0.08993428 </v>
   <v>       0.01511339      -0.10202097       0.02762268 </v>
   <v>       0.09174931       0.15689916       0.23146404 </v>
   <v>       0.05780866       0.14951101      -0.36443430 </v>
   <v>      -0.02469483       0.04448347      -0.09361095 </v>
   <v>      -0.00110813       0.06323217       0.07719437 </v>
   <v>       0.05274545      -0.06806286      -0.14091576 </v>
   <v>       0.07060955      -0.12321943       0.23392656 </v>
  </varray>
  <varray name="stress" >
   <v>      -0.06155380      -0.02996607       0.02403592 </v>
   <v>      -0.02996616      -0.02369006      -0.06476315 </v>
   <v>       0.02403591      -0.06476306      -1.34072475 </v>
  </varray>
  <energy>
   <i name="e_fr_energy">   -191.70527106 </i>
   <i name="e_wo_entrp">   -191.61996685 </i>
   <i name="e_0_energy">     -0.17060842 </i>
  </energy>
  <time name="totalsc">  266.35  267.05</time>
 </calculation>
 <calculation>
  <scstep>
   <time name="dav">   21.87   21.92</time>
   <time name="total">   22.38   22.43</time>
   <energy>
    <i name="alphaZ">     90.04583941 </i>
    <i name="ewald">  44591.95510993 </i>
    <i name="hartreedc"> -50602.72217816 </i>
    <i name="XCdc">   -233.42069594 </i>
    <i name="pawpsdc">   4085.30513122 </i>
    <i name="pawaedc">  -3501.22758113 </i>
    <i name="eentropy">     -0.16045967 </i>
    <i name="bandstr">  -1383.05317133 </i>
    <i name="atom">   6761.44252427 </i>
    <i name="e_fr_energy">   -191.83548139 </i>
    <i name="e_wo_entrp">   -191.67502172 </i>
    <i name="e_0_energy">   -191.75525155 </i>
   </energy>
  </scstep>
  <scstep>
   <time name="dav">   30.65   30.72</time>
   <time name="total">   31.16   31.24</time>
   <energy>
    <i name="e_fr_energy">   -191.90496181 </i>
    <i name="e_wo_entrp">   -191.72672730 </i>
    <i name="e_0_energy">   -191.81584455 </i>
   </energy>
  </scstep>
  <scstep>
   <time name="dav">   30.87   30.95</time>
   <time name="total">   31.38   31.47</time>
   <energy>
    <i name="e_fr_energy">   -191.86703152 </i>
    <i name="e_wo_entrp">   -191.70692093 </i>
    <i name="e_0_energy">   -191.78697623 </i>
   </energy>
  </scstep>
  <scstep>
   <time name="dav">   30.32   30.39</time>
   <time name="total">   30.83   30.91</time>
   <energy>
    <i name="e_fr_energy">   -191.86569100 </i>
    <i name="e_wo_entrp">   -191.70404805 </i>
    <i name="e_0_energy">   -191.78486952 </i>
   </energy>
  </scstep>
  <scstep>
   <time name="dav">   30.71   30.78</time>
   <time name="total">   31.22   31.30</time>
   <energy>
    <i name="e_fr_energy">   -191.86022651 </i>
    <i name="e_wo_entrp">   -191.69623859 </i>
    <i name="e_0_energy">   -191.77823255 </i>
   </energy>
  </scstep>
  <scstep>
   <time name="dav">   30.78   30.86</time>
   <time name="total">   31.29   31.38</time>
   <energy>
    <i name="e_fr_energy">   -191.85956916 </i>
    <i name="e_wo_entrp">   -191.69584786 </i>
    <i name="e_0_energy">   -191.77770851 </i>
   </energy>
  </scstep>
  <scstep>
   <time name="dav">   28.91   28.98</time>
   <time name="total">   29.42   29.50</time>
   <energy>
    <i name="e_fr_energy">   -191.85911907 </i>
    <i name="e_wo_entrp">   -191.69576217 </i>
    <i name="e_0_energy">   -191.77744062 </i>
   </energy>
  </scstep>
  <scstep>
[...]
      <set comment="kpoint 31">
       <r>  -17.5241    1.0000 </r>
       <r>  -17.3109    1.0000 </r>
       <r>  -16.9157    1.0000 </r>
       <r>  -16.6569    1.0000 </r>
       <r>  -16.5218    1.0000 </r>
       <r>  -16.4028    1.0000 </r>
       <r>  -16.2880    1.0000 </r>
       <r>  -16.2187    1.0000 </r>
       <r>  -16.1379    1.0000 </r>
       <r>  -16.0670    1.0000 </r>
       <r>  -15.9301    1.0000 </r>
       <r>  -15.8330    1.0000 </r>
       <r>  -15.7994    1.0000 </r>
       <r>  -15.7180    1.0000 </r>
       <r>  -15.6477    1.0000 </r>
       <r>  -15.5167    1.0000 </r>
       <r>  -15.2875    1.0000 </r>
       <r>  -15.1588    1.0000 </r>
       <r>   -9.8429    1.0000 </r>
       <r>   -9.4642    1.0000 </r>
       <r>   -9.3083    1.0000 </r>
       <r>   -9.0114    1.0000 </r>
       <r>   -8.8892    1.0000 </r>
       <r>   -8.7257    1.0000 </r>
       <r>   -8.5289    1.0000 </r>
       <r>   -8.4825    1.0000 </r>
       <r>   -8.4056    1.0000 </r>
       <r>   -8.3315    1.0000 </r>
       <r>   -8.2445    1.0000 </r>
       <r>   -8.2241    1.0000 </r>
       <r>   -8.1719    1.0000 </r>
       <r>   -8.0996    1.0000 </r>
       <r>   -8.0215    1.0000 </r>
       <r>   -7.8786    1.0000 </r>
       <r>   -7.7740    1.0000 </r>
       <r>   -7.7004    1.0000 </r>
       <r>   -7.5981    1.0000 </r>
       <r>   -7.4325    1.0000 </r>
       <r>   -7.3534    1.0000 </r>
       <r>   -7.2291    1.0000 </r>
       <r>   -7.1601    1.0000 </r>
       <r>   -7.1350    1.0000 </r>
       <r>   -7.0850    1.0000 </r>
       <r>   -6.8960    1.0000 </r>
       <r>   -6.8326    1.0000 </r>
       <r>   -6.7749    1.0000 </r>
       <r>   -6.6559    1.0000 </r>
       <r>   -6.6092    1.0000 </r>
       <r>   -6.4980    1.0000 </r>
       <r>   -6.4380    1.0000 </r>
       <r>   -6.3338    1.0000 </r>
       <r>   -6.3270    1.0000 </r>
       <r>   -6.2677    1.0000 </r>
       <r>   -6.1727    1.0000 </r>
       <r>   -6.1260    1.0000 </r>
       <r>   -6.0872    1.0000 </r>
       <r>   -6.0525    1.0000 </r>
       <r>   -5.9578    1.0000 </r>
       <r>   -5.8591    1.0000 </r>
       <r>   -5.7850    1.0000 </r>
       <r>   -5.6455    1.0000 </r>
       <r>   -5.5943    1.0000 </r>
       <r>   -5.4973    1.0000 </r>
       <r>   -5.4141    1.0000 </r>
       <r>   -5.3078    1.0000 </r>
       <r>   -5.1859    1.0000 </r>
       <r>   -5.0523    1.0000 </r>
       <r>   -4.8181    1.0000 </r>
       <r>   -4.7792    1.0000 </r>
       <r>   -4.5578    1.0000 </r>
       <r>   -4.4789    1.0000 </r>
       <r>   -4.4264    1.0000 </r>
       <r>   -4.3218    1.0000 </r>
       <r>   -4.2501    1.0000 </r>
       <r>   -4.2041    1.0000 </r>
       <r>   -4.0679    1.0000 </r>
       <r>   -4.0327    1.0000 </r>
       <r>   -3.6777    0.9988 </r>
       <r>   -3.5477    0.9830 </r>
       <r>   -3.0614    0.0934 </r>
       <r>   -2.9340    0.0132 </r>
       <r>   -2.7551    0.0002 </r>
       <r>   -2.6615    0.0000 </r>
       <r>   -2.5105    0.0000 </r>
       <r>   -2.3826    0.0000 </r>
       <r>   -2.3430    0.0000 </r>
       <r>   -2.0520    0.0000 </r>
       <r>   -1.9676    0.0000 </r>
       <r>   -1.9303    0.0000 </r>
       <r>   -1.8641    0.0000 </r>
       <r>   -1.7257    0.0000 </r>
       <r>   -1.6319    0.0000 </r>
       <r>   -1.5378    0.0000 </r>
       <r>   -1.4597    0.0000 </r>
       <r>   -1.3530    0.0000 </r>
       <r>   -1.1586    0.0000 </r>
       <r>   -1.0735    0.0000 </r>
       <r>   -1.0063    0.0000 </r>
       <r>   -0.9571    0.0000 </r>
       <r>   -0.9243    0.0000 </r>
       <r>   -0.8101    0.0000 </r>
       <r>   -0.7513    0.0000 </r>
       <r>   -0.6651    0.0000 </r>
       <r>   -0.6048    0.0000 </r>
       <r>   -0.3469    0.0000 </r>
       <r>   -0.2667    0.0000 </r>
       <r>   -0.2290    0.0000 </r>
       <r>   -0.0003    0.0000 </r>
       <r>    0.0642    0.0000 </r>
       <r>    0.2660    0.0000 </r>
       <r>    0.4596    0.0000 </r>
       <r>    0.6762    0.0000 </r>
       <r>    0.7768    0.0000 </r>
       <r>    0.8970    0.0000 </r>
       <r>    1.0162    0.0000 </r>
       <r>    1.1614    0.0000 </r>
       <r>    1.2456    0.0000 </r>
       <r>    2.1403    0.0000 </r>
       <r>    2.3276    0.0000 </r>
       <r>    2.3826    0.0000 </r>
      </set>
      <set comment="kpoint 32">
       <r>  -17.5434    1.0000 </r>
       <r>  -17.2171    1.0000 </r>
       <r>  -17.0441    1.0000 </r>
       <r>  -16.6381    1.0000 </r>
       <r>  -16.5017    1.0000 </r>
       <r>  -16.3572    1.0000 </r>
       <r>  -16.2848    1.0000 </r>
       <r>  -16.2005    1.0000 </r>
       <r>  -16.1673    1.0000 </r>
       <r>  -16.0655    1.0000 </r>
       <r>  -15.9946    1.0000 </r>
       <r>  -15.8492    1.0000 </r>
       <r>  -15.7762    1.0000 </r>
       <r>  -15.7074    1.0000 </r>
       <r>  -15.6404    1.0000 </r>
       <r>  -15.4674    1.0000 </r>
       <r>  -15.3110    1.0000 </r>
       <r>  -15.1673    1.0000 </r>
       <r>   -9.7681    1.0000 </r>
       <r>   -9.5630    1.0000 </r>
       <r>   -9.4015    1.0000 </r>
       <r>   -8.9634    1.0000 </r>
       <r>   -8.7618    1.0000 </r>
       <r>   -8.6515    1.0000 </r>
       <r>   -8.5118    1.0000 </r>
       <r>   -8.4863    1.0000 </r>
       <r>   -8.4576    1.0000 </r>
       <r>   -8.3657    1.0000 </r>
       <r>   -8.2623    1.0000 </r>
       <r>   -8.2076    1.0000 </r>
       <r>   -8.1809    1.0000 </r>
       <r>   -8.0914    1.0000 </r>
       <r>   -8.0176    1.0000 </r>
       <r>   -7.9419    1.0000 </r>
       <r>   -7.8099    1.0000 </r>
       <r>   -7.7217    1.0000 </r>
       <r>   -7.5775    1.0000 </r>
       <r>   -7.4888    1.0000 </r>
       <r>   -7.3773    1.0000 </r>
       <r>   -7.2301    1.0000 </r>
       <r>   -7.1853    1.0000 </r>
       <r>   -7.1346    1.0000 </r>
       <r>   -7.0677    1.0000 </r>
       <r>   -6.9164    1.0000 </r>
       <r>   -6.8457    1.0000 </r>
       <r>   -6.8039    1.0000 </r>
       <r>   -6.6508    1.0000 </r>
       <r>   -6.5442    1.0000 </r>
       <r>   -6.4747    1.0000 </r>
       <r>   -6.4091    1.0000 </r>
       <r>   -6.3711    1.0000 </r>
       <r>   -6.3082    1.0000 </r>
       <r>   -6.2700    1.0000 </r>
       <r>   -6.1692    1.0000 </r>
       <r>   -6.1215    1.0000 </r>
       <r>   -6.0849    1.0000 </r>
       <r>   -5.9726    1.0000 </r>
       <r>   -5.8688    1.0000 </r>
       <r>   -5.7995    1.0000 </r>
       <r>   -5.7382    1.0000 </r>
       <r>   -5.6210    1.0000 </r>
       <r>   -5.5660    1.0000 </r>
       <r>   -5.5122    1.0000 </r>
       <r>   -5.4034    1.0000 </r>
       <r>   -5.3751    1.0000 </r>
       <r>   -5.1870    1.0000 </r>
       <r>   -5.1559    1.0000 </r>
       <r>   -4.8669    1.0000 </r>
       <r>   -4.7614    1.0000 </r>
       <r>   -4.6443    1.0000 </r>
       <r>   -4.5015    1.0000 </r>
       <r>   -4.4145    1.0000 </r>
       <r>   -4.3358    1.0000 </r>
       <r>   -4.2077    1.0000 </r>
       <r>   -4.1634    1.0000 </r>
       <r>   -4.0721    1.0000 </r>
       <r>   -3.9445    1.0000 </r>
       <r>   -3.6586    0.9981 </r>
       <r>   -3.5303    0.9770 </r>
       <r>   -3.1058    0.1572 </r>
       <r>   -2.9517    0.0180 </r>
       <r>   -2.8073    0.0009 </r>
       <r>   -2.7333    0.0001 </r>
       <r>   -2.5138    0.0000 </r>
       <r>   -2.4489    0.0000 </r>
       <r>   -2.3508    0.0000 </r>
       <r>   -2.1031    0.0000 </r>
       <r>   -1.9772    0.0000 </r>
       <r>   -1.9392    0.0000 </r>
       <r>   -1.8416    0.0000 </r>
       <r>   -1.7701    0.0000 </r>
       <r>   -1.6337    0.0000 </r>
       <r>   -1.4745    0.0000 </r>
       <r>   -1.4059    0.0000 </r>
       <r>   -1.2840    0.0000 </r>
       <r>   -1.1331    0.0000 </r>
       <r>   -1.0500    0.0000 </r>
       <r>   -0.9998    0.0000 </r>
       <r>   -0.9565    0.0000 </r>
       <r>   -0.9087    0.0000 </r>
       <r>   -0.8051    0.0000 </r>
       <r>   -0.7373    0.0000 </r>
       <r>   -0.6623    0.0000 </r>
       <r>   -0.5675    0.0000 </r>
       <r>   -0.4153    0.0000 </r>
       <r>   -0.3211    0.0000 </r>
       <r>   -0.1623    0.0000 </r>
       <r>   -0.1184    0.0000 </r>
       <r>    0.0669    0.0000 </r>
       <r>    0.1752    0.0000 </r>
       <r>    0.4734    0.0000 </r>
       <r>    0.5906    0.0000 </r>
       <r>    0.7378    0.0000 </r>
       <r>    0.9264    0.0000 </r>
       <r>    1.0894    0.0000 </r>
       <r>    1.1992    0.0000 </r>
       <r>    1.3675    0.0000 </r>
       <r>    2.1184    0.0000 </r>
       <r>    2.2910    0.0000 </r>
       <r>    2.5929    0.0000 </r>
      </set>
      <set comment="kpoint 33">
       <r>  -17.5279    1.0000 </r>
       <r>  -17.2891    1.0000 </r>
       <r>  -16.9308    1.0000 </r>
       <r>  -16.6159    1.0000 </r>
       <r>  -16.5482    1.0000 </r>
       <r>  -16.4818    1.0000 </r>
       <r>  -16.3004    1.0000 </r>
       <r>  -16.1805    1.0000 </r>
       <r>  -16.1140    1.0000 </r>
       <r>  -16.0978    1.0000 </r>
       <r>  -15.9252    1.0000 </r>
       <r>  -15.8544    1.0000 </r>
       <r>  -15.7610    1.0000 </r>
       <r>  -15.6993    1.0000 </r>
       <r>  -15.6443    1.0000 </r>
       <r>  -15.4369    1.0000 </r>
       <r>  -15.3315    1.0000 </r>
       <r>  -15.1935    1.0000 </r>
       <r>   -9.7841    1.0000 </r>
       <r>   -9.4841    1.0000 </r>
       <r>   -9.3594    1.0000 </r>
       <r>   -8.9378    1.0000 </r>
       <r>   -8.8436    1.0000 </r>
       <r>   -8.7475    1.0000 </r>
       <r>   -8.6493    1.0000 </r>
       <r>   -8.6121    1.0000 </r>
       <r>   -8.4349    1.0000 </r>
       <r>   -8.3108    1.0000 </r>
       <r>   -8.2558    1.0000 </r>
       <r>   -8.1503    1.0000 </r>
       <r>   -8.0882    1.0000 </r>
       <r>   -8.0757    1.0000 </r>
       <r>   -7.9548    1.0000 </r>
       <r>   -7.9104    1.0000 </r>
       <r>   -7.7738    1.0000 </r>
       <r>   -7.6807    1.0000 </r>
       <r>   -7.6313    1.0000 </r>
       <r>   -7.5794    1.0000 </r>
       <r>   -7.3883    1.0000 </r>
       <r>   -7.3178    1.0000 </r>
       <r>   -7.1643    1.0000 </r>
       <r>   -7.0269    1.0000 </r>
       <r>   -6.9657    1.0000 </r>
       <r>   -6.9113    1.0000 </r>
       <r>   -6.8778    1.0000 </r>
       <r>   -6.8040    1.0000 </r>
       <r>   -6.7031    1.0000 </r>
       <r>   -6.5628    1.0000 </r>
       <r>   -6.5217    1.0000 </r>
       <r>   -6.4273    1.0000 </r>
       <r>   -6.3661    1.0000 </r>
       <r>   -6.2815    1.0000 </r>
       <r>   -6.2254    1.0000 </r>
       <r>   -6.1772    1.0000 </r>
       <r>   -6.1023    1.0000 </r>
       <r>   -6.0184    1.0000 </r>
       <r>   -5.9841    1.0000 </r>
       <r>   -5.9263    1.0000 </r>
       <r>   -5.9033    1.0000 </r>
       <r>   -5.7040    1.0000 </r>
       <r>   -5.6478    1.0000 </r>
       <r>   -5.5560    1.0000 </r>
       <r>   -5.5229    1.0000 </r>
       <r>   -5.3945    1.0000 </r>
       <r>   -5.2833    1.0000 </r>
       <r>   -5.2376    1.0000 </r>
       <r>   -4.9464    1.0000 </r>
       <r>   -4.8704    1.0000 </r>
       <r>   -4.8257    1.0000 </r>
       <r>   -4.7454    1.0000 </r>
       <r>   -4.5361    1.0000 </r>
       <r>   -4.4279    1.0000 </r>
       <r>   -4.3408    1.0000 </r>
       <r>   -4.1681    1.0000 </r>
       <r>   -4.0882    1.0000 </r>
       <r>   -4.0344    1.0000 </r>
       <r>   -3.8466    1.0000 </r>
       <r>   -3.6998    0.9993 </r>
       <r>   -3.5205    0.9730 </r>
       <r>   -3.1956    0.3554 </r>
       <r>   -3.0584    0.0900 </r>
       <r>   -2.8481    0.0023 </r>
       <r>   -2.7082    0.0001 </r>
       <r>   -2.5681    0.0000 </r>
       <r>   -2.4642    0.0000 </r>
       <r>   -2.3407    0.0000 </r>
       <r>   -2.1631    0.0000 </r>
       <r>   -2.0626    0.0000 </r>
       <r>   -1.9367    0.0000 </r>
       <r>   -1.8450    0.0000 </r>
       <r>   -1.6818    0.0000 </r>
       <r>   -1.6094    0.0000 </r>
       <r>   -1.4194    0.0000 </r>
       <r>   -1.3736    0.0000 </r>
       <r>   -1.2218    0.0000 </r>
       <r>   -1.1132    0.0000 </r>
       <r>   -1.0480    0.0000 </r>
       <r>   -0.9954    0.0000 </r>
       <r>   -0.9394    0.0000 </r>
       <r>   -0.8777    0.0000 </r>
       <r>   -0.8352    0.0000 </r>
       <r>   -0.7276    0.0000 </r>
       <r>   -0.6745    0.0000 </r>
       <r>   -0.5521    0.0000 </r>
       <r>   -0.4539    0.0000 </r>
       <r>   -0.3624    0.0000 </r>
       <r>   -0.2807    0.0000 </r>
       <r>   -0.1145    0.0000 </r>
       <r>    0.0379    0.0000 </r>
       <r>    0.1547    0.0000 </r>
       <r>    0.3618    0.0000 </r>
       <r>    0.5860    0.0000 </r>
       <r>    0.7506    0.0000 </r>
       <r>    0.9961    0.0000 </r>
       <r>    1.1343    0.0000 </r>
       <r>    1.2800    0.0000 </r>
       <r>    1.5051    0.0000 </r>
       <r>    2.1576    0.0000 </r>
       <r>    2.3175    0.0000 </r>
       <r>    2.4245    0.0000 </r>
      </set>
      <set comment="kpoint 34">
       <r>  -17.5053    1.0000 </r>
       <r>  -17.3492    1.0000 </r>
       <r>  -16.7442    1.0000 </r>
       <r>  -16.7168    1.0000 </r>
       <r>  -16.5815    1.0000 </r>
       <r>  -16.5540    1.0000 </r>
       <r>  -16.2775    1.0000 </r>
       <r>  -16.1979    1.0000 </r>
       <r>  -16.1194    1.0000 </r>
       <r>  -16.0821    1.0000 </r>
       <r>  -15.8785    1.0000 </r>
       <r>  -15.8365    1.0000 </r>
       <r>  -15.7709    1.0000 </r>
       <r>  -15.6973    1.0000 </r>
       <r>  -15.6411    1.0000 </r>
       <r>  -15.4311    1.0000 </r>
       <r>  -15.3391    1.0000 </r>
       <r>  -15.2103    1.0000 </r>
       <r>   -9.8138    1.0000 </r>
       <r>   -9.3526    1.0000 </r>
       <r>   -9.3033    1.0000 </r>
       <r>   -9.0064    1.0000 </r>
       <r>   -8.9386    1.0000 </r>
       <r>   -8.8308    1.0000 </r>
       <r>   -8.6806    1.0000 </r>
       <r>   -8.6631    1.0000 </r>
       <r>   -8.4391    1.0000 </r>
       <r>   -8.2916    1.0000 </r>
       <r>   -8.2272    1.0000 </r>
       <r>   -8.1316    1.0000 </r>
       <r>   -8.0825    1.0000 </r>
       <r>   -8.0106    1.0000 </r>
       <r>   -7.9208    1.0000 </r>
       <r>   -7.8465    1.0000 </r>
       <r>   -7.7483    1.0000 </r>
       <r>   -7.6823    1.0000 </r>
       <r>   -7.6432    1.0000 </r>
       <r>   -7.6002    1.0000 </r>
       <r>   -7.4692    1.0000 </r>
       <r>   -7.3377    1.0000 </r>
       <r>   -7.0909    1.0000 </r>
       <r>   -7.0748    1.0000 </r>
       <r>   -7.0000    1.0000 </r>
       <r>   -6.8545    1.0000 </r>
       <r>   -6.8234    1.0000 </r>
       <r>   -6.7145    1.0000 </r>
       <r>   -6.6529    1.0000 </r>
       <r>   -6.5902    1.0000 </r>
       <r>   -6.5234    1.0000 </r>
       <r>   -6.4618    1.0000 </r>
       <r>   -6.4131    1.0000 </r>
       <r>   -6.3456    1.0000 </r>
       <r>   -6.2711    1.0000 </r>
       <r>   -6.1833    1.0000 </r>
       <r>   -6.1105    1.0000 </r>
       <r>   -6.0949    1.0000 </r>
       <r>   -6.0104    1.0000 </r>
       <r>   -5.8476    1.0000 </r>
       <r>   -5.8181    1.0000 </r>
       <r>   -5.7927    1.0000 </r>
       <r>   -5.6292    1.0000 </r>
       <r>   -5.5969    1.0000 </r>
       <r>   -5.5326    1.0000 </r>
       <r>   -5.4083    1.0000 </r>
       <r>   -5.2233    1.0000 </r>
       <r>   -5.0706    1.0000 </r>
       <r>   -4.9990    1.0000 </r>
       <r>   -4.9527    1.0000 </r>
       <r>   -4.8322    1.0000 </r>
       <r>   -4.6312    1.0000 </r>
       <r>   -4.5818    1.0000 </r>
       <r>   -4.4533    1.0000 </r>
       <r>   -4.3325    1.0000 </r>
       <r>   -4.1784    1.0000 </r>
       <r>   -4.0349    1.0000 </r>
       <r>   -4.0131    1.0000 </r>
       <r>   -3.8576    1.0000 </r>
       <r>   -3.6856    0.9990 </r>
       <r>   -3.4849    0.9530 </r>
       <r>   -3.3275    0.7127 </r>
       <r>   -2.9890    0.0335 </r>
       <r>   -2.9556    0.0193 </r>
       <r>   -2.6594    0.0000 </r>
       <r>   -2.6110    0.0000 </r>
       <r>   -2.4606    0.0000 </r>
       <r>   -2.3359    0.0000 </r>
       <r>   -2.1897    0.0000 </r>
       <r>   -2.1020    0.0000 </r>
       <r>   -1.9237    0.0000 </r>
       <r>   -1.8465    0.0000 </r>
       <r>   -1.6622    0.0000 </r>
       <r>   -1.5717    0.0000 </r>
       <r>   -1.3914    0.0000 </r>
       <r>   -1.3626    0.0000 </r>
       <r>   -1.1987    0.0000 </r>
       <r>   -1.0933    0.0000 </r>
       <r>   -1.0716    0.0000 </r>
       <r>   -0.9992    0.0000 </r>
       <r>   -0.9301    0.0000 </r>
       <r>   -0.8947    0.0000 </r>
       <r>   -0.8247    0.0000 </r>
       <r>   -0.7103    0.0000 </r>
       <r>   -0.6347    0.0000 </r>
       <r>   -0.6028    0.0000 </r>
       <r>   -0.4835    0.0000 </r>
       <r>   -0.4072    0.0000 </r>
       <r>   -0.2949    0.0000 </r>
       <r>   -0.1237    0.0000 </r>
       <r>    0.0213    0.0000 </r>
       <r>    0.1956    0.0000 </r>
       <r>    0.2739    0.0000 </r>
       <r>    0.5855    0.0000 </r>
       <r>    0.7706    0.0000 </r>
       <r>    1.0417    0.0000 </r>
       <r>    1.1396    0.0000 </r>
       <r>    1.3264    0.0000 </r>
       <r>    1.5674    0.0000 </r>
       <r>    2.2519    0.0000 </r>
       <r>    2.2661    0.0000 </r>
       <r>    2.4056    0.0000 </r>
      </set>
     </set>
    </set>
   </array>
  </eigenvalues>
  <separator name="orbital magnetization" >
   <v name="MAGDIPOLOUT">      0.00000000      0.00000000      0.00000000</v>
  </separator>
 </calculation>
 <structure name="finalpos" >
  <crystal>
   <varray name="basis" >
    <v>       8.28876918       4.78778056       0.00000000 </v>
    <v>      -8.30884902       4.82254740       0.00000000 </v>
    <v>       0.00000000       0.00000000      30.00000000 </v>
   </varray>
   <i name="volume">   2392.61784229 </i>
   <varray name="rec_basis" >
    <v>       0.06046784       0.10418106       0.00000000 </v>
    <v>      -0.06003191       0.10392929       0.00000000 </v>
    <v>       0.00000000       0.00000000       0.03333333 </v>
   </varray>
  </crystal>
  <varray name="positions" >
   <v>       0.31505740      -0.03478275      -0.00198373 </v>
   <v>       0.68287781       0.36571247       0.00178892 </v>
   <v>       0.64982789      -0.03480800      -0.00192831 </v>
   <v>       0.32728528       0.65767444      -0.00032083 </v>
   <v>       0.67322388       0.66678890      -0.00020872 </v>
   <v>      -0.00490638       0.66688471      -0.00019916 </v>
   <v>      -0.01988093      -0.04002581      -0.00211376 </v>
   <v>       1.02140994       0.37231841       0.00241221 </v>
   <v>       0.35090656       0.37260519       0.00244351 </v>
   <v>       0.11070766       0.22134916       0.95571146 </v>
   <v>       0.22314666       0.11033669       0.04361827 </v>
   <v>       0.11235816       0.56041082       0.94500121 </v>
   <v>       0.22603836       0.45244020       0.05813247 </v>
   <v>       0.11267514       0.88584931       0.94431797 </v>
   <v>       0.22303712       0.78017916       0.05259449 </v>
   <v>       0.44551535       0.22230495       0.95737155 </v>
   <v>       0.55462374       0.10946134       0.04183540 </v>
   <v>       0.44809520       0.56097006       0.94526684 </v>
   <v>       0.56023049       0.44554615       0.05526440 </v>
   <v>       0.44483133       0.89001212       0.94673638 </v>
   <v>       0.55685744       0.77981480       0.05235663 </v>
   <v>       0.77667131       0.22226686       0.95730471 </v>
   <v>       0.88718119       0.11026438       0.04358273 </v>
   <v>       0.77551894       0.55081677       0.94588074 </v>
   <v>       0.88522967       0.44536140       0.05526907 </v>
   <v>       0.77324296       0.88576767       0.94437718 </v>
   <v>       0.88645227       0.77269503       0.05548829 </v>
  </varray>
 </structure>
</modeling>
