unknown system                          
           1
     8.852021    5.102903    0.000000
    -8.855834    5.109462    0.000000
     0.000000    0.000000   30.000000
   V    Mo   W    S 
   3   3   3  18
Direct configuration=     1
   0.33333334  0.00000000  0.00000000
   0.66666669  0.33333334  0.00000000
   0.66666669  0.00000000  0.00000000
   0.33333334  0.66666669  0.00000000
   0.66666669  0.66666669  0.00000000
   0.00000000  0.66666669  0.00000000
   0.00000000  0.00000000  0.00000000
   1.00000000  0.33333334  0.00000000
   0.33333334  0.33333334  0.00000000
   0.11068511  0.22244981  0.95539999
   0.22244981  0.11068511  0.04460000
   0.11068511  0.55578315  0.95539999
   0.22244981  0.44401845  0.04460000
   0.11068511  0.88911647  0.95539999
   0.22244981  0.77735180  0.04460000
   0.44401845  0.22244981  0.95539999
   0.55578315  0.11068511  0.04460000
   0.44401845  0.55578315  0.95539999
   0.55578315  0.44401845  0.04460000
   0.44401845  0.88911647  0.95539999
   0.55578315  0.77735180  0.04460000
   0.77735180  0.22244981  0.95539999
   0.88911647  0.11068511  0.04460000
   0.77735180  0.55578315  0.95539999
   0.88911647  0.44401845  0.04460000
   0.77735180  0.88911647  0.95539999
   0.88911647  0.77735180  0.04460000
unknown system                          
           1
     8.664296    4.997003    0.000000
    -8.667768    5.002975    0.000000
     0.000000    0.000000   30.000000
   V    Mo   W    S 
   3   3   3  18
Direct configuration=     2
   0.33323914 -0.00180252  0.00005502
   0.66731976  0.33464643  0.00001061
   0.66504982 -0.00173153  0.00006994
   0.33331552  0.66674646  0.00021136
   0.66671730  0.66670093 -0.00019001
  -0.00000720  0.66669462 -0.00018639
  -0.00152334 -0.00316223 -0.00020789
   1.00081068  0.33614435  0.00013399
   0.33517756  0.33603511  0.00010970
   0.11095673  0.22184848  0.95079592
   0.22415698  0.10915467  0.04795234
   0.11047705  0.55459976  0.95074042
   0.22164934  0.44346771  0.04938974
   0.11493284  0.89142112  0.95187552
   0.22441467  0.78209426  0.04804202
   0.44607270  0.22034589  0.95307780
   0.55555767  0.11079034  0.04582918
   0.44406096  0.55459657  0.95074890
   0.55679057  0.44134219  0.04800955
   0.44634328  0.89327941  0.95310157
   0.55752002  0.78210103  0.04803587
   0.77417807  0.22057904  0.95315236
   0.88517687  0.10938793  0.04801689
   0.77552776  0.55108710  0.95194679
   0.88475911  0.44157453  0.04808022
   0.77630183  0.89166369  0.95195176
   0.88923876  0.77860912  0.04924671
unknown system                          
           1
     8.483299    4.897697    0.000000
    -8.485410    4.901316    0.000000
     0.000000    0.000000   30.000000
   V    Mo   W    S 
   3   3   3  18
Direct configuration=     3
   0.33303743 -0.00236863  0.00010323
   0.66754721  0.33508749 -0.00004439
   0.66467988 -0.00229509  0.00012293
   0.33294137  0.66601035  0.00024463
   0.66684416  0.66680896 -0.00020738
  -0.00002731  0.66679859 -0.00020446
  -0.00214151 -0.00439617 -0.00017780
   1.00162501  0.33730054  0.00010257
   0.33552155  0.33718140  0.00007651
   0.11093475  0.22185499  0.95094642
   0.22406972  0.10926605  0.04781570
   0.11035634  0.55437659  0.95066264
   0.22156515  0.44325485  0.04949489
   0.11492227  0.89159418  0.95182018
   0.22451145  0.78224667  0.04807430
   0.44600129  0.22044462  0.95322238
   0.55553761  0.11079293  0.04571307
   0.44394073  0.55437676  0.95067267
   0.55659932  0.44118823  0.04804725
   0.44642331  0.89338060  0.95310751
   0.55760626  0.78225133  0.04806607
   0.77432623  0.22064028  0.95328422
   0.88535876  0.10946117  0.04786755
   0.77543106  0.55092509  0.95189320
   0.88476926  0.44139042  0.04810904
   0.77647120  0.89180618  0.95188569
   0.88936196  0.77883610  0.04930131
unknown system                          
           1
     8.270950    4.775056    0.000000
    -8.281670    4.793588    0.000000
     0.000000    0.000000   30.000000
   V    Mo   W    S 
   3   3   3  18
Direct configuration=     4
   0.33162881 -0.00459821  0.00025331
   0.66854669  0.33705512 -0.00025321
   0.66380868 -0.00452996  0.00027868
   0.33084598  0.66185543  0.00027596
   0.66756108  0.66742368 -0.00019209
  -0.00014644  0.66740382 -0.00019071
  -0.00459252 -0.00926096  0.00001641
   1.00566223  0.34199362 -0.00004961
   0.33619927  0.34185134 -0.00007090
   0.11078827  0.22174156  0.94997947
   0.22450000  0.10908474  0.04867684
   0.11045304  0.55457488  0.94873369
   0.22163692  0.44326338  0.05164978
   0.11617181  0.89217334  0.95008872
   0.22518826  0.78349250  0.04960071
   0.44643774  0.21996544  0.95247319
   0.55550427  0.11091701  0.04647481
   0.44400094  0.55459497  0.94874874
   0.55719488  0.44078021  0.04966459
   0.44700517  0.89433413  0.95184801
   0.55825693  0.78347252  0.04958796
   0.77338264  0.22005580  0.95249404
   0.88470388  0.10916918  0.04869100
   0.77471487  0.54957854  0.95025800
   0.88366278  0.44087861  0.04969819
   0.77579252  0.89228292  0.95012252
   0.88930573  0.77866084  0.05114180
unknown system                          
           1
     8.265861    4.772520    0.000000
    -8.286088    4.807519    0.000000
     0.000000    0.000000   30.000000
   V    Mo   W    S 
   3   3   3  18
Direct configuration=     5
   0.32890168 -0.00895550  0.00037180
   0.67019896  0.34033187 -0.00054632
   0.66212901 -0.00887928  0.00039390
   0.32621022  0.65266089  0.00014130
   0.66959486  0.66900730 -0.00008005
  -0.00060336  0.66896078 -0.00007762
  -0.01019832 -0.02041728  0.00020927
   1.01434322  0.35213121 -0.00018682
   0.33764070  0.35197118 -0.00020509
   0.11046769  0.22116220  0.94920451
   0.22496873  0.10947172  0.04934925
   0.11100773  0.55606761  0.94596372
   0.22192520  0.44382526  0.05508850
   0.11733072  0.89221957  0.94763237
   0.22577229  0.78404496  0.05164227
   0.44664419  0.21982126  0.95170546
   0.55549061  0.11112722  0.04765400
   0.44495224  0.55608768  0.94598712
   0.55787074  0.44089327  0.05170764
   0.44714165  0.89431821  0.95020640
   0.55821640  0.78401344  0.05162850
   0.77311569  0.21982730  0.95169881
   0.88450305  0.10948395  0.04933428
   0.77429324  0.54870541  0.94794351
   0.88293950  0.44090477  0.05172192
   0.77478330  0.89224962  0.94764493
   0.88857455  0.77717982  0.05386633
unknown system                          
           1
     8.262924    4.770885    0.000000
    -8.284300    4.807877    0.000000
     0.000000    0.000000   30.000000
   V    Mo   W    S 
   3   3   3  18
Direct configuration=     6
   0.32825627 -0.01096909  0.00040290
   0.67068719  0.34132073 -0.00057453
   0.66074887 -0.01090227  0.00042386
   0.32576773  0.65175240 -0.00006739
   0.67051291  0.66932835 -0.00006145
  -0.00119422  0.66928798 -0.00006284
  -0.01193982 -0.02389346  0.00003368
   1.01644844  0.35502162  0.00000182
   0.33842173  0.35490920 -0.00001543
   0.11014772  0.22049165  0.94975004
   0.22456869  0.11020789  0.04879483
   0.11131544  0.55727932  0.94557951
   0.22202548  0.44405070  0.05571096
   0.11687714  0.89172476  0.94740454
   0.22571719  0.78316170  0.05170975
   0.44597450  0.22055047  0.95198876
   0.55542055  0.11097097  0.04760132
   0.44585584  0.55728933  0.94560340
   0.55770968  0.44128511  0.05177524
   0.44662478  0.89330561  0.95014008
   0.55737568  0.78313397  0.05169527
   0.77452535  0.22057006  0.95198473
   0.88564516  0.11024654  0.04878643
   0.77457226  0.54924408  0.94775529
   0.88350428  0.44129705  0.05179610
   0.77476119  0.89175213  0.94741787
   0.88788442  0.77579765  0.05442515
unknown system                          
           1
     8.267959    4.773877    0.000000
    -8.298312    4.826416    0.000000
     0.000000    0.000000   30.000000
   V    Mo   W    S 
   3   3   3  18
Direct configuration=     7
   0.32734805 -0.01412531  0.00049745
   0.67139466  0.34276600 -0.00073337
   0.65846963 -0.01394128  0.00051722
   0.32514634  0.65056975 -0.00020718
   0.67184662  0.66952826 -0.00003443
  -0.00220847  0.66961796 -0.00003578
  -0.01438534 -0.02891252  0.00002389
   1.01937189  0.35944449  0.00005744
   0.33993027  0.35937150  0.00004270
   0.10977634  0.21971985  0.95058532
   0.22410557  0.11100226  0.04796607
   0.11147218  0.55827938  0.94523411
   0.22248600  0.44499308  0.05637630
   0.11651545  0.89105335  0.94708097
   0.22561765  0.78244205  0.05176854
   0.44520310  0.22123783  0.95251754
   0.55528405  0.11075166  0.04739235
   0.44671840  0.55828864  0.94525663
   0.55771910  0.44173883  0.05195849
   0.44622168  0.89257288  0.94993004
   0.55671476  0.78235441  0.05176724
   0.77600998  0.22130235  0.95250147
   0.88693811  0.11106698  0.04796919
   0.77478390  0.54965511  0.94753338
   0.88394397  0.44174768  0.05197938
   0.77449240  0.89105775  0.94708883
   0.88729820  0.77463154  0.05496610
unknown system                          
           1
     8.266993    4.773341    0.000000
    -8.303644    4.836788    0.000000
     0.000000    0.000000   30.000000
   V    Mo   W    S 
   3   3   3  18
Direct configuration=     8
   0.32624109 -0.01821647  0.00054098
   0.67241236  0.34479554 -0.00087091
   0.65546084 -0.01800936  0.00056943
   0.32507004  0.65041597 -0.00043146
   0.67336435  0.66946260 -0.00001344
  -0.00378648  0.66956936 -0.00001027
  -0.01687404 -0.03385931 -0.00021483
   1.02222148  0.36414994  0.00031122
   0.34180138  0.36412257  0.00029471
   0.10929727  0.21872458  0.95166707
   0.22360550  0.11194744  0.04689287
   0.11179276  0.55971486  0.94480395
   0.22311183  0.44628058  0.05703428
   0.11609478  0.89026569  0.94675404
   0.22532261  0.78154695  0.05190195
   0.44430508  0.22199619  0.95322771
   0.55510458  0.11040024  0.04705380
   0.44784575  0.55973756  0.94482780
   0.55774062  0.44211530  0.05217103
   0.44594611  0.89202228  0.94962867
   0.55612431  0.78148076  0.05188452
   0.77767133  0.22206964  0.95320725
   0.88837422  0.11199988  0.04689196
   0.77503378  0.55011950  0.94722949
   0.88430730  0.44213442  0.05218728
   0.77416155  0.89026678  0.94678119
   0.88646404  0.77296096  0.05567963
unknown system                          
           1
     8.279416    4.780592    0.000000
    -8.316716    4.845165    0.000000
     0.000000    0.000000   30.000000
   V    Mo   W    S 
   3   3   3  18
Direct configuration=     9
   0.32488007 -0.02208434  0.00050499
   0.67361764  0.34719158 -0.00093397
   0.65291587 -0.02170598  0.00054088
   0.32575687  0.65187695 -0.00065081
   0.67446636  0.66874635  0.00000735
  -0.00547396  0.66897946  0.00000690
  -0.01809615 -0.03644164 -0.00052162
   1.02348078  0.36711323  0.00058626
   0.34353341  0.36711372  0.00058237
   0.10894166  0.21798824  0.95280918
   0.22337266  0.11268721  0.04578880
   0.11214079  0.56089251  0.94461542
   0.22403095  0.44811655  0.05736656
   0.11580013  0.88943044  0.94656327
   0.22474355  0.78082119  0.05204529
   0.44360831  0.22241166  0.95403840
   0.55483000  0.10992808  0.04654332
   0.44869632  0.56093822  0.94463617
   0.55793547  0.44230943  0.05238633
   0.44589385  0.89196798  0.94925636
   0.55595675  0.78070542  0.05202696
   0.77879504  0.22252432  0.95400179
   0.88937522  0.11273276  0.04579414
   0.77522788  0.55049521  0.94691446
   0.88429231  0.44231806  0.05240072
   0.77364584  0.88941959  0.94659308
   0.88584681  0.77173824  0.05609730
unknown system                          
           1
     8.277677    4.779742    0.000000
    -8.315558    4.845322    0.000000
     0.000000    0.000000   30.000000
   V    Mo   W    S 
   3   3   3  18
Direct configuration=    10
   0.32349493 -0.02544094  0.00038593
   0.67505295  0.35001413 -0.00086209
   0.65085100 -0.02525526  0.00044163
   0.32654165  0.65341051 -0.00074169
   0.67518851  0.66805246 -0.00000158
  -0.00702755  0.66811342  0.00001265
  -0.01937068 -0.03878443 -0.00076351
   1.02451765  0.36983882  0.00084177
   0.34523861  0.36985597  0.00082851
   0.10873111  0.21752830  0.95378860
   0.22338452  0.11330722  0.04488273
   0.11234243  0.56172198  0.94454056
   0.22505003  0.45020111  0.05756700
   0.11552574  0.88852546  0.94631140
   0.22395277  0.77999486  0.05224446
   0.44309271  0.22253189  0.95475962
   0.55460598  0.10943384  0.04597730
   0.44932905  0.56179907  0.94457180
   0.55832588  0.44241858  0.05270206
   0.44600129  0.89206757  0.94880699
   0.55599802  0.78001568  0.05217879
   0.77941728  0.22260672  0.95472487
   0.88993916  0.11331173  0.04486716
   0.77543327  0.55085406  0.94651993
   0.88403541  0.44243919  0.05270673
   0.77302047  0.88853524  0.94638049
   0.88554227  0.77111727  0.05632778
unknown system                          
           1
     8.282478    4.782554    0.000000
    -8.319158    4.846056    0.000000
     0.000000    0.000000   30.000000
   V    Mo   W    S 
   3   3   3  18
Direct configuration=    11
   0.32230569 -0.02746141  0.00021120
   0.67630210  0.35246544 -0.00070020
   0.64998939 -0.02734612  0.00025521
   0.32718920  0.65474692 -0.00076801
   0.67541755  0.66746214 -0.00002156
  -0.00787366  0.66745116 -0.00001302
  -0.01979282 -0.03959057 -0.00100905
   1.02470466  0.37106230  0.00105155
   0.34626793  0.37107482  0.00105448
   0.10877745  0.21760571  0.95439156
   0.22346811  0.11346941  0.04435787
   0.11251902  0.56217769  0.94460219
   0.22580051  0.45170078  0.05759361
   0.11519855  0.88786205  0.94618394
   0.22324616  0.77938850  0.05236067
   0.44295698  0.22243773  0.95526010
   0.55444980  0.10906545  0.04546457
   0.44962474  0.56228439  0.94462633
   0.55863560  0.44243761  0.05294320
   0.44612293  0.89221364  0.94850083
   0.55611116  0.77943774  0.05229592
   0.77944659  0.22247287  0.95523197
   0.88998114  0.11345814  0.04433837
   0.77555001  0.55107752  0.94623806
   0.88373866  0.44244763  0.05295423
   0.77264119  0.88789809  0.94624772
   0.88543582  0.77091484  0.05634816
unknown system                          
           1
     8.282454    4.782560    0.000000
    -8.317635    4.843467    0.000000
     0.000000    0.000000   30.000000
   V    Mo   W    S 
   3   3   3  18
Direct configuration=    12
   0.32192724 -0.02763422  0.00011458
   0.67671299  0.35327832 -0.00057206
   0.65021797 -0.02751380  0.00014928
   0.32740105  0.65519601 -0.00072797
   0.67518077  0.66734895 -0.00003172
  -0.00772890  0.66734672 -0.00002600
  -0.01961078 -0.03924318 -0.00104537
   1.02429975  0.37082143  0.00110585
   0.34643800  0.37085176  0.00110515
   0.10893487  0.21791968  0.95437853
   0.22352984  0.11326586  0.04439006
   0.11255283  0.56213147  0.94465512
   0.22589945  0.45190233  0.05758120
   0.11510344  0.88774863  0.94612406
   0.22307764  0.77934008  0.05236853
   0.44310605  0.22225457  0.95532607
   0.55444360  0.10903714  0.04528755
   0.44954184  0.56222529  0.94468311
   0.55874359  0.44241222  0.05304946
   0.44614769  0.89228341  0.94843343
   0.55620382  0.77935279  0.05232121
   0.77911196  0.22227788  0.95529890
   0.88971329  0.11326433  0.04437360
   0.77552251  0.55103970  0.94616108
   0.88360276  0.44241146  0.05306486
   0.77260911  0.88778806  0.94616916
   0.88553210  0.77110755  0.05626225
unknown system                          
           1
     8.282520    4.782561    0.000000
    -8.315979    4.840483    0.000000
     0.000000    0.000000   30.000000
   V    Mo   W    S 
   3   3   3  18
Direct configuration=    13
   0.32125498 -0.02835597 -0.00001866
   0.67740660  0.35465670 -0.00042066
   0.65018272 -0.02823486  0.00001386
   0.32761143  0.65565474 -0.00069347
   0.67505014  0.66712372 -0.00005046
  -0.00779980  0.66712679 -0.00004573
  -0.01967383 -0.03936579 -0.00112680
   1.02412229  0.37110765  0.00119805
   0.34690677  0.37114658  0.00119546
   0.10908864  0.21822345  0.95451272
   0.22353920  0.11311406  0.04429718
   0.11261258  0.56214185  0.94472282
   0.22610097  0.45231313  0.05757568
   0.11489771  0.88751030  0.94602812
   0.22281411  0.77918704  0.05239255
   0.44322371  0.22213218  0.95551326
   0.55441912  0.10898558  0.04500445
   0.44949396  0.56223396  0.94475543
   0.55888948  0.44245049  0.05319806
   0.44615201  0.89232432  0.94830253
   0.55629547  0.77917540  0.05235189
   0.77887363  0.22215054  0.95548457
   0.88955012  0.11311587  0.04428246
   0.77552740  0.55105910  0.94606286
   0.88349423  0.44243927  0.05321590
   0.77257703  0.88755102  0.94606429
   0.88560378  0.77124732  0.05618353
unknown system                          
           1
     8.283791    4.783476    0.000000
    -8.313597    4.835075    0.000000
     0.000000    0.000000   30.000000
   V    Mo   W    S 
   3   3   3  18
Direct configuration=    14
   0.31930188 -0.03057369 -0.00041562
   0.67919435  0.35822612  0.00003928
   0.64994475 -0.03036399 -0.00037974
   0.32820636  0.65703291 -0.00059921
   0.67443689  0.66673826 -0.00010524
  -0.00741408  0.66683518 -0.00010438
  -0.01963012 -0.03935679 -0.00139554
   1.02348040  0.37161317  0.00148859
   0.34806929  0.37165904  0.00149255
   0.10953046  0.21910204  0.95483676
   0.22353495  0.11259232  0.04408335
   0.11280326  0.56214808  0.94483389
   0.22648288  0.45307775  0.05761863
   0.11437238  0.88699423  0.94569280
   0.22232005  0.77897975  0.05246496
   0.44357417  0.22178206  0.95602859
   0.55433764  0.10890111  0.04417779
   0.44932192  0.56225603  0.94487960
   0.55921436  0.44263377  0.05367862
   0.44609550  0.89236877  0.94796521
   0.55651631  0.77886037  0.05243776
   0.77820594  0.22184444  0.95598390
   0.88906585  0.11261571  0.04408172
   0.77553467  0.55109169  0.94576676
   0.88334286  0.44259243  0.05370089
   0.77261382  0.88701764  0.94571109
   0.88575773  0.77154606  0.05603685
unknown system                          
           1
     8.284403    4.784036    0.000000
    -8.310940    4.829975    0.000000
     0.000000    0.000000   30.000000
   V    Mo   W    S 
   3   3   3  18
Direct configuration=    15
   0.31703739 -0.03299820 -0.00094099
   0.68132606  0.36250060  0.00059454
   0.64973576 -0.03302182 -0.00088914
   0.32876226  0.65830847 -0.00049807
   0.67384581  0.66639959 -0.00017846
  -0.00716640  0.66635333 -0.00016665
  -0.01993146 -0.03979117 -0.00161930
   1.02262739  0.37233244  0.00182054
   0.34965021  0.37239293  0.00181912
   0.11006744  0.22015727  0.95522242
   0.22346030  0.11194913  0.04384227
   0.11296831  0.56202087  0.94493326
   0.22676971  0.45368843  0.05774043
   0.11374110  0.88642817  0.94519094
   0.22184724  0.77870524  0.05263282
   0.44408673  0.22153413  0.95666176
   0.55440480  0.10897971  0.04316564
   0.44903157  0.56217465  0.94500651
   0.55962507  0.44310700  0.05428219
   0.44602184  0.89218878  0.94750857
   0.55674096  0.77865013  0.05255493
   0.77742904  0.22155651  0.95661682
   0.88845329  0.11193922  0.04383034
   0.77560830  0.55120104  0.94553278
   0.88343742  0.44306730  0.05429745
   0.77266544  0.88645122  0.94523447
   0.88596890  0.77193948  0.05580470
unknown system                          
           1
     8.283695    4.783729    0.000000
    -8.307329    4.824642    0.000000
     0.000000    0.000000   30.000000
   V    Mo   W    S 
   3   3   3  18
Direct configuration=    16
   0.31651961 -0.03348822 -0.00110140
   0.68167075  0.36318547  0.00082020
   0.64978503 -0.03350250 -0.00107937
   0.32863319  0.65823453 -0.00043036
   0.67365575  0.66640914 -0.00019529
  -0.00688562  0.66635413 -0.00019425
  -0.01992011 -0.03981379 -0.00175600
   1.02241382  0.37247434  0.00191877
   0.34999190  0.37253829  0.00193540
   0.11020843  0.22044051  0.95534220
   0.22337017  0.11165440  0.04379259
   0.11295582  0.56184428  0.94494435
   0.22667081  0.45348910  0.05777249
   0.11343021  0.88632756  0.94503534
   0.22193904  0.77881212  0.05264722
   0.44437303  0.22161324  0.95682941
   0.55454033  0.10919827  0.04284643
   0.44887708  0.56203150  0.94501579
   0.55978113  0.44352461  0.05447008
   0.44589426  0.89187440  0.94735411
   0.55672643  0.77870467  0.05258046
   0.77719601  0.22159699  0.95679393
   0.88822580  0.11163825  0.04378378
   0.77566029  0.55129236  0.94554281
   0.88369157  0.44347583  0.05449166
   0.77282741  0.88634567  0.94505984
   0.88598233  0.77195930  0.05577973
unknown system                          
           1
     8.285358    4.784734    0.000000
    -8.306330    4.821038    0.000000
     0.000000    0.000000   30.000000
   V    Mo   W    S 
   3   3   3  18
Direct configuration=    17
   0.31598031 -0.03398118 -0.00128818
   0.68209341  0.36405108  0.00103074
   0.64985102 -0.03393119 -0.00126637
   0.32852479  0.65820756 -0.00040209
   0.67349317  0.66633712 -0.00020029
  -0.00665811  0.66635153 -0.00020136
  -0.01995135 -0.03994657 -0.00181803
   1.02217389  0.37255868  0.00203368
   0.35033707  0.37266887  0.00204051
   0.11035033  0.22072186  0.95543926
   0.22329991  0.11138436  0.04374464
   0.11296545  0.56170805  0.94495125
   0.22659275  0.45335679  0.05783935
   0.11323057  0.88621602  0.94486534
   0.22200421  0.77891515  0.05266978
   0.44461398  0.22166161  0.95698639
   0.55460396  0.10935300  0.04256687
   0.44872578  0.56189867  0.94504602
   0.55991273  0.44388782  0.05465767
   0.44570953  0.89158334  0.94720895
   0.55672888  0.77874378  0.05260247
   0.77700793  0.22165856  0.95694563
   0.88804221  0.11137854  0.04373748
   0.77566834  0.55130499  0.94554702
   0.88392261  0.44381987  0.05467660
   0.77293497  0.88621707  0.94487807
   0.88605611  0.77208906  0.05570853
unknown system                          
           1
     8.286400    4.785447    0.000000
    -8.305929    4.819252    0.000000
     0.000000    0.000000   30.000000
   V    Mo   W    S 
   3   3   3  18
Direct configuration=    18
   0.31543447 -0.03441372 -0.00154740
   0.68249790  0.36491627  0.00131369
   0.64996008 -0.03427973 -0.00150960
   0.32822296  0.65797535 -0.00036822
   0.67327577  0.66627101 -0.00020934
  -0.00624549  0.66640578 -0.00021094
  -0.01992686 -0.04001515 -0.00192461
   1.02188300  0.37256183  0.00217549
   0.35065436  0.37270899  0.00218154
   0.11050542  0.22101868  0.95553470
   0.22320979  0.11101560  0.04371700
   0.11289379  0.56142516  0.94494383
   0.22640247  0.45299994  0.05796437
   0.11299705  0.88611470  0.94463136
   0.22224969  0.77920030  0.05268436
   0.44496822  0.22182233  0.95714441
   0.55468787  0.10959276  0.04225921
   0.44852103  0.56166066  0.94507648
   0.56006758  0.44444392  0.05490801
   0.44538309  0.89107503  0.94701492
   0.55672820  0.77895001  0.05259448
   0.77682502  0.22185658  0.95709171
   0.88779268  0.11100925  0.04371015
   0.77563954  0.55122973  0.94560421
   0.88431239  0.44434795  0.05492412
   0.77312724  0.88608366  0.94464232
   0.88614721  0.77223757  0.05565367
unknown system                          
           1
     8.287615    4.786423    0.000000
    -8.307315    4.820526    0.000000
     0.000000    0.000000   30.000000
   V    Mo   W    S 
   3   3   3  18
Direct configuration=    19
   0.31504636 -0.03472121 -0.00179514
   0.68282738  0.36563732  0.00160372
   0.64997284 -0.03462193 -0.00174170
   0.32783727  0.65774326 -0.00032488
   0.67314726  0.66636950 -0.00021866
  -0.00573481  0.66653142 -0.00020854
  -0.01991409 -0.04004760 -0.00204583
   1.02161081  0.37250565  0.00230651
   0.35086649  0.37266613  0.00232927
   0.11063678  0.22125797  0.95562994
   0.22313775  0.11064173  0.04368447
   0.11268549  0.56097603  0.94496899
   0.22618637  0.45260281  0.05807133
   0.11276780  0.88599453  0.94442761
   0.22261838  0.77964619  0.05263975
   0.44532118  0.22207033  0.95727738
   0.55471874  0.10970867  0.04198975
   0.44831653  0.56133848  0.94514235
   0.56017961  0.44500717  0.05513889
   0.44507599  0.89052035  0.94684927
   0.55679699  0.77935877  0.05249343
   0.77671538  0.22212200  0.95721622
   0.88751232  0.11061381  0.04366966
   0.77557592  0.55104597  0.94570039
   0.88475499  0.44488092  0.05514395
   0.77328554  0.88593091  0.94447210
   0.88626921  0.77243528  0.05557967
unknown system                          
           1
     8.289062    4.787776    0.000000
    -8.309245    4.822721    0.000000
     0.000000    0.000000   30.000000
   V    Mo   W    S 
   3   3   3  18
Direct configuration=    20
   0.31502440 -0.03476128 -0.00185278
   0.68287372  0.36572998  0.00166680
   0.64993179 -0.03470167 -0.00179858
   0.32773355  0.65773830 -0.00032301
   0.67310757  0.66644925 -0.00021959
  -0.00551791  0.66659380 -0.00020884
  -0.01990504 -0.04003005 -0.00206523
   1.02153866  0.37246673  0.00233939
   0.35091117  0.37265831  0.00236278
   0.11066258  0.22129543  0.95564990
   0.22313103  0.11054582  0.04367278
   0.11261980  0.56084308  0.94497572
   0.22614175  0.45253434  0.05809555
   0.11272698  0.88595345  0.94438127
   0.22273352  0.77977644  0.05262750
   0.44540241  0.22214172  0.95730614
   0.55471770  0.10968666  0.04193159
   0.44824176  0.56123880  0.94516979
   0.56019887  0.44514728  0.05519307
   0.44501223  0.89036549  0.94681614
   0.55680743  0.77948903  0.05245763
   0.77668120  0.22216752  0.95724517
   0.88741231  0.11050076  0.04365170
   0.77555435  0.55097088  0.94573638
   0.88487367  0.44501539  0.05519627
   0.77328201  0.88589356  0.94443310
   0.88631694  0.77250543  0.05555925
unknown system                          
           1
     8.288769    4.787781    0.000000
    -8.308849    4.822547    0.000000
     0.000000    0.000000   30.000000
   V    Mo   W    S 
   3   3   3  18
Direct configuration=    21
   0.31501154 -0.03482495 -0.00193188
   0.68283611  0.36564551  0.00174458
   0.64985764 -0.03477756 -0.00188083
   0.32749655  0.65773338 -0.00031978
   0.67317791  0.66673159 -0.00021482
  -0.00506995  0.66687817 -0.00020737
  -0.01988882 -0.04005783 -0.00209177
   1.02147686  0.37236085  0.00238810
   0.35088327  0.37261595  0.00241669
   0.11068960  0.22133112  0.95568454
   0.22314853  0.11042135  0.04363864
   0.11246416  0.56059314  0.94499160
   0.22607893  0.45246108  0.05811161
   0.11269756  0.88588952  0.94435472
   0.22290885  0.78002394  0.05259844
   0.44544163  0.22221596  0.95733991
   0.55464461  0.10953259  0.04187681
   0.44816065  0.56107283  0.94522389
   0.56019158  0.44537689  0.05524005
   0.44491130  0.89017648  0.94678064
   0.55684653  0.77967700  0.05239872
   0.77668778  0.22221658  0.95727505
   0.88727445  0.11036692  0.04361131
   0.77554245  0.55090535  0.94580816
   0.88510114  0.44521313  0.05524485
   0.77325150  0.88581699  0.94440789
   0.88639211  0.77261849  0.05551015
unknown system                          
           1
     8.288769    4.787781    0.000000
    -8.308849    4.822547    0.000000
     0.000000    0.000000   30.000000
   V    Mo   W    S 
   3   3   3  18
Direct configuration=    22
   0.31505740 -0.03478275 -0.00198373
   0.68287781  0.36571247  0.00178892
   0.64982789 -0.03480800 -0.00192831
   0.32728528  0.65767444 -0.00032083
   0.67322388  0.66678890 -0.00020872
  -0.00490638  0.66688471 -0.00019916
  -0.01988093 -0.04002581 -0.00211376
   1.02140994  0.37231841  0.00241221
   0.35090656  0.37260519  0.00244351
   0.11070766  0.22134916  0.95571146
   0.22314666  0.11033669  0.04361827
   0.11235816  0.56041082  0.94500121
   0.22603836  0.45244020  0.05813247
   0.11267514  0.88584931  0.94431797
   0.22303712  0.78017916  0.05259449
   0.44551535  0.22230495  0.95737155
   0.55462374  0.10946134  0.04183540
   0.44809520  0.56097006  0.94526684
   0.56023049  0.44554615  0.05526440
   0.44483133  0.89001212  0.94673638
   0.55685744  0.77981480  0.05235663
   0.77667131  0.22226686  0.95730471
   0.88718119  0.11026438  0.04358273
   0.77551894  0.55081677  0.94588074
   0.88522967  0.44536140  0.05526907
   0.77324296  0.88576767  0.94437718
   0.88645227  0.77269503  0.05548829
