       N       E                     dE             d eps       ncg     rms          rms(c)
DAV:   1     0.112446518802E+04    0.11245E+04   -0.35856E+04  8160   0.577E+02
DAV:   2    -0.399052881136E+01   -0.11285E+04   -0.10881E+04 11280   0.173E+02
DAV:   3    -0.199709805202E+03   -0.19572E+03   -0.18821E+03 10880   0.818E+01
DAV:   4    -0.208930578072E+03   -0.92208E+01   -0.89346E+01 12320   0.261E+01
DAV:   5    -0.209220509507E+03   -0.28993E+00   -0.28902E+00 11280   0.342E+00    0.274E+01
DAV:   6    -0.236286575951E+03   -0.27066E+02   -0.11160E+02 12480   0.601E+01    0.592E+01
DAV:   7    -0.196855514045E+03    0.39431E+02   -0.17576E+02 13360   0.151E+02    0.206E+01
DAV:   8    -0.190317815350E+03    0.65377E+01   -0.21169E+01 11880   0.135E+01    0.140E+01
DAV:   9    -0.188299107746E+03    0.20187E+01   -0.37544E+00 12160   0.646E+00    0.936E+00
DAV:  10    -0.187095432168E+03    0.12037E+01   -0.17485E+00 13320   0.773E+00    0.320E+00
DAV:  11    -0.187020016168E+03    0.75416E-01   -0.64038E-01 12400   0.243E+00    0.252E+00
DAV:  12    -0.187049279137E+03   -0.29263E-01   -0.52254E-01 12360   0.369E+00    0.374E+00
DAV:  13    -0.186924066311E+03    0.12521E+00   -0.28112E-01 13280   0.328E+00    0.176E+00
DAV:  14    -0.186895894322E+03    0.28172E-01   -0.90909E-02 12720   0.169E+00    0.926E-01
DAV:  15    -0.186892368505E+03    0.35258E-02   -0.33128E-02 12840   0.979E-01    0.839E-01
DAV:  16    -0.186887368099E+03    0.50004E-02   -0.12325E-02 13280   0.569E-01    0.395E-01
DAV:  17    -0.186885756947E+03    0.16112E-02   -0.68495E-03 12880   0.319E-01    0.208E-01
DAV:  18    -0.186884929206E+03    0.82774E-03   -0.22163E-03 12160   0.165E-01    0.175E-01
DAV:  19    -0.186884739888E+03    0.18932E-03   -0.86452E-04 11160   0.146E-01    0.486E-02
DAV:  20    -0.186885582819E+03   -0.84293E-03   -0.80102E-04  9240   0.591E-02    0.465E-02
DAV:  21    -0.186886444986E+03   -0.86217E-03   -0.24265E-04  8000   0.517E-02    0.347E-02
DAV:  22    -0.186887254234E+03   -0.80925E-03   -0.11611E-04  7080   0.313E-02    0.365E-02
DAV:  23    -0.186888460558E+03   -0.12063E-02   -0.14558E-04  7520   0.457E-02    0.207E-02
DAV:  24    -0.186889005957E+03   -0.54540E-03   -0.28371E-05  6760   0.221E-02    0.476E-03
DAV:  25    -0.186889392714E+03   -0.38676E-03   -0.18677E-05  5480   0.961E-03    0.473E-03
DAV:  26    -0.186889631951E+03   -0.23924E-03   -0.91142E-06  6800   0.768E-03    0.156E-03
DAV:  27    -0.186889712169E+03   -0.80217E-04   -0.29967E-06  7400   0.379E-03
   1 F= -.18688971E+03 E0= -.18671842E+03  d E =-.186890E+03
       N       E                     dE             d eps       ncg     rms          rms(c)
DAV:   1    -0.187544137842E+03   -0.65451E+00   -0.27370E+02  8160   0.352E+01    0.466E+00
DAV:   2    -0.189534216331E+03   -0.19901E+01   -0.20379E+01 12360   0.156E+01    0.943E+00
DAV:   3    -0.189376977687E+03    0.15724E+00   -0.42510E+00 12400   0.123E+01    0.643E+00
DAV:   4    -0.188804091022E+03    0.57289E+00   -0.61043E-01 12480   0.452E+00    0.180E+00
DAV:   5    -0.188948888574E+03   -0.14480E+00   -0.51000E-01 12440   0.357E+00    0.583E+00
DAV:   6    -0.188773382856E+03    0.17551E+00   -0.84649E-01 12760   0.445E+00    0.204E+00
DAV:   7    -0.188743887681E+03    0.29495E-01   -0.14544E-01 11160   0.144E+00    0.126E+00
DAV:   8    -0.188720117039E+03    0.23771E-01   -0.54958E-02 12080   0.943E-01    0.769E-01
DAV:   9    -0.188717268120E+03    0.28489E-02   -0.13529E-02 11440   0.651E-01    0.434E-01
DAV:  10    -0.188716172617E+03    0.10955E-02   -0.39504E-03 13520   0.294E-01    0.203E-01
DAV:  11    -0.188715547999E+03    0.62462E-03   -0.23206E-03 12040   0.158E-01    0.103E-01
DAV:  12    -0.188715695417E+03   -0.14742E-03   -0.76030E-04 10560   0.815E-02    0.812E-02
DAV:  13    -0.188715632653E+03    0.62763E-04   -0.24272E-04  8160   0.590E-02
   2 F= -.18871563E+03 E0= -.18857598E+03  d E =-.182592E+01
       N       E                     dE             d eps       ncg     rms          rms(c)
DAV:   1    -0.190640856395E+03   -0.19252E+01   -0.31527E+01  9040   0.143E+01    0.441E+00
DAV:   2    -0.190558608279E+03    0.82248E-01   -0.27344E+00 11120   0.924E+00    0.702E+00
DAV:   3    -0.190133764407E+03    0.42484E+00   -0.13585E+00 12320   0.853E+00    0.426E+00
DAV:   4    -0.189920887864E+03    0.21288E+00   -0.75825E-01 12760   0.436E+00    0.251E+00
DAV:   5    -0.189895437875E+03    0.25450E-01   -0.37257E-01 12240   0.305E+00    0.276E+00
DAV:   6    -0.189824047007E+03    0.71391E-01   -0.14907E-01 12560   0.246E+00    0.810E-01
DAV:   7    -0.189816238027E+03    0.78090E-02   -0.16299E-02 11560   0.590E-01    0.239E-01
DAV:   8    -0.189817307991E+03   -0.10700E-02   -0.49352E-03 12400   0.396E-01    0.409E-01
DAV:   9    -0.189816080173E+03    0.12278E-02   -0.26405E-03 11320   0.327E-01    0.119E-01
DAV:  10    -0.189816411765E+03   -0.33159E-03   -0.76194E-04  9760   0.102E-01    0.113E-01
DAV:  11    -0.189816189725E+03    0.22204E-03   -0.38663E-04  9000   0.671E-02    0.234E-02
DAV:  12    -0.189816210086E+03   -0.20361E-04   -0.64752E-05  6840   0.270E-02
   3 F= -.18981621E+03 E0= -.18969665E+03  d E =-.110058E+01
       N       E                     dE             d eps       ncg     rms          rms(c)
DAV:   1    -0.191420315957E+03   -0.16041E+01   -0.82707E+01  8160   0.207E+01    0.460E+00
DAV:   2    -0.191226797768E+03    0.19352E+00   -0.54647E+00 13160   0.748E+00    0.438E+00
DAV:   3    -0.191379428993E+03   -0.15263E+00   -0.16065E+00 12240   0.896E+00    0.657E+00
DAV:   4    -0.190998271408E+03    0.38116E+00   -0.13858E+00 12400   0.778E+00    0.296E+00
DAV:   5    -0.190906834093E+03    0.91437E-01   -0.36896E-01 12360   0.317E+00    0.222E+00
DAV:   6    -0.190874173846E+03    0.32660E-01   -0.19682E-01 12440   0.291E+00    0.175E+00
DAV:   7    -0.190847880126E+03    0.26294E-01   -0.68175E-02 12600   0.150E+00    0.419E-01
DAV:   8    -0.190845196380E+03    0.26837E-02   -0.68250E-03 10200   0.328E-01    0.154E-01
DAV:   9    -0.190845984291E+03   -0.78791E-03   -0.22607E-03 12640   0.283E-01    0.294E-01
DAV:  10    -0.190845577946E+03    0.40635E-03   -0.23820E-03 10600   0.319E-01    0.160E-01
DAV:  11    -0.190845318844E+03    0.25910E-03   -0.73984E-04  9920   0.138E-01    0.479E-02
DAV:  12    -0.190845323777E+03   -0.49324E-05   -0.11081E-04  6600   0.430E-02
   4 F= -.19084532E+03 E0= -.19073726E+03  d E =-.102911E+01
       N       E                     dE             d eps       ncg     rms          rms(c)
DAV:   1    -0.192150589679E+03   -0.13053E+01   -0.17656E+02  8160   0.294E+01    0.552E+00
DAV:   2    -0.191934443146E+03    0.21615E+00   -0.93653E+00 10880   0.778E+00    0.343E+00
DAV:   3    -0.191798606580E+03    0.13584E+00   -0.14734E+00 11720   0.602E+00    0.360E+00
DAV:   4    -0.191827114612E+03   -0.28508E-01   -0.10644E+00 12440   0.747E+00    0.437E+00
DAV:   5    -0.191556777835E+03    0.27034E+00   -0.44553E-01 12360   0.459E+00    0.841E-01
DAV:   6    -0.191547457600E+03    0.93202E-02   -0.83651E-02 11720   0.122E+00    0.621E-01
DAV:   7    -0.191553689629E+03   -0.62320E-02   -0.44089E-02 12080   0.130E+00    0.115E+00
DAV:   8    -0.191541854494E+03    0.11835E-01   -0.21864E-02 11680   0.938E-01    0.181E-01
DAV:   9    -0.191543005994E+03   -0.11515E-02   -0.39060E-03 11560   0.356E-01    0.357E-01
DAV:  10    -0.191542076088E+03    0.92991E-03   -0.36777E-03 11680   0.380E-01    0.147E-01
DAV:  11    -0.191541909370E+03    0.16672E-03   -0.82499E-04  9960   0.138E-01    0.534E-02
DAV:  12    -0.191541876087E+03    0.33283E-04   -0.11648E-04  7320   0.442E-02
   5 F= -.19154188E+03 E0= -.19143108E+03  d E =-.696552E+00
       N       E                     dE             d eps       ncg     rms          rms(c)
DAV:   1    -0.191618812827E+03   -0.76903E-01   -0.58842E+00  8160   0.512E+00    0.657E-01
DAV:   2    -0.191676413501E+03   -0.57601E-01   -0.30586E-01 13600   0.287E+00    0.215E+00
DAV:   3    -0.191631903988E+03    0.44510E-01   -0.10857E-01 12520   0.215E+00    0.487E-01
DAV:   4    -0.191634729197E+03   -0.28252E-02   -0.22903E-02 10280   0.946E-01    0.773E-01
DAV:   5    -0.191628646928E+03    0.60823E-02   -0.13544E-02 11320   0.748E-01    0.235E-01
DAV:   6    -0.191629768717E+03   -0.11218E-02   -0.59481E-03 11160   0.428E-01    0.435E-01
DAV:   7    -0.191628418003E+03    0.13507E-02   -0.53856E-03 11160   0.473E-01    0.209E-01
DAV:   8    -0.191627917700E+03    0.50030E-03   -0.10081E-03  9960   0.168E-01    0.338E-02
DAV:   9    -0.191627930101E+03   -0.12401E-04   -0.10469E-04  6720   0.345E-02
   6 F= -.19162793E+03 E0= -.19151630E+03  d E =-.860540E-01
       N       E                     dE             d eps       ncg     rms          rms(c)
DAV:   1    -0.191697478242E+03   -0.69561E-01   -0.47495E+00  8160   0.459E+00    0.508E-01
DAV:   2    -0.191729999035E+03   -0.32521E-01   -0.16141E-01 12760   0.186E+00    0.167E+00
DAV:   3    -0.191703763220E+03    0.26236E-01   -0.72326E-02 12520   0.170E+00    0.443E-01
DAV:   4    -0.191704481564E+03   -0.71834E-03   -0.13369E-02 11240   0.702E-01    0.531E-01
DAV:   5    -0.191701593799E+03    0.28878E-02   -0.69393E-03 11360   0.564E-01    0.187E-01
DAV:   6    -0.191701863298E+03   -0.26950E-03   -0.29872E-03 11120   0.299E-01    0.282E-01
DAV:   7    -0.191701575471E+03    0.28783E-03   -0.31712E-03 10000   0.363E-01    0.216E-01
DAV:   8    -0.191701089456E+03    0.48602E-03   -0.88605E-04  8680   0.174E-01    0.241E-02
DAV:   9    -0.191701112161E+03   -0.22705E-04   -0.81056E-05  6000   0.312E-02
   7 F= -.19170111E+03 E0= -.19158982E+03  d E =-.731821E-01
       N       E                     dE             d eps       ncg     rms          rms(c)
DAV:   1    -0.191756666740E+03   -0.55577E-01   -0.28413E+00  8160   0.358E+00    0.450E-01
DAV:   2    -0.191786021016E+03   -0.29354E-01   -0.12866E-01 12040   0.192E+00    0.167E+00
DAV:   3    -0.191760293629E+03    0.25727E-01   -0.61760E-02 12400   0.157E+00    0.323E-01
DAV:   4    -0.191761331787E+03   -0.10382E-02   -0.90486E-03 11320   0.614E-01    0.465E-01
DAV:   5    -0.191759084590E+03    0.22472E-02   -0.54673E-03 10920   0.499E-01    0.180E-01
DAV:   6    -0.191759560151E+03   -0.47556E-03   -0.29518E-03 11680   0.321E-01    0.312E-01
DAV:   7    -0.191758878596E+03    0.68156E-03   -0.24630E-03  9880   0.321E-01    0.126E-01
DAV:   8    -0.191758666017E+03    0.21258E-03   -0.40461E-04  8040   0.103E-01    0.170E-02
DAV:   9    -0.191758677279E+03   -0.11262E-04   -0.54159E-05  6800   0.251E-02
   8 F= -.19175868E+03 E0= -.19164842E+03  d E =-.575651E-01
       N       E                     dE             d eps       ncg     rms          rms(c)
DAV:   1    -0.191888330702E+03   -0.12966E+00   -0.24094E+01  8160   0.104E+01    0.121E+00
DAV:   2    -0.192095216931E+03   -0.20689E+00   -0.95105E-01 11600   0.488E+00    0.455E+00
DAV:   3    -0.191924398259E+03    0.17082E+00   -0.50579E-01 12360   0.431E+00    0.912E-01
DAV:   4    -0.191933277884E+03   -0.88796E-02   -0.65649E-02 12120   0.164E+00    0.146E+00
DAV:   5    -0.191913539614E+03    0.19738E-01   -0.47529E-02 11560   0.143E+00    0.569E-01
DAV:   6    -0.191914647578E+03   -0.11080E-02   -0.16965E-02 11680   0.883E-01    0.685E-01
DAV:   7    -0.191911025554E+03    0.36220E-02   -0.14010E-02 11520   0.867E-01    0.308E-01
DAV:   8    -0.191909409168E+03    0.16164E-02   -0.27224E-03 11000   0.284E-01    0.497E-02
DAV:   9    -0.191909436270E+03   -0.27102E-04   -0.37951E-04  9560   0.587E-02
   9 F= -.19190944E+03 E0= -.19180459E+03  d E =-.150759E+00
       N       E                     dE             d eps       ncg     rms          rms(c)
DAV:   1    -0.191965882254E+03   -0.56473E-01   -0.46475E+00  8160   0.462E+00    0.644E-01
DAV:   2    -0.192010640303E+03   -0.44758E-01   -0.22684E-01 12200   0.241E+00    0.211E+00
DAV:   3    -0.191972048346E+03    0.38592E-01   -0.97149E-02 12280   0.204E+00    0.467E-01
DAV:   4    -0.191974533398E+03   -0.24851E-02   -0.17077E-02 12240   0.897E-01    0.758E-01
DAV:   5    -0.191969555886E+03    0.49775E-02   -0.14574E-02 11080   0.822E-01    0.383E-01
DAV:   6    -0.191970059091E+03   -0.50321E-03   -0.64076E-03 11480   0.565E-01    0.437E-01
DAV:   7    -0.191968248858E+03    0.18102E-02   -0.40099E-03 11320   0.454E-01    0.969E-02
DAV:   8    -0.191968085754E+03    0.16310E-03   -0.40273E-04  9160   0.906E-02    0.270E-02
DAV:   9    -0.191968078972E+03    0.67821E-05   -0.68022E-05  8160   0.282E-02
  10 F= -.19196808E+03 E0= -.19186520E+03  d E =-.586427E-01
       N       E                     dE             d eps       ncg     rms          rms(c)
DAV:   1    -0.192029738464E+03   -0.61653E-01   -0.97269E+00  8160   0.657E+00    0.713E-01
DAV:   2    -0.192089441982E+03   -0.59704E-01   -0.31901E-01 11840   0.261E+00    0.227E+00
DAV:   3    -0.192045029386E+03    0.44413E-01   -0.11777E-01 12360   0.229E+00    0.576E-01
DAV:   4    -0.192048208185E+03   -0.31788E-02   -0.19625E-02 11320   0.921E-01    0.897E-01
DAV:   5    -0.192041101834E+03    0.71064E-02   -0.15009E-02 10760   0.861E-01    0.305E-01
DAV:   6    -0.192041051190E+03    0.50644E-04   -0.41218E-03 12200   0.351E-01    0.250E-01
DAV:   7    -0.192040548359E+03    0.50283E-03   -0.27754E-03 11920   0.404E-01    0.186E-01
DAV:   8    -0.192040100201E+03    0.44816E-03   -0.78222E-04  9760   0.205E-01    0.333E-02
DAV:   9    -0.192040097863E+03    0.23382E-05   -0.10954E-04  6640   0.410E-02
  11 F= -.19204010E+03 E0= -.19194054E+03  d E =-.720189E-01
       N       E                     dE             d eps       ncg     rms          rms(c)
DAV:   1    -0.192058753466E+03   -0.18653E-01   -0.78598E-01  8160   0.188E+00    0.204E-01
DAV:   2    -0.192060169876E+03   -0.14164E-02   -0.20874E-02 13520   0.507E-01    0.276E-01
DAV:   3    -0.192059882967E+03    0.28691E-03   -0.36400E-03 12360   0.442E-01    0.236E-01
DAV:   4    -0.192059428650E+03    0.45432E-03   -0.16658E-03  9920   0.284E-01    0.163E-01
DAV:   5    -0.192059351662E+03    0.76987E-04   -0.11605E-03  9920   0.257E-01    0.150E-01
DAV:   6    -0.192059184789E+03    0.16687E-03   -0.67995E-04  8920   0.177E-01    0.876E-02
DAV:   7    -0.192059205695E+03   -0.20905E-04   -0.40611E-04  8560   0.142E-01
  12 F= -.19205921E+03 E0= -.19196057E+03  d E =-.191078E-01
       N       E                     dE             d eps       ncg     rms          rms(c)
DAV:   1    -0.192092919868E+03   -0.33735E-01   -0.22819E+00  8160   0.319E+00    0.329E-01
DAV:   2    -0.192099935113E+03   -0.70152E-02   -0.61074E-02 11640   0.957E-01    0.689E-01
DAV:   3    -0.192096163852E+03    0.37713E-02   -0.14020E-02 12480   0.845E-01    0.319E-01
DAV:   4    -0.192095523560E+03    0.64029E-03   -0.31151E-03 11560   0.382E-01    0.243E-01
DAV:   5    -0.192095250261E+03    0.27330E-03   -0.24122E-03 10680   0.376E-01    0.221E-01
DAV:   6    -0.192095378355E+03   -0.12809E-03   -0.19734E-03 10040   0.298E-01    0.248E-01
DAV:   7    -0.192094883626E+03    0.49473E-03   -0.12111E-03  9920   0.266E-01    0.881E-02
DAV:   8    -0.192094777519E+03    0.10611E-03   -0.15674E-04  5920   0.815E-02    0.149E-02
DAV:   9    -0.192094780601E+03   -0.30830E-05   -0.54644E-05  7520   0.238E-02
  13 F= -.19209478E+03 E0= -.19199794E+03  d E =-.355749E-01
       N       E                     dE             d eps       ncg     rms          rms(c)
DAV:   1    -0.192119046798E+03   -0.24269E-01   -0.10628E+00  8160   0.218E+00    0.207E-01
DAV:   2    -0.192120794105E+03   -0.17473E-02   -0.24386E-02 11840   0.466E-01    0.255E-01
DAV:   3    -0.192121182953E+03   -0.38885E-03   -0.41456E-03 12360   0.469E-01    0.334E-01
DAV:   4    -0.192120205781E+03    0.97717E-03   -0.18968E-03 10160   0.313E-01    0.141E-01
DAV:   5    -0.192120296957E+03   -0.91177E-04   -0.10757E-03  9680   0.227E-01    0.183E-01
DAV:   6    -0.192120062446E+03    0.23451E-03   -0.78952E-04  9120   0.188E-01    0.710E-02
DAV:   7    -0.192120035589E+03    0.26858E-04   -0.22023E-04  7240   0.105E-01
  14 F= -.19212004E+03 E0= -.19202497E+03  d E =-.252550E-01
       N       E                     dE             d eps       ncg     rms          rms(c)
DAV:   1    -0.192108895698E+03    0.11167E-01   -0.21431E-01  8160   0.994E-01    0.115E-01
DAV:   2    -0.192109721049E+03   -0.82535E-03   -0.67014E-03 11560   0.341E-01    0.250E-01
DAV:   3    -0.192109215721E+03    0.50533E-03   -0.17160E-03 10280   0.300E-01    0.125E-01
DAV:   4    -0.192109272363E+03   -0.56641E-04   -0.62592E-04  8240   0.180E-01
  15 F= -.19210927E+03 E0= -.19201296E+03  d E =0.107632E-01
       N       E                     dE             d eps       ncg     rms          rms(c)
DAV:   1    -0.192147911672E+03   -0.38696E-01   -0.26939E+00  8160   0.351E+00    0.381E-01
DAV:   2    -0.192153088931E+03   -0.51773E-02   -0.76853E-02 12320   0.939E-01    0.515E-01
DAV:   3    -0.192152930605E+03    0.15833E-03   -0.12898E-02 11880   0.837E-01    0.509E-01
DAV:   4    -0.192151484790E+03    0.14458E-02   -0.73046E-03 11600   0.611E-01    0.428E-01
DAV:   5    -0.192150064430E+03    0.14204E-02   -0.39858E-03 10520   0.478E-01    0.213E-01
DAV:   6    -0.192150096601E+03   -0.32171E-04   -0.21964E-03 11320   0.304E-01    0.220E-01
DAV:   7    -0.192149685384E+03    0.41122E-03   -0.12676E-03  9920   0.281E-01    0.102E-01
DAV:   8    -0.192149549188E+03    0.13620E-03   -0.22479E-04  7440   0.103E-01    0.215E-02
DAV:   9    -0.192149543701E+03    0.54867E-05   -0.40555E-05  7120   0.242E-02
  16 F= -.19214954E+03 E0= -.19205589E+03  d E =-.402713E-01
       N       E                     dE             d eps       ncg     rms          rms(c)
DAV:   1    -0.192168739352E+03   -0.19190E-01   -0.57296E-01  8160   0.161E+00    0.167E-01
DAV:   2    -0.192169986812E+03   -0.12475E-02   -0.15192E-02 11400   0.416E-01    0.258E-01
DAV:   3    -0.192169932751E+03    0.54062E-04   -0.29981E-03 12200   0.386E-01    0.259E-01
DAV:   4    -0.192169427289E+03    0.50546E-03   -0.12929E-03  9640   0.248E-01    0.122E-01
DAV:   5    -0.192169392955E+03    0.34335E-04   -0.57745E-04  8560   0.191E-01
  17 F= -.19216939E+03 E0= -.19207778E+03  d E =-.198493E-01
       N       E                     dE             d eps       ncg     rms          rms(c)
DAV:   1    -0.192171055021E+03   -0.16277E-02   -0.85567E-02  8160   0.634E-01    0.116E-01
DAV:   2    -0.192172726232E+03   -0.16712E-02   -0.56974E-03 11880   0.462E-01    0.400E-01
DAV:   3    -0.192171122582E+03    0.16036E-02   -0.23725E-03 10560   0.388E-01    0.924E-02
DAV:   4    -0.192171140006E+03   -0.17423E-04   -0.36921E-04  8440   0.131E-01
  18 F= -.19217114E+03 E0= -.19207894E+03  d E =-.174705E-02
       N       E                     dE             d eps       ncg     rms          rms(c)
DAV:   1    -0.192215980574E+03   -0.44858E-01   -0.29136E+00  8160   0.366E+00    0.401E-01
DAV:   2    -0.192223027114E+03   -0.70465E-02   -0.82549E-02 11600   0.995E-01    0.661E-01
DAV:   3    -0.192221820181E+03    0.12069E-02   -0.15972E-02 12320   0.920E-01    0.548E-01
DAV:   4    -0.192219462043E+03    0.23581E-02   -0.59354E-03 11720   0.545E-01    0.295E-01
DAV:   5    -0.192219032345E+03    0.42970E-03   -0.30209E-03 11240   0.446E-01    0.244E-01
DAV:   6    -0.192218732617E+03    0.29973E-03   -0.20916E-03 12000   0.318E-01    0.171E-01
DAV:   7    -0.192218542989E+03    0.18963E-03   -0.10493E-03 10040   0.262E-01    0.126E-01
DAV:   8    -0.192218343629E+03    0.19936E-03   -0.27264E-04  8400   0.129E-01    0.196E-02
DAV:   9    -0.192218343550E+03    0.79165E-07   -0.41169E-05  6480   0.239E-02
  19 F= -.19221834E+03 E0= -.19213007E+03  d E =-.472035E-01
       N       E                     dE             d eps       ncg     rms          rms(c)
DAV:   1    -0.192200274753E+03    0.18069E-01   -0.39666E-01  8160   0.135E+00    0.155E-01
DAV:   2    -0.192201841708E+03   -0.15670E-02   -0.11563E-02 11400   0.438E-01    0.370E-01
DAV:   3    -0.192200821224E+03    0.10205E-02   -0.33005E-03 12320   0.407E-01    0.165E-01
DAV:   4    -0.192200723773E+03    0.97451E-04   -0.75136E-04  9000   0.184E-01
  20 F= -.19220072E+03 E0= -.19211130E+03  d E =0.176198E-01
       N       E                     dE             d eps       ncg     rms          rms(c)
DAV:   1    -0.192197184700E+03    0.36365E-02   -0.33793E-01  8160   0.128E+00    0.228E-01
DAV:   2    -0.192196799898E+03    0.38480E-03   -0.11192E-02 11280   0.356E-01    0.203E-01
DAV:   3    -0.192197001562E+03   -0.20166E-03   -0.33176E-03 11120   0.428E-01    0.291E-01
DAV:   4    -0.192196275006E+03    0.72656E-03   -0.23010E-03 10240   0.398E-01    0.167E-01
DAV:   5    -0.192196144153E+03    0.13085E-03   -0.10475E-03 10000   0.225E-01    0.145E-01
DAV:   6    -0.192195933305E+03    0.21085E-03   -0.54413E-04  8560   0.187E-01    0.651E-02
DAV:   7    -0.192195914722E+03    0.18582E-04   -0.15191E-04  6920   0.831E-02
  21 F= -.19219591E+03 E0= -.19210581E+03  d E =0.480905E-02
       N       E                     dE             d eps       ncg     rms          rms(c)
DAV:   1    -0.192248836828E+03   -0.52904E-01   -0.35343E+00  8160   0.409E+00    0.499E-01
DAV:   2    -0.192255702655E+03   -0.68658E-02   -0.96321E-02 11600   0.108E+00    0.721E-01
DAV:   3    -0.192254561917E+03    0.11407E-02   -0.23888E-02 11920   0.119E+00    0.700E-01
DAV:   4    -0.192250452955E+03    0.41090E-02   -0.10213E-02 12120   0.712E-01    0.376E-01
DAV:   5    -0.192250353268E+03    0.99687E-04   -0.56899E-03 11400   0.588E-01    0.399E-01
DAV:   6    -0.192248918335E+03    0.14349E-02   -0.31806E-03 11080   0.397E-01    0.113E-01
DAV:   7    -0.192248720829E+03    0.19751E-03   -0.63905E-04 10160   0.111E-01    0.395E-02
DAV:   8    -0.192248689466E+03    0.31363E-04   -0.74549E-05  8040   0.400E-02
  22 F= -.19224869E+03 E0= -.19216263E+03  d E =-.527747E-01
       N       E                     dE             d eps       ncg     rms          rms(c)
DAV:   1    -0.192297171865E+03   -0.48451E-01   -0.29730E+00  8160   0.372E+00    0.450E-01
DAV:   2    -0.192309700486E+03   -0.12529E-01   -0.92847E-02 11720   0.130E+00    0.992E-01
DAV:   3    -0.192301283876E+03    0.84166E-02   -0.23415E-02 12320   0.119E+00    0.443E-01
DAV:   4    -0.192300251465E+03    0.10324E-02   -0.58136E-03 12280   0.511E-01    0.372E-01
DAV:   5    -0.192299373147E+03    0.87832E-03   -0.38916E-03 11440   0.513E-01    0.263E-01
DAV:   6    -0.192298801233E+03    0.57191E-03   -0.18549E-03 11360   0.293E-01    0.102E-01
DAV:   7    -0.192298606671E+03    0.19456E-03   -0.49497E-04 10800   0.971E-02    0.336E-02
DAV:   8    -0.192298594538E+03    0.12133E-04   -0.60568E-05  7800   0.486E-02
  23 F= -.19229859E+03 E0= -.19221581E+03  d E =-.499051E-01
       N       E                     dE             d eps       ncg     rms          rms(c)
DAV:   1    -0.192341642419E+03   -0.43036E-01   -0.24347E+00  8160   0.335E+00    0.409E-01
DAV:   2    -0.192355419997E+03   -0.13778E-01   -0.79166E-02 11240   0.132E+00    0.102E+00
DAV:   3    -0.192344799433E+03    0.10621E-01   -0.20316E-02 11960   0.116E+00    0.331E-01
DAV:   4    -0.192345000267E+03   -0.20083E-03   -0.48180E-03 11400   0.508E-01    0.389E-01
DAV:   5    -0.192343652626E+03    0.13476E-02   -0.32311E-03 10680   0.463E-01    0.190E-01
DAV:   6    -0.192343619901E+03    0.32725E-04   -0.14533E-03 10280   0.289E-01    0.177E-01
DAV:   7    -0.192343453140E+03    0.16676E-03   -0.10309E-03 10680   0.277E-01    0.126E-01
DAV:   8    -0.192343230733E+03    0.22241E-03   -0.26867E-04  8240   0.120E-01    0.179E-02
DAV:   9    -0.192343233582E+03   -0.28494E-05   -0.39587E-05  6400   0.226E-02
  24 F= -.19234323E+03 E0= -.19226325E+03  d E =-.446390E-01
       N       E                     dE             d eps       ncg     rms          rms(c)
DAV:   1    -0.192394655087E+03   -0.51424E-01   -0.40518E+00  8160   0.435E+00    0.552E-01
DAV:   2    -0.192417324763E+03   -0.22670E-01   -0.14024E-01 11400   0.175E+00    0.129E+00
DAV:   3    -0.192400141099E+03    0.17184E-01   -0.36001E-02 12120   0.156E+00    0.457E-01
DAV:   4    -0.192399297692E+03    0.84341E-03   -0.79930E-03 12040   0.614E-01    0.434E-01
DAV:   5    -0.192397752491E+03    0.15452E-02   -0.50878E-03 11440   0.574E-01    0.269E-01
DAV:   6    -0.192397410106E+03    0.34238E-03   -0.25455E-03 11360   0.375E-01    0.206E-01
DAV:   7    -0.192397247516E+03    0.16259E-03   -0.16142E-03 11040   0.345E-01    0.175E-01
DAV:   8    -0.192396852208E+03    0.39531E-03   -0.51563E-04  9480   0.182E-01    0.290E-02
DAV:   9    -0.192396845462E+03    0.67461E-05   -0.59683E-05  6400   0.298E-02
  25 F= -.19239685E+03 E0= -.19231892E+03  d E =-.536119E-01
       N       E                     dE             d eps       ncg     rms          rms(c)
DAV:   1    -0.192451532827E+03   -0.54681E-01   -0.38127E+01  8160   0.136E+01    0.153E+00
DAV:   2    -0.192595464090E+03   -0.14393E+00   -0.12465E+00 11600   0.445E+00    0.269E+00
DAV:   3    -0.192516937884E+03    0.78526E-01   -0.22149E-01 12120   0.387E+00    0.134E+00
DAV:   4    -0.192503085806E+03    0.13852E-01   -0.61242E-02 12480   0.187E+00    0.984E-01
DAV:   5    -0.192494907261E+03    0.81785E-02   -0.32562E-02 11600   0.158E+00    0.702E-01
DAV:   6    -0.192490729225E+03    0.41780E-02   -0.17484E-02 12400   0.940E-01    0.376E-01
DAV:   7    -0.192488039037E+03    0.26902E-02   -0.54149E-03 10760   0.357E-01    0.116E-01
DAV:   8    -0.192488078617E+03   -0.39580E-04   -0.11284E-03 11040   0.230E-01    0.156E-01
DAV:   9    -0.192487855353E+03    0.22326E-03   -0.52642E-04  9760   0.178E-01    0.611E-02
DAV:  10    -0.192487785959E+03    0.69394E-04   -0.17923E-04  6440   0.587E-02
  26 F= -.19248779E+03 E0= -.19241225E+03  d E =-.909405E-01
       N       E                     dE             d eps       ncg     rms          rms(c)
DAV:   1    -0.192484968814E+03    0.28865E-02   -0.31434E+00  8160   0.381E+00    0.572E-01
DAV:   2    -0.192525290141E+03   -0.40321E-01   -0.12600E-01 10920   0.235E+00    0.197E+00
DAV:   3    -0.192486009005E+03    0.39281E-01   -0.63904E-02 11440   0.213E+00    0.361E-01
DAV:   4    -0.192486813825E+03   -0.80482E-03   -0.78859E-03 12240   0.703E-01    0.485E-01
DAV:   5    -0.192484214242E+03    0.25996E-02   -0.51076E-03 10920   0.584E-01    0.211E-01
DAV:   6    -0.192484202024E+03    0.12218E-04   -0.23369E-03 11440   0.354E-01    0.235E-01
DAV:   7    -0.192483802984E+03    0.39904E-03   -0.15960E-03 10680   0.343E-01    0.137E-01
DAV:   8    -0.192483536697E+03    0.26629E-03   -0.35828E-04  9120   0.130E-01    0.228E-02
DAV:   9    -0.192483532118E+03    0.45786E-05   -0.47681E-05  7440   0.261E-02
  27 F= -.19248353E+03 E0= -.19240753E+03  d E =0.425384E-02
       N       E                     dE             d eps       ncg     rms          rms(c)
DAV:   1    -0.192492942425E+03   -0.94057E-02   -0.97852E-01  8160   0.211E+00    0.267E-01
DAV:   2    -0.192499370817E+03   -0.64284E-02   -0.38265E-02 11120   0.967E-01    0.641E-01
DAV:   3    -0.192494630608E+03    0.47402E-02   -0.95107E-03 12200   0.817E-01    0.194E-01
DAV:   4    -0.192494499841E+03    0.13077E-03   -0.16800E-03 11320   0.304E-01    0.180E-01
DAV:   5    -0.192494192903E+03    0.30694E-03   -0.93338E-04 10280   0.268E-01    0.110E-01
DAV:   6    -0.192494093511E+03    0.99392E-04   -0.41610E-04 10000   0.132E-01
  28 F= -.19249409E+03 E0= -.19241821E+03  d E =-.105614E-01
       N       E                     dE             d eps       ncg     rms          rms(c)
DAV:   1    -0.192498580042E+03   -0.43871E-02   -0.29440E-01  8160   0.118E+00    0.176E-01
DAV:   2    -0.192501027901E+03   -0.24479E-02   -0.14844E-02 11400   0.571E-01    0.436E-01
DAV:   3    -0.192499152578E+03    0.18753E-02   -0.43446E-03 12120   0.537E-01    0.149E-01
DAV:   4    -0.192499012378E+03    0.14020E-03   -0.75529E-04  9960   0.180E-01    0.108E-01
DAV:   5    -0.192498885587E+03    0.12679E-03   -0.36822E-04  9880   0.168E-01    0.670E-02
DAV:   6    -0.192498854432E+03    0.31154E-04   -0.17523E-04  7120   0.902E-02
  29 F= -.19249885E+03 E0= -.19242300E+03  d E =-.476092E-02
       N       E                     dE             d eps       ncg     rms          rms(c)
DAV:   1    -0.192503630455E+03   -0.47449E-02   -0.10735E+00  8160   0.221E+00    0.254E-01
DAV:   2    -0.192507807118E+03   -0.41767E-02   -0.42030E-02 11080   0.730E-01    0.386E-01
DAV:   3    -0.192506616958E+03    0.11902E-02   -0.66744E-03 12120   0.658E-01    0.261E-01
DAV:   4    -0.192505931634E+03    0.68532E-03   -0.17947E-03 12440   0.322E-01    0.140E-01
DAV:   5    -0.192505821892E+03    0.10974E-03   -0.76130E-04  9600   0.235E-01    0.124E-01
DAV:   6    -0.192505719028E+03    0.10286E-03   -0.51153E-04 10000   0.172E-01    0.702E-02
DAV:   7    -0.192505656178E+03    0.62850E-04   -0.16868E-04  6080   0.767E-02
  30 F= -.19250566E+03 E0= -.19243024E+03  d E =-.680175E-02
       N       E                     dE             d eps       ncg     rms          rms(c)
DAV:   1    -0.192507946670E+03   -0.22276E-02   -0.67126E-01  8160   0.176E+00    0.215E-01
DAV:   2    -0.192510288721E+03   -0.23421E-02   -0.28974E-02 11160   0.526E-01    0.278E-01
DAV:   3    -0.192510223600E+03    0.65122E-04   -0.51242E-03 12280   0.546E-01    0.296E-01
DAV:   4    -0.192509278919E+03    0.94468E-03   -0.15967E-03 11200   0.315E-01    0.985E-02
DAV:   5    -0.192509244670E+03    0.34248E-04   -0.45656E-04  8720   0.184E-01
  31 F= -.19250924E+03 E0= -.19243420E+03  d E =-.358849E-02
       N       E                     dE             d eps       ncg     rms          rms(c)
DAV:   1    -0.192509939596E+03   -0.66068E-03   -0.65869E-01  8160   0.174E+00    0.215E-01
DAV:   2    -0.192513668395E+03   -0.37288E-02   -0.26573E-02 11560   0.693E-01    0.453E-01
DAV:   3    -0.192511416491E+03    0.22519E-02   -0.53098E-03 11800   0.609E-01    0.169E-01
DAV:   4    -0.192511297803E+03    0.11869E-03   -0.10183E-03  9680   0.245E-01    0.153E-01
DAV:   5    -0.192511067402E+03    0.23040E-03   -0.59286E-04  9480   0.218E-01    0.782E-02
DAV:   6    -0.192511037784E+03    0.29618E-04   -0.24552E-04  7720   0.919E-02
  32 F= -.19251104E+03 E0= -.19243622E+03  d E =-.179311E-02
       N       E                     dE             d eps       ncg     rms          rms(c)
DAV:   1    -0.192511331077E+03   -0.26367E-03   -0.66083E-02  8160   0.552E-01    0.706E-02
DAV:   2    -0.192511794147E+03   -0.46307E-03   -0.30473E-03 12720   0.229E-01    0.168E-01
DAV:   3    -0.192511499895E+03    0.29425E-03   -0.65755E-04  9000   0.218E-01    0.597E-02
DAV:   4    -0.192511484077E+03    0.15818E-04   -0.97647E-05  5720   0.724E-02
  33 F= -.19251148E+03 E0= -.19243690E+03  d E =-.446293E-03
