   27   27  100    1
  0.9710400E+02  0.1002848E-08  0.1002848E-08  0.3000000E-08  0.5000000E-15
  1.000000000000000E-004
  CAR 
 unknown system                          
    159     34    120
 
  0.0000000E+00  0.0000000E+00  0.0000000E+00  0.1562500E-01
    1      -17.813561   1.000000
    2      -16.701010   1.000000
    3      -16.589268   1.000000
    4      -16.542655   1.000000
    5      -16.517074   1.000000
    6      -16.414948   1.000000
    7      -16.400357   1.000000
    8      -16.380148   1.000000
    9      -16.171079   1.000000
   10      -16.139985   1.000000
   11      -16.011088   1.000000
   12      -15.951332   1.000000
   13      -15.917750   1.000000
   14      -15.699601   1.000000
   15      -15.586113   1.000000
   16      -15.541955   1.000000
   17      -15.435857   1.000000
   18      -15.326389   1.000000
   19       -9.297005   1.000000
   20       -9.051649   1.000000
   21       -8.937407   1.000000
   22       -8.824512   1.000000
   23       -8.746019   1.000000
   24       -8.730843   1.000000
   25       -8.620618   1.000000
   26       -8.594215   1.000000
   27       -8.499198   1.000000
   28       -8.409499   1.000000
   29       -8.372947   1.000000
   30       -8.244749   1.000000
   31       -8.237883   1.000000
   32       -8.211976   1.000000
   33       -8.048545   1.000000
   34       -7.929411   1.000000
   35       -7.875808   1.000000
   36       -7.854196   1.000000
   37       -7.728955   1.000000
   38       -7.592852   1.000000
   39       -7.456423   1.000000
   40       -7.441912   1.000000
   41       -7.273485   1.000000
   42       -7.209064   1.000000
   43       -7.116610   1.000000
   44       -6.975769   1.000000
   45       -6.825161   1.000000
   46       -6.779129   1.000000
   47       -6.679986   1.000000
   48       -6.627173   1.000000
   49       -6.585823   1.000000
   50       -6.561170   1.000000
   51       -6.464187   1.000000
   52       -6.422166   1.000000
   53       -6.344460   1.000000
   54       -6.316855   1.000000
   55       -6.247134   1.000000
   56       -6.133114   1.000000
   57       -6.054360   1.000000
   58       -5.992983   1.000000
   59       -5.664169   1.000000
   60       -5.584614   1.000000
   61       -5.446926   1.000000
   62       -5.340196   1.000000
   63       -5.320808   1.000000
   64       -5.119915   1.000000
   65       -5.003085   1.000000
   66       -4.987327   1.000000
   67       -4.969472   1.000000
   68       -4.767072   1.000000
   69       -4.718455   1.000000
   70       -4.691560   1.000000
   71       -4.643522   1.000000
   72       -4.617620   1.000000
   73       -4.544533   1.000000
   74       -4.389101   1.000000
   75       -4.246863   1.000000
   76       -4.081408   1.000000
   77       -3.570048   0.997627
   78       -3.492250   0.988505
   79       -3.454535   0.977621
   80       -3.364164   0.914329
   81       -3.352853   0.901113
   82       -2.868909   0.016418
   83       -2.819422   0.006496
   84       -2.641507   0.000091
   85       -2.482402   0.000001
   86       -2.458553   0.000000
   87       -2.345861   0.000000
   88       -2.293625   0.000000
   89       -2.261806   0.000000
   90       -2.014957   0.000000
   91       -1.915264   0.000000
   92       -1.741681   0.000000
   93       -1.435479   0.000000
   94       -1.386256   0.000000
   95       -1.126338   0.000000
   96       -1.061598   0.000000
   97       -1.011835   0.000000
   98       -0.875468   0.000000
   99       -0.839274   0.000000
  100       -0.542975   0.000000
  101       -0.532238   0.000000
  102       -0.525896   0.000000
  103       -0.403851   0.000000
  104       -0.303157   0.000000
  105       -0.079710   0.000000
  106        0.018244   0.000000
  107        0.090837   0.000000
  108        0.101555   0.000000
  109        0.184264   0.000000
  110        0.213647   0.000000
  111        0.254083   0.000000
  112        0.475529   0.000000
  113        0.721289   0.000000
  114        0.779203   0.000000
  115        0.891062   0.000000
  116        0.943516   0.000000
  117        1.209166   0.000000
  118        1.650799   0.000000
  119        1.835499   0.000000
  120        2.156805   0.000000
 
  0.1250000E+00  0.2775558E-16  0.0000000E+00  0.3125000E-01
    1      -17.788172   1.000000
    2      -16.756018   1.000000
    3      -16.693557   1.000000
    4      -16.561272   1.000000
    5      -16.520537   1.000000
    6      -16.415204   1.000000
    7      -16.354213   1.000000
    8      -16.303238   1.000000
    9      -16.241979   1.000000
   10      -16.039786   1.000000
   11      -16.019070   1.000000
   12      -15.929362   1.000000
   13      -15.887653   1.000000
   14      -15.696881   1.000000
   15      -15.593131   1.000000
   16      -15.552063   1.000000
   17      -15.439824   1.000000
   18      -15.335803   1.000000
   19       -9.297157   1.000000
   20       -9.149492   1.000000
   21       -9.063042   1.000000
   22       -9.000150   1.000000
   23       -8.767598   1.000000
   24       -8.663250   1.000000
   25       -8.615365   1.000000
   26       -8.539314   1.000000
   27       -8.497483   1.000000
   28       -8.441791   1.000000
   29       -8.403304   1.000000
   30       -8.177970   1.000000
   31       -8.140194   1.000000
   32       -8.093045   1.000000
   33       -8.049864   1.000000
   34       -7.905066   1.000000
   35       -7.789219   1.000000
   36       -7.737623   1.000000
   37       -7.671544   1.000000
   38       -7.596991   1.000000
   39       -7.504913   1.000000
   40       -7.389668   1.000000
   41       -7.314223   1.000000
   42       -7.212502   1.000000
   43       -7.130422   1.000000
   44       -7.006556   1.000000
   45       -6.860409   1.000000
   46       -6.806594   1.000000
   47       -6.739432   1.000000
   48       -6.688963   1.000000
   49       -6.546161   1.000000
   50       -6.486512   1.000000
   51       -6.460427   1.000000
   52       -6.409320   1.000000
   53       -6.340968   1.000000
   54       -6.304856   1.000000
   55       -6.233415   1.000000
   56       -6.144397   1.000000
   57       -6.019154   1.000000
   58       -5.958199   1.000000
   59       -5.693625   1.000000
   60       -5.551266   1.000000
   61       -5.447218   1.000000
   62       -5.391541   1.000000
   63       -5.336209   1.000000
   64       -5.177937   1.000000
   65       -5.112743   1.000000
   66       -5.016851   1.000000
   67       -4.994629   1.000000
   68       -4.899851   1.000000
   69       -4.797687   1.000000
   70       -4.689802   1.000000
   71       -4.604727   1.000000
   72       -4.491404   1.000000
   73       -4.437105   1.000000
   74       -4.291176   1.000000
   75       -4.182711   1.000000
   76       -4.003530   1.000000
   77       -3.793245   0.999995
   78       -3.654432   0.999687
   79       -3.479802   0.985577
   80       -3.249464   0.711185
   81       -3.179887   0.525860
   82       -2.890377   0.023724
   83       -2.789938   0.003546
   84       -2.657234   0.000141
   85       -2.512153   0.000002
   86       -2.464402   0.000000
   87       -2.420708   0.000000
   88       -2.251327   0.000000
   89       -2.212463   0.000000
   90       -2.006882   0.000000
   91       -1.924060   0.000000
   92       -1.693753   0.000000
   93       -1.423331   0.000000
   94       -1.352153   0.000000
   95       -1.158031   0.000000
   96       -1.057070   0.000000
   97       -0.994849   0.000000
   98       -0.861014   0.000000
   99       -0.840496   0.000000
  100       -0.649542   0.000000
  101       -0.583571   0.000000
  102       -0.548472   0.000000
  103       -0.480427   0.000000
  104       -0.284704   0.000000
  105       -0.115958   0.000000
  106       -0.103135   0.000000
  107       -0.021376   0.000000
  108        0.058692   0.000000
  109        0.122054   0.000000
  110        0.223220   0.000000
  111        0.330377   0.000000
  112        0.557603   0.000000
  113        0.704196   0.000000
  114        0.791970   0.000000
  115        0.933918   0.000000
  116        1.044986   0.000000
  117        1.221179   0.000000
  118        1.694693   0.000000
  119        1.874200   0.000000
  120        2.192120   0.000000
 
  0.2500000E+00  0.5551115E-16  0.0000000E+00  0.3125000E-01
    1      -17.713383   1.000000
    2      -16.973743   1.000000
    3      -16.705816   1.000000
    4      -16.621541   1.000000
    5      -16.562921   1.000000
    6      -16.398079   1.000000
    7      -16.314380   1.000000
    8      -16.216433   1.000000
    9      -16.210123   1.000000
   10      -16.058955   1.000000
   11      -15.972255   1.000000
   12      -15.855247   1.000000
   13      -15.812457   1.000000
   14      -15.698690   1.000000
   15      -15.596715   1.000000
   16      -15.577791   1.000000
   17      -15.448193   1.000000
   18      -15.360733   1.000000
   19       -9.516154   1.000000
   20       -9.249811   1.000000
   21       -9.172911   1.000000
   22       -9.031419   1.000000
   23       -8.880300   1.000000
   24       -8.712585   1.000000
   25       -8.624962   1.000000
   26       -8.532785   1.000000
   27       -8.476867   1.000000
   28       -8.348095   1.000000
   29       -8.327836   1.000000
   30       -8.222337   1.000000
   31       -8.126118   1.000000
   32       -7.964066   1.000000
   33       -7.882428   1.000000
   34       -7.826251   1.000000
   35       -7.708207   1.000000
   36       -7.666983   1.000000
   37       -7.600489   1.000000
   38       -7.522030   1.000000
   39       -7.454520   1.000000
   40       -7.377372   1.000000
   41       -7.280053   1.000000
   42       -7.172774   1.000000
   43       -7.104589   1.000000
   44       -7.026726   1.000000
   45       -6.877162   1.000000
   46       -6.856101   1.000000
   47       -6.781847   1.000000
   48       -6.713388   1.000000
   49       -6.558961   1.000000
   50       -6.502048   1.000000
   51       -6.476535   1.000000
   52       -6.405524   1.000000
   53       -6.290655   1.000000
   54       -6.208989   1.000000
   55       -6.146282   1.000000
   56       -6.099021   1.000000
   57       -6.032632   1.000000
   58       -5.868925   1.000000
   59       -5.743191   1.000000
   60       -5.667723   1.000000
   61       -5.600659   1.000000
   62       -5.536595   1.000000
   63       -5.409614   1.000000
   64       -5.325146   1.000000
   65       -5.194549   1.000000
   66       -5.141453   1.000000
   67       -4.964891   1.000000
   68       -4.873072   1.000000
   69       -4.794786   1.000000
   70       -4.700219   1.000000
   71       -4.493800   1.000000
   72       -4.380967   1.000000
   73       -4.327847   1.000000
   74       -4.217504   1.000000
   75       -4.138802   1.000000
   76       -4.035905   1.000000
   77       -3.951197   1.000000
   78       -3.762196   0.999986
   79       -3.444128   0.973402
   80       -3.099560   0.307438
   81       -3.073788   0.246557
   82       -2.908815   0.032020
   83       -2.767190   0.002163
   84       -2.697703   0.000412
   85       -2.558999   0.000008
   86       -2.484036   0.000001
   87       -2.467205   0.000000
   88       -2.210441   0.000000
   89       -2.157850   0.000000
   90       -2.001199   0.000000
   91       -1.906236   0.000000
   92       -1.601974   0.000000
   93       -1.378747   0.000000
   94       -1.279488   0.000000
   95       -1.198824   0.000000
   96       -1.093658   0.000000
   97       -0.964232   0.000000
   98       -0.902962   0.000000
   99       -0.832326   0.000000
  100       -0.766362   0.000000
  101       -0.704911   0.000000
  102       -0.635850   0.000000
  103       -0.573748   0.000000
  104       -0.435059   0.000000
  105       -0.306331   0.000000
  106       -0.231124   0.000000
  107       -0.110783   0.000000
  108        0.017087   0.000000
  109        0.139360   0.000000
  110        0.162359   0.000000
  111        0.338702   0.000000
  112        0.516055   0.000000
  113        0.769509   0.000000
  114        0.874279   0.000000
  115        1.025843   0.000000
  116        1.164309   0.000000
  117        1.349342   0.000000
  118        1.817744   0.000000
  119        1.985284   0.000000
  120        2.297029   0.000000
 
  0.3750000E+00  0.0000000E+00  0.0000000E+00  0.3125000E-01
    1      -17.595406   1.000000
    2      -17.191942   1.000000
    3      -16.722856   1.000000
    4      -16.666430   1.000000
    5      -16.558953   1.000000
    6      -16.451679   1.000000
    7      -16.254467   1.000000
    8      -16.170027   1.000000
    9      -16.148725   1.000000
   10      -16.078198   1.000000
   11      -15.918368   1.000000
   12      -15.809990   1.000000
   13      -15.761268   1.000000
   14      -15.724060   1.000000
   15      -15.626935   1.000000
   16      -15.541579   1.000000
   17      -15.456199   1.000000
   18      -15.389238   1.000000
   19       -9.735391   1.000000
   20       -9.379871   1.000000
   21       -9.146328   1.000000
   22       -9.034069   1.000000
   23       -8.922844   1.000000
   24       -8.748944   1.000000
   25       -8.635892   1.000000
   26       -8.507942   1.000000
   27       -8.451046   1.000000
   28       -8.373405   1.000000
   29       -8.279352   1.000000
   30       -8.183858   1.000000
   31       -8.095088   1.000000
   32       -7.930379   1.000000
   33       -7.856468   1.000000
   34       -7.793777   1.000000
   35       -7.748075   1.000000
   36       -7.664754   1.000000
   37       -7.582656   1.000000
   38       -7.546445   1.000000
   39       -7.376937   1.000000
   40       -7.250630   1.000000
   41       -7.174370   1.000000
   42       -7.098003   1.000000
   43       -7.054989   1.000000
   44       -6.925466   1.000000
   45       -6.866658   1.000000
   46       -6.811319   1.000000
   47       -6.766282   1.000000
   48       -6.617311   1.000000
   49       -6.573662   1.000000
   50       -6.508941   1.000000
   51       -6.455700   1.000000
   52       -6.353256   1.000000
   53       -6.249554   1.000000
   54       -6.186972   1.000000
   55       -6.121542   1.000000
   56       -6.034673   1.000000
   57       -5.965223   1.000000
   58       -5.945209   1.000000
   59       -5.897353   1.000000
   60       -5.771863   1.000000
   61       -5.744525   1.000000
   62       -5.727818   1.000000
   63       -5.648312   1.000000
   64       -5.405957   1.000000
   65       -5.167127   1.000000
   66       -5.061430   1.000000
   67       -4.932964   1.000000
   68       -4.876883   1.000000
   69       -4.804456   1.000000
   70       -4.686329   1.000000
   71       -4.620712   1.000000
   72       -4.354091   1.000000
   73       -4.292657   1.000000
   74       -4.227492   1.000000
   75       -4.175214   1.000000
   76       -4.034004   1.000000
   77       -3.879147   1.000000
   78       -3.652938   0.999675
   79       -3.390806   0.940181
   80       -3.082004   0.265242
   81       -3.000321   0.114130
   82       -2.916253   0.035985
   83       -2.750567   0.001485
   84       -2.706358   0.000513
   85       -2.597570   0.000025
   86       -2.516072   0.000002
   87       -2.479181   0.000001
   88       -2.202030   0.000000
   89       -2.083406   0.000000
   90       -2.013122   0.000000
   91       -1.851564   0.000000
   92       -1.538010   0.000000
   93       -1.334928   0.000000
   94       -1.241644   0.000000
   95       -1.220691   0.000000
   96       -1.120589   0.000000
   97       -1.034735   0.000000
   98       -0.934919   0.000000
   99       -0.893760   0.000000
  100       -0.797876   0.000000
  101       -0.764479   0.000000
  102       -0.703413   0.000000
  103       -0.648356   0.000000
  104       -0.585857   0.000000
  105       -0.486708   0.000000
  106       -0.289198   0.000000
  107       -0.187426   0.000000
  108       -0.041006   0.000000
  109        0.055591   0.000000
  110        0.190648   0.000000
  111        0.337937   0.000000
  112        0.477047   0.000000
  113        0.827681   0.000000
  114        0.860095   0.000000
  115        1.119840   0.000000
  116        1.310292   0.000000
  117        1.481386   0.000000
  118        2.003936   0.000000
  119        2.159150   0.000000
  120        2.469308   0.000000
 
  0.5000000E+00  0.1110223E-15  0.0000000E+00  0.1562500E-01
    1      -17.489094   1.000000
    2      -17.333441   1.000000
    3      -16.731049   1.000000
    4      -16.682369   1.000000
    5      -16.542521   1.000000
    6      -16.483355   1.000000
    7      -16.229878   1.000000
    8      -16.160336   1.000000
    9      -16.127847   1.000000
   10      -16.080033   1.000000
   11      -15.849241   1.000000
   12      -15.841140   1.000000
   13      -15.762693   1.000000
   14      -15.700744   1.000000
   15      -15.669695   1.000000
   16      -15.499426   1.000000
   17      -15.469684   1.000000
   18      -15.400659   1.000000
   19       -9.815018   1.000000
   20       -9.426472   1.000000
   21       -9.140693   1.000000
   22       -9.069845   1.000000
   23       -8.845491   1.000000
   24       -8.759000   1.000000
   25       -8.671691   1.000000
   26       -8.551076   1.000000
   27       -8.452085   1.000000
   28       -8.368563   1.000000
   29       -8.203640   1.000000
   30       -8.164951   1.000000
   31       -8.057474   1.000000
   32       -7.967587   1.000000
   33       -7.864319   1.000000
   34       -7.807888   1.000000
   35       -7.767141   1.000000
   36       -7.690098   1.000000
   37       -7.620544   1.000000
   38       -7.522188   1.000000
   39       -7.388448   1.000000
   40       -7.278932   1.000000
   41       -7.060748   1.000000
   42       -7.011825   1.000000
   43       -6.924622   1.000000
   44       -6.893058   1.000000
   45       -6.853710   1.000000
   46       -6.772702   1.000000
   47       -6.667254   1.000000
   48       -6.612638   1.000000
   49       -6.554604   1.000000
   50       -6.523480   1.000000
   51       -6.471513   1.000000
   52       -6.404009   1.000000
   53       -6.280414   1.000000
   54       -6.216713   1.000000
   55       -6.100137   1.000000
   56       -6.037897   1.000000
   57       -6.005092   1.000000
   58       -5.963605   1.000000
   59       -5.865729   1.000000
   60       -5.794394   1.000000
   61       -5.781001   1.000000
   62       -5.710130   1.000000
   63       -5.671631   1.000000
   64       -5.447231   1.000000
   65       -5.359129   1.000000
   66       -5.009064   1.000000
   67       -4.994492   1.000000
   68       -4.911446   1.000000
   69       -4.816791   1.000000
   70       -4.650773   1.000000
   71       -4.588733   1.000000
   72       -4.336807   1.000000
   73       -4.326239   1.000000
   74       -4.252485   1.000000
   75       -4.190078   1.000000
   76       -3.989338   1.000000
   77       -3.795285   0.999995
   78       -3.638266   0.999527
   79       -3.341945   0.887013
   80       -3.123538   0.369349
   81       -2.964560   0.072458
   82       -2.915467   0.035548
   83       -2.735515   0.001044
   84       -2.700014   0.000437
   85       -2.621632   0.000052
   86       -2.526715   0.000003
   87       -2.484063   0.000001
   88       -2.198059   0.000000
   89       -2.050957   0.000000
   90       -2.018292   0.000000
   91       -1.821471   0.000000
   92       -1.516247   0.000000
   93       -1.328355   0.000000
   94       -1.260561   0.000000
   95       -1.223178   0.000000
   96       -1.120955   0.000000
   97       -1.057713   0.000000
   98       -0.965698   0.000000
   99       -0.896572   0.000000
  100       -0.851411   0.000000
  101       -0.758419   0.000000
  102       -0.715092   0.000000
  103       -0.666096   0.000000
  104       -0.648455   0.000000
  105       -0.561243   0.000000
  106       -0.298852   0.000000
  107       -0.223621   0.000000
  108       -0.075348   0.000000
  109        0.020112   0.000000
  110        0.207754   0.000000
  111        0.342019   0.000000
  112        0.459388   0.000000
  113        0.829398   0.000000
  114        0.868101   0.000000
  115        1.158552   0.000000
  116        1.365385   0.000000
  117        1.530964   0.000000
  118        2.234191   0.000000
  119        2.250668   0.000000
  120        2.376702   0.000000
 
  0.0000000E+00  0.1250000E+00  0.0000000E+00  0.3125000E-01
    1      -17.789522   1.000000
    2      -16.767970   1.000000
    3      -16.619790   1.000000
    4      -16.607950   1.000000
    5      -16.568723   1.000000
    6      -16.382983   1.000000
    7      -16.363474   1.000000
    8      -16.284322   1.000000
    9      -16.166665   1.000000
   10      -16.157418   1.000000
   11      -15.993361   1.000000
   12      -15.931996   1.000000
   13      -15.870824   1.000000
   14      -15.692709   1.000000
   15      -15.610407   1.000000
   16      -15.540097   1.000000
   17      -15.452822   1.000000
   18      -15.328147   1.000000
   19       -9.310801   1.000000
   20       -9.142038   1.000000
   21       -8.996708   1.000000
   22       -8.886900   1.000000
   23       -8.840042   1.000000
   24       -8.806393   1.000000
   25       -8.600637   1.000000
   26       -8.586040   1.000000
   27       -8.510036   1.000000
   28       -8.412963   1.000000
   29       -8.392233   1.000000
   30       -8.203882   1.000000
   31       -8.166104   1.000000
   32       -8.023973   1.000000
   33       -7.954364   1.000000
   34       -7.833911   1.000000
   35       -7.808713   1.000000
   36       -7.803818   1.000000
   37       -7.681367   1.000000
   38       -7.647962   1.000000
   39       -7.485820   1.000000
   40       -7.475632   1.000000
   41       -7.247197   1.000000
   42       -7.192738   1.000000
   43       -7.054730   1.000000
   44       -7.018456   1.000000
   45       -6.948096   1.000000
   46       -6.825450   1.000000
   47       -6.685164   1.000000
   48       -6.612326   1.000000
   49       -6.579507   1.000000
   50       -6.508437   1.000000
   51       -6.459595   1.000000
   52       -6.425422   1.000000
   53       -6.328482   1.000000
   54       -6.313951   1.000000
   55       -6.286652   1.000000
   56       -6.192945   1.000000
   57       -5.974433   1.000000
   58       -5.960262   1.000000
   59       -5.639141   1.000000
   60       -5.583604   1.000000
   61       -5.470004   1.000000
   62       -5.420359   1.000000
   63       -5.278725   1.000000
   64       -5.189488   1.000000
   65       -5.100968   1.000000
   66       -5.038300   1.000000
   67       -4.952619   1.000000
   68       -4.878330   1.000000
   69       -4.872741   1.000000
   70       -4.683272   1.000000
   71       -4.562048   1.000000
   72       -4.518776   1.000000
   73       -4.457417   1.000000
   74       -4.194719   1.000000
   75       -4.184783   1.000000
   76       -4.075859   1.000000
   77       -3.740234   0.999972
   78       -3.722650   0.999952
   79       -3.460634   0.979820
   80       -3.250895   0.714634
   81       -3.184470   0.538747
   82       -2.862357   0.014614
   83       -2.818386   0.006363
   84       -2.633975   0.000074
   85       -2.492835   0.000001
   86       -2.469316   0.000000
   87       -2.327081   0.000000
   88       -2.267220   0.000000
   89       -2.241324   0.000000
   90       -2.041123   0.000000
   91       -1.915356   0.000000
   92       -1.724177   0.000000
   93       -1.423165   0.000000
   94       -1.377732   0.000000
   95       -1.134034   0.000000
   96       -1.077733   0.000000
   97       -1.007895   0.000000
   98       -0.871596   0.000000
   99       -0.834035   0.000000
  100       -0.658054   0.000000
  101       -0.607301   0.000000
  102       -0.560153   0.000000
  103       -0.436302   0.000000
  104       -0.364525   0.000000
  105       -0.100436   0.000000
  106       -0.066336   0.000000
  107       -0.024210   0.000000
  108        0.058158   0.000000
  109        0.184874   0.000000
  110        0.291281   0.000000
  111        0.349670   0.000000
  112        0.445187   0.000000
  113        0.648987   0.000000
  114        0.734507   0.000000
  115        1.011046   0.000000
  116        1.078444   0.000000
  117        1.228819   0.000000
  118        1.693156   0.000000
  119        1.875136   0.000000
  120        2.191548   0.000000
 
  0.1250000E+00  0.1250000E+00  0.0000000E+00  0.3125000E-01
    1      -17.740836   1.000000
    2      -16.866847   1.000000
    3      -16.792758   1.000000
    4      -16.614446   1.000000
    5      -16.474219   1.000000
    6      -16.398134   1.000000
    7      -16.299427   1.000000
    8      -16.277026   1.000000
    9      -16.209811   1.000000
   10      -16.072402   1.000000
   11      -15.998055   1.000000
   12      -15.880154   1.000000
   13      -15.806361   1.000000
   14      -15.688518   1.000000
   15      -15.625296   1.000000
   16      -15.560705   1.000000
   17      -15.466877   1.000000
   18      -15.336940   1.000000
   19       -9.378386   1.000000
   20       -9.281125   1.000000
   21       -9.156421   1.000000
   22       -9.045102   1.000000
   23       -8.842309   1.000000
   24       -8.679027   1.000000
   25       -8.590824   1.000000
   26       -8.574085   1.000000
   27       -8.495048   1.000000
   28       -8.391264   1.000000
   29       -8.322001   1.000000
   30       -8.202871   1.000000
   31       -8.112996   1.000000
   32       -8.037156   1.000000
   33       -7.953337   1.000000
   34       -7.835197   1.000000
   35       -7.708799   1.000000
   36       -7.643186   1.000000
   37       -7.618389   1.000000
   38       -7.554204   1.000000
   39       -7.463742   1.000000
   40       -7.360010   1.000000
   41       -7.293492   1.000000
   42       -7.186322   1.000000
   43       -7.074532   1.000000
   44       -7.027880   1.000000
   45       -6.942593   1.000000
   46       -6.857894   1.000000
   47       -6.778181   1.000000
   48       -6.668684   1.000000
   49       -6.575730   1.000000
   50       -6.492357   1.000000
   51       -6.470241   1.000000
   52       -6.373312   1.000000
   53       -6.328006   1.000000
   54       -6.305457   1.000000
   55       -6.201410   1.000000
   56       -6.168884   1.000000
   57       -5.980944   1.000000
   58       -5.893859   1.000000
   59       -5.701537   1.000000
   60       -5.581051   1.000000
   61       -5.543030   1.000000
   62       -5.454659   1.000000
   63       -5.415239   1.000000
   64       -5.270226   1.000000
   65       -5.168697   1.000000
   66       -5.097601   1.000000
   67       -5.011893   1.000000
   68       -4.958813   1.000000
   69       -4.828700   1.000000
   70       -4.630196   1.000000
   71       -4.496943   1.000000
   72       -4.408679   1.000000
   73       -4.381849   1.000000
   74       -4.197685   1.000000
   75       -4.096147   1.000000
   76       -4.045260   1.000000
   77       -3.893364   1.000000
   78       -3.819967   0.999998
   79       -3.469741   0.982761
   80       -3.147908   0.435944
   81       -3.077904   0.255828
   82       -2.874037   0.017961
   83       -2.788778   0.003460
   84       -2.650975   0.000119
   85       -2.516876   0.000002
   86       -2.479705   0.000001
   87       -2.407692   0.000000
   88       -2.206170   0.000000
   89       -2.177031   0.000000
   90       -2.035471   0.000000
   91       -1.909308   0.000000
   92       -1.676805   0.000000
   93       -1.405900   0.000000
   94       -1.341918   0.000000
   95       -1.167439   0.000000
   96       -1.089542   0.000000
   97       -1.003694   0.000000
   98       -0.870506   0.000000
   99       -0.846592   0.000000
  100       -0.765747   0.000000
  101       -0.697348   0.000000
  102       -0.623106   0.000000
  103       -0.545411   0.000000
  104       -0.391071   0.000000
  105       -0.241785   0.000000
  106       -0.151245   0.000000
  107       -0.051238   0.000000
  108       -0.035160   0.000000
  109        0.130683   0.000000
  110        0.240861   0.000000
  111        0.384606   0.000000
  112        0.493195   0.000000
  113        0.695088   0.000000
  114        0.781595   0.000000
  115        1.071919   0.000000
  116        1.180673   0.000000
  117        1.291817   0.000000
  118        1.775456   0.000000
  119        1.950750   0.000000
  120        2.261113   0.000000
 
  0.2500000E+00  0.1250000E+00  0.0000000E+00  0.3125000E-01
    1      -17.645479   1.000000
    2      -17.064590   1.000000
    3      -16.882929   1.000000
    4      -16.597988   1.000000
    5      -16.470802   1.000000
    6      -16.386622   1.000000
    7      -16.300893   1.000000
    8      -16.214130   1.000000
    9      -16.182239   1.000000
   10      -16.029143   1.000000
   11      -16.005146   1.000000
   12      -15.828734   1.000000
   13      -15.724950   1.000000
   14      -15.696744   1.000000
   15      -15.647655   1.000000
   16      -15.575560   1.000000
   17      -15.469478   1.000000
   18      -15.354696   1.000000
   19       -9.609500   1.000000
   20       -9.396002   1.000000
   21       -9.280869   1.000000
   22       -9.028476   1.000000
   23       -8.843811   1.000000
   24       -8.633242   1.000000
   25       -8.584470   1.000000
   26       -8.490119   1.000000
   27       -8.446071   1.000000
   28       -8.374517   1.000000
   29       -8.287349   1.000000
   30       -8.222290   1.000000
   31       -8.102270   1.000000
   32       -8.033207   1.000000
   33       -7.956376   1.000000
   34       -7.915935   1.000000
   35       -7.735545   1.000000
   36       -7.558863   1.000000
   37       -7.528277   1.000000
   38       -7.425603   1.000000
   39       -7.401770   1.000000
   40       -7.327740   1.000000
   41       -7.212587   1.000000
   42       -7.088061   1.000000
   43       -7.074939   1.000000
   44       -6.965126   1.000000
   45       -6.907508   1.000000
   46       -6.852010   1.000000
   47       -6.739880   1.000000