<?xml version="1.0" encoding="ISO-8859-1"?>
<modeling>
 <generator>
  <i name="program" type="string">vasp </i>
  <i name="version" type="string">5.4.1  </i>
  <i name="subversion" type="string">05Feb16 (build Jul 05 2020 17:13:04) complex                          parallel </i>
  <i name="platform" type="string">IFC91_ompi </i>
  <i name="date" type="string">2024 05 12 </i>
  <i name="time" type="string">00:40:14 </i>
 </generator>
 <incar>
  <i type="int" name="ISTART">     0</i>
  <i type="string" name="PREC">normal</i>
  <i type="string" name="ALGO"> Normal</i>
  <i type="int" name="ISPIN">     1</i>
  <i type="int" name="ICHARG">     2</i>
  <i type="int" name="IBRION">     1</i>
  <i type="int" name="NSW">   100</i>
  <i type="int" name="ISIF">     3</i>
  <i type="int" name="ISYM">     0</i>
  <i name="SYMPREC">      0.00000001</i>
  <i name="POTIM">      0.50000000</i>
  <i type="logical" name="LREAL"> F  </i>
  <i type="logical" name="LPLANE"> F  </i>
  <i type="int" name="ISMEAR">     0</i>
  <i type="logical" name="LWAVE"> F  </i>
  <i type="logical" name="LCHARG"> F  </i>
  <v type="int" name="KPOINT_BSE">    -1     0     0     0</v>
 </incar>
 <kpoints>
  <generation param="Gamma">
   <v type="int" name="divisions">       8        8        1 </v>
   <v name="usershift">      0.00000000       0.00000000       0.00000000 </v>
   <v name="genvec1">      0.12500000       0.00000000       0.00000000 </v>
   <v name="genvec2">     -0.00000000       0.12500000       0.00000000 </v>
   <v name="genvec3">      0.00000000       0.00000000       1.00000000 </v>
   <v name="shift">      0.00000000       0.00000000       0.00000000 </v>
  </generation>
  <varray name="kpointlist" >
   <v>       0.00000000       0.00000000       0.00000000 </v>
   <v>       0.12500000       0.00000000       0.00000000 </v>
   <v>       0.25000000       0.00000000       0.00000000 </v>
   <v>       0.37500000       0.00000000       0.00000000 </v>
   <v>       0.50000000       0.00000000       0.00000000 </v>
   <v>       0.00000000       0.12500000       0.00000000 </v>
   <v>       0.12500000       0.12500000       0.00000000 </v>
   <v>       0.25000000       0.12500000       0.00000000 </v>
   <v>       0.37500000       0.12500000       0.00000000 </v>
   <v>       0.50000000       0.12500000       0.00000000 </v>
   <v>      -0.37500000       0.12500000       0.00000000 </v>
   <v>      -0.25000000       0.12500000       0.00000000 </v>
   <v>      -0.12500000       0.12500000       0.00000000 </v>
   <v>       0.00000000       0.25000000       0.00000000 </v>
   <v>       0.12500000       0.25000000       0.00000000 </v>
   <v>       0.25000000       0.25000000       0.00000000 </v>
   <v>       0.37500000       0.25000000       0.00000000 </v>
   <v>       0.50000000       0.25000000       0.00000000 </v>
   <v>      -0.37500000       0.25000000       0.00000000 </v>
   <v>      -0.25000000       0.25000000       0.00000000 </v>
   <v>      -0.12500000       0.25000000       0.00000000 </v>
   <v>      -0.00000000       0.37500000       0.00000000 </v>
   <v>       0.12500000       0.37500000       0.00000000 </v>
   <v>       0.25000000       0.37500000       0.00000000 </v>
   <v>       0.37500000       0.37500000       0.00000000 </v>
   <v>       0.50000000       0.37500000       0.00000000 </v>
   <v>      -0.37500000       0.37500000       0.00000000 </v>
   <v>      -0.25000000       0.37500000       0.00000000 </v>
   <v>      -0.12500000       0.37500000       0.00000000 </v>
   <v>       0.00000000       0.50000000       0.00000000 </v>
   <v>       0.12500000       0.50000000       0.00000000 </v>
   <v>       0.25000000       0.50000000       0.00000000 </v>
   <v>       0.37500000       0.50000000       0.00000000 </v>
   <v>       0.50000000       0.50000000       0.00000000 </v>
  </varray>
  <varray name="weights" >
   <v>       0.01562500 </v>
   <v>       0.03125000 </v>
   <v>       0.03125000 </v>
   <v>       0.03125000 </v>
   <v>       0.01562500 </v>
   <v>       0.03125000 </v>
   <v>       0.03125000 </v>
   <v>       0.03125000 </v>
   <v>       0.03125000 </v>
   <v>       0.03125000 </v>
   <v>       0.03125000 </v>
   <v>       0.03125000 </v>
   <v>       0.03125000 </v>
   <v>       0.03125000 </v>
   <v>       0.03125000 </v>
   <v>       0.03125000 </v>
   <v>       0.03125000 </v>
   <v>       0.03125000 </v>
   <v>       0.03125000 </v>
   <v>       0.03125000 </v>
   <v>       0.03125000 </v>
   <v>       0.03125000 </v>
   <v>       0.03125000 </v>
   <v>       0.03125000 </v>
   <v>       0.03125000 </v>
   <v>       0.03125000 </v>
   <v>       0.03125000 </v>
   <v>       0.03125000 </v>
   <v>       0.03125000 </v>
   <v>       0.01562500 </v>
   <v>       0.03125000 </v>
   <v>       0.03125000 </v>
   <v>       0.03125000 </v>
   <v>       0.01562500 </v>
  </varray>
 </kpoints>
 <parameters>
  <separator name="general" >
   <i type="string" name="SYSTEM">unknown system</i>
   <i type="logical" name="LCOMPAT"> F  </i>
  </separator>
  <separator name="electronic" >
   <i type="string" name="PREC">normal</i>
   <i name="ENMAX">    280.00000000</i>
   <i name="ENAUG">    373.43800000</i>
   <i name="EDIFF">      0.00010000</i>
   <i type="int" name="IALGO">    38</i>
   <i type="int" name="IWAVPR">    11</i>
   <i type="int" name="NBANDS">   120</i>
   <i name="NELECT">    159.00000000</i>
   <i type="int" name="TURBO">     0</i>
   <i type="int" name="IRESTART">     0</i>
   <i type="int" name="NREBOOT">     0</i>
   <i type="int" name="NMIN">     0</i>
   <i name="EREF">      0.00000000</i>
   <separator name="electronic smearing" >
    <i type="int" name="ISMEAR">     0</i>
    <i name="SIGMA">      0.20000000</i>
    <i name="KSPACING">      0.50000000</i>
    <i type="logical" name="KGAMMA"> T  </i>
   </separator>
   <separator name="electronic projectors" >
    <i type="logical" name="LREAL"> F  </i>
    <v name="ROPT">      0.00000000      0.00000000      0.00000000      0.00000000</v>
    <i type="int" name="LMAXPAW">  -100</i>
    <i type="int" name="LMAXMIX">     2</i>
    <i type="logical" name="NLSPLINE"> F  </i>
   </separator>
   <separator name="electronic startup" >
    <i type="int" name="ISTART">     0</i>
    <i type="int" name="ICHARG">     2</i>
    <i type="int" name="INIWAV">     1</i>
   </separator>
   <separator name="electronic spin" >
    <i type="int" name="ISPIN">     1</i>
    <i type="logical" name="LNONCOLLINEAR"> F  </i>
    <v name="MAGMOM">      1.00000000      1.00000000      1.00000000      1.00000000      1.00000000      1.00000000      1.00000000      1.00000000      1.00000000      1.00000000      1.00000000      1.00000000      1.00000000      1.00000000      1.00000000      1.00000000      1.00000000      1.00000000      1.00000000      1.00000000
      1.00000000      1.00000000      1.00000000      1.00000000      1.00000000      1.00000000      1.00000000</v>
    <i name="NUPDOWN">     -1.00000000</i>
    <i type="logical" name="LSORBIT"> F  </i>
    <v name="SAXIS">      0.00000000      0.00000000      1.00000000</v>
    <i type="logical" name="LSPIRAL"> F  </i>
    <v name="QSPIRAL">      0.00000000      0.00000000      0.00000000</v>
    <i type="logical" name="LZEROZ"> F  </i>
   </separator>
   <separator name="electronic exchange-correlation" >
    <i type="logical" name="LASPH"> F  </i>
    <i type="logical" name="LMETAGGA"> F  </i>
   </separator>
   <separator name="electronic convergence" >
    <i type="int" name="NELM">    60</i>
    <i type="int" name="NELMDL">    -5</i>
    <i type="int" name="NELMIN">     2</i>
    <i name="ENINI">    280.00000000</i>
    <separator name="electronic convergence detail" >
     <i type="logical" name="LDIAG"> T  </i>
     <i type="logical" name="LSUBROT"> F  </i>
     <i name="WEIMIN">      0.00100000</i>
     <i name="EBREAK">      0.00000021</i>
     <i name="DEPER">      0.30000000</i>
     <i type="int" name="NRMM">     4</i>
     <i name="TIME">      0.40000000</i>
    </separator>
   </separator>
   <separator name="electronic mixer" >
    <i name="AMIX">      0.40000000</i>
    <i name="BMIX">      1.00000000</i>
    <i name="AMIN">      0.10000000</i>
    <i name="AMIX_MAG">      1.60000000</i>
    <i name="BMIX_MAG">      1.00000000</i>
    <separator name="electronic mixer details" >
     <i type="int" name="IMIX">     4</i>
     <i type="logical" name="MIXFIRST"> F  </i>
     <i type="int" name="MAXMIX">   -45</i>
     <i name="WC">    100.00000000</i>
     <i type="int" name="INIMIX">     1</i>
     <i type="int" name="MIXPRE">     1</i>
     <i type="int" name="MREMOVE">     5</i>
    </separator>
   </separator>
   <separator name="electronic dipolcorrection" >
    <i type="logical" name="LDIPOL"> F  </i>
    <i type="logical" name="LMONO"> F  </i>
    <i type="int" name="IDIPOL">     0</i>
    <i name="EPSILON">      1.00000000</i>
    <v name="DIPOL">   -100.00000000   -100.00000000   -100.00000000</v>
    <i name="EFIELD">      0.00000000</i>
   </separator>
  </separator>
  <separator name="grids" >
   <i type="int" name="NGX">    42</i>
   <i type="int" name="NGY">    42</i>
   <i type="int" name="NGZ">   126</i>
   <i type="int" name="NGXF">    84</i>
   <i type="int" name="NGYF">    84</i>
   <i type="int" name="NGZF">   252</i>
   <i type="logical" name="ADDGRID"> F  </i>
  </separator>
  <separator name="ionic" >
   <i type="int" name="NSW">   100</i>
   <i type="int" name="IBRION">     1</i>
   <i type="int" name="ISIF">     3</i>
   <i name="PSTRESS">      0.00000000</i>
   <i name="EDIFFG">      0.00100000</i>
   <i type="int" name="NFREE">     0</i>
   <i name="POTIM">      0.50000000</i>
   <i name="SMASS">     -3.00000000</i>
   <i name="SCALEE">      1.00000000</i>
  </separator>
  <separator name="ionic md" >
   <i name="TEBEG">      0.00010000</i>
   <i name="TEEND">      0.00010000</i>
   <i type="int" name="NBLOCK">     1</i>
   <i type="int" name="KBLOCK">   100</i>
   <i type="int" name="NPACO">   256</i>
   <i name="APACO">     16.00000000</i>
  </separator>
  <separator name="symmetry" >
   <i type="int" name="ISYM">     0</i>
   <i name="SYMPREC">      0.00000001</i>
  </separator>
  <separator name="dos" >
   <i type="logical" name="LORBIT"> F  </i>
   <v name="RWIGS">     -1.00000000     -1.00000000     -1.00000000     -1.00000000</v>
   <i type="int" name="NEDOS">   301</i>
   <i name="EMIN">     10.00000000</i>
   <i name="EMAX">    -10.00000000</i>
   <i name="EFERMI">      0.00000000</i>
  </separator>
  <separator name="writing" >
   <i type="int" name="NWRITE">     2</i>
   <i type="logical" name="LWAVE"> F  </i>
   <i type="logical" name="LCHARG"> F  </i>
   <i type="logical" name="LPARD"> F  </i>
   <i type="logical" name="LVTOT"> F  </i>
   <i type="logical" name="LVHAR"> F  </i>
   <i type="logical" name="LELF"> F  </i>
   <i type="logical" name="LOPTICS"> F  </i>
   <v name="STM">      0.00000000      0.00000000      0.00000000      0.00000000      0.00000000      0.00000000      0.00000000</v>
  </separator>
  <separator name="performance" >
   <i type="int" name="NPAR">    40</i>
   <i type="int" name="NSIM">     4</i>
   <i type="int" name="NBLK">    -1</i>
   <i type="logical" name="LPLANE"> F  </i>
   <i type="logical" name="LSCALAPACK"> T  </i>
   <i type="logical" name="LSCAAWARE"> F  </i>
   <i type="logical" name="LSCALU"> F  </i>
   <i type="logical" name="LASYNC"> F  </i>
   <i type="logical" name="LORBITALREAL"> F  </i>
  </separator>
  <separator name="miscellaneous" >
   <i type="int" name="IDIOT">     3</i>
   <i type="logical" name="LMUSIC"> F  </i>
   <v name="POMASS">     50.94100000     95.94000000    183.85000000     32.06600000</v>
   <v name="DARWINR">      0.00000000      0.00000000      0.00000000      0.00000000</v>
   <v name="DARWINV">      1.00000000      1.00000000      1.00000000      1.00000000</v>
   <i type="logical" name="LCORR"> T  </i>
  </separator>
  <i type="logical" name="GGA_COMPAT"> T  </i>
  <i type="logical" name="LBERRY"> F  </i>
  <i type="int" name="ICORELEVEL">     0</i>
  <i type="logical" name="LDAU"> F  </i>
  <i type="int" name="I_CONSTRAINED_M">     0</i>
  <separator name="electronic exchange-correlation" >
   <i type="string" name="GGA">--</i>
   <i type="int" name="VOSKOWN">     0</i>
   <i type="logical" name="LHFCALC"> F  </i>
   <i type="string" name="PRECFOCK"></i>
   <i type="logical" name="LSYMGRAD"> F  </i>
   <i type="logical" name="LHFONE"> F  </i>
   <i type="logical" name="LRHFCALC"> F  </i>
   <i type="logical" name="LTHOMAS"> F  </i>
   <i type="logical" name="LMODELHF"> F  </i>
   <i name="ENCUT4O">     -1.00000000</i>
   <i type="int" name="EXXOEP">     0</i>
   <i type="int" name="FOURORBIT">     0</i>
   <i name="AEXX">      0.00000000</i>
   <i name="HFALPHA">      0.00000000</i>
   <i name="MCALPHA">      0.00000000</i>
   <i name="ALDAX">      1.00000000</i>
   <i name="AGGAX">      1.00000000</i>
   <i name="ALDAC">      1.00000000</i>
   <i name="AGGAC">      1.00000000</i>
   <i type="int" name="NKREDX">     1</i>
   <i type="int" name="NKREDY">     1</i>
   <i type="int" name="NKREDZ">     1</i>
   <i type="logical" name="SHIFTRED"> F  </i>
   <i type="logical" name="ODDONLY"> F  </i>
   <i type="logical" name="EVENONLY"> F  </i>
   <i type="int" name="LMAXFOCK">     0</i>
   <i type="int" name="NMAXFOCKAE">     0</i>
   <i type="logical" name="LFOCKAEDFT"> F  </i>
   <i name="HFSCREEN">      0.00000000</i>
   <i name="HFSCREENC">      0.00000000</i>
   <i type="int" name="NBANDSGWLOW">     0</i>
  </separator>
  <separator name="vdW DFT" >
   <i type="logical" name="LUSE_VDW"> F  </i>
   <i name="Zab_VDW">     -0.84910000</i>
   <i name="PARAM1">      0.12340000</i>
   <i name="PARAM2">      1.00000000</i>
   <i name="PARAM3">      0.00000000</i>
  </separator>
  <separator name="model GW" >
   <i type="int" name="MODEL_GW">     0</i>
   <i name="MODEL_EPS0">     58.26239943</i>
   <i name="MODEL_ALPHA">      1.00000000</i>
  </separator>
  <separator name="linear response parameters" >
   <i type="logical" name="LEPSILON"> F  </i>
   <i type="logical" name="LRPA"> F  </i>
   <i type="logical" name="LNABLA"> F  </i>
   <i type="logical" name="LVEL"> F  </i>
   <i type="int" name="KINTER">     0</i>
   <i name="CSHIFT">      0.10000000</i>
   <i name="OMEGAMAX">     -1.00000000</i>
   <i name="DEG_THRESHOLD">      0.00200000</i>
  </separator>
  <separator name="orbital magnetization" >
   <i type="logical" name="NUCIND"> F  </i>
   <v name="MAGPOS">      0.00000000      0.00000000      0.00000000</v>
   <i type="logical" name="LNICSALL"> T  </i>
   <i type="logical" name="ORBITALMAG"> F  </i>
   <i type="logical" name="LMAGBLOCH"> F  </i>
   <i type="logical" name="LCHIMAG"> F  </i>
   <i type="logical" name="LGAUGE"> T  </i>
   <i type="int" name="MAGATOM">     0</i>
   <v name="MAGDIPOL">      0.00000000      0.00000000      0.00000000</v>
   <v name="AVECCONST">      0.00000000      0.00000000      0.00000000</v>
  </separator>
  <separator name="response functions" >
   <i type="logical" name="LADDER"> F  </i>
   <i type="logical" name="LFXC"> F  </i>
   <i type="logical" name="LHARTREE"> T  </i>
   <i type="int" name="IBSE">     0</i>
   <v type="int" name="KPOINT">    -1     0     0     0</v>
   <i type="logical" name="LTCTE"> F  </i>
   <i type="logical" name="LTETE"> F  </i>
   <i type="logical" name="LTRIPLET"> F  </i>
   <i type="logical" name="LFXCEPS"> F  </i>
   <i type="logical" name="LFXHEG"> F  </i>
   <i type="int" name="NATURALO">     0</i>
   <i type="logical" name="L2ORDER"> F  </i>
   <i type="logical" name="LUSEW"> F  </i>
   <i name="ENCUTGW">     -2.00000000</i>
   <i name="ENCUTGWSOFT">     -2.00000000</i>
   <i name="ENCUTLF">     -1.00000000</i>
   <i type="int" name="LMAXMP2">    -1</i>
   <i name="SCISSOR">      0.00000000</i>
   <i type="int" name="NOMEGA">     0</i>
   <i type="int" name="NOMEGAR">     0</i>
   <i type="int" name="NBANDSGW">    -1</i>
   <i type="int" name="NBANDSO">    -1</i>
   <i type="int" name="NBANDSV">    -1</i>
   <i type="int" name="NELM">     1</i>
   <i type="int" name="NELMHF">     1</i>
   <i type="int" name="DIM">     3</i>
   <i type="int" name="ANTIRES">     0</i>
   <i name="OMEGAMAX">    -30.00000000</i>
   <i name="OMEGAMIN">    -30.00000000</i>
   <i name="OMEGATL">   -200.00000000</i>
   <i type="int" name="OMEGAGRID">     0</i>
   <i name="CSHIFT">     -0.10000000</i>
   <i type="logical" name="SELFENERGY"> F  </i>
   <i type="logical" name="LSPECTRAL"> F  </i>
   <i type="logical" name="LSPECTRALGW"> F  </i>
   <i type="logical" name="LSINGLES"> F  </i>
   <i type="logical" name="LFERMIGW"> F  </i>
   <i type="logical" name="ODDONLYGW"> F  </i>
   <i type="logical" name="EVENONLYGW"> F  </i>
   <i type="int" name="NKREDLFX">     1</i>
   <i type="int" name="NKREDLFY">     1</i>
   <i type="int" name="NKREDLFZ">     1</i>
   <i type="int" name="MAXMEM">  1800</i>
   <i type="int" name="TELESCOPE">     0</i>
   <i type="int" name="TAUPAR">     1</i>
   <i type="int" name="OMEGAPAR">    -1</i>
   <i name="LAMBDA">      1.00000000</i>
  </separator>
  <separator name="External order field" >
   <i name="OFIELD_KAPPA">      0.00000000</i>
   <v name="OFIELD_K">      0.00000000      0.00000000      0.00000000</v>
   <i name="OFIELD_Q6_NEAR">      0.00000000</i>
   <i name="OFIELD_Q6_FAR">      0.00000000</i>
   <i name="OFIELD_A">      0.00000000</i>
  </separator>
 </parameters>
 <atominfo>
  <atoms>      27 </atoms>
  <types>       4 </types>
  <array name="atoms" >
   <dimension dim="1">ion</dimension>
   <field type="string">element</field>
   <field type="int">atomtype</field>
   <set>
    <rc><c>V </c><c>   1</c></rc>
    <rc><c>V </c><c>   1</c></rc>
    <rc><c>V </c><c>   1</c></rc>
    <rc><c>Mo</c><c>   2</c></rc>
    <rc><c>Mo</c><c>   2</c></rc>
    <rc><c>Mo</c><c>   2</c></rc>
    <rc><c>W </c><c>   3</c></rc>
    <rc><c>W </c><c>   3</c></rc>
    <rc><c>W </c><c>   3</c></rc>
    <rc><c>S </c><c>   4</c></rc>
    <rc><c>S </c><c>   4</c></rc>
    <rc><c>S </c><c>   4</c></rc>
    <rc><c>S </c><c>   4</c></rc>
    <rc><c>S </c><c>   4</c></rc>
    <rc><c>S </c><c>   4</c></rc>
    <rc><c>S </c><c>   4</c></rc>
    <rc><c>S </c><c>   4</c></rc>
    <rc><c>S </c><c>   4</c></rc>
    <rc><c>S </c><c>   4</c></rc>
    <rc><c>S </c><c>   4</c></rc>
    <rc><c>S </c><c>   4</c></rc>
    <rc><c>S </c><c>   4</c></rc>
    <rc><c>S </c><c>   4</c></rc>
    <rc><c>S </c><c>   4</c></rc>
    <rc><c>S </c><c>   4</c></rc>
    <rc><c>S </c><c>   4</c></rc>
    <rc><c>S </c><c>   4</c></rc>
   </set>
  </array>
  <array name="atomtypes" >
   <dimension dim="1">type</dimension>
   <field type="int">atomspertype</field>
   <field type="string">element</field>
   <field>mass</field>
   <field>valence</field>
   <field type="string">pseudopotential</field>
   <set>
    <rc><c>   3</c><c>V </c><c>     50.94100000</c><c>      5.00000000</c><c> PAW_PBE V 08Apr2002                    </c></rc>
    <rc><c>   3</c><c>Mo</c><c>     95.94000000</c><c>      6.00000000</c><c> PAW_PBE Mo 08Apr2002                   </c></rc>
    <rc><c>   3</c><c>W </c><c>    183.85000000</c><c>      6.00000000</c><c> PAW_PBE W 08Apr2002                    </c></rc>
    <rc><c>  18</c><c>S </c><c>     32.06600000</c><c>      6.00000000</c><c>  PAW_PBE S 17Jan2003                   </c></rc>
   </set>
  </array>
 </atominfo>
 <structure name="initialpos" >
  <crystal>
   <varray name="basis" >
    <v>       8.66999996       5.03999989       0.00000000 </v>
    <v>      -8.66999982       5.04000013       0.00000000 </v>
    <v>       0.00000000       0.00000000      30.00000000 </v>
   </varray>
   <i name="volume">   2621.80797419 </i>
   <varray name="rec_basis" >
    <v>       0.05767013       0.09920635       0.00000000 </v>
    <v>      -0.05767013       0.09920635       0.00000000 </v>
    <v>       0.00000000       0.00000000       0.03333333 </v>
   </varray>
  </crystal>
  <varray name="positions" >
   <v>       0.33333334       0.33333334       0.00000000 </v>
   <v>       1.00000000       0.33333334       0.00000000 </v>
   <v>       0.66666669       0.33333334       0.00000000 </v>
   <v>       0.33333334       0.00000000       0.00000000 </v>
   <v>       0.00000000       0.66666669       0.00000000 </v>
   <v>       0.00000000       0.00000000       0.00000000 </v>
   <v>       0.33333334       0.66666669       0.00000000 </v>
   <v>       0.66666669       0.00000000       0.00000000 </v>
   <v>       0.66666669       0.66666669       0.00000000 </v>
   <v>       0.11068511       0.22244981       0.95539999 </v>
   <v>       0.22244981       0.11068511       0.04460000 </v>
   <v>       0.11068511       0.55578315       0.95539999 </v>
   <v>       0.22244981       0.44401845       0.04460000 </v>
   <v>       0.11068511       0.88911647       0.95539999 </v>
   <v>       0.22244981       0.77735180       0.04460000 </v>
   <v>       0.44401845       0.22244981       0.95539999 </v>
   <v>       0.55578315       0.11068511       0.04460000 </v>
   <v>       0.44401845       0.55578315       0.95539999 </v>
   <v>       0.55578315       0.44401845       0.04460000 </v>
   <v>       0.44401845       0.88911647       0.95539999 </v>
   <v>       0.55578315       0.77735180       0.04460000 </v>
   <v>       0.77735180       0.22244981       0.95539999 </v>
   <v>       0.88911647       0.11068511       0.04460000 </v>
   <v>       0.77735180       0.55578315       0.95539999 </v>
   <v>       0.88911647       0.44401845       0.04460000 </v>
   <v>       0.77735180       0.88911647       0.95539999 </v>
   <v>       0.88911647       0.77735180       0.04460000 </v>
  </varray>
 </structure>
 <calculation>
  <scstep>
   <time name="dav">   21.72   21.78</time>
   <time name="total">   21.77   21.83</time>
   <energy>
    <i name="alphaZ">     81.65567618 </i>
    <i name="ewald">  41891.19379415 </i>
    <i name="hartreedc"> -47723.83914480 </i>
    <i name="XCdc">   -242.92452230 </i>
    <i name="pawpsdc">   3467.42045192 </i>
    <i name="pawaedc">  -2871.19716117 </i>
    <i name="eentropy">     -0.52683013 </i>
    <i name="bandstr">   -239.48078190 </i>
    <i name="atom">   6761.44252427 </i>
    <i name="e_fr_energy">   1123.74400621 </i>
    <i name="e_wo_entrp">   1124.27083635 </i>
    <i name="e_0_energy">   1124.00742128 </i>
   </energy>
  </scstep>
  <scstep>
   <time name="dav">   28.17   28.23</time>
   <time name="total">   28.17   28.24</time>
   <energy>
    <i name="e_fr_energy">     -4.25322031 </i>
    <i name="e_wo_entrp">     -4.05008630 </i>
    <i name="e_0_energy">     -4.15165330 </i>
   </energy>
  </scstep>
  <scstep>
   <time name="dav">   27.45   27.51</time>
   <time name="total">   27.45   27.52</time>
   <energy>
    <i name="e_fr_energy">   -199.81270885 </i>
    <i name="e_wo_entrp">   -199.54674017 </i>
    <i name="e_0_energy">   -199.67972451 </i>
   </energy>
  </scstep>
  <scstep>
   <time name="dav">   29.76   29.83</time>
   <time name="total">   29.76   29.84</time>
   <energy>
    <i name="e_fr_energy">   -209.01295662 </i>
    <i name="e_wo_entrp">   -208.73534712 </i>
    <i name="e_0_energy">   -208.87415187 </i>
   </energy>
  </scstep>
  <scstep>
   <time name="dav">   28.91   28.98</time>
   <time name="total">   29.38   29.45</time>
   <energy>
    <i name="e_fr_energy">   -209.35495463 </i>
    <i name="e_wo_entrp">   -209.08007405 </i>
    <i name="e_0_energy">   -209.21751434 </i>
   </energy>
  </scstep>
  <scstep>
   <time name="dav">   30.77   30.84</time>
   <time name="total">   31.27   31.36</time>
   <energy>
    <i name="e_fr_energy">   -240.93686251 </i>
    <i name="e_wo_entrp">   -240.66205117 </i>
    <i name="e_0_energy">   -240.79945684 </i>
   </energy>
  </scstep>
  <scstep>
   <time name="dav">   31.89   31.97</time>
   <time name="total">   32.40   32.48</time>
   <energy>
    <i name="e_fr_energy">   -196.27551069 </i>
    <i name="e_wo_entrp">   -195.94479163 </i>
    <i name="e_0_energy">   -196.11015116 </i>
   </energy>
  </scstep>
  <scstep>
   <time name="dav">   29.45   29.52</time>
   <time name="total">   29.97   30.05</time>
   <energy>
    <i name="e_fr_energy">   -189.53073597 </i>
    <i name="e_wo_entrp">   -189.19371429 </i>
    <i name="e_0_energy">   -189.36222513 </i>
   </energy>
  </scstep>
  <scstep>
   <time name="dav">   31.07   31.15</time>
   <time name="total">   31.60   31.69</time>
   <energy>
    <i name="e_fr_energy">   -188.08259861 </i>
    <i name="e_wo_entrp">   -187.73711403 </i>
    <i name="e_0_energy">   -187.90985632 </i>
   </energy>
  </scstep>
  <scstep>
   <time name="dav">   32.69   32.78</time>
   <time name="total">   33.24   33.33</time>
   <energy>
    <i name="e_fr_energy">   -186.92934096 </i>
    <i name="e_wo_entrp">   -186.57551409 </i>
    <i name="e_0_energy">   -186.75242752 </i>
   </energy>
  </scstep>
  <scstep>
   <time name="dav">   32.34   32.42</time>
   <time name="total">   32.88   32.96</time>
   <energy>
    <i name="e_fr_energy">   -187.07848777 </i>
    <i name="e_wo_entrp">   -186.73946069 </i>
    <i name="e_0_energy">   -186.90897423 </i>
   </energy>
  </scstep>
  <scstep>
   <time name="dav">   31.52   31.60</time>
   <time name="total">   32.07   32.16</time>
   <energy>
    <i name="e_fr_energy">   -186.92478977 </i>
    <i name="e_wo_entrp">   -186.58411836 </i>
    <i name="e_0_energy">   -186.75445406 </i>
   </energy>
  </scstep>
  <scstep>
   <time name="dav">   31.85   31.93</time>
   <time name="total">   32.39   32.48</time>
   <energy>
    <i name="e_fr_energy">   -186.85542665 </i>
    <i name="e_wo_entrp">   -186.51109937 </i>
    <i name="e_0_energy">   -186.68326301 </i>
   </energy>
  </scstep>
  <scstep>
   <time name="dav">   31.37   31.45</time>
   <time name="total">   31.91   32.00</time>
   <energy>
    <i name="e_fr_energy">   -186.84322327 </i>
    <i name="e_wo_entrp">   -186.49705354 </i>
    <i name="e_0_energy">   -186.67013840 </i>
   </energy>
  </scstep>
  <scstep>
   <time name="dav">   31.81   31.89</time>
   <time name="total">   32.35   32.44</time>
   <energy>
    <i name="e_fr_energy">   -186.82986862 </i>
    <i name="e_wo_entrp">   -186.48277307 </i>
    <i name="e_0_energy">   -186.65632084 </i>
   </energy>
  </scstep>
  <scstep>
   <time name="dav">   30.14   30.22</time>
   <time name="total">   30.68   30.77</time>
   <energy>
    <i name="e_fr_energy">   -186.82756201 </i>
    <i name="e_wo_entrp">   -186.48092124 </i>
    <i name="e_0_energy">   -186.65424162 </i>
   </energy>
  </scstep>
  <scstep>
   <time name="dav">   30.93   31.01</time>
   <time name="total">   31.47   31.55</time>
   <energy>
    <i name="e_fr_energy">   -186.82624584 </i>
    <i name="e_wo_entrp">   -186.48043506 </i>
    <i name="e_0_energy">   -186.65334045 </i>
   </energy>
  </scstep>
  <scstep>
   <time name="dav">   31.04   31.12</time>
   <time name="total">   31.58   31.67</time>
   <energy>
    <i name="e_fr_energy">   -186.82574237 </i>
    <i name="e_wo_entrp">   -186.47951774 </i>
    <i name="e_0_energy">   -186.65263005 </i>
   </energy>
  </scstep>
  <scstep>
   <time name="dav">   26.53   26.59</time>
   <time name="total">   27.07   27.14</time>
   <energy>
    <i name="e_fr_energy">   -186.82638924 </i>
    <i name="e_wo_entrp">   -186.48056809 </i>
    <i name="e_0_energy">   -186.65347866 </i>
   </energy>
  </scstep>
  <scstep>
   <time name="dav">   20.38   20.43</time>
   <time name="total">   20.93   20.98</time>
   <energy>
    <i name="e_fr_energy">   -186.82685308 </i>
    <i name="e_wo_entrp">   -186.48109839 </i>
    <i name="e_0_energy">   -186.65397574 </i>
   </energy>
  </scstep>
  <scstep>
   <time name="dav">   20.35   20.40</time>
   <time name="total">   20.89   20.95</time>
   <energy>
    <i name="e_fr_energy">   -186.82791866 </i>
    <i name="e_wo_entrp">   -186.48211042 </i>
    <i name="e_0_energy">   -186.65501454 </i>
   </energy>
  </scstep>
  <scstep>
   <time name="dav">   21.53   21.58</time>
   <time name="total">   22.07   22.13</time>
   <energy>
    <i name="e_fr_energy">   -186.82900336 </i>
    <i name="e_wo_entrp">   -186.48317341 </i>
    <i name="e_0_energy">   -186.65608839 </i>
   </energy>
  </scstep>
  <scstep>
   <time name="dav">   17.71   17.75</time>
   <time name="total">   18.25   18.30</time>
   <energy>
    <i name="e_fr_energy">   -186.82947712 </i>
    <i name="e_wo_entrp">   -186.48364800 </i>
    <i name="e_0_energy">   -186.65656256 </i>
   </energy>
  </scstep>
  <scstep>
   <time name="dav">   19.63   19.68</time>
   <time name="total">   20.17   20.23</time>
   <energy>
    <i name="e_fr_energy">   -186.83012672 </i>
    <i name="e_wo_entrp">   -186.48429618 </i>
    <i name="e_0_energy">   -186.65721145 </i>
   </energy>
  </scstep>
  <scstep>
   <time name="dav">   18.01   18.06</time>
   <time name="total">   18.55   18.60</time>
   <energy>
    <i name="e_fr_energy">   -186.83047550 </i>
    <i name="e_wo_entrp">   -186.48463148 </i>
    <i name="e_0_energy">   -186.65755349 </i>
   </energy>
  </scstep>
  <scstep>
   <time name="dav">   18.93   18.97</time>
   <time name="total">   19.47   19.52</time>
   <energy>
    <i name="e_fr_energy">   -186.83071992 </i>
    <i name="e_wo_entrp">   -186.48488710 </i>
    <i name="e_0_energy">   -186.65780351 </i>
   </energy>
  </scstep>
  <scstep>
   <time name="dav">   20.67   20.72</time>
   <time name="total">   20.71   20.76</time>
   <energy>
    <i name="alphaZ">     81.65567618 </i>
    <i name="ewald">  41891.19379415 </i>
    <i name="hartreedc"> -47833.69766165 </i>
    <i name="XCdc">   -231.60755627 </i>
    <i name="pawpsdc">   4192.07435270 </i>
    <i name="pawaedc">  -3610.07467196 </i>
    <i name="eentropy">     -0.34583255 </i>
    <i name="bandstr">  -1437.47141427 </i>
    <i name="atom">   6761.44252427 </i>
    <i name="e_fr_energy">   -186.83078941 </i>
    <i name="e_wo_entrp">   -186.48495686 </i>
    <i name="e_0_energy">   -186.65787313 </i>
   </energy>
  </scstep>
  <structure>
   <crystal>
    <varray name="basis" >
     <v>       8.66999996       5.03999989       0.00000000 </v>
     <v>      -8.66999982       5.04000013       0.00000000 </v>
     <v>       0.00000000       0.00000000      30.00000000 </v>
    </varray>
    <i name="volume">   2621.80797419 </i>
    <varray name="rec_basis" >
     <v>       0.05767013       0.09920635       0.00000000 </v>
     <v>      -0.05767013       0.09920635       0.00000000 </v>
     <v>       0.00000000       0.00000000       0.03333333 </v>
    </varray>
   </crystal>
   <varray name="positions" >
    <v>       0.33333334       0.33333334       0.00000000 </v>
    <v>       1.00000000       0.33333334       0.00000000 </v>
    <v>       0.66666669       0.33333334       0.00000000 </v>
    <v>       0.33333334       0.00000000       0.00000000 </v>
    <v>       0.00000000       0.66666669       0.00000000 </v>
    <v>       0.00000000       0.00000000       0.00000000 </v>
    <v>       0.33333334       0.66666669       0.00000000 </v>
    <v>       0.66666669       0.00000000       0.00000000 </v>
    <v>       0.66666669       0.66666669       0.00000000 </v>
    <v>       0.11068511       0.22244981       0.95539999 </v>
    <v>       0.22244981       0.11068511       0.04460000 </v>
    <v>       0.11068511       0.55578315       0.95539999 </v>
    <v>       0.22244981       0.44401845       0.04460000 </v>
    <v>       0.11068511       0.88911647       0.95539999 </v>
    <v>       0.22244981       0.77735180       0.04460000 </v>
    <v>       0.44401845       0.22244981       0.95539999 </v>
    <v>       0.55578315       0.11068511       0.04460000 </v>
    <v>       0.44401845       0.55578315       0.95539999 </v>
    <v>       0.55578315       0.44401845       0.04460000 </v>
    <v>       0.44401845       0.88911647       0.95539999 </v>
    <v>       0.55578315       0.77735180       0.04460000 </v>
    <v>       0.77735180       0.22244981       0.95539999 </v>
    <v>       0.88911647       0.11068511       0.04460000 </v>
    <v>       0.77735180       0.55578315       0.95539999 </v>
    <v>       0.88911647       0.44401845       0.04460000 </v>
    <v>       0.77735180       0.88911647       0.95539999 </v>
    <v>       0.88911647       0.77735180       0.04460000 </v>
   </varray>
  </structure>
  <varray name="forces" >
   <v>       0.22933287      -0.37623497      -0.05483770 </v>
   <v>      -0.00814124       0.01583232       0.02872593 </v>
   <v>      -0.00889130       0.01497257       0.02931204 </v>
   <v>      -0.27942088      -0.40030726      -0.13269625 </v>
   <v>      -0.23634168       0.38813461       0.17102761 </v>
   <v>       0.49806156       0.02389986      -0.13856372 </v>
   <v>      -0.51613214      -0.08480726       0.11838542 </v>
   <v>      -0.05266862       0.06732742      -0.09129912 </v>
   <v>       0.34254298       0.38913378       0.11375671 </v>
   <v>      -0.31884799       0.66843888      -1.40931167 </v>
   <v>      -0.53245977       0.70594077       2.17062957 </v>
   <v>       0.62669602      -0.55999108      -2.14490404 </v>
   <v>       0.23597876      -0.52197801       1.40855860 </v>
   <v>       0.09644506       0.03498549      -2.94174154 </v>
   <v>       0.07041095      -0.03201967       2.92955867 </v>
   <v>      -0.32856982       0.66152352      -1.41266316 </v>
   <v>      -0.36782833       0.69436155       2.11682268 </v>
   <v>       0.46754114      -0.56449981      -2.09016507 </v>
   <v>       0.23614531      -0.52038129       1.41171417 </v>
   <v>       0.26120374       0.03634266      -2.91533517 </v>
   <v>      -0.10824083      -0.03906350       2.92669886 </v>
   <v>      -0.23538853       0.51596468      -1.43615770 </v>
   <v>      -0.61190205       0.54804755       2.10853142 </v>
   <v>       0.37604865      -0.70952538      -2.15297805 </v>
   <v>       0.32271082      -0.66782339       1.37780185 </v>
   <v>       0.02981722      -0.10176503      -2.91847008 </v>
   <v>      -0.18810191      -0.18650902       2.92759973 </v>
  </varray>
  <varray name="stress" >
   <v>       7.27030008      -0.13449943      -1.56552785 </v>
   <v>      -0.13449935       4.50479594      -0.00054898 </v>
   <v>      -1.56552774      -0.00054893      30.31224801 </v>
  </varray>
  <energy>
   <i name="e_fr_energy">   -186.83078941 </i>
   <i name="e_wo_entrp">   -186.65787313 </i>
   <i name="e_0_energy">     -0.34583255 </i>
  </energy>
  <time name="totalsc">  780.64  782.76</time>
 </calculation>
 <calculation>
  <scstep>
   <time name="dav">   21.72   21.77</time>
   <time name="total">   22.27   22.32</time>
   <energy>
    <i name="alphaZ">     78.91658716 </i>
    <i name="ewald">  39376.55824173 </i>
    <i name="hartreedc"> -45333.82147993 </i>
    <i name="XCdc">   -239.07972847 </i>
    <i name="pawpsdc">   4192.05129956 </i>
    <i name="pawaedc">  -3610.05199147 </i>
    <i name="eentropy">     -0.28807770 </i>
    <i name="bandstr">  -1413.24976115 </i>
    <i name="atom">   6761.44252427 </i>
    <i name="e_fr_energy">   -187.52238600 </i>
    <i name="e_wo_entrp">   -187.23430830 </i>
    <i name="e_0_energy">   -187.37834715 </i>
   </energy>
  </scstep>
  <scstep>
   <time name="dav">   30.17   30.24</time>
   <time name="total">   30.70   30.78</time>
   <energy>
    <i name="e_fr_energy">   -189.50584533 </i>
    <i name="e_wo_entrp">   -189.17935802 </i>
    <i name="e_0_energy">   -189.34260167 </i>
   </energy>
  </scstep>
  <scstep>
   <time name="dav">   30.65   30.72</time>
   <time name="total">   31.21   31.29</time>
   <energy>
    <i name="e_fr_energy">   -189.34971291 </i>
    <i name="e_wo_entrp">   -189.07523564 </i>
    <i name="e_0_energy">   -189.21247428 </i>
   </energy>
  </scstep>
  <scstep>
   <time name="dav">   31.20   31.28</time>
   <time name="total">   31.74   31.83</time>
   <energy>
    <i name="e_fr_energy">   -188.77243785 </i>
    <i name="e_wo_entrp">   -188.48590658 </i>
    <i name="e_0_energy">   -188.62917222 </i>
   </energy>
  </scstep>
  <scstep>
   <time name="dav">   26.25   26.32</time>
   <time name="total">   26.80   26.88</time>
   <energy>
    <i name="e_fr_energy">   -188.73039615 </i>
    <i name="e_wo_entrp">   -188.44407034 </i>
    <i name="e_0_energy">   -188.58723324 </i>
   </energy>
  </scstep>
  <scstep>
   <time name="dav">   32.26   32.34</time>
   <time name="total">   32.80   32.89</time>
   <energy>
    <i name="e_fr_energy">   -188.77866665 </i>
    <i name="e_wo_entrp">   -188.48969160 </i>
    <i name="e_0_energy">   -188.63417912 </i>
   </energy>
  </scstep>
  <scstep>
   <time name="dav">   31.18   31.26</time>
   <time name="total">   31.73   31.82</time>
   <energy>
    <i name="e_fr_energy">   -188.71173586 </i>
    <i name="e_wo_entrp">   -188.42537348 </i>
    <i name="e_0_energy">   -188.56855467 </i>
   </energy>
  </scstep>
  <scstep>
   <time name="dav">   28.37   28.44</time>
   <time name="total">   28.91   28.99</time>
   <energy>
    <i name="e_fr_energy">   -188.68852537 </i>
    <i name="e_wo_entrp">   -188.40301160 </i>
    <i name="e_0_energy">   -188.54576849 </i>
   </energy>
  </scstep>
  <scstep>
   <time name="dav">   30.47   30.55</time>
   <time name="total">   31.02   31.10</time>
   <energy>
    <i name="e_fr_energy">   -188.68973598 </i>
    <i name="e_wo_entrp">   -188.40443883 </i>
    <i name="e_0_energy">   -188.54708740 </i>
   </energy>
  </scstep>
  <scstep>
   <time name="dav">   31.72   31.80</time>
   <time name="total">   32.26   32.35</time>
   <energy>
    <i name="e_fr_energy">   -188.68757120 </i>
    <i name="e_wo_entrp">   -188.40266642 </i>
    <i name="e_0_energy">   -188.54511881 </i>
   </energy>
  </scstep>
  <scstep>
   <time name="dav">   28.64   28.71</time>
   <time name="total">   29.19   29.27</time>
   <energy>
    <i name="e_fr_energy">   -188.68707021 </i>
    <i name="e_wo_entrp">   -188.40238740 </i>
    <i name="e_0_energy">   -188.54472880 </i>
   </energy>
  </scstep>
  <scstep>
   <time name="dav">   25.62   25.69</time>
   <time name="total">   25.66   25.73</time>
   <energy>
    <i name="alphaZ">     78.91658716 </i>
    <i name="ewald">  39376.55824173 </i>
    <i name="hartreedc"> -45344.79399859 </i>
    <i name="XCdc">   -237.98157805 </i>
    <i name="pawpsdc">   3950.89895687 </i>
    <i name="pawaedc">  -3365.41176834 </i>
    <i name="eentropy">     -0.28468795 </i>
    <i name="bandstr">  -1408.03143248 </i>
    <i name="atom">   6761.44252427 </i>
    <i name="e_fr_energy">   -188.68715538 </i>
    <i name="e_wo_entrp">   -188.40246743 </i>
    <i name="e_0_energy">   -188.54481141 </i>
   </energy>
  </scstep>
  <structure>
   <crystal>
    <varray name="basis" >
     <v>       8.85231957       5.10297434       0.00000000 </v>
     <v>      -8.85628347       5.10979368       0.00000000 </v>
     <v>       0.00000000       0.00000000      30.00000000 </v>
    </varray>
    <i name="volume">   2712.80741650 </i>
    <varray name="rec_basis" >
     <v>       0.05650744       0.09793858       0.00000000 </v>
     <v>      -0.05643203       0.09789474       0.00000000 </v>
     <v>       0.00000000       0.00000000       0.03333333 </v>
    </varray>
   </crystal>
   <varray name="positions" >
    <v>       0.33217073       0.33089465      -0.00008818 </v>
    <v>       1.00005312       0.33343177       0.00004619 </v>
    <v>       0.66671361       0.33342974       0.00004714 </v>
    <v>       0.33064009      -0.00113847      -0.00021339 </v>
    <v>       0.00120006       0.66918183       0.00027503 </v>
    <v>       0.00150007      -0.00127130      -0.00022282 </v>
    <v>       0.33149150       0.66769676       0.00019037 </v>
    <v>       0.66684238       0.00046876      -0.00014682 </v>
    <v>       0.66948208       0.66757606       0.00018293 </v>
    <v>       0.11299716       0.22653603       0.95313369 </v>
    <v>       0.22434704       0.11554512       0.04809056 </v>
    <v>       0.10974857       0.55135948       0.95195079 </v>
    <v>       0.22060817       0.44086375       0.04686509 </v>
    <v>       0.11112088       0.88901558       0.95066941 </v>
    <v>       0.22249246       0.77700266       0.04931099 </v>
    <v>       0.44627036       0.22652998       0.95312830 </v>
    <v>       0.55808299       0.11503167       0.04800404 </v>
    <v>       0.44261754       0.55178069       0.95203882 </v>
    <v>       0.55394961       0.44087093       0.04687016 </v>
    <v>       0.44491910       0.88856369       0.95071187 </v>
    <v>       0.55529505       0.77746598       0.04930639 </v>
    <v>       0.77916630       0.22557409       0.95309052 </v>
    <v>       0.89003700       0.11501046       0.04799070 </v>
    <v>       0.77500225       0.55134115       0.95193781 </v>
    <v>       0.88681811       0.43992443       0.04681563 </v>
    <v>       0.77694771       0.88854646       0.95070683 </v>
    <v>       0.88770051       0.77698250       0.04930784 </v>
   </varray>
  </structure>
  <varray name="forces" >
   <v>       0.18375128      -0.32033350      -0.11214766 </v>
   <v>      -0.00424795       0.00175889       0.08801472 </v>
   <v>       0.00391241       0.00400756       0.08789206 </v>
   <v>      -0.09357106      -0.58833654      -0.03258313 </v>
   <v>      -0.32225602       0.55759916       0.02317132 </v>
   <v>       0.55622998      -0.20869164      -0.03604211 </v>
   <v>      -0.53131364       0.10668105      -0.07101975 </v>
   <v>       0.07044899      -0.13750811       0.08969338 </v>
   <v>       0.17715183       0.51572339      -0.07754146 </v>
   <v>       0.00179150       0.04325395       0.06077657 </v>
   <v>      -0.03017864       0.07238855       0.11657291 </v>
   <v>       0.06390644       0.05070759       0.07045496 </v>
   <v>      -0.06123996       0.06755282      -0.13929687 </v>
   <v>       0.00119280      -0.00803800      -0.40116906 </v>
   <v>       0.11352914       0.00569801       0.28473024 </v>
   <v>      -0.01567079       0.03453884       0.05587862 </v>
   <v>       0.09667586       0.03941161      -0.17220070 </v>
   <v>      -0.06363675       0.08084954       0.38296402 </v>
   <v>      -0.04998711       0.07130883      -0.13333374 </v>
   <v>       0.09617950      -0.00543194      -0.04134785 </v>
   <v>       0.02020043      -0.01022721      -0.11477190 </v>
   <v>       0.05097590      -0.06198616       0.05028244 </v>
   <v>      -0.06442094      -0.05140248      -0.17247157 </v>
   <v>      -0.09651889      -0.04045376       0.07072376 </v>
   <v>       0.00540382      -0.03709786      -0.13607716 </v>
   <v>      -0.06044217      -0.09518591      -0.03299977 </v>
   <v>      -0.04786595      -0.08678669       0.29184774 </v>
  </varray>
  <varray name="stress" >
   <v>     -19.94324348       0.04568456      -0.00181918 </v>
   <v>       0.04568440     -19.55931294       0.07962850 </v>
   <v>      -0.00181933       0.07962837      -1.84965794 </v>
  </varray>
  <energy>
   <i name="e_fr_energy">   -188.68715538 </i>
   <i name="e_wo_entrp">   -188.54481141 </i>
   <i name="e_0_energy">     -0.28468795 </i>
  </energy>
  <time name="totalsc">  396.58  397.64</time>
 </calculation>
 <calculation>
  <scstep>
   <time name="dav">   23.70   23.75</time>
   <time name="total">   24.23   24.29</time>
   <energy>
    <i name="alphaZ">     82.34674634 </i>
    <i name="ewald">  41303.33543156 </i>
    <i name="hartreedc"> -47302.21661813 </i>
    <i name="XCdc">   -233.85112097 </i>
    <i name="pawpsdc">   3950.27270036 </i>
    <i name="pawaedc">  -3364.77825473 </i>
    <i name="eentropy">     -0.24029286 </i>
    <i name="bandstr">  -1386.93849096 </i>
    <i name="atom">   6761.44252427 </i>
    <i name="e_fr_energy">   -190.62737511 </i>
    <i name="e_wo_entrp">   -190.38708225 </i>
    <i name="e_0_energy">   -190.50722868 </i>
   </energy>
  </scstep>
  <scstep>
   <time name="dav">   28.76   28.83</time>
   <time name="total">   29.29   29.37</time>
   <energy>
    <i name="e_fr_energy">   -190.54615585 </i>
    <i name="e_wo_entrp">   -190.30843791 </i>
    <i name="e_0_energy">   -190.42729688 </i>
   </energy>
  </scstep>
  <scstep>
   <time name="dav">   30.41   30.48</time>
   <time name="total">   30.94   31.02</time>
   <energy>
    <i name="e_fr_energy">   -190.12308959 </i>
    <i name="e_wo_entrp">   -189.87070684 </i>
    <i name="e_0_energy">   -189.99689821 </i>
   </energy>
  </scstep>
  <scstep>
   <time name="dav">   30.89   30.97</time>
   <time name="total">   31.42   31.51</time>
   <energy>
    <i name="e_fr_energy">   -189.89537728 </i>
    <i name="e_wo_entrp">   -189.65622096 </i>
    <i name="e_0_energy">   -189.77579912 </i>
   </energy>
  </scstep>
  <scstep>
   <time name="dav">   29.27   29.34</time>
   <time name="total">   29.81   29.89</time>
   <energy>
    <i name="e_fr_energy">   -189.81179406 </i>
    <i name="e_wo_entrp">   -189.56858440 </i>
    <i name="e_0_energy">   -189.69018923 </i>
   </energy>
  </scstep>
  <scstep>
   <time name="dav">   29.37   29.44</time>
   <time name="total">   29.90   29.98</time>
   <energy>
    <i name="e_fr_energy">   -189.79980618 </i>
    <i name="e_wo_entrp">   -189.55653934 </i>
    <i name="e_0_energy">   -189.67817276 </i>
   </energy>
  </scstep>
  <scstep>
   <time name="dav">   28.81   28.88</time>
   <time name="total">   29.35   29.43</time>
   <energy>
    <i name="e_fr_energy">   -189.79363565 </i>
    <i name="e_wo_entrp">   -189.55056401 </i>
    <i name="e_0_energy">   -189.67209983 </i>
   </energy>
  </scstep>
  <scstep>
   <time name="dav">   28.92   28.99</time>
   <time name="total">   29.46   29.54</time>
   <energy>
    <i name="e_fr_energy">   -189.79330238 </i>
    <i name="e_wo_entrp">   -189.55018477 </i>
    <i name="e_0_energy">   -189.67174357 </i>
   </energy>
  </scstep>
  <scstep>
   <time name="dav">   26.93   27.00</time>
   <time name="total">   27.47   27.54</time>
   <energy>
    <i name="e_fr_energy">   -189.79383025 </i>
    <i name="e_wo_entrp">   -189.55062911 </i>
    <i name="e_0_energy">   -189.67222968 </i>
   </energy>
  </scstep>
  <scstep>
   <time name="dav">   26.88   26.94</time>
   <time name="total">   27.42   27.50</time>
   <energy>
    <i name="e_fr_energy">   -189.79368487 </i>
    <i name="e_wo_entrp">   -189.55037161 </i>
    <i name="e_0_energy">   -189.67202824 </i>
   </energy>
  </scstep>
  <scstep>
   <time name="dav">   23.61   23.67</time>
   <time name="total">   24.15   24.22</time>
   <energy>
    <i name="e_fr_energy">   -189.79345112 </i>
    <i name="e_wo_entrp">   -189.55013541 </i>
    <i name="e_0_energy">   -189.67179327 </i>
   </energy>
  </scstep>
  <scstep>
   <time name="dav">   17.21   17.25</time>
   <time name="total">   17.25   17.30</time>
   <energy>
    <i name="alphaZ">     82.34674634 </i>
    <i name="ewald">  41303.33543156 </i>
    <i name="hartreedc"> -47275.46510785 </i>
    <i name="XCdc">   -235.24733554 </i>
    <i name="pawpsdc">   4038.88717168 </i>
    <i name="pawaedc">  -3454.59284044 </i>
    <i name="eentropy">     -0.24330281 </i>
    <i name="bandstr">  -1410.25674534 </i>
    <i name="atom">   6761.44252427 </i>
    <i name="e_fr_energy">   -189.79345814 </i>
    <i name="e_wo_entrp">   -189.55015533 </i>
    <i name="e_0_energy">   -189.67180673 </i>
   </energy>
  </scstep>
  <structure>
   <crystal>
    <varray name="basis" >
     <v>       8.66442417       4.99703656       0.00000000 </v>
     <v>      -8.66780661       5.00285159       0.00000000 </v>
     <v>       0.00000000       0.00000000      30.00000000 </v>
    </varray>
    <i name="volume">   2599.80524384 </i>
    <varray name="rec_basis" >
     <v>       0.05772953       0.10002065       0.00000000 </v>
     <v>      -0.05766243       0.09998161       0.00000000 </v>
     <v>       0.00000000       0.00000000       0.03333333 </v>
    </varray>
   </crystal>
   <varray name="positions" >
    <v>       0.33181404       0.33018552      -0.00015171 </v>
    <v>       1.00005197       0.33343877       0.00009605 </v>
    <v>       0.66672403       0.33343265       0.00009692 </v>
    <v>       0.32957103      -0.00202750      -0.00023184 </v>
    <v>       0.00181865       0.67041850       0.00028815 </v>
    <v>       0.00168687      -0.00215191      -0.00024324 </v>
    <v>       0.33115884       0.66838377       0.00015014 </v>
    <v>       0.66668117       0.00017244      -0.00009601 </v>
    <v>       0.67051054       0.66826414       0.00013901 </v>
    <v>       0.11307087       0.22660627       0.95316812 </v>
    <v>       0.22443854       0.11569448       0.04815660 </v>
    <v>       0.10989434       0.55138255       0.95199070 </v>
    <v>       0.22066179       0.44103486       0.04678618 </v>
    <v>       0.11110864       0.88900106       0.95044216 </v>
    <v>       0.22261096       0.77690326       0.04947228 </v>
    <v>       0.44631279       0.22660247       0.95315996 </v>
    <v>       0.55824142       0.11500452       0.04790649 </v>
    <v>       0.44269100       0.55197622       0.95225575 </v>
    <v>       0.55402030       0.44103749       0.04679463 </v>
    <v>       0.44500242       0.88846242       0.95068845 </v>
    <v>       0.55529743       0.77742960       0.04924138 </v>
    <v>       0.77911209       0.22542209       0.95311900 </v>
    <v>       0.88988959       0.11498673       0.04789301 </v>
    <v>       0.77484224       0.55136641       0.95197787 </v>
    <v>       0.88676156       0.43985753       0.04673854 </v>
    <v>       0.77673124       0.88844608       0.95068814 </v>
    <v>       0.88751010       0.77688402       0.04947316 </v>
   </varray>
  </structure>
  <varray name="forces" >
   <v>       0.17466676      -0.30866277      -0.09862150 </v>
   <v>      -0.00363957      -0.00403104       0.08377263 </v>
   <v>       0.00751481       0.00163031       0.08366682 </v>
   <v>      -0.02602291      -0.64348739       0.00053527 </v>
   <v>      -0.35578308       0.61224933      -0.01196311 </v>
   <v>       0.56691107      -0.29771780       0.00086963 </v>
   <v>      -0.54312498       0.17995475      -0.09714383 </v>
   <v>       0.11518783      -0.21252548       0.10815818 </v>
   <v>       0.11973078       0.56677541      -0.09978145 </v>
   <v>      -0.03107929       0.08560985      -0.38166328 </v>
   <v>      -0.06386188       0.12430587       0.59970888 </v>
   <v>       0.03625071      -0.08775070      -0.42197014 </v>
   <v>       0.02059926      -0.05180267       0.31200895 </v>
   <v>       0.00680693      -0.01657912      -0.97508470 </v>
   <v>       0.01212544       0.01226855       0.86818377 </v>
   <v>      -0.03484510       0.08659507      -0.38560624 </v>
   <v>      -0.03626510       0.07816441       0.30485110 </v>
   <v>       0.00314218      -0.03197329      -0.07727852 </v>
   <v>       0.01393292      -0.05804693       0.31504791 </v>
   <v>       0.00760672       0.00222979      -0.60643235 </v>
   <v>       0.02620237      -0.02153743       0.44105915 </v>
   <v>      -0.02766931       0.07286980      -0.41372915 </v>
   <v>      -0.03073629       0.08088239       0.30344092 </v>
   <v>       0.04106733      -0.08481539      -0.42124470 </v>
   <v>       0.02741452      -0.07597971       0.29398716 </v>
   <v>      -0.01997914      -0.01235824      -0.59825886 </v>
   <v>      -0.00615297       0.00373244       0.87348745 </v>
  </varray>
  <varray name="stress" >
   <v>     -10.16501591       0.01628239      -0.02805839 </v>
   <v>       0.01628228      -9.84600154       0.09536862 </v>
   <v>      -0.02805824       0.09536874       6.48090277 </v>
  </varray>
  <energy>
   <i name="e_fr_energy">   -189.79345814 </i>
   <i name="e_wo_entrp">   -189.67180673 </i>
   <i name="e_0_energy">     -0.24330281 </i>
  </energy>
  <time name="totalsc">  373.08  374.09</time>
 </calculation>
 <calculation>
  <scstep>
   <time name="dav">   21.70   21.75</time>
   <time name="total">   22.22   22.28</time>
   <energy>
    <i name="alphaZ">     85.82085255 </i>
    <i name="ewald">  42834.53275106 </i>
    <i name="hartreedc"> -48851.00223915 </i>
    <i name="XCdc">   -232.96086897 </i>
    <i name="pawpsdc">   4038.90855142 </i>
    <i name="pawaedc">  -3454.61177565 </i>
    <i name="eentropy">     -0.20903785 </i>
    <i name="bandstr">  -1373.32851627 </i>
    <i name="atom">   6761.44252427 </i>
    <i name="e_fr_energy">   -191.40775858 </i>
    <i name="e_wo_entrp">   -191.19872073 </i>
    <i name="e_0_energy">   -191.30323966 </i>
   </energy>
  </scstep>
  <scstep>
   <time name="dav">   31.38   31.46</time>
   <time name="total">   31.89   31.98</time>
   <energy>
    <i name="e_fr_energy">   -191.15920218 </i>
    <i name="e_wo_entrp">   -190.95024003 </i>
    <i name="e_0_energy">   -191.05472111 </i>
   </energy>
  </scstep>
  <scstep>
   <time name="dav">   29.98   30.05</time>
   <time name="total">   30.49   30.58</time>
   <energy>
    <i name="e_fr_energy">   -191.37515036 </i>
    <i name="e_wo_entrp">   -191.14754468 </i>
    <i name="e_0_energy">   -191.26134752 </i>
   </energy>
  </scstep>
  <scstep>
   <time name="dav">   29.97   30.05</time>
   <time name="total">   30.49   30.58</time>
   <energy>
    <i name="e_fr_energy">   -190.98407501 </i>
    <i name="e_wo_entrp">   -190.77600536 </i>
    <i name="e_0_energy">   -190.88004018 </i>
   </energy>
  </scstep>
  <scstep>
   <time name="dav">   29.89   29.96</time>
   <time name="total">   30.41   30.49</time>
   <energy>
    <i name="e_fr_energy">   -190.85745044 </i>
    <i name="e_wo_entrp">   -190.64340800 </i>
    <i name="e_0_energy">   -190.75042922 </i>
   </energy>
  </scstep>
  <scstep>
   <time name="dav">   29.51   29.58</time>
   <time name="total">   30.03   30.11</time>
   <energy>
    <i name="e_fr_energy">   -190.85855368 </i>
    <i name="e_wo_entrp">   -190.64257807 </i>
    <i name="e_0_energy">   -190.75056587 </i>
   </energy>
  </scstep>
  <scstep>
   <time name="dav">   28.65   28.72</time>
   <time name="total">   29.17   29.25</time>
   <energy>
    <i name="e_fr_energy">   -190.83824267 </i>
    <i name="e_wo_entrp">   -190.62231965 </i>
    <i name="e_0_energy">   -190.73028116 </i>
   </energy>
  </scstep>
  <scstep>
   <time name="dav">   29.05   29.12</time>
   <time name="total">   29.56   29.64</time>
   <energy>
    <i name="e_fr_energy">   -190.83419919 </i>
    <i name="e_wo_entrp">   -190.61877506 </i>
    <i name="e_0_energy">   -190.72648713 </i>
   </energy>
  </scstep>
  <scstep>
   <time name="dav">   30.78   30.85</time>
   <time name="total">   31.30   31.38</time>
   <energy>
    <i name="e_fr_energy">   -190.83428946 </i>
    <i name="e_wo_entrp">   -190.61879871 </i>
    <i name="e_0_energy">   -190.72654408 </i>
   </energy>
  </scstep>
  <scstep>
   <time name="dav">   27.62   27.69</time>
   <time name="total">   28.13   28.21</time>
   <energy>
    <i name="e_fr_energy">   -190.83402998 </i>
    <i name="e_wo_entrp">   -190.61844448 </i>
    <i name="e_0_energy">   -190.72623723 </i>
   </energy>
  </scstep>
  <scstep>
   <time name="dav">   19.49   19.53</time>
   <time name="total">   19.52   19.58</time>
   <energy>
    <i name="alphaZ">     85.82085255 </i>
    <i name="ewald">  42834.53275106 </i>
    <i name="hartreedc"> -48822.21109563 </i>
    <i name="XCdc">   -234.28596431 </i>
    <i name="pawpsdc">   4064.52005890 </i>
    <i name="pawaedc">  -3480.42087090 </i>
    <i name="eentropy">     -0.21568270 </i>
    <i name="bandstr">  -1400.01660094 </i>
    <i name="atom">   6761.44252427 </i>
    <i name="e_fr_energy">   -190.83402770 </i>
    <i name="e_wo_entrp">   -190.61834500 </i>
    <i name="e_0_energy">   -190.72618635 </i>
   </energy>
  </scstep>
  <structure>
   <crystal>
    <varray name="basis" >
     <v>       8.48279040       4.89752868       0.00000000 </v>
     <v>      -8.48600551       4.90306075       0.00000000 </v>
     <v>       0.00000000       0.00000000      30.00000000 </v>
    </varray>
    <i name="volume">   2494.56276143 </i>
    <varray name="rec_basis" >
     <v>       0.05896497       0.10205402       0.00000000 </v>
     <v>      -0.05889844       0.10201536       0.00000000 </v>
     <v>       0.00000000       0.00000000       0.03333333 </v>
    </varray>
   </crystal>
   <varray name="positions" >
    <v>       0.33052897       0.32766553      -0.00034427 </v>
    <v>       1.00000005       0.33341141       0.00026575 </v>
    <v>       0.66676065       0.33340465       0.00026642 </v>
    <v>       0.32540846      -0.00619436      -0.00020269 </v>
    <v>       0.00445354       0.67571808       0.00023365 </v>
    <v>       0.00166559      -0.00629808      -0.00021018 </v>
    <v>       0.33048805       0.67166959      -0.00007293 </v>
    <v>       0.66564457      -0.00182401       0.00014337 </v>
    <v>       0.67453586       0.67158799      -0.00008624 </v>
    <v>       0.11355268       0.22740665       0.95200392 </v>
    <v>       0.22506675       0.11688030       0.04980632 </v>
    <v>       0.10909180       0.55039786       0.95070079 </v>
    <v>       0.22023245       0.44022215       0.04781380 </v>
    <v>       0.11101626       0.88884345       0.94793905 </v>
    <v>       0.22260235       0.77709799       0.05176233 </v>
    <v>       0.44683096       0.22742710       0.95198840 </v>
    <v>       0.55850526       0.11591154       0.04894111 </v>
    <v>       0.44231734       0.55138846       0.95170613 </v>
    <v>       0.55347717       0.44021060       0.04782606 </v>
    <v>       0.44493577       0.88859495       0.94895542 </v>
    <v>       0.55523776       0.77716350       0.05062447 </v>
    <v>       0.77969091       0.22642612       0.95187020 </v>
    <v>       0.89066235       0.11588453       0.04892374 </v>
    <v>       0.77454683       0.55037983       0.95068985 </v>
    <v>       0.88631984       0.43915485       0.04771090 </v>
    <v>       0.77684586       0.88858885       0.94897187 </v>
    <v>       0.88779634       0.77709491       0.05177265 </v>
   </varray>
  </structure>
  <varray name="forces" >
   <v>       0.19204179      -0.33682316      -0.05854836 </v>
   <v>       0.00092573       0.00143525       0.05312067 </v>
   <v>      -0.00001787      -0.00160443       0.05311412 </v>
   <v>       0.05137710      -0.62744509       0.02478971 </v>
   <v>      -0.34604972       0.59369395      -0.04028230 </v>
   <v>       0.51935144      -0.35522744       0.02965357 </v>
   <v>      -0.61753309       0.19784377      -0.06269303 </v>
   <v>       0.14358418      -0.26436877       0.07450145 </v>
   <v>       0.13975062       0.63543497      -0.05603704 </v>
   <v>       0.03833710      -0.05093281      -0.29418736 </v>
   <v>       0.00920518      -0.01647702       0.40550223 </v>
   <v>      -0.07521767      -0.01909570      -0.25549650 </v>
   <v>      -0.01964771       0.02370873       0.19376114 </v>
   <v>      -0.00036724       0.00744344      -0.76480196 </v>
   <v>      -0.05858609      -0.01543154       0.67184415 </v>
   <v>       0.04288724      -0.04865482      -0.29261232 </v>
   <v>      -0.05986648      -0.05340860       0.16270450 </v>
   <v>      -0.02126030       0.03866163       0.07367458 </v>
   <v>      -0.02669107       0.02015363       0.19159907 </v>
   <v>      -0.08642583       0.03894652      -0.46141771 </v>
   <v>       0.03785067      -0.06416460       0.29232917 </v>
   <v>       0.00674684       0.00686819      -0.26637454 </v>
   <v>       0.07531379       0.02378683       0.15980063 </v>
   <v>       0.05676399       0.05584826      -0.25941721 </v>
   <v>      -0.05320624       0.07369461       0.21332690 </v>
   <v>       0.01047238       0.09525335      -0.46080831 </v>
   <v>       0.04026125       0.04086083       0.67295472 </v>
  </varray>
  <varray name="stress" >
   <v>      -5.85869378      -0.17746118      -0.02085629 </v>
   <v>      -0.17746119      -5.68099982      -0.09643827 </v>
   <v>      -0.02085632      -0.09643831       4.56062773 </v>
  </varray>
  <energy>
   <i name="e_fr_energy">   -190.83402770 </i>
   <i name="e_wo_entrp">   -190.72618635 </i>
   <i name="e_0_energy">     -0.21568270 </i>
  </energy>
  <time name="totalsc">  355.43  356.38</time>
 </calculation>
 <calculation>
  <scstep>
   <time name="dav">   21.64   21.69</time>
   <time name="total">   22.15   22.21</time>
   <energy>
    <i name="alphaZ">     90.20724381 </i>
    <i name="ewald">  44679.90624735 </i>
    <i name="hartreedc"> -50723.06265321 </i>
    <i name="XCdc">   -231.82774104 </i>
    <i name="pawpsdc">   4064.61334312 </i>
    <i name="pawaedc">  -3480.51072821 </i>
    <i name="eentropy">     -0.20447695 </i>
    <i name="bandstr">  -1352.82837090 </i>
    <i name="atom">   6761.44252427 </i>
    <i name="e_fr_energy">   -192.26461175 </i>
    <i name="e_wo_entrp">   -192.06013481 </i>
    <i name="e_0_energy">   -192.16237328 </i>
   </energy>
  </scstep>
  <scstep>
   <time name="dav">   25.33   25.39</time>
   <time name="total">   25.84   25.91</time>
   <energy>
    <i name="e_fr_energy">   -191.97215923 </i>
    <i name="e_wo_entrp">   -191.75157790 </i>
    <i name="e_0_energy">   -191.86186856 </i>
   </energy>
  </scstep>
  <scstep>
   <time name="dav">   27.25   27.32</time>
   <time name="total">   27.76   27.84</time>
   <energy>
    <i name="e_fr_energy">   -191.84584780 </i>
    <i name="e_wo_entrp">   -191.64755858 </i>
    <i name="e_0_energy">   -191.74670319 </i>
   </energy>
  </scstep>
  <scstep>
   <time name="dav">   29.81   29.88</time>
   <time name="total">   30.33   30.41</time>
   <energy>
    <i name="e_fr_energy">   -191.86402493 </i>
    <i name="e_wo_entrp">   -191.64088804 </i>
    <i name="e_0_energy">   -191.75245649 </i>
   </energy>
  </scstep>
  <scstep>
   <time name="dav">   30.14   30.21</time>
   <time name="total">   30.65   30.73</time>
   <energy>
    <i name="e_fr_energy">   -191.61164147 </i>
    <i name="e_wo_entrp">   -191.40110747 </i>
    <i name="e_0_energy">   -191.50637447 </i>
   </energy>
  </scstep>
  <scstep>
   <time name="dav">   29.92   29.99</time>
   <time name="total">   30.43   30.51</time>
   <energy>
    <i name="e_fr_energy">   -191.61027044 </i>
    <i name="e_wo_entrp">   -191.39506547 </i>
    <i name="e_0_energy">   -191.50266796 </i>
   </energy>
  </scstep>
  <scstep>
   <time name="dav">   30.03   30.10</time>
   <time name="total">   30.53   30.62</time>
   <energy>
    <i name="e_fr_energy">   -191.57482268 </i>
    <i name="e_wo_entrp">   -191.35750416 </i>
    <i name="e_0_energy">   -191.46616342 </i>
   </energy>
  </scstep>
  <scstep>
   <time name="dav">   28.59   28.66</time>
   <time name="total">   29.10   29.18</time>
   <energy>
    <i name="e_fr_energy">   -191.57098662 </i>
    <i name="e_wo_entrp">   -191.35523995 </i>
    <i name="e_0_energy">   -191.46311329 </i>
   </energy>
  </scstep>
  <scstep>
   <time name="dav">   29.39   29.46</time>
   <time name="total">   29.90   29.98</time>
   <energy>
    <i name="e_fr_energy">   -191.56951775 </i>
    <i name="e_wo_entrp">   -191.35381489 </i>
    <i name="e_0_energy">   -191.46166632 </i>
   </energy>
  </scstep>
  <scstep>
   <time name="dav">   28.68   28.75</time>
   <time name="total">   29.20   29.28</time>
   <energy>
    <i name="e_fr_energy">   -191.56935680 </i>
    <i name="e_wo_entrp">   -191.35358315 </i>
    <i name="e_0_energy">   -191.46146997 </i>
   </energy>
  </scstep>
  <scstep>
   <time name="dav">   24.78   24.84</time>
   <time name="total">   24.82   24.88</time>
   <energy>
    <i name="alphaZ">     90.20724381 </i>
    <i name="ewald">  44679.90624735 </i>
    <i name="hartreedc"> -50689.19036676 </i>
    <i name="XCdc">   -233.33853733 </i>
    <i name="pawpsdc">   4089.04237714 </i>
    <i name="pawaedc">  -3505.08875255 </i>
    <i name="eentropy">     -0.21593951 </i>
    <i name="bandstr">  -1384.33410594 </i>
    <i name="atom">   6761.44252427 </i>
    <i name="e_fr_energy">   -191.56930952 </i>
    <i name="e_wo_entrp">   -191.35337001 </i>
    <i name="e_0_energy">   -191.46133977 </i>
   </energy>
  </scstep>
  <structure>
   <crystal>
    <varray name="basis" >
     <v>       8.26343456       4.77043643       0.00000000 </v>
     <v>      -8.27751382       4.79478706       0.00000000 </v>
     <v>       0.00000000       0.00000000      30.00000000 </v>
    </varray>
    <i name="volume">   2373.26287655 </i>
    <varray name="rec_basis" >
     <v>       0.06061006       0.10463460       0.00000000 </v>
     <v>      -0.06030225       0.10445663       0.00000000 </v>
     <v>       0.00000000       0.00000000       0.03333333 </v>
    </varray>
   </crystal>
   <varray name="positions" >
    <v>       0.32778441       0.32224351      -0.00058844 </v>
    <v>       0.99999496       0.33339991       0.00049218 </v>
    <v>       0.66675255       0.33337010       0.00049278 </v>
    <v>       0.31786568      -0.01454492      -0.00008301 </v>
    <v>       0.00944852       0.68578490       0.00005173 </v>
    <v>       0.00088451      -0.01462418      -0.00006958 </v>
    <v>       0.32875800       0.67865492      -0.00037010 </v>
    <v>       0.66331689      -0.00629665       0.00048010 </v>
    <v>       0.68331152       0.67859626      -0.00035774 </v>
    <v>       0.11342687       0.22697844       0.95033228 </v>
    <v>       0.22518901       0.11712593       0.05202453 </v>
    <v>       0.10786099       0.55011848       0.94909292 </v>
    <v>       0.22008729       0.44000468       0.04910607 </v>
    <v>       0.11105686       0.88885650       0.94417400 </v>
    <v>       0.22195666       0.77749274       0.05515465 </v>
    <v>       0.44680689       0.22700572       0.95032108 </v>
    <v>       0.55755025       0.11621269       0.05014662 </v>
    <v>       0.44233214       0.55143525       0.95146526 </v>
    <v>       0.55317429       0.43999552       0.04910952 </v>
    <v>       0.44470287       0.88971160       0.94645711 </v>
    <v>       0.55475206       0.77613985       0.05243411 </v>
    <v>       0.78016229       0.22713189       0.95025697 </v>
    <v>       0.89192985       0.11616846       0.05011723 </v>
    <v>       0.77549372       0.55008392       0.94906913 </v>
    <v>       0.88660160       0.43996607       0.04904068 </v>
    <v>       0.77819787       0.88971389       0.94647992 </v>
    <v>       0.88881590       0.77748897       0.05516991 </v>
   </varray>
  </structure>
  <varray name="forces" >
   <v>       0.25523079      -0.44446213      -0.07302253 </v>
   <v>       0.01379587       0.03707400       0.06163131 </v>
   <v>      -0.03766838       0.00567852       0.05778008 </v>
   <v>       0.09982924      -0.03512805      -0.10394503 </v>
   <v>       0.00335122      -0.00968322       0.05999828 </v>
   <v>      -0.00959077      -0.09554240      -0.11334058 </v>
   <v>      -0.47726749       0.11208402       0.09225590 </v>
   <v>       0.13295783      -0.24189551      -0.04210047 </v>
   <v>       0.13664328       0.46276766       0.08033886 </v>
   <v>       0.09930818      -0.19225416      -0.00868466 </v>
   <v>       0.10184533      -0.17337540       0.09452723 </v>
   <v>      -0.22184178       0.10705551      -0.00414300 </v>
   <v>      -0.05563647       0.14438402      -0.12124726 </v>
   <v>      -0.04427147       0.07499807      -0.23845303 </v>
   <v>      -0.07614442      -0.08372442       0.26045751 </v>
   <v>       0.11595854      -0.18145328      -0.00708055 </v>
   <v>      -0.00783009      -0.20612184      -0.10243385 </v>
   <v>      -0.09778469       0.17752000       0.42217016 </v>
   <v>      -0.09629424       0.12060500      -0.12216282 </v>
   <v>      -0.15657551       0.07761583      -0.18939135 </v>
   <v>       0.07379731      -0.13352559       0.02232171 </v>
   <v>       0.04754486      -0.08108882       0.05101794 </v>
   <v>       0.17809748      -0.09950098      -0.10608270 </v>
   <v>       0.01730350       0.24681712      -0.00007098 </v>
   <v>      -0.11939932       0.21006336      -0.05839582 </v>
   <v>       0.01378758       0.17569169      -0.17911730 </v>
   <v>       0.11085363       0.02540098       0.26717296 </v>
  </varray>
  <varray name="stress" >
   <v>       0.13860093      -0.60240041       0.37958116 </v>
   <v>      -0.60240058       0.88184134      -0.67848038 </v>
   <v>       0.37958104      -0.67848065      -0.73361843 </v>
  </varray>
  <energy>
   <i name="e_fr_energy">   -191.56930952 </i>
   <i name="e_wo_entrp">   -191.46133977 </i>
   <i name="e_0_energy">     -0.21593951 </i>
  </energy>
  <time name="totalsc">  352.63  353.57</time>
 </calculation>
 <calculation>
  <scstep>
   <time name="dav">   21.67   21.72</time>
   <time name="total">   22.19   22.24</time>
   <energy>
    <i name="alphaZ">     89.88600420 </i>
    <i name="ewald">  44519.49381187 </i>
    <i name="hartreedc"> -50525.89971787 </i>
    <i name="XCdc">   -233.62682674 </i>
    <i name="pawpsdc">   4089.29292720 </i>
    <i name="pawaedc">  -3505.33560739 </i>
    <i name="eentropy">     -0.21667623 </i>
    <i name="bandstr">  -1386.68116719 </i>
    <i name="atom">   6761.44252427 </i>
    <i name="e_fr_energy">   -191.64472788 </i>
    <i name="e_wo_entrp">   -191.42805165 </i>
    <i name="e_0_energy">   -191.53638976 </i>
   </energy>
  </scstep>
  <scstep>
   <time name="dav">   30.48   30.55</time>
   <time name="total">   30.98   31.07</time>
   <energy>
    <i name="e_fr_energy">   -191.72223158 </i>
    <i name="e_wo_entrp">   -191.49472534 </i>
    <i name="e_0_energy">   -191.60847846 </i>
   </energy>
  </scstep>
  <scstep>
   <time name="dav">   30.46   30.53</time>
   <time name="total">   30.97   31.06</time>
   <energy>
    <i name="e_fr_energy">   -191.65577993 </i>
    <i name="e_wo_entrp">   -191.43831744 </i>
    <i name="e_0_energy">   -191.54704868 </i>
   </energy>
  </scstep>
  <scstep>
   <time name="dav">   26.75   26.82</time>
   <time name="total">   27.26   27.34</time>
   <energy>
    <i name="e_fr_energy">   -191.66050932 </i>
    <i name="e_wo_entrp">   -191.44179397 </i>
    <i name="e_0_energy">   -191.55115165 </i>
   </energy>
  </scstep>
  <scstep>
   <time name="dav">   26.95   27.02</time>
   <time name="total">   27.47   27.54</time>
   <energy>
    <i name="e_fr_energy">   -191.65146297 </i>
    <i name="e_wo_entrp">   -191.43164536 </i>
    <i name="e_0_energy">   -191.54155416 </i>
   </energy>
  </scstep>
  <scstep>
   <time name="dav">   27.96   28.03</time>
   <time name="total">   28.47   28.55</time>
   <energy>
    <i name="e_fr_energy">   -191.65104314 </i>
    <i name="e_wo_entrp">   -191.43264059 </i>
    <i name="e_0_energy">   -191.54184186 </i>
   </energy>
  </scstep>
  <scstep>
   <time name="dav">   27.94   28.00</time>
   <time name="total">   28.45   28.53</time>
   <energy>
    <i name="e_fr_energy">   -191.65085702 </i>
    <i name="e_wo_entrp">   -191.43200026 </i>
    <i name="e_0_energy">   -191.54142864 </i>
   </energy>
  </scstep>
  <scstep>
   <time name="dav">   22.64   22.69</time>
   <time name="total">   23.14   23.21</time>
   <energy>
    <i name="e_fr_energy">   -191.65072112 </i>
    <i name="e_wo_entrp">   -191.43182814 </i>
    <i name="e_0_energy">   -191.54127463 </i>
   </energy>
  </scstep>
  <scstep>
   <time name="dav">   17.33   17.37</time>
   <time name="total">   17.36   17.41</time>
   <energy>
    <i name="alphaZ">     89.88600420 </i>
    <i name="ewald">  44519.49381187 </i>
    <i name="hartreedc"> -50529.53541183 </i>
    <i name="XCdc">   -233.50120651 </i>
    <i name="pawpsdc">   4084.28351935 </i>
    <i name="pawaedc">  -3500.25887761 </i>
    <i name="eentropy">     -0.21889199 </i>
    <i name="bandstr">  -1383.24216399 </i>
    <i name="atom">   6761.44252427 </i>
    <i name="e_fr_energy">   -191.65069224 </i>
    <i name="e_wo_entrp">   -191.43180025 </i>
    <i name="e_0_energy">   -191.54124625 </i>
   </energy>
  </scstep>
  <structure>
   <crystal>
    <varray name="basis" >
     <v>       8.26375000       4.77118796       0.00000000 </v>
     <v>      -8.29183185       4.81979701       0.00000000 </v>
     <v>       0.00000000       0.00000000      30.00000000 </v>
    </varray>
    <i name="volume">   2381.74457584 </i>
    <varray name="rec_basis" >
     <v>       0.06070924       0.10444233       0.00000000 </v>
     <v>      -0.06009697       0.10408862       0.00000000 </v>
     <v>       0.00000000       0.00000000       0.03333333 </v>
    </varray>
   </crystal>
   <varray name="positions" >
    <v>       0.32647095       0.31962546      -0.00069016 </v>
    <v>       1.00020995       0.33353892       0.00057718 </v>
    <v>       0.66667587       0.33350175       0.00057196 </v>
    <v>       0.31824370      -0.01468438      -0.00024504 </v>
    <v>       0.00923222       0.68536789       0.00014942 </v>
    <v>       0.00043408      -0.01475143      -0.00024660 </v>
    <v>       0.32803265       0.68024342      -0.00021893 </v>
    <v>       0.66261775      -0.00764578       0.00040364 </v>
    <v>       0.68557803       0.68016585      -0.00022548 </v>
    <v>       0.11278579       0.22579862       0.95038953 </v>
    <v>       0.22463514       0.11600395       0.05207562 </v>
    <v>       0.10781329       0.55125718       0.94915696 </v>
    <v>       0.22063229       0.44086479       0.04886494 </v>
    <v>       0.11129106       0.88933491       0.94396198 </v>
    <v>       0.22137296       0.77728625       0.05541310 </v>
    <v>       0.44625840       0.22583103       0.95038066 </v>
    <v>       0.55657998       0.11523331       0.04993614 </v>
    <v>       0.44291324       0.55255701       0.95212538 </v>
    <v>       0.55350146       0.44085418       0.04886732 </v>
    <v>       0.44465122       0.89046860       0.94627360 </v>
    <v>       0.55433704       0.77533968       0.05238921 </v>
    <v>       0.77988329       0.22657648       0.95040379 </v>
    <v>       0.89189227       0.11518645       0.04990165 </v>
    <v>       0.77668408       0.55123131       0.94913972 </v>
    <v>       0.88726695       0.44127194       0.04889434 </v>
    <v>       0.77902048       0.89046920       0.94631164 </v>
    <v>       0.88920034       0.77728785       0.05543833 </v>
   </varray>
  </structure>
  <varray name="forces" >
   <v>       0.29305323      -0.50852757      -0.03705068 </v>
   <v>      -0.00280745       0.07363717       0.07202804 </v>
   <v>      -0.06051511       0.03683334       0.06978887 </v>
   <v>       0.07732121      -0.16430849       0.00182814 </v>
   <v>      -0.08119564       0.13749541      -0.04865893 </v>
   <v>       0.11420428      -0.14406972       0.00645494 </v>
   <v>      -0.53571476       0.11348916      -0.01090964 </v>
   <v>       0.14352636      -0.26972846       0.00104552 </v>
   <v>       0.16882842       0.51769122      -0.00594952 </v>
   <v>       0.04478667      -0.12171749      -0.04285309 </v>
   <v>       0.05569516      -0.09578415       0.05727361 </v>
   <v>      -0.12252768       0.07548315       0.00212186 </v>
   <v>      -0.02902386       0.10921780      -0.14324712 </v>
   <v>      -0.00401866       0.01189292      -0.12752594 </v>
   <v>      -0.09368840      -0.00265493       0.21750758 </v>
   <v>       0.08405216      -0.09862885      -0.04188641 </v>
   <v>       0.01451766      -0.09398581      -0.11988756 </v>
   <v>      -0.06081534       0.10850066       0.47916482 </v>
   <v>      -0.08039100       0.07912539      -0.14505404 </v>
   <v>      -0.06426108       0.02937081      -0.15526734 </v>
   <v>       0.04028704      -0.07303152      -0.00873489 </v>
   <v>       0.03456624      -0.05708843       0.08285945 </v>
   <v>       0.07162446      -0.06261173      -0.12676514 </v>
   <v>      -0.00199706       0.14525497       0.00208654 </v>
   <v>      -0.05803161       0.10002031      -0.03931044 </v>
   <v>       0.00702974       0.07451168      -0.15155263 </v>
   <v>       0.04549502       0.07961315       0.21249400 </v>
  </varray>
  <varray name="stress" >
   <v>      -0.15167836       0.00920129       0.05796213 </v>
   <v>       0.00920148      -0.16679476      -0.14411558 </v>
   <v>       0.05796222      -0.14411546      -1.38112704 </v>
  </varray>
  <energy>
   <i name="e_fr_energy">   -191.65069224 </i>
   <i name="e_wo_entrp">   -191.54124625 </i>
   <i name="e_0_energy">     -0.21889199 </i>
  </energy>
  <time name="totalsc">  278.34  279.08</time>
 </calculation>
 <calculation>
  <scstep>
   <time name="dav">   21.62   21.67</time>
   <time name="total">   22.13   22.18</time>
   <energy>
    <i name="alphaZ">     89.98752021 </i>
    <i name="ewald">  44568.00332335 </i>
    <i name="hartreedc"> -50578.93523357 </i>
    <i name="XCdc">   -233.42541673 </i>
    <i name="pawpsdc">   4083.83976404 </i>
    <i name="pawaedc">  -3499.81112858 </i>
    <i name="eentropy">     -0.21744651 </i>
    <i name="bandstr">  -1382.61216094 </i>
    <i name="atom">   6761.44252427 </i>
    <i name="e_fr_energy">   -191.72825445 </i>
    <i name="e_wo_entrp">   -191.51080795 </i>
    <i name="e_0_energy">   -191.61953120 </i>
   </energy>
  </scstep>
  <scstep>
   <time name="dav">   31.98   32.06</time>
   <time name="total">   32.50   32.59</time>
   <energy>
    <i name="e_fr_energy">   -191.78416865 </i>
    <i name="e_wo_entrp">   -191.55470639 </i>
    <i name="e_0_energy">   -191.66943752 </i>
   </energy>
  </scstep>
  <scstep>
   <time name="dav">   30.50   30.57</time>
   <time name="total">   31.00   31.09</time>
   <energy>
    <i name="e_fr_energy">   -191.73645936 </i>
    <i name="e_wo_entrp">   -191.51842171 </i>
    <i name="e_0_energy">   -191.62744054 </i>
   </energy>
  </scstep>
  <scstep>
   <time name="dav">   26.37   26.43</time>
   <time name="total">   26.88   26.96</time>
   <energy>
    <i name="e_fr_energy">   -191.73803023 </i>
    <i name="e_wo_entrp">   -191.51948154 </i>
    <i name="e_0_energy">   -191.62875588 </i>
   </energy>
  </scstep>
  <scstep>
   <time name="dav">   27.61   27.68</time>
   <time name="total">   28.12   28.21</time>
   <energy>
    <i name="e_fr_energy">   -191.73320589 </i>
    <i name="e_wo_entrp">   -191.51317298 </i>
    <i name="e_0_energy">   -191.62318943 </i>
   </energy>
  </scstep>
  <scstep>
   <time name="dav">   26.61   26.67</time>
   <time name="total">   27.12   27.20</time>
   <energy>
    <i name="e_fr_energy">   -191.73298369 </i>
    <i name="e_wo_entrp">   -191.51348764 </i>
    <i name="e_0_energy">   -191.62323566 </i>
   </energy>
  </scstep>
  <scstep>
   <time name="dav">   27.28   27.34</time>
   <time name="total">   27.78   27.86</time>
   <energy>
    <i name="e_fr_energy">   -191.73285709 </i>
    <i name="e_wo_entrp">   -191.51289531 </i>
    <i name="e_0_energy">   -191.62287620 </i>
   </energy>
  </scstep>
  <scstep>
   <time name="dav">   22.44   22.49</time>
   <time name="total">   22.47   22.54</time>
   <energy>
    <i name="alphaZ">     89.98752021 </i>
    <i name="ewald">  44568.00332335 </i>
    <i name="hartreedc"> -50578.77771144 </i>
    <i name="XCdc">   -233.44290365 </i>
    <i name="pawpsdc">   4087.05952664 </i>
    <i name="pawaedc">  -3503.07049732 </i>
    <i name="eentropy">     -0.21993575 </i>
    <i name="bandstr">  -1382.71463172 </i>
    <i name="atom">   6761.44252427 </i>
    <i name="e_fr_energy">   -191.73278541 </i>
    <i name="e_wo_entrp">   -191.51284966 </i>
    <i name="e_0_energy">   -191.62281753 </i>
   </energy>
  </scstep>
  <structure>
   <crystal>
    <varray name="basis" >
     <v>       8.25881837       4.76830128       0.00000000 </v>
     <v>      -8.28718867       4.81740961       0.00000000 </v>
[...]
      <set comment="kpoint 31">
       <r>  -17.5445    1.0000 </r>
       <r>  -17.2275    1.0000 </r>
       <r>  -16.9158    1.0000 </r>
       <r>  -16.5993    1.0000 </r>
       <r>  -16.4971    1.0000 </r>
       <r>  -16.3463    1.0000 </r>
       <r>  -16.2822    1.0000 </r>
       <r>  -16.2395    1.0000 </r>
       <r>  -16.0944    1.0000 </r>
       <r>  -16.0503    1.0000 </r>
       <r>  -15.9436    1.0000 </r>
       <r>  -15.8116    1.0000 </r>
       <r>  -15.7493    1.0000 </r>
       <r>  -15.6842    1.0000 </r>
       <r>  -15.6553    1.0000 </r>
       <r>  -15.5780    1.0000 </r>
       <r>  -15.4986    1.0000 </r>
       <r>  -15.3438    1.0000 </r>
       <r>   -9.7173    1.0000 </r>
       <r>   -9.4310    1.0000 </r>
       <r>   -9.3306    1.0000 </r>
       <r>   -9.0377    1.0000 </r>
       <r>   -8.8891    1.0000 </r>
       <r>   -8.7750    1.0000 </r>
       <r>   -8.4478    1.0000 </r>
       <r>   -8.4011    1.0000 </r>
       <r>   -8.3459    1.0000 </r>
       <r>   -8.3236    1.0000 </r>
       <r>   -8.2412    1.0000 </r>
       <r>   -8.2116    1.0000 </r>
       <r>   -8.1559    1.0000 </r>
       <r>   -8.1065    1.0000 </r>
       <r>   -8.0343    1.0000 </r>
       <r>   -7.8805    1.0000 </r>
       <r>   -7.8135    1.0000 </r>
       <r>   -7.6270    1.0000 </r>
       <r>   -7.4586    1.0000 </r>
       <r>   -7.4058    1.0000 </r>
       <r>   -7.3788    1.0000 </r>
       <r>   -7.1931    1.0000 </r>
       <r>   -7.1290    1.0000 </r>
       <r>   -7.0709    1.0000 </r>
       <r>   -7.0013    1.0000 </r>
       <r>   -6.9377    1.0000 </r>
       <r>   -6.8815    1.0000 </r>
       <r>   -6.8452    1.0000 </r>
       <r>   -6.7143    1.0000 </r>
       <r>   -6.6055    1.0000 </r>
       <r>   -6.5742    1.0000 </r>
       <r>   -6.4703    1.0000 </r>
       <r>   -6.4115    1.0000 </r>
       <r>   -6.2949    1.0000 </r>
       <r>   -6.2468    1.0000 </r>
       <r>   -6.2091    1.0000 </r>
       <r>   -6.1527    1.0000 </r>
       <r>   -6.0831    1.0000 </r>
       <r>   -6.0219    1.0000 </r>
       <r>   -5.9805    1.0000 </r>
       <r>   -5.8939    1.0000 </r>
       <r>   -5.8678    1.0000 </r>
       <r>   -5.7417    1.0000 </r>
       <r>   -5.6354    1.0000 </r>
       <r>   -5.5968    1.0000 </r>
       <r>   -5.4120    1.0000 </r>
       <r>   -5.3099    1.0000 </r>
       <r>   -5.0845    1.0000 </r>
       <r>   -5.0645    1.0000 </r>
       <r>   -4.9580    1.0000 </r>
       <r>   -4.8161    1.0000 </r>
       <r>   -4.6200    1.0000 </r>
       <r>   -4.5223    1.0000 </r>
       <r>   -4.3785    1.0000 </r>
       <r>   -4.3359    1.0000 </r>
       <r>   -4.2370    1.0000 </r>
       <r>   -4.2230    1.0000 </r>
       <r>   -4.0614    1.0000 </r>
       <r>   -3.7202    0.9999 </r>
       <r>   -3.5912    0.9985 </r>
       <r>   -3.4304    0.9668 </r>
       <r>   -3.1064    0.3246 </r>
       <r>   -2.9764    0.0847 </r>
       <r>   -2.7985    0.0042 </r>
       <r>   -2.7272    0.0009 </r>
       <r>   -2.6632    0.0002 </r>
       <r>   -2.5319    0.0000 </r>
       <r>   -2.4901    0.0000 </r>
       <r>   -2.4013    0.0000 </r>
       <r>   -2.1276    0.0000 </r>
       <r>   -2.0706    0.0000 </r>
       <r>   -1.9728    0.0000 </r>
       <r>   -1.8877    0.0000 </r>
       <r>   -1.6628    0.0000 </r>
       <r>   -1.4041    0.0000 </r>
       <r>   -1.3341    0.0000 </r>
       <r>   -1.2599    0.0000 </r>
       <r>   -1.2165    0.0000 </r>
       <r>   -1.0549    0.0000 </r>
       <r>   -1.0326    0.0000 </r>
       <r>   -0.9666    0.0000 </r>
       <r>   -0.8805    0.0000 </r>
       <r>   -0.7634    0.0000 </r>
       <r>   -0.7159    0.0000 </r>
       <r>   -0.6588    0.0000 </r>
       <r>   -0.6019    0.0000 </r>
       <r>   -0.4628    0.0000 </r>
       <r>   -0.2814    0.0000 </r>
       <r>   -0.2309    0.0000 </r>
       <r>   -0.1059    0.0000 </r>
       <r>   -0.0498    0.0000 </r>
       <r>    0.2207    0.0000 </r>
       <r>    0.4028    0.0000 </r>
       <r>    0.5108    0.0000 </r>
       <r>    0.7700    0.0000 </r>
       <r>    0.8166    0.0000 </r>
       <r>    1.2691    0.0000 </r>
       <r>    1.4013    0.0000 </r>
       <r>    1.4614    0.0000 </r>
       <r>    2.1296    0.0000 </r>
       <r>    2.2827    0.0000 </r>
       <r>    2.3838    0.0000 </r>
      </set>
      <set comment="kpoint 32">
       <r>  -17.5453    1.0000 </r>
       <r>  -17.1344    1.0000 </r>
       <r>  -17.0675    1.0000 </r>
       <r>  -16.5865    1.0000 </r>
       <r>  -16.4313    1.0000 </r>
       <r>  -16.3064    1.0000 </r>
       <r>  -16.2748    1.0000 </r>
       <r>  -16.2191    1.0000 </r>
       <r>  -16.1696    1.0000 </r>
       <r>  -16.0440    1.0000 </r>
       <r>  -15.9893    1.0000 </r>
       <r>  -15.8148    1.0000 </r>
       <r>  -15.7433    1.0000 </r>
       <r>  -15.7078    1.0000 </r>
       <r>  -15.6488    1.0000 </r>
       <r>  -15.5497    1.0000 </r>
       <r>  -15.4759    1.0000 </r>
       <r>  -15.3491    1.0000 </r>
       <r>   -9.6643    1.0000 </r>
       <r>   -9.5620    1.0000 </r>
       <r>   -9.4197    1.0000 </r>
       <r>   -8.9684    1.0000 </r>
       <r>   -8.7566    1.0000 </r>
       <r>   -8.5664    1.0000 </r>
       <r>   -8.4832    1.0000 </r>
       <r>   -8.4488    1.0000 </r>
       <r>   -8.3789    1.0000 </r>
       <r>   -8.3612    1.0000 </r>
       <r>   -8.2498    1.0000 </r>
       <r>   -8.2255    1.0000 </r>
       <r>   -8.1703    1.0000 </r>
       <r>   -8.1247    1.0000 </r>
       <r>   -8.0534    1.0000 </r>
       <r>   -7.9876    1.0000 </r>
       <r>   -7.7968    1.0000 </r>
       <r>   -7.5637    1.0000 </r>
       <r>   -7.4705    1.0000 </r>
       <r>   -7.4306    1.0000 </r>
       <r>   -7.3764    1.0000 </r>
       <r>   -7.2731    1.0000 </r>
       <r>   -7.1083    1.0000 </r>
       <r>   -7.0568    1.0000 </r>
       <r>   -6.9717    1.0000 </r>
       <r>   -6.9473    1.0000 </r>
       <r>   -6.8922    1.0000 </r>
       <r>   -6.7897    1.0000 </r>
       <r>   -6.7072    1.0000 </r>
       <r>   -6.6501    1.0000 </r>
       <r>   -6.5716    1.0000 </r>
       <r>   -6.5031    1.0000 </r>
       <r>   -6.3949    1.0000 </r>
       <r>   -6.3628    1.0000 </r>
       <r>   -6.2662    1.0000 </r>
       <r>   -6.2004    1.0000 </r>
       <r>   -6.1231    1.0000 </r>
       <r>   -6.0796    1.0000 </r>
       <r>   -5.9848    1.0000 </r>
       <r>   -5.9044    1.0000 </r>
       <r>   -5.8712    1.0000 </r>
       <r>   -5.7804    1.0000 </r>
       <r>   -5.6671    1.0000 </r>
       <r>   -5.6144    1.0000 </r>
       <r>   -5.5316    1.0000 </r>
       <r>   -5.4450    1.0000 </r>
       <r>   -5.2717    1.0000 </r>
       <r>   -5.2408    1.0000 </r>
       <r>   -5.1235    1.0000 </r>
       <r>   -5.0252    1.0000 </r>
       <r>   -4.8521    1.0000 </r>
       <r>   -4.6527    1.0000 </r>
       <r>   -4.4912    1.0000 </r>
       <r>   -4.4242    1.0000 </r>
       <r>   -4.3202    1.0000 </r>
       <r>   -4.2206    1.0000 </r>
       <r>   -4.1882    1.0000 </r>
       <r>   -4.0281    1.0000 </r>
       <r>   -3.7539    1.0000 </r>
       <r>   -3.5448    0.9959 </r>
       <r>   -3.4213    0.9618 </r>
       <r>   -3.0608    0.2184 </r>
       <r>   -2.9882    0.0985 </r>
       <r>   -2.8460    0.0108 </r>
       <r>   -2.7366    0.0011 </r>
       <r>   -2.6604    0.0002 </r>
       <r>   -2.5689    0.0000 </r>
       <r>   -2.5315    0.0000 </r>
       <r>   -2.4719    0.0000 </r>
       <r>   -2.1615    0.0000 </r>
       <r>   -2.0491    0.0000 </r>
       <r>   -1.9764    0.0000 </r>
       <r>   -1.8746    0.0000 </r>
       <r>   -1.5930    0.0000 </r>
       <r>   -1.3490    0.0000 </r>
       <r>   -1.3311    0.0000 </r>
       <r>   -1.2812    0.0000 </r>
       <r>   -1.1757    0.0000 </r>
       <r>   -1.0573    0.0000 </r>
       <r>   -0.9918    0.0000 </r>
       <r>   -0.9558    0.0000 </r>
       <r>   -0.8846    0.0000 </r>
       <r>   -0.7828    0.0000 </r>
       <r>   -0.6858    0.0000 </r>
       <r>   -0.6322    0.0000 </r>
       <r>   -0.6039    0.0000 </r>
       <r>   -0.4268    0.0000 </r>
       <r>   -0.3064    0.0000 </r>
       <r>   -0.1944    0.0000 </r>
       <r>   -0.1240    0.0000 </r>
       <r>    0.0038    0.0000 </r>
       <r>    0.1521    0.0000 </r>
       <r>    0.3428    0.0000 </r>
       <r>    0.4904    0.0000 </r>
       <r>    0.8117    0.0000 </r>
       <r>    0.8815    0.0000 </r>
       <r>    1.1879    0.0000 </r>
       <r>    1.3460    0.0000 </r>
       <r>    1.4756    0.0000 </r>
       <r>    2.1035    0.0000 </r>
       <r>    2.2582    0.0000 </r>
       <r>    2.5664    0.0000 </r>
      </set>
      <set comment="kpoint 33">
       <r>  -17.5195    1.0000 </r>
       <r>  -17.2606    1.0000 </r>
       <r>  -16.9131    1.0000 </r>
       <r>  -16.5720    1.0000 </r>
       <r>  -16.4891    1.0000 </r>
       <r>  -16.4429    1.0000 </r>
       <r>  -16.2509    1.0000 </r>
       <r>  -16.1830    1.0000 </r>
       <r>  -16.1356    1.0000 </r>
       <r>  -16.0539    1.0000 </r>
       <r>  -15.9337    1.0000 </r>
       <r>  -15.8116    1.0000 </r>
       <r>  -15.7520    1.0000 </r>
       <r>  -15.7129    1.0000 </r>
       <r>  -15.6600    1.0000 </r>
       <r>  -15.5213    1.0000 </r>
       <r>  -15.4632    1.0000 </r>
       <r>  -15.3791    1.0000 </r>
       <r>   -9.7684    1.0000 </r>
       <r>   -9.4766    1.0000 </r>
       <r>   -9.3271    1.0000 </r>
       <r>   -8.9188    1.0000 </r>
       <r>   -8.8252    1.0000 </r>
       <r>   -8.6780    1.0000 </r>
       <r>   -8.6086    1.0000 </r>
       <r>   -8.4947    1.0000 </r>
       <r>   -8.4431    1.0000 </r>
       <r>   -8.3544    1.0000 </r>
       <r>   -8.2732    1.0000 </r>
       <r>   -8.1717    1.0000 </r>
       <r>   -8.0946    1.0000 </r>
       <r>   -8.0100    1.0000 </r>
       <r>   -7.9688    1.0000 </r>
       <r>   -7.8988    1.0000 </r>
       <r>   -7.7476    1.0000 </r>
       <r>   -7.6420    1.0000 </r>
       <r>   -7.5637    1.0000 </r>
       <r>   -7.5086    1.0000 </r>
       <r>   -7.3837    1.0000 </r>
       <r>   -7.1870    1.0000 </r>
       <r>   -7.0902    1.0000 </r>
       <r>   -7.0443    1.0000 </r>
       <r>   -6.9775    1.0000 </r>
       <r>   -6.9314    1.0000 </r>
       <r>   -6.8577    1.0000 </r>
       <r>   -6.7984    1.0000 </r>
       <r>   -6.7542    1.0000 </r>
       <r>   -6.6373    1.0000 </r>
       <r>   -6.5356    1.0000 </r>
       <r>   -6.4756    1.0000 </r>
       <r>   -6.4352    1.0000 </r>
       <r>   -6.3412    1.0000 </r>
       <r>   -6.2566    1.0000 </r>
       <r>   -6.2007    1.0000 </r>
       <r>   -6.1549    1.0000 </r>
       <r>   -6.0270    1.0000 </r>
       <r>   -6.0052    1.0000 </r>
       <r>   -5.9195    1.0000 </r>
       <r>   -5.8175    1.0000 </r>
       <r>   -5.8084    1.0000 </r>
       <r>   -5.7491    1.0000 </r>
       <r>   -5.7173    1.0000 </r>
       <r>   -5.6362    1.0000 </r>
       <r>   -5.4038    1.0000 </r>
       <r>   -5.2856    1.0000 </r>
       <r>   -5.1538    1.0000 </r>
       <r>   -5.1042    1.0000 </r>
       <r>   -4.8791    1.0000 </r>
       <r>   -4.8487    1.0000 </r>
       <r>   -4.6840    1.0000 </r>
       <r>   -4.5197    1.0000 </r>
       <r>   -4.4459    1.0000 </r>
       <r>   -4.2728    1.0000 </r>
       <r>   -4.2190    1.0000 </r>
       <r>   -4.1956    1.0000 </r>
       <r>   -3.9933    1.0000 </r>
       <r>   -3.7737    1.0000 </r>
       <r>   -3.5901    0.9985 </r>
       <r>   -3.4148    0.9578 </r>
       <r>   -3.0516    0.1998 </r>
       <r>   -2.9647    0.0726 </r>
       <r>   -2.9122    0.0338 </r>
       <r>   -2.7532    0.0016 </r>
       <r>   -2.6791    0.0003 </r>
       <r>   -2.6098    0.0000 </r>
       <r>   -2.5535    0.0000 </r>
       <r>   -2.4671    0.0000 </r>
       <r>   -2.1878    0.0000 </r>
       <r>   -2.0369    0.0000 </r>
       <r>   -2.0039    0.0000 </r>
       <r>   -1.8510    0.0000 </r>
       <r>   -1.5324    0.0000 </r>
       <r>   -1.3265    0.0000 </r>
       <r>   -1.2710    0.0000 </r>
       <r>   -1.2642    0.0000 </r>
       <r>   -1.1382    0.0000 </r>
       <r>   -1.0600    0.0000 </r>
       <r>   -0.9647    0.0000 </r>
       <r>   -0.9222    0.0000 </r>
       <r>   -0.8777    0.0000 </r>
       <r>   -0.8022    0.0000 </r>
       <r>   -0.7227    0.0000 </r>
       <r>   -0.6198    0.0000 </r>
       <r>   -0.5932    0.0000 </r>
       <r>   -0.4888    0.0000 </r>
       <r>   -0.3356    0.0000 </r>
       <r>   -0.2279    0.0000 </r>
       <r>   -0.0728    0.0000 </r>
       <r>    0.0379    0.0000 </r>
       <r>    0.1558    0.0000 </r>
       <r>    0.3296    0.0000 </r>
       <r>    0.4737    0.0000 </r>
       <r>    0.8355    0.0000 </r>
       <r>    0.8884    0.0000 </r>
       <r>    1.1623    0.0000 </r>
       <r>    1.3428    0.0000 </r>
       <r>    1.5148    0.0000 </r>
       <r>    2.1410    0.0000 </r>
       <r>    2.2907    0.0000 </r>
       <r>    2.4098    0.0000 </r>
      </set>
      <set comment="kpoint 34">
       <r>  -17.4918    1.0000 </r>
       <r>  -17.3297    1.0000 </r>
       <r>  -16.7335    1.0000 </r>
       <r>  -16.6820    1.0000 </r>
       <r>  -16.5390    1.0000 </r>
       <r>  -16.4829    1.0000 </r>
       <r>  -16.2354    1.0000 </r>
       <r>  -16.1734    1.0000 </r>
       <r>  -16.1204    1.0000 </r>
       <r>  -16.0714    1.0000 </r>
       <r>  -15.8589    1.0000 </r>
       <r>  -15.8273    1.0000 </r>
       <r>  -15.7631    1.0000 </r>
       <r>  -15.7017    1.0000 </r>
       <r>  -15.6717    1.0000 </r>
       <r>  -15.5018    1.0000 </r>
       <r>  -15.4681    1.0000 </r>
       <r>  -15.4013    1.0000 </r>
       <r>   -9.8128    1.0000 </r>
       <r>   -9.4255    1.0000 </r>
       <r>   -9.1375    1.0000 </r>
       <r>   -9.0724    1.0000 </r>
       <r>   -8.8536    1.0000 </r>
       <r>   -8.7486    1.0000 </r>
       <r>   -8.6746    1.0000 </r>
       <r>   -8.5489    1.0000 </r>
       <r>   -8.4569    1.0000 </r>
       <r>   -8.3662    1.0000 </r>
       <r>   -8.2143    1.0000 </r>
       <r>   -8.1679    1.0000 </r>
       <r>   -8.0567    1.0000 </r>
       <r>   -7.9570    1.0000 </r>
       <r>   -7.8676    1.0000 </r>
       <r>   -7.8000    1.0000 </r>
       <r>   -7.7588    1.0000 </r>
       <r>   -7.6797    1.0000 </r>
       <r>   -7.6239    1.0000 </r>
       <r>   -7.5323    1.0000 </r>
       <r>   -7.4042    1.0000 </r>
       <r>   -7.2742    1.0000 </r>
       <r>   -7.0664    1.0000 </r>
       <r>   -7.0129    1.0000 </r>
       <r>   -6.9355    1.0000 </r>
       <r>   -6.8933    1.0000 </r>
       <r>   -6.8574    1.0000 </r>
       <r>   -6.7682    1.0000 </r>
       <r>   -6.6692    1.0000 </r>
       <r>   -6.6133    1.0000 </r>
       <r>   -6.5562    1.0000 </r>
       <r>   -6.5284    1.0000 </r>
       <r>   -6.4633    1.0000 </r>
       <r>   -6.3981    1.0000 </r>
       <r>   -6.2610    1.0000 </r>
       <r>   -6.2114    1.0000 </r>
       <r>   -6.1094    1.0000 </r>
       <r>   -6.0323    1.0000 </r>
       <r>   -5.9973    1.0000 </r>
       <r>   -5.9769    1.0000 </r>
       <r>   -5.8546    1.0000 </r>
       <r>   -5.7921    1.0000 </r>
       <r>   -5.7785    1.0000 </r>
       <r>   -5.7185    1.0000 </r>
       <r>   -5.6829    1.0000 </r>
       <r>   -5.4438    1.0000 </r>
       <r>   -5.3646    1.0000 </r>
       <r>   -5.0072    1.0000 </r>
       <r>   -4.9983    1.0000 </r>
       <r>   -4.9109    1.0000 </r>
       <r>   -4.8149    1.0000 </r>
       <r>   -4.6523    1.0000 </r>
       <r>   -4.5941    1.0000 </r>
       <r>   -4.3363    1.0000 </r>
       <r>   -4.3248    1.0000 </r>
       <r>   -4.2272    1.0000 </r>
       <r>   -4.1878    1.0000 </r>
       <r>   -3.9919    1.0000 </r>
       <r>   -3.7955    1.0000 </r>
       <r>   -3.6379    0.9995 </r>
       <r>   -3.3857    0.9358 </r>
       <r>   -3.0777    0.2554 </r>
       <r>   -2.9511    0.0602 </r>
       <r>   -2.9339    0.0470 </r>
       <r>   -2.7528    0.0016 </r>
       <r>   -2.6932    0.0004 </r>
       <r>   -2.6207    0.0001 </r>
       <r>   -2.5568    0.0000 </r>
       <r>   -2.4641    0.0000 </r>
       <r>   -2.1944    0.0000 </r>
       <r>   -2.0334    0.0000 </r>
       <r>   -2.0167    0.0000 </r>
       <r>   -1.8385    0.0000 </r>
       <r>   -1.5097    0.0000 </r>
       <r>   -1.3260    0.0000 </r>
       <r>   -1.2507    0.0000 </r>
       <r>   -1.2264    0.0000 </r>
       <r>   -1.1303    0.0000 </r>
       <r>   -1.0466    0.0000 </r>
       <r>   -0.9786    0.0000 </r>
       <r>   -0.9147    0.0000 </r>
       <r>   -0.8523    0.0000 </r>
       <r>   -0.7625    0.0000 </r>
       <r>   -0.7167    0.0000 </r>
       <r>   -0.6687    0.0000 </r>
       <r>   -0.6400    0.0000 </r>
       <r>   -0.5536    0.0000 </r>
       <r>   -0.2919    0.0000 </r>
       <r>   -0.2444    0.0000 </r>
       <r>   -0.0694    0.0000 </r>
       <r>    0.0222    0.0000 </r>
       <r>    0.2063    0.0000 </r>
       <r>    0.3283    0.0000 </r>
       <r>    0.4668    0.0000 </r>
       <r>    0.8194    0.0000 </r>
       <r>    0.8988    0.0000 </r>
       <r>    1.1642    0.0000 </r>
       <r>    1.3596    0.0000 </r>
       <r>    1.5380    0.0000 </r>
       <r>    2.2350    0.0000 </r>
       <r>    2.2499    0.0000 </r>
       <r>    2.3764    0.0000 </r>
      </set>
     </set>
    </set>
   </array>
  </eigenvalues>
  <separator name="orbital magnetization" >
   <v name="MAGDIPOLOUT">      0.00000000      0.00000000      0.00000000</v>
  </separator>
 </calculation>
 <structure name="finalpos" >
  <crystal>
   <varray name="basis" >
    <v>       8.32034947       4.80247023       0.00000000 </v>
    <v>      -8.34635295       4.84749500       0.00000000 </v>
    <v>       0.00000000       0.00000000      30.00000000 </v>
   </varray>
   <i name="volume">   2412.47891983 </i>
   <varray name="rec_basis" >
    <v>       0.06028026       0.10378975       0.00000000 </v>
    <v>      -0.05972036       0.10346639       0.00000000 </v>
    <v>       0.00000000       0.00000000       0.03333333 </v>
   </varray>
  </crystal>
  <varray name="positions" >
   <v>       0.31582729       0.29781199      -0.00151024 </v>
   <v>       1.01013589       0.33433273       0.00117205 </v>
   <v>       0.65658449       0.33135273       0.00134535 </v>
   <v>       0.31748432      -0.01477647      -0.00044152 </v>
   <v>       0.01527737       0.69610881       0.00086248 </v>
   <v>      -0.00160574      -0.01474949      -0.00045777 </v>
   <v>       0.31940405       0.68702764       0.00009813 </v>
   <v>       0.65868828      -0.02082877      -0.00061118 </v>
   <v>       0.70133734       0.68775293       0.00010443 </v>
   <v>       0.11076039       0.22348661       0.94893560 </v>
   <v>       0.22228705       0.11166431       0.05303048 </v>
   <v>       0.10688821       0.55725043       0.94952888 </v>
   <v>       0.22455110       0.44149088       0.04725998 </v>
   <v>       0.11275654       0.89342056       0.94336346 </v>
   <v>       0.22167214       0.78185132       0.05734946 </v>
   <v>       0.44532655       0.22295055       0.94889145 </v>
   <v>       0.55806742       0.11231288       0.04820377 </v>
   <v>       0.44339293       0.55323667       0.95967668 </v>
   <v>       0.54997095       0.44130778       0.04699551 </v>
   <v>       0.44307876       0.89085443       0.94549531 </v>
   <v>       0.55255260       0.77155093       0.05177592 </v>
   <v>       0.77863834       0.22423381       0.95263390 </v>
   <v>       0.88823202       0.11372773       0.04838959 </v>
   <v>       0.78347483       0.55706093       0.94972917 </v>
   <v>       0.88910554       0.44555925       0.04589796 </v>
   <v>       0.78065359       0.89042742       0.94493855 </v>
   <v>       0.89367220       0.78179584       0.05734250 </v>
  </varray>
 </structure>
</modeling>
