unknown system                          
           1
     8.852320    5.102974    0.000000
    -8.856283    5.109794    0.000000
     0.000000    0.000000   30.000000
   V    Mo   W    S 
   3   3   3  18
Direct configuration=     1
   0.33333334  0.33333334  0.00000000
   1.00000000  0.33333334  0.00000000
   0.66666669  0.33333334  0.00000000
   0.33333334  0.00000000  0.00000000
   0.00000000  0.66666669  0.00000000
   0.00000000  0.00000000  0.00000000
   0.33333334  0.66666669  0.00000000
   0.66666669  0.00000000  0.00000000
   0.66666669  0.66666669  0.00000000
   0.11068511  0.22244981  0.95539999
   0.22244981  0.11068511  0.04460000
   0.11068511  0.55578315  0.95539999
   0.22244981  0.44401845  0.04460000
   0.11068511  0.88911647  0.95539999
   0.22244981  0.77735180  0.04460000
   0.44401845  0.22244981  0.95539999
   0.55578315  0.11068511  0.04460000
   0.44401845  0.55578315  0.95539999
   0.55578315  0.44401845  0.04460000
   0.44401845  0.88911647  0.95539999
   0.55578315  0.77735180  0.04460000
   0.77735180  0.22244981  0.95539999
   0.88911647  0.11068511  0.04460000
   0.77735180  0.55578315  0.95539999
   0.88911647  0.44401845  0.04460000
   0.77735180  0.88911647  0.95539999
   0.88911647  0.77735180  0.04460000
unknown system                          
           1
     8.664424    4.997037    0.000000
    -8.667807    5.002852    0.000000
     0.000000    0.000000   30.000000
   V    Mo   W    S 
   3   3   3  18
Direct configuration=     2
   0.33217073  0.33089465 -0.00008818
   1.00005312  0.33343177  0.00004619
   0.66671361  0.33342974  0.00004714
   0.33064009 -0.00113847 -0.00021339
   0.00120006  0.66918183  0.00027503
   0.00150007 -0.00127130 -0.00022282
   0.33149150  0.66769676  0.00019037
   0.66684238  0.00046876 -0.00014682
   0.66948208  0.66757606  0.00018293
   0.11299716  0.22653603  0.95313369
   0.22434704  0.11554512  0.04809056
   0.10974857  0.55135948  0.95195079
   0.22060817  0.44086375  0.04686509
   0.11112088  0.88901558  0.95066941
   0.22249246  0.77700266  0.04931099
   0.44627036  0.22652998  0.95312830
   0.55808299  0.11503167  0.04800404
   0.44261754  0.55178069  0.95203882
   0.55394961  0.44087093  0.04687016
   0.44491910  0.88856369  0.95071187
   0.55529505  0.77746598  0.04930639
   0.77916630  0.22557409  0.95309052
   0.89003700  0.11501046  0.04799070
   0.77500225  0.55134115  0.95193781
   0.88681811  0.43992443  0.04681563
   0.77694771  0.88854646  0.95070683
   0.88770051  0.77698250  0.04930784
unknown system                          
           1
     8.482790    4.897529    0.000000
    -8.486006    4.903061    0.000000
     0.000000    0.000000   30.000000
   V    Mo   W    S 
   3   3   3  18
Direct configuration=     3
   0.33181404  0.33018552 -0.00015171
   1.00005197  0.33343877  0.00009605
   0.66672403  0.33343265  0.00009692
   0.32957103 -0.00202750 -0.00023184
   0.00181865  0.67041850  0.00028815
   0.00168687 -0.00215191 -0.00024324
   0.33115884  0.66838377  0.00015014
   0.66668117  0.00017244 -0.00009601
   0.67051054  0.66826414  0.00013901
   0.11307087  0.22660627  0.95316812
   0.22443854  0.11569448  0.04815660
   0.10989434  0.55138255  0.95199070
   0.22066179  0.44103486  0.04678618
   0.11110864  0.88900106  0.95044216
   0.22261096  0.77690326  0.04947228
   0.44631279  0.22660247  0.95315996
   0.55824142  0.11500452  0.04790649
   0.44269100  0.55197622  0.95225575
   0.55402030  0.44103749  0.04679463
   0.44500242  0.88846242  0.95068845
   0.55529743  0.77742960  0.04924138
   0.77911209  0.22542209  0.95311900
   0.88988959  0.11498673  0.04789301
   0.77484224  0.55136641  0.95197787
   0.88676156  0.43985753  0.04673854
   0.77673124  0.88844608  0.95068814
   0.88751010  0.77688402  0.04947316
unknown system                          
           1
     8.263435    4.770436    0.000000
    -8.277514    4.794787    0.000000
     0.000000    0.000000   30.000000
   V    Mo   W    S 
   3   3   3  18
Direct configuration=     4
   0.33052897  0.32766553 -0.00034427
   1.00000005  0.33341141  0.00026575
   0.66676065  0.33340465  0.00026642
   0.32540846 -0.00619436 -0.00020269
   0.00445354  0.67571808  0.00023365
   0.00166559 -0.00629808 -0.00021018
   0.33048805  0.67166959 -0.00007293
   0.66564457 -0.00182401  0.00014337
   0.67453586  0.67158799 -0.00008624
   0.11355268  0.22740665  0.95200392
   0.22506675  0.11688030  0.04980632
   0.10909180  0.55039786  0.95070079
   0.22023245  0.44022215  0.04781380
   0.11101626  0.88884345  0.94793905
   0.22260235  0.77709799  0.05176233
   0.44683096  0.22742710  0.95198840
   0.55850526  0.11591154  0.04894111
   0.44231734  0.55138846  0.95170613
   0.55347717  0.44021060  0.04782606
   0.44493577  0.88859495  0.94895542
   0.55523776  0.77716350  0.05062447
   0.77969091  0.22642612  0.95187020
   0.89066235  0.11588453  0.04892374
   0.77454683  0.55037983  0.95068985
   0.88631984  0.43915485  0.04771090
   0.77684586  0.88858885  0.94897187
   0.88779634  0.77709491  0.05177265
unknown system                          
           1
     8.263750    4.771188    0.000000
    -8.291832    4.819797    0.000000
     0.000000    0.000000   30.000000
   V    Mo   W    S 
   3   3   3  18
Direct configuration=     5
   0.32778441  0.32224351 -0.00058844
   0.99999496  0.33339991  0.00049218
   0.66675255  0.33337010  0.00049278
   0.31786568 -0.01454492 -0.00008301
   0.00944852  0.68578490  0.00005173
   0.00088451 -0.01462418 -0.00006958
   0.32875800  0.67865492 -0.00037010
   0.66331689 -0.00629665  0.00048010
   0.68331152  0.67859626 -0.00035774
   0.11342687  0.22697844  0.95033228
   0.22518901  0.11712593  0.05202453
   0.10786099  0.55011848  0.94909292
   0.22008729  0.44000468  0.04910607
   0.11105686  0.88885650  0.94417400
   0.22195666  0.77749274  0.05515465
   0.44680689  0.22700572  0.95032108
   0.55755025  0.11621269  0.05014662
   0.44233214  0.55143525  0.95146526
   0.55317429  0.43999552  0.04910952
   0.44470287  0.88971160  0.94645711
   0.55475206  0.77613985  0.05243411
   0.78016229  0.22713189  0.95025697
   0.89192985  0.11616846  0.05011723
   0.77549372  0.55008392  0.94906913
   0.88660160  0.43996607  0.04904068
   0.77819787  0.88971389  0.94647992
   0.88881590  0.77748897  0.05516991
unknown system                          
           1
     8.258818    4.768301    0.000000
    -8.287189    4.817410    0.000000
     0.000000    0.000000   30.000000
   V    Mo   W    S 
   3   3   3  18
Direct configuration=     6
   0.32647095  0.31962546 -0.00069016
   1.00020995  0.33353892  0.00057718
   0.66667587  0.33350175  0.00057196
   0.31824370 -0.01468438 -0.00024504
   0.00923222  0.68536789  0.00014942
   0.00043408 -0.01475143 -0.00024660
   0.32803265  0.68024342 -0.00021893
   0.66261775 -0.00764578  0.00040364
   0.68557803  0.68016585 -0.00022548
   0.11278579  0.22579862  0.95038953
   0.22463514  0.11600395  0.05207562
   0.10781329  0.55125718  0.94915696
   0.22063229  0.44086479  0.04886494
   0.11129106  0.88933491  0.94396198
   0.22137296  0.77728625  0.05541310
   0.44625840  0.22583103  0.95038066
   0.55657998  0.11523331  0.04993614
   0.44291324  0.55255701  0.95212538
   0.55350146  0.44085418  0.04886732
   0.44465122  0.89046860  0.94627360
   0.55433704  0.77533968  0.05238921
   0.77988329  0.22657648  0.95040379
   0.89189227  0.11518645  0.04990165
   0.77668408  0.55123131  0.94913972
   0.88726695  0.44127194  0.04889434
   0.77902048  0.89046920  0.94631164
   0.88920034  0.77728785  0.05543833
unknown system                          
           1
     8.264851    4.771786    0.000000
    -8.297569    4.828426    0.000000
     0.000000    0.000000   30.000000
   V    Mo   W    S 
   3   3   3  18
Direct configuration=     7
   0.32484113  0.31637155 -0.00075095
   1.00054606  0.33388684  0.00068863
   0.66668153  0.33383325  0.00067997
   0.31758721 -0.01577584 -0.00024445
   0.00971982  0.68635923  0.00007754
   0.00005246 -0.01584705 -0.00023927
   0.32708018  0.68232961 -0.00023609
   0.66170687 -0.00936614  0.00040876
   0.68860082  0.68224030 -0.00023546
   0.11232997  0.22509065  0.95029752
   0.22433403  0.11539817  0.05220093
   0.10780810  0.55194598  0.94913115
   0.22106545  0.44145393  0.04867366
   0.11134110  0.88941161  0.94370475
   0.22108522  0.77752440  0.05579783
   0.44601799  0.22512533  0.95029017
   0.55614864  0.11474937  0.04977897
   0.44326140  0.55323839  0.95283606
   0.55365041  0.44144129  0.04867322
   0.44460864  0.89080981  0.94599628
   0.55409129  0.77486278  0.05240945
   0.77971678  0.22622697  0.95049886
   0.89181877  0.11469480  0.04973407
   0.77738989  0.55192090  0.94911385
   0.88759045  0.44192460  0.04885812
   0.77942457  0.89082877  0.94604030
   0.88971567  0.77753496  0.05581604
unknown system                          
           1
     8.265733    4.773017    0.000000
    -8.305963    4.842674    0.000000
     0.000000    0.000000   30.000000
   V    Mo   W    S 
   3   3   3  18
Direct configuration=     8
   0.32287156  0.31253775 -0.00088150
   1.00111009  0.33451936  0.00083458
   0.66678828  0.33442260  0.00081821
   0.31723269 -0.01647449 -0.00029270
   0.00999096  0.68687751  0.00010281
  -0.00022462 -0.01653187 -0.00028570
   0.32588984  0.68415334 -0.00021610
   0.66078228 -0.01112297  0.00039037
   0.69159135  0.68410531 -0.00021410
   0.11185545  0.22441540  0.95026061
   0.22400688  0.11473458  0.05233980
   0.10785888  0.55269731  0.94910732
   0.22158041  0.44205682  0.04836475
   0.11145838  0.88961686  0.94353542
   0.22071090  0.77775641  0.05613128
   0.44579086  0.22443286  0.95024701
   0.55584290  0.11425184  0.04954113
   0.44360169  0.55390408  0.95379236
   0.55372593  0.44206207  0.04836716
   0.44462511  0.89123370  0.94574685
   0.55377861  0.77425265  0.05233695
   0.77957361  0.22589388  0.95070002
   0.89161696  0.11422147  0.04947282
   0.77811579  0.55270625  0.94908671
   0.88787460  0.44244377  0.04876271
   0.77985239  0.89127261  0.94580339
   0.89031268  0.77777533  0.05614775
unknown system                          
           1
     8.279179    4.780433    0.000000
    -8.318843    4.849105    0.000000
     0.000000    0.000000   30.000000
   V    Mo   W    S 
   3   3   3  18
Direct configuration=     9
   0.31903991  0.30479213 -0.00123530
   1.00265433  0.33661213  0.00114129
   0.66727043  0.33637595  0.00111210
   0.31640349 -0.01768086 -0.00036493
   0.01040415  0.68775182  0.00018643
  -0.00043170 -0.01778806 -0.00035918
   0.32339763  0.68717601 -0.00021473
   0.65876951 -0.01472176  0.00032900
   0.69709110  0.68708745 -0.00021739
   0.11093500  0.22324023  0.95018175
   0.22339474  0.11348510  0.05265650
   0.10805771  0.55412472  0.94900689
   0.22270528  0.44305619  0.04767389
   0.11165090  0.88995988  0.94330539
   0.22006787  0.77842733  0.05673431
   0.44554035  0.22328646  0.95018047
   0.55574941  0.11360956  0.04894401
   0.44403345  0.55476947  0.95598000
   0.55360731  0.44303416  0.04765382
   0.44467877  0.89191043  0.94535520
   0.55315761  0.77307482  0.05205908
   0.77934576  0.22543199  0.95123864
   0.89101837  0.11353349  0.04884554
   0.77934353  0.55414628  0.94901082
   0.88817050  0.44304629  0.04860787
   0.78052631  0.89200916  0.94544242
   0.89163272  0.77846411  0.05674601
unknown system                          
           1
     8.277830    4.779820    0.000000
    -8.318262    4.849826    0.000000
     0.000000    0.000000   30.000000
   V    Mo   W    S 
   3   3   3  18
Direct configuration=    10
   0.31910154  0.30493769 -0.00127799
   1.00315769  0.33746726  0.00114369
   0.66760934  0.33716008  0.00110640
   0.31626646 -0.01759597 -0.00033503
   0.01029947  0.68754124  0.00023654
  -0.00015908 -0.01772693 -0.00032946
   0.32331891  0.68668435 -0.00019019
   0.65854106 -0.01503400  0.00028564
   0.69668581  0.68662535 -0.00019224
   0.11074454  0.22310905  0.95014732
   0.22330837  0.11331384  0.05271886
   0.10801900  0.55415728  0.94890571
   0.22283100  0.44295193  0.04764865
   0.11164548  0.88992310  0.94327515
   0.22004032  0.77856734  0.05677259
   0.44562528  0.22316090  0.95013457
   0.55593088  0.11375216  0.04887028
   0.44388542  0.55447200  0.95618606
   0.55337861  0.44292787  0.04763068
   0.44465333  0.89191249  0.94531505
   0.55308757  0.77293499  0.05206211
   0.77938889  0.22553500  0.95132414
   0.89096159  0.11366005  0.04875045
   0.77942222  0.55416725  0.94891047
   0.88812162  0.44298418  0.04869313
   0.78055906  0.89202169  0.94542168
   0.89179009  0.77860429  0.05678563
unknown system                          
           1
     8.281519    4.782114    0.000000
    -8.322205    4.852561    0.000000
     0.000000    0.000000   30.000000
   V    Mo   W    S 
   3   3   3  18
Direct configuration=    11
   0.31827784  0.30327390 -0.00140854
   1.00402166  0.33887561  0.00119045
   0.66810912  0.33844728  0.00114141
   0.31585016 -0.01789850 -0.00033716
   0.01028147  0.68752663  0.00026681
   0.00006295 -0.01806865 -0.00032971
   0.32262342  0.68708735 -0.00017698
   0.65782222 -0.01619888  0.00024699
   0.69778094  0.68702255 -0.00017967
   0.11042885  0.22275988  0.95016748
   0.22313616  0.11296080  0.05277346
   0.10808150  0.55452073  0.94884656
   0.22312947  0.44305264  0.04748849
   0.11165756  0.88991118  0.94328392
   0.21993948  0.77876713  0.05685539
   0.44559943  0.22282136  0.95014813
   0.55605539  0.11371889  0.04862368
   0.44384555  0.55438985  0.95679358
   0.55318409  0.44302389  0.04746514
   0.44457575  0.89194870  0.94527973
   0.55293606  0.77264585  0.05197793
   0.77937656  0.22551198  0.95155230
   0.89078049  0.11361296  0.04847161
   0.77972941  0.55453798  0.94886006
   0.88815526  0.44306705  0.04872031
   0.78068649  0.89208866  0.94540980
   0.89208717  0.77880764  0.05686871
unknown system                          
           1
     8.281934    4.782424    0.000000
    -8.322816    4.853211    0.000000
     0.000000    0.000000   30.000000
   V    Mo   W    S 
   3   3   3  18
Direct configuration=    12
   0.31787479  0.30245916 -0.00149777
   1.00476030  0.34018349  0.00120274
   0.66863058  0.33962860  0.00114253
   0.31556916 -0.01804471 -0.00032877
   0.01015518  0.68729229  0.00029670
   0.00030141 -0.01825319 -0.00031946
   0.32226380  0.68715512 -0.00015894
   0.65727667 -0.01702614  0.00022076
   0.69820934  0.68708632 -0.00016223
   0.11018870  0.22252446  0.95018726
   0.22303146  0.11274483  0.05281110
   0.10810538  0.55470295  0.94876675
   0.22330425  0.44304876  0.04743050
   0.11164704  0.88985473  0.94327647
   0.21987498  0.77887530  0.05690727
   0.44560516  0.22259208  0.95015852
   0.55616962  0.11376907  0.04844368
   0.44376531  0.55422740  0.95713612
   0.55300637  0.44301707  0.04740270
   0.44448515  0.89191929  0.94525342
   0.55282720  0.77243881  0.05195768
   0.77939276  0.22553770  0.95171052
   0.89069811  0.11365689  0.04825642
   0.77989742  0.55473253  0.94878710
   0.88815976  0.44308411  0.04878988
   0.78075909  0.89208957  0.94540761
   0.89225546  0.77891795  0.05692133
unknown system                          
           1
     8.276100    4.778918    0.000000
    -8.317837    4.851184    0.000000
     0.000000    0.000000   30.000000
   V    Mo   W    S 
   3   3   3  18
Direct configuration=    13
   0.31773422  0.30217662 -0.00153262
   1.00508457  0.34079569  0.00120492
   0.66889466  0.34017523  0.00113925
   0.31544525 -0.01813038 -0.00032468
   0.01008678  0.68716491  0.00030876
   0.00039133 -0.01835820 -0.00031451
   0.32215457  0.68718013 -0.00014987
   0.65702672 -0.01739380  0.00021080
   0.69834550  0.68711080 -0.00015348
   0.11007991  0.22242129  0.95019901
   0.22298697  0.11265259  0.05282554
   0.10812337  0.55477137  0.94872931
   0.22336702  0.44305110  0.04741576
   0.11163659  0.88981670  0.94327405
   0.21984392  0.77890932  0.05692641
   0.44561119  0.22249130  0.95016591
   0.55621528  0.11379430  0.04836300
   0.44373872  0.55417164  0.95725968
   0.55294643  0.44301724  0.04738523
   0.44444484  0.89189954  0.94524239
   0.55277878  0.77234738  0.05195635
   0.77939479  0.22553935  0.95177850
   0.89066805  0.11367901  0.04815793
   0.77995277  0.55480659  0.94875335
   0.88815877  0.44308772  0.04882924
   0.78078551  0.89208432  0.94540896
   0.89231793  0.77895270  0.05694069
unknown system                          
           1
     8.287866    4.786158    0.000000
    -8.329169    4.857680    0.000000
     0.000000    0.000000   30.000000
   V    Mo   W    S 
   3   3   3  18
Direct configuration=    14
   0.31779743  0.30213682 -0.00151822
   1.00474446  0.34014167  0.00121552
   0.66857585  0.33971095  0.00116580
   0.31551594 -0.01817230 -0.00032782
   0.01023570  0.68752951  0.00031169
   0.00023615 -0.01838784 -0.00032037
   0.32222098  0.68741279 -0.00015774
   0.65714254 -0.01726341  0.00022211
   0.69851428  0.68722932 -0.00016746
   0.11007108  0.22238060  0.95014642
   0.22294716  0.11258278  0.05285165
   0.10808671  0.55484446  0.94874693
   0.22343176  0.44310158  0.04738828
   0.11166939  0.88990451  0.94327680
   0.21986160  0.77899334  0.05693984
   0.44564063  0.22247834  0.95012910
   0.55622176  0.11373336  0.04838312
   0.44377470  0.55425605  0.95732107
   0.55296901  0.44301866  0.04734812
   0.44449792  0.89197747  0.94524772
   0.55280887  0.77241776  0.05190684
   0.77933027  0.22551526  0.95174840
   0.89057065  0.11352740  0.04822591
   0.78001817  0.55480874  0.94877850
   0.88813666  0.44315312  0.04877876
   0.78080494  0.89214833  0.94540664
   0.89238983  0.77903518  0.05695228
unknown system                          
           1
     8.289656    4.787195    0.000000
    -8.331078    4.858922    0.000000
     0.000000    0.000000   30.000000
   V    Mo   W    S 
   3   3   3  18
Direct configuration=    15
   0.31714387  0.30105227 -0.00166813
   1.00639417  0.34323501  0.00121567
   0.66994091  0.34230948  0.00112474
   0.31497655 -0.01841196 -0.00030828
   0.00979507  0.68658928  0.00035526
   0.00077667 -0.01871310 -0.00029414
   0.32169230  0.68720982 -0.00011429
   0.65607069 -0.01880014  0.00016976
   0.69884332  0.68718167 -0.00011663
   0.10967843  0.22204908  0.95025243
   0.22283162  0.11232701  0.05287801
   0.10819252  0.55500899  0.94858229
   0.22359505  0.44305117  0.04736014
   0.11159367  0.88966169  0.94325247
   0.21971375  0.77902017  0.05700680
   0.44561815  0.22211782  0.95019807
   0.55637650  0.11389828  0.04806371
   0.44362934  0.55394037  0.95772362
   0.55270650  0.44302788  0.04732322
   0.44428404  0.89181826  0.94518861
   0.55258308  0.77197268  0.05196539
   0.77942760  0.22555528  0.95203724
   0.89058826  0.11380611  0.04777770
   0.78015548  0.55509175  0.94861681
   0.88817019  0.44308776  0.04898534
   0.78088883  0.89206066  0.94540167
   0.89254790  0.77906716  0.05702245
unknown system                          
           1
     8.276930    4.780514    0.000000
    -8.319369    4.854012    0.000000
     0.000000    0.000000   30.000000
   V    Mo   W    S 
   3   3   3  18
Direct configuration=    16
   0.31695422  0.30053650 -0.00172629
   1.00687129  0.34423816  0.00120895
   0.67041193  0.34333282  0.00111666
   0.31479475 -0.01851483 -0.00029972
   0.00961628  0.68630160  0.00037672
   0.00096286 -0.01883855 -0.00028427
   0.32154408  0.68726471 -0.00009402
   0.65562551 -0.01942120  0.00013360
   0.69905206  0.68713795 -0.00010326
   0.10949631  0.22186809  0.95027296
   0.22275701  0.11217226  0.05290241
   0.10822935  0.55514813  0.94851228
   0.22372414  0.44305987  0.04734101
   0.11157818  0.88959984  0.94323764
   0.21966269  0.77908357  0.05705264
   0.44566856  0.22196472  0.95021635
   0.55648374  0.11400096  0.04791559
   0.44356693  0.55381878  0.95793074
   0.55261086  0.44299645  0.04729490
   0.44422576  0.89179654  0.94515468
   0.55248914  0.77180235  0.05198785
   0.77940081  0.22556568  0.95216181
   0.89053897  0.11383795  0.04761636
   0.78023893  0.55518687  0.94855683
   0.88811928  0.44308120  0.04905143
   0.78093069  0.89206233  0.94539726
   0.89266013  0.77913172  0.05706878
unknown system                          
           1
     8.266888    4.775223    0.000000
    -8.311257    4.852071    0.000000
     0.000000    0.000000   30.000000
   V    Mo   W    S 
   3   3   3  18
Direct configuration=    17
   0.31703859  0.30093716 -0.00166790
   1.00659012  0.34334707  0.00121444
   0.66977692  0.34207982  0.00111824
   0.31495764 -0.01840073 -0.00030670
   0.00982890  0.68662189  0.00034571
   0.00076335 -0.01875378 -0.00029123
   0.32168381  0.68729020 -0.00013197
   0.65604614 -0.01888907  0.00017857
   0.69895507  0.68734480 -0.00012802
   0.10975649  0.22209647  0.95026090
   0.22287751  0.11243388  0.05284938
   0.10818547  0.55499731  0.94857893
   0.22365208  0.44306775  0.04737469
   0.11158026  0.88963411  0.94325016
   0.21971997  0.77899275  0.05698990
   0.44545864  0.22214185  0.95021468
   0.55629688  0.11375525  0.04809670
   0.44364719  0.55396210  0.95773416
   0.55265305  0.44306739  0.04730867
   0.44430955  0.89179165  0.94521888
   0.55257119  0.77196777  0.05194554
   0.77946546  0.22550678  0.95201691
   0.89058001  0.11377837  0.04777948
   0.78017370  0.55519060  0.94863919
   0.88827123  0.44316461  0.04899759
   0.78085491  0.89205943  0.94540874
   0.89252032  0.77902902  0.05700426
unknown system                          
           1
     8.268122    4.775509    0.000000
    -8.310684    4.849221    0.000000
     0.000000    0.000000   30.000000
   V    Mo   W    S 
   3   3   3  18
Direct configuration=    18
   0.31754296  0.30227536 -0.00145519
   1.00506654  0.33977357  0.00123555
   0.66770015  0.33804891  0.00115569
   0.31567787 -0.01787233 -0.00032413
   0.01050167  0.68776795  0.00026799
   0.00010792 -0.01824658 -0.00031824
   0.32208958  0.68728565 -0.00021813
   0.65755416 -0.01686916  0.00026765
   0.69857652  0.68763558 -0.00019424
   0.11033953  0.22263809  0.95009679
   0.22312416  0.11299122  0.05281676
   0.10795975  0.55462624  0.94875149
   0.22351257  0.44312620  0.04746051
   0.11166301  0.88990822  0.94320648
   0.21988697  0.77889518  0.05693496
   0.44515368  0.22260566  0.95007859
   0.55587001  0.11325258  0.04867681
   0.44385729  0.55435973  0.95719416
   0.55280100  0.44319604  0.04735782
   0.44459916  0.89198512  0.94527168
   0.55277399  0.77236870  0.05189541
   0.77955580  0.22544406  0.95154990
   0.89068862  0.11355882  0.04839991
   0.78005878  0.55499999  0.94883499
   0.88851582  0.44335508  0.04877388
   0.78076381  0.89220241  0.94533385
   0.89227311  0.77890217  0.05694899
unknown system                          
           1
     8.296667    4.791195    0.000000
    -8.331971    4.852332    0.000000
     0.000000    0.000000   30.000000
   V    Mo   W    S 
   3   3   3  18
Direct configuration=    19
   0.31779981  0.30287319 -0.00133637
   1.00385720  0.33698130  0.00129014
   0.66593969  0.33479790  0.00123046
   0.31627850 -0.01738260 -0.00034495
   0.01113892  0.68889367  0.00023685
  -0.00040326 -0.01781522 -0.00035242
   0.32210187  0.68728234 -0.00028176
   0.65872121 -0.01531192  0.00030249
   0.69860710  0.68782282 -0.00025133
   0.11062980  0.22287933  0.94996277
   0.22317758  0.11318116  0.05281983
   0.10774794  0.55450045  0.94891463
   0.22343058  0.44318135  0.04742896
   0.11179724  0.89026806  0.94321297
   0.22003253  0.77901330  0.05690823
   0.44504668  0.22285555  0.94995870
   0.55571503  0.11299080  0.04903612
   0.44399326  0.55462105  0.95701477
   0.55294501  0.44321067  0.04727866
   0.44478803  0.89220609  0.94531795
   0.55291959  0.77268024  0.05180732
   0.77956288  0.22544256  0.95131453
   0.89069648  0.11340225  0.04881335
   0.78010097  0.55484396  0.94903574
   0.88854620  0.44344750  0.04846492
   0.78078832  0.89236090  0.94529245
   0.89225532  0.77898772  0.05692488
unknown system                          
           1
     8.295599    4.790676    0.000000
    -8.330318    4.850799    0.000000
     0.000000    0.000000   30.000000
   V    Mo   W    S 
   3   3   3  18
Direct configuration=    20
   0.31704128  0.30092914 -0.00138058
   1.00327401  0.33465115  0.00140572
   0.66316809  0.33109385  0.00132849
   0.31686024 -0.01652161 -0.00039736
   0.01245655  0.69120060  0.00042388
  -0.00063382 -0.01724510 -0.00039614
   0.32082668  0.68743507 -0.00025254
   0.65968255 -0.01422311  0.00003260
   0.70006382  0.68811228 -0.00023036
   0.11025774  0.22276904  0.94979256
   0.22278614  0.11257207  0.05289771
   0.10727405  0.55502685  0.94910540
   0.22356645  0.44310328  0.04706253
   0.11221639  0.89118012  0.94327484
   0.22025996  0.77975413  0.05697761
   0.44557782  0.22284221  0.94971418
   0.55620651  0.11301088  0.04909391
   0.44399365  0.55463131  0.95789659
   0.55280227  0.44289040  0.04683088
   0.44478610  0.89254631  0.94540194
   0.55294702  0.77267535  0.05152779
   0.77941569  0.22552091  0.95159280
   0.89043198  0.11342693  0.04888662
   0.78088899  0.55490485  0.94933075
   0.88830426  0.44371186  0.04777384
   0.78100205  0.89257413  0.94530437
   0.89275799  0.77964155  0.05700188
unknown system                          
           1
     8.298782    4.792662    0.000000
    -8.333799    4.853302    0.000000
     0.000000    0.000000   30.000000
   V    Mo   W    S 
   3   3   3  18
Direct configuration=    21
   0.31686905  0.30059068 -0.00140491
   1.00353060  0.33450407  0.00146111
   0.66229722  0.33020848  0.00135816
   0.31706155 -0.01628795 -0.00040350
   0.01279470  0.69173809  0.00040714
  -0.00071766 -0.01719122 -0.00041386
   0.32059130  0.68743922 -0.00028328
   0.65969520 -0.01433469  0.00007968
   0.70033191  0.68818895 -0.00026026
   0.11022617  0.22277955  0.94974771
   0.22271801  0.11246076  0.05292796
   0.10721829  0.55525015  0.94915692
   0.22362392  0.44299666  0.04700317
   0.11228816  0.89134872  0.94329024
   0.22036864  0.77998834  0.05703261
   0.44556680  0.22282567  0.94962421
   0.55625281  0.11283975  0.04911955
   0.44397156  0.55458195  0.95812878
   0.55262735  0.44274881  0.04674993
   0.44466368  0.89246214  0.94542205
   0.55301489  0.77277870  0.05141391
   0.77944685  0.22551620  0.95157624
   0.89033449  0.11342030  0.04885682
   0.78117061  0.55512489  0.94943119
   0.88835633  0.44392942  0.04762043
   0.78104913  0.89248801  0.94530063
   0.89286291  0.77981882  0.05705728
unknown system                          
           1
     8.299327    4.793335    0.000000
    -8.334683    4.854567    0.000000
     0.000000    0.000000   30.000000
   V    Mo   W    S 
   3   3   3  18
Direct configuration=    22
   0.31667702  0.30024097 -0.00145085
   1.00423061  0.33559280  0.00147215
   0.66236891  0.33079911  0.00133752
   0.31701337 -0.01628929 -0.00039190
   0.01275687  0.69160340  0.00043360
  -0.00059175 -0.01732548 -0.00040538
   0.32042953  0.68740034 -0.00026284
   0.65925668 -0.01497047  0.00007175
   0.70046915  0.68817065 -0.00023916
   0.11009188  0.22269482  0.94975437
   0.22266716  0.11235458  0.05295464
   0.10723980  0.55540303  0.94910300
   0.22372098  0.44290987  0.04700661
   0.11229546  0.89133160  0.94327409
   0.22039173  0.78008990  0.05707472
   0.44557215  0.22271673  0.94959161
   0.55633174  0.11281393  0.04903372
   0.44389912  0.55442910  0.95830648
   0.55243524  0.44264631  0.04674590
   0.44453417  0.89232948  0.94539797
   0.55296378  0.77265664  0.05141733
   0.77947575  0.22550911  0.95164802
   0.89028380  0.11350117  0.04869128
   0.78132930  0.55529360  0.94940433
   0.88837752  0.44403763  0.04763769
   0.78106931  0.89238651  0.94529434
   0.89292518  0.77988839  0.05709890
unknown system                          
           1
     8.297397    4.792096    0.000000
    -8.332973    4.853707    0.000000
     0.000000    0.000000   30.000000
   V    Mo   W    S 
   3   3   3  18
Direct configuration=    23
   0.31646645  0.29980992 -0.00149912
   1.00499337  0.33672908  0.00148289
   0.66205970  0.33089915  0.00130492
   0.31705666 -0.01619739 -0.00038584
   0.01290633  0.69178953  0.00048340
  -0.00049930 -0.01751629 -0.00040024
   0.32019377  0.68738755 -0.00022201
   0.65879643 -0.01557337  0.00001882
   0.70073876  0.68820565 -0.00020222
   0.10994742  0.22259255  0.94975414
   0.22258335  0.11221811  0.05296833
   0.10722841  0.55558949  0.94904895
   0.22386319  0.44283032  0.04701776
   0.11235497  0.89140362  0.94327771
   0.22047248  0.78024622  0.05709815
   0.44556577  0.22261622  0.94953487
   0.55645065  0.11275982  0.04897052
   0.44383257  0.55428084  0.95852104
   0.55221432  0.44248360  0.04672103
   0.44441562  0.89219670  0.94538744
   0.55289059  0.77249150  0.05142159
   0.77948391  0.22547756  0.95174907
   0.89021450  0.11357928  0.04851683
   0.78155208  0.55546362  0.94941211
   0.88835126  0.44417082  0.04759737
   0.78108930  0.89228423  0.94530078
   0.89299191  0.77999614  0.05712159
unknown system                          
           1
     8.292793    4.788977    0.000000
    -8.327467    4.849022    0.000000
     0.000000    0.000000   30.000000
   V    Mo   W    S 
   3   3   3  18
Direct configuration=    24
   0.31650638  0.29992312 -0.00148616
   1.00478519  0.33639343  0.00147756
   0.66219002  0.33092317  0.00131445
   0.31701208 -0.01626781 -0.00038677
   0.01288042  0.69177679  0.00047857
  -0.00055093 -0.01748839 -0.00040042
   0.32023618  0.68741605 -0.00022917
   0.65893787 -0.01543099  0.00002589
   0.70070836  0.68823919 -0.00020608
   0.10996408  0.22261444  0.94975001
   0.22259489  0.11223296  0.05296800
   0.10721954  0.55553379  0.94906281
   0.22381640  0.44283837  0.04701136
   0.11233877  0.89139068  0.94327987
   0.22045385  0.78021037  0.05708685
   0.44556943  0.22262340  0.94954573
   0.55641474  0.11275635  0.04898127
   0.44384985  0.55431906  0.95847686
   0.55226466  0.44253158  0.04672779
   0.44445343  0.89223874  0.94539496