       N       E                     dE             d eps       ncg     rms          rms(c)
DAV:   1     0.112658624404E+04    0.11266E+04   -0.35976E+04  8160   0.577E+02
DAV:   2    -0.292786651873E+01   -0.11295E+04   -0.10881E+04 11440   0.173E+02
DAV:   3    -0.200128954310E+03   -0.19720E+03   -0.18991E+03 10960   0.821E+01
DAV:   4    -0.209048026998E+03   -0.89191E+01   -0.86765E+01 12360   0.258E+01
DAV:   5    -0.209328031403E+03   -0.28000E+00   -0.27925E+00 11280   0.331E+00    0.275E+01
DAV:   6    -0.237164438862E+03   -0.27836E+02   -0.10967E+02 12600   0.604E+01    0.596E+01
DAV:   7    -0.196424348341E+03    0.40740E+02   -0.17742E+02 13400   0.152E+02    0.199E+01
DAV:   8    -0.189414519760E+03    0.70098E+01   -0.17534E+01 12000   0.127E+01    0.125E+01
DAV:   9    -0.188166860213E+03    0.12477E+01   -0.31267E+00 12960   0.633E+00    0.914E+00
DAV:  10    -0.187005755395E+03    0.11611E+01   -0.20681E+00 13400   0.742E+00    0.276E+00
DAV:  11    -0.186968948212E+03    0.36807E-01   -0.59611E-01 13280   0.250E+00    0.274E+00
DAV:  12    -0.187097959161E+03   -0.12901E+00   -0.87857E-01 12320   0.492E+00    0.482E+00
DAV:  13    -0.186882956514E+03    0.21500E+00   -0.49682E-01 12760   0.396E+00    0.209E+00
DAV:  14    -0.186858214470E+03    0.24742E-01   -0.12389E-01 13400   0.204E+00    0.164E+00
DAV:  15    -0.186839872018E+03    0.18342E-01   -0.66658E-02 12200   0.158E+00    0.876E-01
DAV:  16    -0.186832344129E+03    0.75279E-02   -0.11762E-02 12240   0.469E-01    0.451E-01
DAV:  17    -0.186830260155E+03    0.20840E-02   -0.79094E-03 12640   0.442E-01    0.224E-01
DAV:  18    -0.186830000156E+03    0.26000E-03   -0.22271E-03 11800   0.146E-01    0.167E-01
DAV:  19    -0.186829649467E+03    0.35069E-03   -0.96754E-04 10960   0.115E-01    0.488E-02
DAV:  20    -0.186830377191E+03   -0.72772E-03   -0.66793E-04  9280   0.580E-02    0.504E-02
DAV:  21    -0.186830972069E+03   -0.59488E-03   -0.27254E-04  8040   0.457E-02    0.457E-02
DAV:  22    -0.186832134476E+03   -0.11624E-02   -0.22840E-04  7560   0.643E-02    0.412E-02
DAV:  23    -0.186833369742E+03   -0.12353E-02   -0.15097E-04  7560   0.458E-02    0.118E-02
DAV:  24    -0.186833955685E+03   -0.58594E-03   -0.30867E-05  6520   0.144E-02    0.923E-03
DAV:  25    -0.186834317542E+03   -0.36186E-03   -0.16577E-05  5760   0.137E-02    0.554E-03
DAV:  26    -0.186834544320E+03   -0.22678E-03   -0.87600E-06  6720   0.743E-03    0.172E-03
DAV:  27    -0.186834647713E+03   -0.10339E-03   -0.39035E-06  7120   0.477E-03    0.171E-03
DAV:  28    -0.186834694213E+03   -0.46499E-04   -0.21366E-06  7320   0.378E-03
   1 F= -.18683469E+03 E0= -.18666215E+03  d E =-.186835E+03
       N       E                     dE             d eps       ncg     rms          rms(c)
DAV:   1    -0.187459273031E+03   -0.62463E+00   -0.27084E+02  8160   0.349E+01    0.462E+00
DAV:   2    -0.189360319524E+03   -0.19010E+01   -0.20169E+01 12280   0.153E+01    0.877E+00
DAV:   3    -0.189321702847E+03    0.38617E-01   -0.38993E+00 12440   0.120E+01    0.666E+00
DAV:   4    -0.188732049502E+03    0.58965E+00   -0.62893E-01 12560   0.461E+00    0.185E+00
DAV:   5    -0.188734238373E+03   -0.21889E-02   -0.29391E-01 10560   0.159E+00    0.234E+00
DAV:   6    -0.188690899952E+03    0.43338E-01   -0.34894E-01 11880   0.242E+00    0.233E+00
DAV:   7    -0.188675902827E+03    0.14997E-01   -0.20288E-01 12680   0.265E+00    0.218E+00
DAV:   8    -0.188640212537E+03    0.35690E-01   -0.91844E-02 12560   0.163E+00    0.648E-01
DAV:   9    -0.188634230169E+03    0.59824E-02   -0.11628E-02 10640   0.386E-01    0.212E-01
DAV:  10    -0.188634631584E+03   -0.40141E-03   -0.37354E-03 12560   0.272E-01    0.299E-01
DAV:  11    -0.188634275467E+03    0.35612E-03   -0.32506E-03 13120   0.331E-01    0.250E-01
DAV:  12    -0.188633805225E+03    0.47024E-03   -0.13374E-03 11840   0.182E-01    0.821E-02
DAV:  13    -0.188633847921E+03   -0.42696E-04   -0.20264E-04  7240   0.600E-02
   2 F= -.18863385E+03 E0= -.18849167E+03  d E =-.179915E+01
       N       E                     dE             d eps       ncg     rms          rms(c)
DAV:   1    -0.190545457280E+03   -0.19117E+01   -0.30740E+01  9240   0.141E+01    0.445E+00
DAV:   2    -0.190541954867E+03    0.35024E-02   -0.28284E+00 11400   0.970E+00    0.747E+00
DAV:   3    -0.190020515071E+03    0.52144E+00   -0.13356E+00 12320   0.863E+00    0.411E+00
DAV:   4    -0.189817837369E+03    0.20268E+00   -0.69370E-01 12880   0.402E+00    0.247E+00
DAV:   5    -0.189737544686E+03    0.80293E-01   -0.29870E-01 11360   0.198E+00    0.124E+00
DAV:   6    -0.189721346712E+03    0.16198E-01   -0.67001E-02 11920   0.142E+00    0.869E-01
DAV:   7    -0.189715274903E+03    0.60718E-02   -0.15690E-02 12360   0.718E-01    0.220E-01
DAV:   8    -0.189715183756E+03    0.91146E-04   -0.22889E-03 11040   0.175E-01    0.153E-01
DAV:   9    -0.189715236772E+03   -0.53016E-04   -0.99570E-04 10480   0.127E-01
   3 F= -.18971524E+03 E0= -.18959533E+03  d E =-.108139E+01
       N       E                     dE             d eps       ncg     rms          rms(c)
DAV:   1    -0.191297670743E+03   -0.15825E+01   -0.72354E+01  8160   0.195E+01    0.469E+00
DAV:   2    -0.191178588334E+03    0.11908E+00   -0.55269E+00 13400   0.849E+00    0.530E+00
DAV:   3    -0.191211210535E+03   -0.32622E-01   -0.16460E+00 12080   0.932E+00    0.675E+00
DAV:   4    -0.190876745852E+03    0.33446E+00   -0.17022E+00 11840   0.791E+00    0.361E+00
DAV:   5    -0.190848142639E+03    0.28603E-01   -0.62063E-01 12080   0.541E+00    0.351E+00
DAV:   6    -0.190690881345E+03    0.15726E+00   -0.24113E-01 12240   0.333E+00    0.875E-01
DAV:   7    -0.190684815905E+03    0.60654E-02   -0.41054E-02 11880   0.850E-01    0.487E-01
DAV:   8    -0.190683228985E+03    0.15869E-02   -0.11156E-02 11680   0.619E-01    0.500E-01
DAV:   9    -0.190681112381E+03    0.21166E-02   -0.39228E-03 11600   0.450E-01    0.155E-01
DAV:  10    -0.190681425658E+03   -0.31328E-03   -0.12109E-03 10320   0.140E-01    0.128E-01
DAV:  11    -0.190681232653E+03    0.19300E-03   -0.84616E-04 10480   0.108E-01    0.462E-02
DAV:  12    -0.190681238834E+03   -0.61808E-05   -0.15716E-04  7400   0.453E-02
   4 F= -.19068124E+03 E0= -.19058009E+03  d E =-.966002E+00
       N       E                     dE             d eps       ncg     rms          rms(c)
DAV:   1    -0.192027434708E+03   -0.13462E+01   -0.14703E+02  8160   0.271E+01    0.560E+00
DAV:   2    -0.191823936162E+03    0.20350E+00   -0.92350E+00 12040   0.858E+00    0.444E+00
DAV:   3    -0.192203401656E+03   -0.37947E+00   -0.23338E+00 12200   0.106E+01    0.903E+00
DAV:   4    -0.191550202294E+03    0.65320E+00   -0.22579E+00 12200   0.108E+01    0.344E+00
DAV:   5    -0.191378884133E+03    0.17132E+00   -0.46161E-01 12200   0.331E+00    0.161E+00
DAV:   6    -0.191370736301E+03    0.81478E-02   -0.19244E-01 12640   0.285E+00    0.183E+00
DAV:   7    -0.191345194869E+03    0.25541E-01   -0.10172E-01 11840   0.212E+00    0.678E-01
DAV:   8    -0.191337962905E+03    0.72320E-02   -0.11616E-02 11680   0.563E-01    0.220E-01
DAV:   9    -0.191338648859E+03   -0.68595E-03   -0.32695E-03 12760   0.397E-01    0.319E-01
DAV:  10    -0.191338149423E+03    0.49944E-03   -0.30463E-03 11520   0.338E-01    0.119E-01
DAV:  11    -0.191337968435E+03    0.18099E-03   -0.79067E-04 10560   0.120E-01    0.554E-02
DAV:  12    -0.191337940515E+03    0.27920E-04   -0.13088E-04  7200   0.444E-02
   5 F= -.19133794E+03 E0= -.19124359E+03  d E =-.656702E+00
       N       E                     dE             d eps       ncg     rms          rms(c)
DAV:   1    -0.191429707916E+03   -0.91739E-01   -0.86144E+00  8160   0.621E+00    0.747E-01
DAV:   2    -0.191486197431E+03   -0.56490E-01   -0.32576E-01 12960   0.244E+00    0.209E+00
DAV:   3    -0.191446701348E+03    0.39496E-01   -0.13526E-01 12040   0.238E+00    0.755E-01
DAV:   4    -0.191446027631E+03    0.67372E-03   -0.23060E-02 11680   0.102E+00    0.751E-01
DAV:   5    -0.191440278915E+03    0.57487E-02   -0.11587E-02 11440   0.832E-01    0.282E-01
DAV:   6    -0.191439592113E+03    0.68680E-03   -0.33281E-03 11000   0.287E-01    0.156E-01
DAV:   7    -0.191439297052E+03    0.29506E-03   -0.17085E-03 10360   0.158E-01    0.880E-02
DAV:   8    -0.191439260876E+03    0.36177E-04   -0.50560E-04  9800   0.143E-01
   6 F= -.19143926E+03 E0= -.19134370E+03  d E =-.101320E+00
       N       E                     dE             d eps       ncg     rms          rms(c)
DAV:   1    -0.191468143377E+03   -0.28846E-01   -0.69384E-01  8160   0.177E+00    0.227E-01
DAV:   2    -0.191473713805E+03   -0.55704E-02   -0.27835E-02 13440   0.874E-01    0.677E-01
DAV:   3    -0.191469026652E+03    0.46872E-02   -0.10681E-02 11880   0.714E-01    0.175E-01
DAV:   4    -0.191469380717E+03   -0.35407E-03   -0.20645E-03 10240   0.319E-01    0.260E-01
DAV:   5    -0.191468707327E+03    0.67339E-03   -0.12159E-03  9760   0.265E-01    0.760E-02
DAV:   6    -0.191468703036E+03    0.42909E-05   -0.30205E-04  7280   0.844E-02
   7 F= -.19146870E+03 E0= -.19137304E+03  d E =-.294422E-01
       N       E                     dE             d eps       ncg     rms          rms(c)
DAV:   1    -0.191392972300E+03    0.75735E-01   -0.50301E+00  8160   0.476E+00    0.558E-01
DAV:   2    -0.191424835869E+03   -0.31864E-01   -0.17757E-01 13440   0.205E+00    0.154E+00
DAV:   3    -0.191400045715E+03    0.24790E-01   -0.56302E-02 12480   0.172E+00    0.456E-01
DAV:   4    -0.191400662434E+03   -0.61672E-03   -0.10716E-02 10520   0.721E-01    0.551E-01
DAV:   5    -0.191397565502E+03    0.30969E-02   -0.67387E-03 11000   0.624E-01    0.224E-01
DAV:   6    -0.191397564311E+03    0.11905E-05   -0.28771E-03 11800   0.324E-01    0.225E-01
DAV:   7    -0.191397646431E+03   -0.82119E-04   -0.28699E-03 11680   0.377E-01    0.251E-01
DAV:   8    -0.191396935136E+03    0.71130E-03   -0.11479E-03  9680   0.222E-01    0.314E-02
DAV:   9    -0.191396948465E+03   -0.13329E-04   -0.72592E-05  6280   0.318E-02
   8 F= -.19139695E+03 E0= -.19130171E+03  d E =0.717546E-01
       N       E                     dE             d eps       ncg     rms          rms(c)
DAV:   1    -0.191418103441E+03   -0.21168E-01   -0.12915E+00  8160   0.247E+00    0.378E-01
DAV:   2    -0.191420566603E+03   -0.24632E-02   -0.56953E-02 11360   0.728E-01    0.455E-01
DAV:   3    -0.191421769748E+03   -0.12031E-02   -0.20370E-02 11880   0.911E-01    0.634E-01
DAV:   4    -0.191417749025E+03    0.40207E-02   -0.76501E-03 11360   0.586E-01    0.205E-01
DAV:   5    -0.191418024779E+03   -0.27575E-03   -0.29115E-03 10320   0.414E-01    0.291E-01
DAV:   6    -0.191417119406E+03    0.90537E-03   -0.19982E-03 10040   0.316E-01    0.773E-02
DAV:   7    -0.191417078174E+03    0.41233E-04   -0.42758E-04  8760   0.989E-02
   9 F= -.19141708E+03 E0= -.19132172E+03  d E =-.201297E-01
       N       E                     dE             d eps       ncg     rms          rms(c)
DAV:   1    -0.191489740563E+03   -0.72621E-01   -0.46585E+00  8160   0.463E+00    0.613E-01
DAV:   2    -0.191521634128E+03   -0.31894E-01   -0.17431E-01 13600   0.218E+00    0.172E+00
DAV:   3    -0.191493309259E+03    0.28325E-01   -0.73077E-02 12280   0.186E+00    0.498E-01
DAV:   4    -0.191495293980E+03   -0.19847E-02   -0.17026E-02 12240   0.898E-01    0.723E-01
DAV:   5    -0.191490194678E+03    0.50993E-02   -0.10898E-02 11840   0.777E-01    0.271E-01
DAV:   6    -0.191489708706E+03    0.48597E-03   -0.36828E-03 11200   0.334E-01    0.201E-01
DAV:   7    -0.191489823642E+03   -0.11494E-03   -0.27385E-03 11880   0.375E-01    0.249E-01
DAV:   8    -0.191489155597E+03    0.66804E-03   -0.11757E-03  9480   0.242E-01    0.444E-02
DAV:   9    -0.191489136625E+03    0.18973E-04   -0.84532E-05  5720   0.413E-02
  10 F= -.19148914E+03 E0= -.19139338E+03  d E =-.720585E-01
       N       E                     dE             d eps       ncg     rms          rms(c)
DAV:   1    -0.191549694077E+03   -0.60538E-01   -0.32012E+00  8160   0.380E+00    0.473E-01
DAV:   2    -0.191577748051E+03   -0.28054E-01   -0.12808E-01 13560   0.195E+00    0.159E+00
DAV:   3    -0.191554080155E+03    0.23668E-01   -0.57553E-02 12160   0.159E+00    0.404E-01
DAV:   4    -0.191554763355E+03   -0.68320E-03   -0.90579E-03 11240   0.680E-01    0.496E-01
DAV:   5    -0.191552195233E+03    0.25681E-02   -0.46108E-03 11200   0.511E-01    0.161E-01
DAV:   6    -0.191552070317E+03    0.12492E-03   -0.16058E-03 10640   0.169E-01    0.115E-01
DAV:   7    -0.191551962008E+03    0.10831E-03   -0.85660E-04 10880   0.162E-01    0.119E-01
DAV:   8    -0.191551822050E+03    0.13996E-03   -0.35466E-04  8680   0.139E-01    0.413E-02
DAV:   9    -0.191551807625E+03    0.14425E-04   -0.47804E-05  6080   0.421E-02
  11 F= -.19155181E+03 E0= -.19145678E+03  d E =-.626710E-01
       N       E                     dE             d eps       ncg     rms          rms(c)
DAV:   1    -0.191517754707E+03    0.34067E-01   -0.87625E-01  8160   0.199E+00    0.250E-01
DAV:   2    -0.191525633558E+03   -0.78789E-02   -0.38053E-02 13360   0.105E+00    0.778E-01
DAV:   3    -0.191519011570E+03    0.66220E-02   -0.12512E-02 11640   0.798E-01    0.180E-01
DAV:   4    -0.191519337589E+03   -0.32602E-03   -0.22406E-03 10320   0.324E-01    0.259E-01
DAV:   5    -0.191518650407E+03    0.68718E-03   -0.12567E-03  9600   0.272E-01    0.840E-02
DAV:   6    -0.191518633349E+03    0.17058E-04   -0.37997E-04  8160   0.973E-02
  12 F= -.19151863E+03 E0= -.19142320E+03  d E =0.331743E-01
       N       E                     dE             d eps       ncg     rms          rms(c)
DAV:   1    -0.191463624297E+03    0.55026E-01   -0.27857E+00  8160   0.356E+00    0.433E-01
DAV:   2    -0.191485396644E+03   -0.21772E-01   -0.11225E-01 13560   0.161E+00    0.124E+00
DAV:   3    -0.191468025764E+03    0.17371E-01   -0.34340E-02 11920   0.133E+00    0.331E-01
DAV:   4    -0.191468691098E+03   -0.66533E-03   -0.64665E-03 11400   0.533E-01    0.428E-01
DAV:   5    -0.191466836520E+03    0.18546E-02   -0.34862E-03 11240   0.455E-01    0.143E-01
DAV:   6    -0.191466758973E+03    0.77547E-04   -0.11308E-03 10360   0.174E-01    0.103E-01
DAV:   7    -0.191466902738E+03   -0.14376E-03   -0.10366E-03 10720   0.217E-01    0.172E-01
DAV:   8    -0.191466580863E+03    0.32188E-03   -0.49413E-04  8680   0.167E-01    0.237E-02
DAV:   9    -0.191466591456E+03   -0.10593E-04   -0.39445E-05  6240   0.273E-02
  13 F= -.19146659E+03 E0= -.19137095E+03  d E =0.520419E-01
       N       E                     dE             d eps       ncg     rms          rms(c)
DAV:   1    -0.191552823854E+03   -0.86243E-01   -0.65996E+00  8160   0.545E+00    0.584E-01
DAV:   2    -0.191588854185E+03   -0.36030E-01   -0.21103E-01 13440   0.208E+00    0.168E+00
DAV:   3    -0.191563650051E+03    0.25204E-01   -0.75845E-02 12040   0.182E+00    0.554E-01
DAV:   4    -0.191564293128E+03   -0.64308E-03   -0.13744E-02 11200   0.833E-01    0.626E-01
DAV:   5    -0.191560094851E+03    0.41983E-02   -0.71386E-03 11160   0.671E-01    0.211E-01
DAV:   6    -0.191560043870E+03    0.50981E-04   -0.26867E-03 11720   0.244E-01    0.170E-01
DAV:   7    -0.191559855264E+03    0.18861E-03   -0.17217E-03 11080   0.249E-01    0.179E-01
DAV:   8    -0.191559526627E+03    0.32864E-03   -0.67644E-04  8760   0.194E-01    0.433E-02
DAV:   9    -0.191559518084E+03    0.85438E-05   -0.72695E-05  5920   0.451E-02
  14 F= -.19155952E+03 E0= -.19146528E+03  d E =-.929266E-01
       N       E                     dE             d eps       ncg     rms          rms(c)
DAV:   1    -0.191525966928E+03    0.33560E-01   -0.79942E-01  8160   0.191E+00    0.224E-01
DAV:   2    -0.191530339779E+03   -0.43729E-02   -0.26775E-02 13520   0.790E-01    0.581E-01
DAV:   3    -0.191526819586E+03    0.35202E-02   -0.79383E-03 11240   0.633E-01    0.184E-01
DAV:   4    -0.191527017238E+03   -0.19765E-03   -0.20118E-03 10000   0.303E-01    0.241E-01
DAV:   5    -0.191526450316E+03    0.56692E-03   -0.12388E-03  9520   0.274E-01    0.990E-02
DAV:   6    -0.191526386457E+03    0.63859E-04   -0.43249E-04  8760   0.110E-01
  15 F= -.19152639E+03 E0= -.19143151E+03  d E =0.331316E-01
       N       E                     dE             d eps       ncg     rms          rms(c)
DAV:   1    -0.191604005233E+03   -0.77555E-01   -0.47788E+00  8160   0.469E+00    0.606E-01
DAV:   2    -0.191642499077E+03   -0.38494E-01   -0.19416E-01 13560   0.231E+00    0.190E+00
DAV:   3    -0.191609918637E+03    0.32580E-01   -0.80910E-02 12160   0.192E+00    0.513E-01
DAV:   4    -0.191611290755E+03   -0.13721E-02   -0.15121E-02 11400   0.905E-01    0.672E-01
DAV:   5    -0.191606523556E+03    0.47672E-02   -0.87026E-03 11440   0.721E-01    0.236E-01
DAV:   6    -0.191606245821E+03    0.27773E-03   -0.34244E-03 10560   0.289E-01    0.191E-01
DAV:   7    -0.191606303740E+03   -0.57919E-04   -0.25625E-03 11720   0.359E-01    0.241E-01
DAV:   8    -0.191605673001E+03    0.63074E-03   -0.10841E-03  9720   0.244E-01    0.428E-02
DAV:   9    -0.191605655919E+03    0.17082E-04   -0.77383E-05  5640   0.414E-02
  16 F= -.19160566E+03 E0= -.19151215E+03  d E =-.792695E-01
       N       E                     dE             d eps       ncg     rms          rms(c)
DAV:   1    -0.191663469262E+03   -0.57796E-01   -0.24721E+00  8160   0.334E+00    0.338E-01
DAV:   2    -0.191673629857E+03   -0.10161E-01   -0.69895E-02 12360   0.106E+00    0.871E-01
DAV:   3    -0.191667377507E+03    0.62523E-02   -0.20061E-02 11840   0.970E-01    0.340E-01
DAV:   4    -0.191666888833E+03    0.48867E-03   -0.35962E-03 11360   0.392E-01    0.270E-01
DAV:   5    -0.191666155904E+03    0.73293E-03   -0.19125E-03 10680   0.357E-01    0.155E-01
DAV:   6    -0.191666111025E+03    0.44879E-04   -0.11918E-03 11200   0.208E-01    0.116E-01
DAV:   7    -0.191665942244E+03    0.16878E-03   -0.57339E-04 10200   0.129E-01    0.753E-02
DAV:   8    -0.191665892305E+03    0.49939E-04   -0.15283E-04  6120   0.975E-02
  17 F= -.19166589E+03 E0= -.19157462E+03  d E =-.602364E-01
       N       E                     dE             d eps       ncg     rms          rms(c)
DAV:   1    -0.191735478507E+03   -0.69536E-01   -0.36189E+00  8160   0.406E+00    0.424E-01
DAV:   2    -0.191752132026E+03   -0.16654E-01   -0.10882E-01 12280   0.142E+00    0.114E+00
DAV:   3    -0.191741264535E+03    0.10867E-01   -0.30683E-02 11840   0.124E+00    0.397E-01
DAV:   4    -0.191740756263E+03    0.50827E-03   -0.53134E-03 11480   0.505E-01    0.351E-01
DAV:   5    -0.191739475758E+03    0.12805E-02   -0.29819E-03 11160   0.457E-01    0.187E-01
DAV:   6    -0.191739376207E+03    0.99550E-04   -0.17551E-03 11800   0.247E-01    0.137E-01
DAV:   7    -0.191739244573E+03    0.13163E-03   -0.10080E-03 10240   0.201E-01    0.132E-01
DAV:   8    -0.191739058274E+03    0.18630E-03   -0.36670E-04  8520   0.148E-01    0.309E-02
DAV:   9    -0.191739055351E+03    0.29233E-05   -0.40940E-05  6160   0.338E-02
  18 F= -.19173906E+03 E0= -.19165095E+03  d E =-.731630E-01
       N       E                     dE             d eps       ncg     rms          rms(c)
DAV:   1    -0.191793867938E+03   -0.54810E-01   -0.20542E+00  8160   0.309E+00    0.369E-01
DAV:   2    -0.191804055676E+03   -0.10188E-01   -0.71571E-02 12360   0.119E+00    0.923E-01
DAV:   3    -0.191796891623E+03    0.71641E-02   -0.19038E-02 11880   0.103E+00    0.333E-01
DAV:   4    -0.191796551540E+03    0.34008E-03   -0.41767E-03 11520   0.472E-01    0.320E-01
DAV:   5    -0.191795561039E+03    0.99050E-03   -0.26520E-03 10520   0.433E-01    0.184E-01
DAV:   6    -0.191795373825E+03    0.18721E-03   -0.15046E-03  9920   0.230E-01    0.122E-01
DAV:   7    -0.191795303741E+03    0.70084E-04   -0.87659E-04  9920   0.203E-01
  19 F= -.19179530E+03 E0= -.19170964E+03  d E =-.562484E-01
       N       E                     dE             d eps       ncg     rms          rms(c)
DAV:   1    -0.191940623619E+03   -0.14525E+00   -0.21993E+01  8160   0.101E+01    0.103E+00
DAV:   2    -0.192018884812E+03   -0.78261E-01   -0.66519E-01 11840   0.307E+00    0.227E+00
DAV:   3    -0.191984804897E+03    0.34080E-01   -0.13966E-01 12280   0.286E+00    0.108E+00
DAV:   4    -0.191971798109E+03    0.13007E-01   -0.23319E-02 12320   0.100E+00    0.487E-01
DAV:   5    -0.191970391327E+03    0.14068E-02   -0.13048E-02 12360   0.830E-01    0.525E-01
DAV:   6    -0.191969866277E+03    0.52505E-03   -0.12002E-02 12400   0.872E-01    0.430E-01
DAV:   7    -0.191967362608E+03    0.25037E-02   -0.50438E-03 11440   0.456E-01    0.173E-01
DAV:   8    -0.191967148199E+03    0.21441E-03   -0.12391E-03 10520   0.254E-01    0.102E-01
DAV:   9    -0.191967038395E+03    0.10980E-03   -0.30376E-04  8640   0.117E-01    0.445E-02
DAV:  10    -0.191966997955E+03    0.40440E-04   -0.14834E-04  6160   0.475E-02
  20 F= -.19196700E+03 E0= -.19188779E+03  d E =-.171694E+00
       N       E                     dE             d eps       ncg     rms          rms(c)
DAV:   1    -0.192050862395E+03   -0.83824E-01   -0.69518E+00  8160   0.573E+00    0.700E-01
DAV:   2    -0.192072966481E+03   -0.22104E-01   -0.25324E-01 12000   0.182E+00    0.116E+00
DAV:   3    -0.192066095609E+03    0.68709E-02   -0.45057E-02 12240   0.178E+00    0.818E-01
DAV:   4    -0.192058087253E+03    0.80084E-02   -0.12459E-02 12320   0.849E-01    0.330E-01
DAV:   5    -0.192058921546E+03   -0.83429E-03   -0.78887E-03 10720   0.697E-01    0.496E-01
DAV:   6    -0.192056829028E+03    0.20925E-02   -0.69729E-03 11600   0.625E-01    0.207E-01
DAV:   7    -0.192056383516E+03    0.44551E-03   -0.20322E-03 11040   0.288E-01    0.137E-01
DAV:   8    -0.192056167549E+03    0.21597E-03   -0.52210E-04  9520   0.182E-01    0.543E-02
DAV:   9    -0.192056127200E+03    0.40349E-04   -0.94648E-05  6160   0.655E-02
  21 F= -.19205613E+03 E0= -.19197775E+03  d E =-.891292E-01
       N       E                     dE             d eps       ncg     rms          rms(c)
DAV:   1    -0.192156294092E+03   -0.10013E+00   -0.36541E+01  8160   0.130E+01    0.134E+00
DAV:   2    -0.192254165022E+03   -0.97871E-01   -0.11657E+00 11640   0.336E+00    0.177E+00
DAV:   3    -0.192251383279E+03    0.27817E-02   -0.14860E-01 12280   0.332E+00    0.176E+00
DAV:   4    -0.192214085611E+03    0.37298E-01   -0.44669E-02 12360   0.180E+00    0.486E-01
DAV:   5    -0.192215030602E+03   -0.94499E-03   -0.21977E-02 12040   0.983E-01    0.660E-01
DAV:   6    -0.192213541251E+03    0.14894E-02   -0.22444E-02 12720   0.115E+00    0.554E-01
DAV:   7    -0.192209514687E+03    0.40266E-02   -0.84764E-03 11520   0.627E-01    0.181E-01
DAV:   8    -0.192209273779E+03    0.24091E-03   -0.13542E-03 10440   0.268E-01    0.102E-01
DAV:   9    -0.192209146617E+03    0.12716E-03   -0.43280E-04 10400   0.117E-01    0.474E-02
DAV:  10    -0.192209092386E+03    0.54231E-04   -0.15774E-04  7000   0.484E-02
  22 F= -.19220909E+03 E0= -.19212907E+03  d E =-.152965E+00
       N       E                     dE             d eps       ncg     rms          rms(c)
DAV:   1    -0.192224382151E+03   -0.15236E-01   -0.85027E-01  8160   0.200E+00    0.289E-01
DAV:   2    -0.192226910894E+03   -0.25287E-02   -0.37512E-02 10600   0.729E-01    0.426E-01
DAV:   3    -0.192226142829E+03    0.76806E-03   -0.83178E-03 12400   0.731E-01    0.363E-01
DAV:   4    -0.192224589346E+03    0.15535E-02   -0.24904E-03 11720   0.391E-01    0.124E-01
DAV:   5    -0.192224787662E+03   -0.19832E-03   -0.13343E-03 10920   0.289E-01    0.200E-01
DAV:   6    -0.192224321188E+03    0.46647E-03   -0.10115E-03 10800   0.255E-01    0.593E-02
DAV:   7    -0.192224295833E+03    0.25355E-04   -0.14988E-04  6280   0.920E-02
  23 F= -.19222430E+03 E0= -.19214333E+03  d E =-.152034E-01
       N       E                     dE             d eps       ncg     rms          rms(c)
DAV:   1    -0.192249808026E+03   -0.25487E-01   -0.16767E+00  8160   0.275E+00    0.319E-01
DAV:   2    -0.192256666100E+03   -0.68581E-02   -0.60433E-02 11000   0.980E-01    0.585E-01
DAV:   3    -0.192253182086E+03    0.34840E-02   -0.13406E-02 12520   0.867E-01    0.281E-01
DAV:   4    -0.192252542938E+03    0.63915E-03   -0.26964E-03 11600   0.368E-01    0.197E-01
DAV:   5    -0.192252309178E+03    0.23376E-03   -0.14875E-03 10360   0.332E-01    0.155E-01
DAV:   6    -0.192252168494E+03    0.14068E-03   -0.75182E-04 11120   0.185E-01    0.853E-02
DAV:   7    -0.192252092575E+03    0.75918E-04   -0.29421E-04  8920   0.127E-01
  24 F= -.19225209E+03 E0= -.19217007E+03  d E =-.277967E-01
       N       E                     dE             d eps       ncg     rms          rms(c)
DAV:   1    -0.192270569225E+03   -0.18401E-01   -0.89214E-01  8160   0.204E+00    0.274E-01
DAV:   2    -0.192272978058E+03   -0.24088E-02   -0.35788E-02 11080   0.623E-01    0.364E-01
DAV:   3    -0.192272708398E+03    0.26966E-03   -0.94284E-03 12440   0.697E-01    0.352E-01
DAV:   4    -0.192271188516E+03    0.15199E-02   -0.25166E-03 11400   0.368E-01    0.944E-02
DAV:   5    -0.192271295437E+03   -0.10692E-03   -0.10098E-03 10280   0.214E-01    0.147E-01
DAV:   6    -0.192271121757E+03    0.17368E-03   -0.61268E-04 10000   0.221E-01    0.889E-02
DAV:   7    -0.192271033804E+03    0.87953E-04   -0.18771E-04  7400   0.111E-01
  25 F= -.19227103E+03 E0= -.19218789E+03  d E =-.189412E-01
       N       E                     dE             d eps       ncg     rms          rms(c)
DAV:   1    -0.192294311243E+03   -0.23189E-01   -0.22819E+00  8160   0.320E+00    0.375E-01
DAV:   2    -0.192303812760E+03   -0.95015E-02   -0.84508E-02 10800   0.116E+00    0.699E-01
DAV:   3    -0.192298956889E+03    0.48559E-02   -0.20805E-02 12600   0.103E+00    0.337E-01
DAV:   4    -0.192298015853E+03    0.94104E-03   -0.36633E-03 11600   0.437E-01    0.221E-01
DAV:   5    -0.192297666224E+03    0.34963E-03   -0.19289E-03 11000   0.382E-01    0.176E-01
DAV:   6    -0.192297525541E+03    0.14068E-03   -0.10330E-03 10720   0.228E-01    0.110E-01
DAV:   7    -0.192297347839E+03    0.17770E-03   -0.41026E-04  9520   0.132E-01    0.667E-02
DAV:   8    -0.192297307684E+03    0.40155E-04   -0.10109E-04  6760   0.905E-02
  26 F= -.19229731E+03 E0= -.19221315E+03  d E =-.262739E-01
       N       E                     dE             d eps       ncg     rms          rms(c)
DAV:   1    -0.192309118819E+03   -0.11771E-01   -0.60599E-01  8160   0.170E+00    0.251E-01
DAV:   2    -0.192310752021E+03   -0.16332E-02   -0.27637E-02 10280   0.583E-01    0.335E-01
DAV:   3    -0.192310480495E+03    0.27153E-03   -0.68827E-03 12280   0.632E-01    0.309E-01
DAV:   4    -0.192309214615E+03    0.12659E-02   -0.21207E-03 11080   0.341E-01    0.831E-02
DAV:   5    -0.192309358696E+03   -0.14408E-03   -0.88451E-04 10040   0.215E-01    0.151E-01
DAV:   6    -0.192309093288E+03    0.26541E-03   -0.59981E-04  9560   0.197E-01    0.431E-02
DAV:   7    -0.192309087495E+03    0.57924E-05   -0.82826E-05  6040   0.742E-02
  27 F= -.19230909E+03 E0= -.19222394E+03  d E =-.117798E-01
       N       E                     dE             d eps       ncg     rms          rms(c)
DAV:   1    -0.192318289931E+03   -0.91966E-02   -0.51222E-01  8160   0.151E+00    0.200E-01
DAV:   2    -0.192321397851E+03   -0.31079E-02   -0.23439E-02 10200   0.745E-01    0.436E-01
DAV:   3    -0.192319246665E+03    0.21512E-02   -0.61775E-03 12360   0.579E-01    0.142E-01
DAV:   4    -0.192319153118E+03    0.93547E-04   -0.97749E-04  9280   0.225E-01
  28 F= -.19231915E+03 E0= -.19223385E+03  d E =-.100656E-01
       N       E                     dE             d eps       ncg     rms          rms(c)
DAV:   1    -0.192327300213E+03   -0.80535E-02   -0.48177E-01  8160   0.148E+00    0.209E-01
DAV:   2    -0.192330088505E+03   -0.27883E-02   -0.19593E-02 11760   0.603E-01    0.441E-01
DAV:   3    -0.192328025719E+03    0.20628E-02   -0.54119E-03 12160   0.588E-01    0.169E-01
DAV:   4    -0.192327801544E+03    0.22417E-03   -0.97105E-04  9960   0.201E-01    0.106E-01
DAV:   5    -0.192327746185E+03    0.55359E-04   -0.66017E-04  9960   0.192E-01
  29 F= -.19232775E+03 E0= -.19224185E+03  d E =-.859307E-02
       N       E                     dE             d eps       ncg     rms          rms(c)
DAV:   1    -0.192334767007E+03   -0.69655E-02   -0.44969E-01  8160   0.143E+00    0.220E-01
DAV:   2    -0.192337145543E+03   -0.23785E-02   -0.20535E-02 11040   0.678E-01    0.433E-01
DAV:   3    -0.192335269891E+03    0.18757E-02   -0.57550E-03 11880   0.611E-01    0.185E-01
DAV:   4    -0.192334935433E+03    0.33446E-03   -0.14405E-03 10000   0.243E-01    0.118E-01
DAV:   5    -0.192334840991E+03    0.94442E-04   -0.10296E-03 10600   0.216E-01    0.112E-01
DAV:   6    -0.192334730077E+03    0.11091E-03   -0.49936E-04  9320   0.164E-01    0.581E-02
DAV:   7    -0.192334676443E+03    0.53634E-04   -0.12473E-04  5800   0.648E-02
  30 F= -.19233468E+03 E0= -.19224841E+03  d E =-.693026E-02
       N       E                     dE             d eps       ncg     rms          rms(c)
DAV:   1    -0.192344205299E+03   -0.94752E-02   -0.25151E+00  8160   0.334E+00    0.395E-01
DAV:   2    -0.192357308689E+03   -0.13103E-01   -0.10103E-01 10960   0.132E+00    0.852E-01
DAV:   3    -0.192349721552E+03    0.75871E-02   -0.25799E-02 12680   0.118E+00    0.311E-01
DAV:   4    -0.192348615425E+03    0.11061E-02   -0.24683E-03 11480   0.349E-01    0.172E-01
DAV:   5    -0.192348631286E+03   -0.15861E-04   -0.16640E-03 11480   0.354E-01    0.182E-01
DAV:   6    -0.192348296133E+03    0.33515E-03   -0.92638E-04 10920   0.208E-01    0.615E-02
DAV:   7    -0.192348211053E+03    0.85080E-04   -0.17661E-04  6400   0.532E-02
  31 F= -.19234821E+03 E0= -.19226165E+03  d E =-.135346E-01
       N       E                     dE             d eps       ncg     rms          rms(c)
DAV:   1    -0.192352439615E+03   -0.41435E-02   -0.19351E+00  8160   0.292E+00    0.316E-01
DAV:   2    -0.192358987118E+03   -0.65475E-02   -0.74897E-02 12000   0.888E-01    0.412E-01
DAV:   3    -0.192358300210E+03    0.68691E-03   -0.12019E-02 12120   0.782E-01    0.368E-01
DAV:   4    -0.192356765671E+03    0.15345E-02   -0.31556E-03 11600   0.428E-01    0.143E-01
DAV:   5    -0.192356737450E+03    0.28221E-04   -0.13198E-03 10280   0.279E-01    0.153E-01
DAV:   6    -0.192356663807E+03    0.73644E-04   -0.95324E-04 11000   0.239E-01
  32 F= -.19235666E+03 E0= -.19227041E+03  d E =-.845275E-02
       N       E                     dE             d eps       ncg     rms          rms(c)
DAV:   1    -0.192357792556E+03   -0.10551E-02   -0.89940E-02  8160   0.642E-01    0.933E-02
DAV:   2    -0.192358045781E+03   -0.25322E-03   -0.39994E-03 12280   0.249E-01    0.119E-01
DAV:   3    -0.192357978351E+03    0.67430E-04   -0.65741E-04 10400   0.221E-01
  33 F= -.19235798E+03 E0= -.19227236E+03  d E =-.131454E-02
       N       E                     dE             d eps       ncg     rms          rms(c)
DAV:   1    -0.192359121637E+03   -0.10759E-02   -0.10016E-01  8160   0.675E-01    0.787E-02
DAV:   2    -0.192359302429E+03   -0.18079E-03   -0.27705E-03 12240   0.150E-01    0.735E-02
DAV:   3    -0.192359322475E+03   -0.20047E-04   -0.45812E-04 10080   0.161E-01
  34 F= -.19235932E+03 E0= -.19227411E+03  d E =-.134412E-02
       N       E                     dE             d eps       ncg     rms          rms(c)
DAV:   1    -0.192360071795E+03   -0.76937E-03   -0.32797E-02  8160   0.405E-01    0.777E-02
DAV:   2    -0.192360233024E+03   -0.16123E-03   -0.16738E-03 12560   0.173E-01    0.125E-01
DAV:   3    -0.192360060472E+03    0.17255E-03   -0.66817E-04  9000   0.194E-01    0.790E-02
DAV:   4    -0.192360016556E+03    0.43916E-04   -0.22341E-04  7080   0.112E-01
  35 F= -.19236002E+03 E0= -.19227512E+03  d E =-.694081E-03
       N       E                     dE             d eps       ncg     rms          rms(c)
DAV:   1    -0.192361439724E+03   -0.13793E-02   -0.16450E-01  8160   0.860E-01    0.982E-02
DAV:   2    -0.192361851645E+03   -0.41192E-03   -0.56066E-03 11880   0.214E-01    0.101E-01
DAV:   3    -0.192361871996E+03   -0.20351E-04   -0.73189E-04 11200   0.213E-01
  36 F= -.19236187E+03 E0= -.19227769E+03  d E =-.185544E-02
       N       E                     dE             d eps       ncg     rms          rms(c)
DAV:   1    -0.192361974139E+03   -0.12249E-03   -0.69881E-03  8160   0.224E-01    0.538E-02
DAV:   2    -0.192362059875E+03   -0.85736E-04   -0.50437E-04  9280   0.125E-01
  37 F= -.19236206E+03 E0= -.19227775E+03  d E =-.187879E-03
       N       E                     dE             d eps       ncg     rms          rms(c)
DAV:   1    -0.192362879267E+03   -0.90513E-03   -0.85214E-02  8160   0.630E-01    0.816E-02
DAV:   2    -0.192363205317E+03   -0.32605E-03   -0.27669E-03 12640   0.213E-01    0.140E-01
DAV:   3    -0.192363025373E+03    0.17994E-03   -0.58080E-04 10240   0.211E-01    0.759E-02
DAV:   4    -0.192362975409E+03    0.49964E-04   -0.10344E-04  6000   0.883E-02
  38 F= -.19236298E+03 E0= -.19227922E+03  d E =-.915533E-03
       N       E                     dE             d eps       ncg     rms          rms(c)
DAV:   1    -0.192363758722E+03   -0.73335E-03   -0.52791E-02  8160   0.495E-01    0.709E-02
DAV:   2    -0.192364140001E+03   -0.38128E-03   -0.22891E-03 13440   0.223E-01    0.157E-01
DAV:   3    -0.192363839700E+03    0.30030E-03   -0.57362E-04  9640   0.208E-01    0.528E-02
DAV:   4    -0.192363839055E+03    0.64539E-06   -0.94486E-05  5760   0.762E-02
  39 F= -.19236384E+03 E0= -.19228041E+03  d E =-.863646E-03
       N       E                     dE             d eps       ncg     rms          rms(c)
DAV:   1    -0.192364524057E+03   -0.68436E-03   -0.44281E-02  8160   0.450E-01    0.646E-02
DAV:   2    -0.192364754287E+03   -0.23023E-03   -0.16397E-03 13000   0.185E-01    0.125E-01
DAV:   3    -0.192364569895E+03    0.18439E-03   -0.42340E-04  9120   0.176E-01    0.534E-02
DAV:   4    -0.192364557821E+03    0.12074E-04   -0.10336E-04  5880   0.782E-02
  40 F= -.19236456E+03 E0= -.19228142E+03  d E =-.718766E-03
