       N       E                     dE             d eps       ncg     rms          rms(c)
DAV:   1     0.112373418280E+04    0.11237E+04   -0.35866E+04  8160   0.577E+02
DAV:   2    -0.304891476175E+01   -0.11268E+04   -0.10844E+04 11280   0.173E+02
DAV:   3    -0.199898757231E+03   -0.19685E+03   -0.18903E+03 10920   0.819E+01
DAV:   4    -0.208939583281E+03   -0.90408E+01   -0.87568E+01 11760   0.259E+01
DAV:   5    -0.209304068400E+03   -0.36449E+00   -0.36353E+00 11520   0.397E+00    0.275E+01
DAV:   6    -0.236756068203E+03   -0.27452E+02   -0.10819E+02 12680   0.605E+01    0.594E+01
DAV:   7    -0.196677346152E+03    0.40079E+02   -0.17829E+02 13000   0.151E+02    0.202E+01
DAV:   8    -0.189951819879E+03    0.67255E+01   -0.20228E+01 11760   0.133E+01    0.134E+01
DAV:   9    -0.188232159156E+03    0.17197E+01   -0.28894E+00 11800   0.622E+00    0.919E+00
DAV:  10    -0.187049777052E+03    0.11824E+01   -0.18561E+00 13320   0.774E+00    0.291E+00
DAV:  11    -0.187024680830E+03    0.25096E-01   -0.61062E-01 13560   0.299E+00    0.304E+00
DAV:  12    -0.187176247398E+03   -0.15157E+00   -0.82041E-01 13120   0.523E+00    0.582E+00
DAV:  13    -0.186920816649E+03    0.25543E+00   -0.78826E-01 12720   0.420E+00    0.210E+00
DAV:  14    -0.186876940231E+03    0.43876E-01   -0.11733E-01 13160   0.203E+00    0.897E-01
DAV:  15    -0.186874435156E+03    0.25051E-02   -0.16871E-02 12840   0.693E-01    0.777E-01
DAV:  16    -0.186868453029E+03    0.59821E-02   -0.10053E-02 13200   0.518E-01    0.180E-01
DAV:  17    -0.186868491717E+03   -0.38688E-04   -0.37747E-03 12840   0.224E-01    0.215E-01
DAV:  18    -0.186867789753E+03    0.70196E-03   -0.17359E-03 11680   0.133E-01    0.102E-01
DAV:  19    -0.186867815413E+03   -0.25661E-04   -0.55393E-04  9400   0.746E-02
   1 F= -.18686782E+03 E0= -.18669611E+03  d E =-.186868E+03
       N       E                     dE             d eps       ncg     rms          rms(c)
DAV:   1    -0.187481292420E+03   -0.61350E+00   -0.27046E+02  8160   0.349E+01    0.466E+00
DAV:   2    -0.189429135513E+03   -0.19478E+01   -0.20276E+01 11920   0.155E+01    0.945E+00
DAV:   3    -0.189342821243E+03    0.86314E-01   -0.45864E+00 12240   0.124E+01    0.663E+00
DAV:   4    -0.188750882013E+03    0.59194E+00   -0.61060E-01 12160   0.456E+00    0.210E+00
DAV:   5    -0.188846591306E+03   -0.95709E-01   -0.43473E-01 11360   0.351E+00    0.500E+00
DAV:   6    -0.188747150361E+03    0.99441E-01   -0.73706E-01 12360   0.435E+00    0.270E+00
DAV:   7    -0.188665393673E+03    0.81757E-01   -0.22311E-01 12280   0.168E+00    0.115E+00
DAV:   8    -0.188662184982E+03    0.32087E-02   -0.82731E-02 11800   0.143E+00    0.148E+00
DAV:   9    -0.188646528303E+03    0.15657E-01   -0.33543E-02 11360   0.106E+00    0.560E-01
DAV:  10    -0.188643844963E+03    0.26833E-02   -0.67546E-03 12280   0.356E-01    0.315E-01
DAV:  11    -0.188643417273E+03    0.42769E-03   -0.33037E-03 12560   0.245E-01    0.132E-01
DAV:  12    -0.188643409269E+03    0.80044E-05   -0.12363E-03 11240   0.109E-01    0.103E-01
DAV:  13    -0.188643555391E+03   -0.14612E-03   -0.30212E-04  6720   0.689E-02    0.405E-02
DAV:  14    -0.188643620586E+03   -0.65195E-04   -0.11762E-04  7840   0.343E-02
   2 F= -.18864362E+03 E0= -.18850235E+03  d E =-.177581E+01
       N       E                     dE             d eps       ncg     rms          rms(c)
DAV:   1    -0.190575331358E+03   -0.19318E+01   -0.31111E+01  9200   0.142E+01    0.447E+00
DAV:   2    -0.190571792269E+03    0.35391E-02   -0.28484E+00 11800   0.977E+00    0.754E+00
DAV:   3    -0.190047239722E+03    0.52455E+00   -0.13765E+00 12280   0.868E+00    0.419E+00
DAV:   4    -0.189848629408E+03    0.19861E+00   -0.74123E-01 13000   0.413E+00    0.270E+00
DAV:   5    -0.189896266137E+03   -0.47637E-01   -0.48956E-01 12360   0.424E+00    0.385E+00
DAV:   6    -0.189740209000E+03    0.15606E+00   -0.22240E-01 12240   0.324E+00    0.624E-01
DAV:   7    -0.189734225973E+03    0.59830E-02   -0.15269E-02 12080   0.467E-01    0.218E-01
DAV:   8    -0.189734557798E+03   -0.33182E-03   -0.34297E-03 11440   0.249E-01    0.256E-01
DAV:   9    -0.189734314565E+03    0.24323E-03   -0.18148E-03 10600   0.274E-01    0.185E-01
DAV:  10    -0.189734499486E+03   -0.18492E-03   -0.11678E-03 10000   0.183E-01    0.147E-01
DAV:  11    -0.189734243853E+03    0.25563E-03   -0.53402E-04  8360   0.926E-02    0.170E-02
DAV:  12    -0.189734299282E+03   -0.55430E-04   -0.71214E-05  6840   0.250E-02
   3 F= -.18973430E+03 E0= -.18961515E+03  d E =-.109068E+01
       N       E                     dE             d eps       ncg     rms          rms(c)
DAV:   1    -0.191296480395E+03   -0.15622E+01   -0.70553E+01  8160   0.192E+01    0.464E+00
DAV:   2    -0.191171304656E+03    0.12518E+00   -0.54058E+00 13480   0.837E+00    0.525E+00
DAV:   3    -0.191199044196E+03   -0.27740E-01   -0.15728E+00 12200   0.928E+00    0.624E+00
DAV:   4    -0.190809971466E+03    0.38907E+00   -0.11370E+00 12960   0.680E+00    0.255E+00
DAV:   5    -0.190710718849E+03    0.99253E-01   -0.28237E-01 11280   0.210E+00    0.102E+00
DAV:   6    -0.190708038218E+03    0.26806E-02   -0.89666E-02 12240   0.176E+00    0.128E+00
DAV:   7    -0.190698292423E+03    0.97458E-02   -0.47479E-02 11960   0.149E+00    0.683E-01
DAV:   8    -0.190692397189E+03    0.58952E-02   -0.82429E-03 10640   0.517E-01    0.152E-01
DAV:   9    -0.190692691010E+03   -0.29382E-03   -0.17138E-03 11080   0.141E-01    0.148E-01
DAV:  10    -0.190692813323E+03   -0.12231E-03   -0.15659E-03 11840   0.217E-01    0.180E-01
DAV:  11    -0.190692577708E+03    0.23561E-03   -0.80646E-04  9120   0.190E-01    0.714E-02
DAV:  12    -0.190692544382E+03    0.33326E-04   -0.12130E-04  6280   0.624E-02
   4 F= -.19069254E+03 E0= -.19059121E+03  d E =-.958245E+00
       N       E                     dE             d eps       ncg     rms          rms(c)
DAV:   1    -0.192088199855E+03   -0.13956E+01   -0.14586E+02  8160   0.271E+01    0.568E+00
DAV:   2    -0.191793716852E+03    0.29448E+00   -0.92851E+00 12400   0.807E+00    0.383E+00
DAV:   3    -0.191862457479E+03   -0.68741E-01   -0.17207E+00 12440   0.876E+00    0.614E+00
DAV:   4    -0.191609537118E+03    0.25292E+00   -0.15584E+00 12520   0.957E+00    0.385E+00
DAV:   5    -0.191371335019E+03    0.23820E+00   -0.41673E-01 12520   0.362E+00    0.828E-01
DAV:   6    -0.191369167129E+03    0.21679E-02   -0.10377E-01 12520   0.146E+00    0.102E+00
DAV:   7    -0.191368077682E+03    0.10894E-02   -0.68579E-02 11920   0.168E+00    0.971E-01
DAV:   8    -0.191356898220E+03    0.11179E-01   -0.17632E-02 12040   0.856E-01    0.166E-01
DAV:   9    -0.191357897101E+03   -0.99888E-03   -0.40220E-03 11760   0.312E-01    0.290E-01
DAV:  10    -0.191357237757E+03    0.65934E-03   -0.22028E-03 12080   0.339E-01    0.114E-01
DAV:  11    -0.191357158754E+03    0.79002E-04   -0.41128E-04  9040   0.114E-01
   5 F= -.19135716E+03 E0= -.19126126E+03  d E =-.664614E+00
       N       E                     dE             d eps       ncg     rms          rms(c)
DAV:   1    -0.191452644405E+03   -0.95407E-01   -0.89389E+00  8160   0.631E+00    0.783E-01
DAV:   2    -0.191521778525E+03   -0.69134E-01   -0.32347E-01 12640   0.288E+00    0.224E+00
DAV:   3    -0.191465833930E+03    0.55945E-01   -0.11881E-01 12520   0.261E+00    0.546E-01
DAV:   4    -0.191463274673E+03    0.25593E-02   -0.11176E-02 10960   0.526E-01    0.344E-01
DAV:   5    -0.191462995271E+03    0.27940E-03   -0.65347E-03 11200   0.560E-01    0.417E-01
DAV:   6    -0.191461898617E+03    0.10967E-02   -0.53018E-03 11640   0.523E-01    0.229E-01
DAV:   7    -0.191461342401E+03    0.55622E-03   -0.17177E-03 11480   0.220E-01    0.725E-02
DAV:   8    -0.191461340522E+03    0.18783E-05   -0.46423E-04  9000   0.122E-01
   6 F= -.19146134E+03 E0= -.19136268E+03  d E =-.104182E+00
       N       E                     dE             d eps       ncg     rms          rms(c)
DAV:   1    -0.191480119672E+03   -0.18777E-01   -0.29777E-01  8160   0.116E+00    0.169E-01
DAV:   2    -0.191483474215E+03   -0.33545E-02   -0.14426E-02 12760   0.688E-01    0.516E-01
DAV:   3    -0.191480456320E+03    0.30179E-02   -0.53317E-03 11640   0.554E-01    0.950E-02
DAV:   4    -0.191480587814E+03   -0.13149E-03   -0.82008E-04  9040   0.172E-01    0.149E-01
DAV:   5    -0.191480396726E+03    0.19109E-03   -0.67693E-04  8640   0.178E-01    0.705E-02
DAV:   6    -0.191480371297E+03    0.25429E-04   -0.16368E-04  5960   0.733E-02
   7 F= -.19148037E+03 E0= -.19138134E+03  d E =-.190308E-01
       N       E                     dE             d eps       ncg     rms          rms(c)
DAV:   1    -0.191220445830E+03    0.25995E+00   -0.45366E+01  8160   0.143E+01    0.190E+00
DAV:   2    -0.191611376051E+03   -0.39093E+00   -0.19464E+00 13120   0.761E+00    0.494E+00
DAV:   3    -0.191274781760E+03    0.33659E+00   -0.45789E-01 12320   0.551E+00    0.928E-01
DAV:   4    -0.191266244256E+03    0.85375E-02   -0.51645E-02 12240   0.955E-01    0.736E-01
DAV:   5    -0.191261265524E+03    0.49787E-02   -0.28554E-02 12440   0.999E-01    0.726E-01
DAV:   6    -0.191262756973E+03   -0.14914E-02   -0.29693E-02 12520   0.127E+00    0.783E-01
DAV:   7    -0.191255807704E+03    0.69493E-02   -0.12054E-02 11960   0.739E-01    0.138E-01
DAV:   8    -0.191255633238E+03    0.17447E-03   -0.16723E-03 11560   0.200E-01    0.127E-01
DAV:   9    -0.191255601307E+03    0.31931E-04   -0.86208E-04  9640   0.196E-01
   8 F= -.19125560E+03 E0= -.19116701E+03  d E =0.224770E+00
       N       E                     dE             d eps       ncg     rms          rms(c)
DAV:   1    -0.191134209970E+03    0.12142E+00   -0.14511E+01  8160   0.809E+00    0.104E+00
DAV:   2    -0.191241824349E+03   -0.10761E+00   -0.56113E-01 13560   0.388E+00    0.267E+00
DAV:   3    -0.191150676066E+03    0.91148E-01   -0.14946E-01 12240   0.305E+00    0.608E-01
DAV:   4    -0.191148338479E+03    0.23376E-02   -0.19748E-02 11840   0.696E-01    0.524E-01
DAV:   5    -0.191146424204E+03    0.19143E-02   -0.12471E-02 11960   0.794E-01    0.507E-01
DAV:   6    -0.191144964190E+03    0.14600E-02   -0.85899E-03 12160   0.692E-01    0.312E-01
DAV:   7    -0.191143762201E+03    0.12020E-02   -0.28276E-03 11640   0.306E-01    0.837E-02
DAV:   8    -0.191143666827E+03    0.95374E-04   -0.52982E-04 10760   0.112E-01
   9 F= -.19114367E+03 E0= -.19106206E+03  d E =0.111934E+00
       N       E                     dE             d eps       ncg     rms          rms(c)
DAV:   1    -0.191140421804E+03    0.33404E-02   -0.18334E-02  8600   0.308E-01    0.719E-02
DAV:   2    -0.191141397398E+03   -0.97559E-03   -0.25629E-03 12360   0.332E-01    0.300E-01
DAV:   3    -0.191140383634E+03    0.10138E-02   -0.16028E-03 10120   0.288E-01    0.335E-02
DAV:   4    -0.191140422922E+03   -0.39288E-04   -0.80607E-05  5760   0.634E-02
  10 F= -.19114042E+03 E0= -.19105902E+03  d E =0.324391E-02
       N       E                     dE             d eps       ncg     rms          rms(c)
DAV:   1    -0.191165198894E+03   -0.24815E-01   -0.33407E+00  8160   0.391E+00    0.454E-01
DAV:   2    -0.191184160641E+03   -0.18962E-01   -0.12511E-01 13440   0.152E+00    0.112E+00
DAV:   3    -0.191171983189E+03    0.12177E-01   -0.34528E-02 12560   0.135E+00    0.400E-01
DAV:   4    -0.191170535722E+03    0.14475E-02   -0.48158E-03 11680   0.410E-01    0.222E-01
DAV:   5    -0.191170344153E+03    0.19157E-03   -0.27184E-03 12880   0.360E-01    0.237E-01
DAV:   6    -0.191170076238E+03    0.26791E-03   -0.22845E-03 11720   0.355E-01    0.160E-01
DAV:   7    -0.191169738800E+03    0.33744E-03   -0.90208E-04 10240   0.189E-01    0.767E-02
DAV:   8    -0.191169694596E+03    0.44203E-04   -0.21037E-04  7080   0.103E-01
  11 F= -.19116969E+03 E0= -.19108706E+03  d E =-.292717E-01
       N       E                     dE             d eps       ncg     rms          rms(c)
DAV:   1    -0.191173835163E+03   -0.40964E-02   -0.13223E+00  8160   0.247E+00    0.276E-01
DAV:   2    -0.191177461532E+03   -0.36264E-02   -0.33005E-02 13560   0.751E-01    0.525E-01
DAV:   3    -0.191175325314E+03    0.21362E-02   -0.94253E-03 12400   0.715E-01    0.291E-01
DAV:   4    -0.191174531115E+03    0.79420E-03   -0.20884E-03 11360   0.299E-01    0.127E-01
DAV:   5    -0.191174489791E+03    0.41323E-04   -0.10875E-03 10720   0.205E-01    0.146E-01
DAV:   6    -0.191174366375E+03    0.12342E-03   -0.82955E-04  9680   0.220E-01    0.103E-01
DAV:   7    -0.191174245257E+03    0.12112E-03   -0.30051E-04  8240   0.120E-01    0.467E-02
DAV:   8    -0.191174235774E+03    0.94830E-05   -0.10340E-04  6480   0.760E-02
  12 F= -.19117424E+03 E0= -.19109055E+03  d E =-.454118E-02
       N       E                     dE             d eps       ncg     rms          rms(c)
DAV:   1    -0.191197265672E+03   -0.23020E-01   -0.13636E+01  8160   0.796E+00    0.827E-01
DAV:   2    -0.191232614887E+03   -0.35349E-01   -0.31760E-01 13520   0.214E+00    0.154E+00
DAV:   3    -0.191214428567E+03    0.18186E-01   -0.80551E-02 12320   0.211E+00    0.856E-01
DAV:   4    -0.191207682632E+03    0.67459E-02   -0.17716E-02 12400   0.879E-01    0.371E-01
DAV:   5    -0.191205641053E+03    0.20416E-02   -0.76844E-03 12680   0.514E-01    0.283E-01
DAV:   6    -0.191206541220E+03   -0.90017E-03   -0.56447E-03 12080   0.605E-01    0.384E-01
DAV:   7    -0.191204628846E+03    0.19124E-02   -0.28946E-03 11720   0.403E-01    0.893E-02
DAV:   8    -0.191204608954E+03    0.19892E-04   -0.48104E-04  8920   0.138E-01
  13 F= -.19120461E+03 E0= -.19111576E+03  d E =-.303732E-01
       N       E                     dE             d eps       ncg     rms          rms(c)
DAV:   1    -0.191208255571E+03   -0.36267E-02   -0.52532E+01  8160   0.157E+01    0.185E+00
DAV:   2    -0.191572012353E+03   -0.36376E+00   -0.16301E+00 13280   0.665E+00    0.593E+00
DAV:   3    -0.191272031450E+03    0.29998E+00   -0.91803E-01 12200   0.647E+00    0.149E+00
DAV:   4    -0.191276984410E+03   -0.49530E-02   -0.11627E-01 12320   0.236E+00    0.169E+00
DAV:   5    -0.191246681861E+03    0.30303E-01   -0.79342E-02 12000   0.212E+00    0.857E-01
DAV:   6    -0.191240728772E+03    0.59531E-02   -0.32011E-02 12320   0.100E+00    0.549E-01
DAV:   7    -0.191243452727E+03   -0.27240E-02   -0.22291E-02 12720   0.110E+00    0.786E-01
DAV:   8    -0.191236271583E+03    0.71811E-02   -0.10033E-02 11800   0.740E-01    0.768E-02
DAV:   9    -0.191236354142E+03   -0.82558E-04   -0.67612E-04 10320   0.948E-02
  14 F= -.19123635E+03 E0= -.19115040E+03  d E =-.317452E-01
       N       E                     dE             d eps       ncg     rms          rms(c)
DAV:   1    -0.191319335931E+03   -0.83064E-01   -0.95539E+00  8160   0.652E+00    0.839E-01
DAV:   2    -0.191410163391E+03   -0.90827E-01   -0.36639E-01 13600   0.356E+00    0.267E+00
DAV:   3    -0.191330055567E+03    0.80108E-01   -0.14996E-01 12320   0.294E+00    0.468E-01
DAV:   4    -0.191329089605E+03    0.96596E-03   -0.11894E-02 11800   0.515E-01    0.426E-01
DAV:   5    -0.191327963462E+03    0.11261E-02   -0.78777E-03 12480   0.636E-01    0.430E-01
DAV:   6    -0.191326664816E+03    0.12986E-02   -0.54230E-03 12000   0.530E-01    0.215E-01
DAV:   7    -0.191326099847E+03    0.56497E-03   -0.14104E-03 11760   0.193E-01    0.440E-02
DAV:   8    -0.191326065022E+03    0.34824E-04   -0.17040E-04  6800   0.499E-02
  15 F= -.19132607E+03 E0= -.19123440E+03  d E =-.897109E-01
       N       E                     dE             d eps       ncg     rms          rms(c)
DAV:   1    -0.191149197517E+03    0.17690E+00   -0.28661E+01  8160   0.113E+01    0.147E+00
DAV:   2    -0.191409011577E+03   -0.25981E+00   -0.10946E+00 13080   0.608E+00    0.414E+00
DAV:   3    -0.191175534814E+03    0.23348E+00   -0.30762E-01 12320   0.453E+00    0.689E-01
DAV:   4    -0.191172771460E+03    0.27634E-02   -0.32330E-02 11760   0.755E-01    0.610E-01
DAV:   5    -0.191168420636E+03    0.43508E-02   -0.16163E-02 12360   0.788E-01    0.529E-01
DAV:   6    -0.191169113123E+03   -0.69249E-03   -0.14691E-02 12640   0.919E-01    0.552E-01
DAV:   7    -0.191165625462E+03    0.34877E-02   -0.60820E-03 11880   0.528E-01    0.952E-02
DAV:   8    -0.191165542887E+03    0.82575E-04   -0.81368E-04 10480   0.137E-01
  16 F= -.19116554E+03 E0= -.19108381E+03  d E =0.160522E+00
       N       E                     dE             d eps       ncg     rms          rms(c)
DAV:   1    -0.191221041145E+03   -0.55416E-01   -0.65429E+00  8160   0.545E+00    0.629E-01
DAV:   2    -0.191258776515E+03   -0.37735E-01   -0.19753E-01 13480   0.224E+00    0.168E+00
DAV:   3    -0.191228143949E+03    0.30633E-01   -0.71170E-02 12280   0.197E+00    0.470E-01
DAV:   4    -0.191228694697E+03   -0.55075E-03   -0.13939E-02 10760   0.734E-01    0.553E-01
DAV:   5    -0.191225730781E+03    0.29639E-02   -0.91730E-03 11120   0.682E-01    0.280E-01
DAV:   6    -0.191224956778E+03    0.77400E-03   -0.31504E-03 10920   0.314E-01    0.122E-01
DAV:   7    -0.191224756292E+03    0.20049E-03   -0.86289E-04 10840   0.120E-01    0.496E-02
DAV:   8    -0.191224727028E+03    0.29264E-04   -0.14269E-04  7360   0.788E-02
  17 F= -.19122473E+03 E0= -.19113922E+03  d E =-.591841E-01
       N       E                     dE             d eps       ncg     rms          rms(c)
DAV:   1    -0.191358736341E+03   -0.13398E+00   -0.24621E+01  8160   0.106E+01    0.137E+00
DAV:   2    -0.191557773268E+03   -0.19904E+00   -0.89652E-01 13280   0.535E+00    0.403E+00
DAV:   3    -0.191382781146E+03    0.17499E+00   -0.35189E-01 12400   0.459E+00    0.801E-01
DAV:   4    -0.191376461171E+03    0.63200E-02   -0.33402E-02 11800   0.897E-01    0.647E-01
DAV:   5    -0.191376440125E+03    0.21046E-04   -0.31989E-02 11520   0.116E+00    0.844E-01
DAV:   6    -0.191370350003E+03    0.60901E-02   -0.23360E-02 12000   0.986E-01    0.333E-01
DAV:   7    -0.191369065207E+03    0.12848E-02   -0.47330E-03 11480   0.332E-01    0.139E-01
DAV:   8    -0.191368999380E+03    0.65827E-04   -0.12499E-03 11000   0.241E-01    0.160E-01
DAV:   9    -0.191368752639E+03    0.24674E-03   -0.54495E-04  9080   0.172E-01    0.515E-02
DAV:  10    -0.191368724251E+03    0.28388E-04   -0.11221E-04  6480   0.533E-02
  18 F= -.19136872E+03 E0= -.19127466E+03  d E =-.143997E+00
       N       E                     dE             d eps       ncg     rms          rms(c)
DAV:   1    -0.191390511510E+03   -0.21759E-01   -0.15061E+00  8160   0.259E+00    0.296E-01
DAV:   2    -0.191399649552E+03   -0.91380E-02   -0.44796E-02 13320   0.101E+00    0.832E-01
DAV:   3    -0.191392333168E+03    0.73164E-02   -0.17198E-02 11880   0.955E-01    0.252E-01
DAV:   4    -0.191392371469E+03   -0.38301E-04   -0.29266E-03 11200   0.349E-01    0.259E-01
DAV:   5    -0.191391729719E+03    0.64175E-03   -0.16935E-03 10120   0.308E-01    0.123E-01
DAV:   6    -0.191391650045E+03    0.79674E-04   -0.68692E-04 10000   0.146E-01
  19 F= -.19139165E+03 E0= -.19129669E+03  d E =-.229258E-01
       N       E                     dE             d eps       ncg     rms          rms(c)
DAV:   1    -0.191446016279E+03   -0.54287E-01   -0.43951E+00  8160   0.446E+00    0.479E-01
DAV:   2    -0.191464485403E+03   -0.18469E-01   -0.11435E-01 12960   0.153E+00    0.112E+00
DAV:   3    -0.191451170755E+03    0.13315E-01   -0.34137E-02 12160   0.140E+00    0.416E-01
DAV:   4    -0.191450616854E+03    0.55390E-03   -0.73663E-03 11480   0.554E-01    0.372E-01
DAV:   5    -0.191449586663E+03    0.10302E-02   -0.47684E-03 11600   0.510E-01    0.263E-01
DAV:   6    -0.191448919340E+03    0.66732E-03   -0.21997E-03 10720   0.295E-01    0.106E-01
DAV:   7    -0.191448898867E+03    0.20472E-04   -0.72248E-04 10640   0.152E-01
  20 F= -.19144890E+03 E0= -.19135274E+03  d E =-.572488E-01
       N       E                     dE             d eps       ncg     rms          rms(c)
DAV:   1    -0.191438419927E+03    0.10499E-01   -0.34221E+00  8160   0.399E+00    0.429E-01
DAV:   2    -0.191446817723E+03   -0.83978E-02   -0.79892E-02 13560   0.109E+00    0.737E-01
DAV:   3    -0.191442804458E+03    0.40133E-02   -0.21769E-02 11800   0.107E+00    0.491E-01
DAV:   4    -0.191441358708E+03    0.14458E-02   -0.72475E-03 12080   0.580E-01    0.311E-01
DAV:   5    -0.191440706753E+03    0.65195E-03   -0.39640E-03 10160   0.477E-01    0.283E-01
DAV:   6    -0.191439996392E+03    0.71036E-03   -0.22267E-03 11640   0.338E-01    0.121E-01
DAV:   7    -0.191439825902E+03    0.17049E-03   -0.50478E-04 10280   0.107E-01    0.352E-02
DAV:   8    -0.191439802639E+03    0.23262E-04   -0.65365E-05  7000   0.341E-02
  21 F= -.19143980E+03 E0= -.19134285E+03  d E =0.909623E-02
       N       E                     dE             d eps       ncg     rms          rms(c)
DAV:   1    -0.191518435783E+03   -0.78610E-01   -0.12724E+01  8160   0.760E+00    0.101E+00
DAV:   2    -0.191643943718E+03   -0.12551E+00   -0.48865E-01 13600   0.416E+00    0.331E+00
DAV:   3    -0.191531686970E+03    0.11226E+00   -0.22745E-01 12320   0.352E+00    0.663E-01
DAV:   4    -0.191534385339E+03   -0.26984E-02   -0.28877E-02 12320   0.113E+00    0.892E-01
DAV:   5    -0.191527243782E+03    0.71416E-02   -0.19863E-02 11680   0.107E+00    0.469E-01
DAV:   6    -0.191524818792E+03    0.24250E-02   -0.72954E-03 10880   0.466E-01    0.184E-01
DAV:   7    -0.191524357994E+03    0.46080E-03   -0.18699E-03 11520   0.170E-01    0.851E-02
DAV:   8    -0.191524372403E+03   -0.14409E-04   -0.57810E-04  9760   0.151E-01
  22 F= -.19152437E+03 E0= -.19142369E+03  d E =-.845698E-01
       N       E                     dE             d eps       ncg     rms          rms(c)
DAV:   1    -0.191579092364E+03   -0.54734E-01   -0.37997E+00  8160   0.414E+00    0.466E-01
DAV:   2    -0.191600082846E+03   -0.20990E-01   -0.12193E-01 12640   0.162E+00    0.121E+00
DAV:   3    -0.191585139515E+03    0.14943E-01   -0.36805E-02 12360   0.142E+00    0.394E-01
DAV:   4    -0.191585167887E+03   -0.28372E-04   -0.70343E-03 11320   0.541E-01    0.425E-01
DAV:   5    -0.191583520137E+03    0.16477E-02   -0.45252E-03 11520   0.493E-01    0.192E-01
DAV:   6    -0.191583303022E+03    0.21712E-03   -0.16600E-03 11160   0.224E-01    0.123E-01
DAV:   7    -0.191583588836E+03   -0.28581E-03   -0.16027E-03 10520   0.264E-01    0.222E-01
DAV:   8    -0.191583076983E+03    0.51185E-03   -0.86015E-04  8640   0.204E-01    0.228E-02
DAV:   9    -0.191583094673E+03   -0.17690E-04   -0.50820E-05  5760   0.286E-02
  23 F= -.19158309E+03 E0= -.19148256E+03  d E =-.587223E-01
       N       E                     dE             d eps       ncg     rms          rms(c)
DAV:   1    -0.191628501885E+03   -0.45425E-01   -0.24998E+00  8160   0.335E+00    0.404E-01
DAV:   2    -0.191647746609E+03   -0.19245E-01   -0.86260E-02 13560   0.158E+00    0.122E+00
DAV:   3    -0.191631775577E+03    0.15971E-01   -0.30892E-02 12320   0.134E+00    0.287E-01
DAV:   4    -0.191632247050E+03   -0.47147E-03   -0.47620E-03 11160   0.458E-01    0.367E-01
DAV:   5    -0.191630953631E+03    0.12934E-02   -0.30575E-03 10640   0.416E-01    0.157E-01
DAV:   6    -0.191630796475E+03    0.15716E-03   -0.10389E-03 10120   0.167E-01    0.927E-02
DAV:   7    -0.191630788572E+03    0.79031E-05   -0.61625E-04  9720   0.141E-01
  24 F= -.19163079E+03 E0= -.19153027E+03  d E =-.476939E-01
       N       E                     dE             d eps       ncg     rms          rms(c)
DAV:   1    -0.191637532126E+03   -0.67357E-02   -0.17930E+00  8160   0.291E+00    0.320E-01
DAV:   2    -0.191640132793E+03   -0.26007E-02   -0.42486E-02 12600   0.627E-01    0.361E-01
DAV:   3    -0.191640855363E+03   -0.72257E-03   -0.11320E-02 12280   0.691E-01    0.492E-01
DAV:   4    -0.191638948340E+03    0.19070E-02   -0.64449E-03 12000   0.542E-01    0.226E-01
DAV:   5    -0.191638532748E+03    0.41559E-03   -0.22031E-03 10080   0.289E-01    0.186E-01
DAV:   6    -0.191638354460E+03    0.17829E-03   -0.12920E-03 10560   0.280E-01    0.127E-01
DAV:   7    -0.191638165647E+03    0.18881E-03   -0.38332E-04  8440   0.135E-01    0.455E-02
DAV:   8    -0.191638167049E+03   -0.14027E-05   -0.12520E-04  6800   0.837E-02
  25 F= -.19163817E+03 E0= -.19153858E+03  d E =-.737848E-02
       N       E                     dE             d eps       ncg     rms          rms(c)
DAV:   1    -0.191749615516E+03   -0.11145E+00   -0.20181E+01  8160   0.967E+00    0.109E+00
DAV:   2    -0.191856486522E+03   -0.10687E+00   -0.68410E-01 12880   0.382E+00    0.277E+00
DAV:   3    -0.191785758272E+03    0.70728E-01   -0.17877E-01 12160   0.328E+00    0.913E-01
DAV:   4    -0.191785878279E+03   -0.12001E-03   -0.36258E-02 12320   0.139E+00    0.102E+00
DAV:   5    -0.191774184081E+03    0.11694E-01   -0.21070E-02 11280   0.119E+00    0.373E-01
DAV:   6    -0.191773849975E+03    0.33411E-03   -0.92776E-03 12120   0.499E-01    0.279E-01
DAV:   7    -0.191773349230E+03    0.50075E-03   -0.53859E-03 11120   0.464E-01    0.335E-01
DAV:   8    -0.191772254722E+03    0.10945E-02   -0.21528E-03 10200   0.324E-01    0.572E-02
DAV:   9    -0.191772225702E+03    0.29021E-04   -0.17119E-04  5680   0.525E-02
  26 F= -.19177223E+03 E0= -.19167727E+03  d E =-.134059E+00
       N       E                     dE             d eps       ncg     rms          rms(c)
DAV:   1    -0.191864916989E+03   -0.92662E-01   -0.27690E+01  8160   0.115E+01    0.127E+00
DAV:   2    -0.191955715661E+03   -0.90799E-01   -0.99814E-01 13240   0.354E+00    0.196E+00
DAV:   3    -0.191933694771E+03    0.22021E-01   -0.14500E-01 12080   0.314E+00    0.134E+00
DAV:   4    -0.191913258183E+03    0.20437E-01   -0.36464E-02 12440   0.150E+00    0.782E-01
DAV:   5    -0.191910853522E+03    0.24047E-02   -0.24869E-02 11480   0.130E+00    0.695E-01
DAV:   6    -0.191906223538E+03    0.46300E-02   -0.15678E-02 12720   0.828E-01    0.264E-01
DAV:   7    -0.191905569102E+03    0.65444E-03   -0.40053E-03 11520   0.406E-01    0.248E-01
DAV:   8    -0.191904987785E+03    0.58132E-03   -0.14295E-03 10320   0.280E-01    0.837E-02
DAV:   9    -0.191904884191E+03    0.10359E-03   -0.34035E-04  7800   0.840E-02    0.391E-02
DAV:  10    -0.191904856646E+03    0.27545E-04   -0.16448E-04  7520   0.431E-02
  27 F= -.19190486E+03 E0= -.19181608E+03  d E =-.132631E+00
       N       E                     dE             d eps       ncg     rms          rms(c)
DAV:   1    -0.191945502369E+03   -0.40618E-01   -0.30126E+01  8160   0.118E+01    0.125E+00
DAV:   2    -0.192053401775E+03   -0.10790E+00   -0.10901E+00 12680   0.378E+00    0.215E+00
DAV:   3    -0.192022494232E+03    0.30908E-01   -0.16597E-01 12280   0.329E+00    0.127E+00
DAV:   4    -0.192003705284E+03    0.18789E-01   -0.34459E-02 12320   0.145E+00    0.718E-01
DAV:   5    -0.192001205779E+03    0.24995E-02   -0.19607E-02 12120   0.123E+00    0.620E-01
DAV:   6    -0.191998501990E+03    0.27038E-02   -0.17005E-02 12720   0.840E-01    0.431E-01
DAV:   7    -0.191996588981E+03    0.19130E-02   -0.52198E-03 12080   0.559E-01    0.185E-01
DAV:   8    -0.191996193866E+03    0.39511E-03   -0.10650E-03 10200   0.208E-01    0.638E-02
DAV:   9    -0.191996099640E+03    0.94227E-04   -0.38664E-04 10080   0.665E-02
  28 F= -.19199610E+03 E0= -.19191063E+03  d E =-.912430E-01
       N       E                     dE             d eps       ncg     rms          rms(c)
DAV:   1    -0.192009797009E+03   -0.13603E-01   -0.14775E+00  8160   0.254E+00    0.258E-01
DAV:   2    -0.192014953001E+03   -0.51560E-02   -0.56141E-02 12480   0.807E-01    0.341E-01
DAV:   3    -0.192014304630E+03    0.64837E-03   -0.71153E-03 11600   0.601E-01    0.315E-01
DAV:   4    -0.192013405785E+03    0.89884E-03   -0.25016E-03 11560   0.386E-01    0.157E-01
DAV:   5    -0.192013233079E+03    0.17271E-03   -0.10017E-03  9960   0.227E-01    0.128E-01
DAV:   6    -0.192013214716E+03    0.18363E-04   -0.70270E-04 11040   0.219E-01
  29 F= -.19201321E+03 E0= -.19192777E+03  d E =-.171151E-01
       N       E                     dE             d eps       ncg     rms          rms(c)
DAV:   1    -0.192017921136E+03   -0.46881E-02   -0.98696E+00  8160   0.665E+00    0.714E-01
DAV:   2    -0.192051667770E+03   -0.33747E-01   -0.40974E-01 11760   0.201E+00    0.838E-01
DAV:   3    -0.192052568938E+03   -0.90117E-03   -0.44584E-02 11840   0.171E+00    0.885E-01
DAV:   4    -0.192042899079E+03    0.96699E-02   -0.13701E-02 11640   0.991E-01    0.347E-01
DAV:   5    -0.192043074894E+03   -0.17581E-03   -0.68863E-03 11760   0.670E-01    0.399E-01
DAV:   6    -0.192042020014E+03    0.10549E-02   -0.56855E-03 12520   0.539E-01    0.211E-01
DAV:   7    -0.192041351898E+03    0.66812E-03   -0.20278E-03 11880   0.273E-01    0.133E-01
DAV:   8    -0.192041185806E+03    0.16609E-03   -0.51596E-04  9640   0.174E-01    0.511E-02
DAV:   9    -0.192041147493E+03    0.38313E-04   -0.94315E-05  6440   0.570E-02
  30 F= -.19204115E+03 E0= -.19195648E+03  d E =-.279328E-01
       N       E                     dE             d eps       ncg     rms          rms(c)
DAV:   1    -0.192045142534E+03   -0.39567E-02   -0.37828E-01  8160   0.132E+00    0.156E-01
DAV:   2    -0.192046450008E+03   -0.13075E-02   -0.16786E-02 10800   0.430E-01    0.203E-01
DAV:   3    -0.192046369511E+03    0.80497E-04   -0.26608E-03 12600   0.380E-01    0.205E-01
DAV:   4    -0.192045920833E+03    0.44868E-03   -0.99509E-04 10240   0.244E-01    0.799E-02
DAV:   5    -0.192045882168E+03    0.38665E-04   -0.32905E-04  7600   0.122E-01
  31 F= -.19204588E+03 E0= -.19196082E+03  d E =-.473468E-02
       N       E                     dE             d eps       ncg     rms          rms(c)
DAV:   1    -0.192048738005E+03   -0.28172E-02   -0.19961E-01  8160   0.956E-01    0.139E-01
DAV:   2    -0.192049797586E+03   -0.10596E-02   -0.99842E-03 12120   0.405E-01    0.243E-01
DAV:   3    -0.192049172936E+03    0.62465E-03   -0.16545E-03 11480   0.354E-01    0.111E-01
DAV:   4    -0.192049049357E+03    0.12358E-03   -0.39111E-04  8880   0.145E-01    0.773E-02
DAV:   5    -0.192049038383E+03    0.10973E-04   -0.29399E-04  9160   0.149E-01
  32 F= -.19204904E+03 E0= -.19196356E+03  d E =-.315622E-02
       N       E                     dE             d eps       ncg     rms          rms(c)
DAV:   1    -0.192051695675E+03   -0.26463E-02   -0.21645E-01  8160   0.989E-01    0.114E-01
DAV:   2    -0.192052449548E+03   -0.75387E-03   -0.96133E-03 11360   0.305E-01    0.118E-01
DAV:   3    -0.192052491713E+03   -0.42165E-04   -0.11868E-03 11480   0.247E-01    0.148E-01
DAV:   4    -0.192052273962E+03    0.21775E-03   -0.48904E-04  8920   0.186E-01    0.625E-02
DAV:   5    -0.192052241765E+03    0.32197E-04   -0.11979E-04  5920   0.765E-02
  33 F= -.19205224E+03 E0= -.19196716E+03  d E =-.320338E-02
       N       E                     dE             d eps       ncg     rms          rms(c)
DAV:   1    -0.192054345466E+03   -0.20715E-02   -0.11741E-01  8160   0.737E-01    0.119E-01
DAV:   2    -0.192055725357E+03   -0.13799E-02   -0.67081E-03 11000   0.457E-01    0.320E-01
DAV:   3    -0.192054526517E+03    0.11988E-02   -0.19225E-03 10960   0.374E-01    0.775E-02
DAV:   4    -0.192054574101E+03   -0.47584E-04   -0.34249E-04  8400   0.147E-01
  34 F= -.19205457E+03 E0= -.19196953E+03  d E =-.233234E-02
       N       E                     dE             d eps       ncg     rms          rms(c)
DAV:   1    -0.192056312391E+03   -0.17859E-02   -0.98541E-02  8160   0.680E-01    0.905E-02
DAV:   2    -0.192056604372E+03   -0.29198E-03   -0.38456E-03 12400   0.202E-01    0.106E-01
DAV:   3    -0.192056577605E+03    0.26767E-04   -0.57870E-04 10960   0.202E-01
  35 F= -.19205658E+03 E0= -.19197168E+03  d E =-.200350E-02
       N       E                     dE             d eps       ncg     rms          rms(c)
DAV:   1    -0.192058179793E+03   -0.15754E-02   -0.95536E-02  8160   0.670E-01    0.928E-02
DAV:   2    -0.192058428745E+03   -0.24895E-03   -0.34901E-03 12520   0.180E-01    0.104E-01
DAV:   3    -0.192058424178E+03    0.45668E-05   -0.68562E-04 10880   0.207E-01
  36 F= -.19205842E+03 E0= -.19197316E+03  d E =-.184657E-02
       N       E                     dE             d eps       ncg     rms          rms(c)
DAV:   1    -0.192059726444E+03   -0.12977E-02   -0.67846E-02  8160   0.571E-01    0.874E-02
DAV:   2    -0.192059900249E+03   -0.17381E-03   -0.26110E-03 12640   0.154E-01    0.832E-02
DAV:   3    -0.192059821284E+03    0.78965E-04   -0.42864E-04 10160   0.130E-01
  37 F= -.19205982E+03 E0= -.19197477E+03  d E =-.139711E-02
       N       E                     dE             d eps       ncg     rms          rms(c)
DAV:   1    -0.192061625571E+03   -0.17253E-02   -0.11351E-01  8160   0.737E-01    0.117E-01
DAV:   2    -0.192062527368E+03   -0.90180E-03   -0.55547E-03 13560   0.344E-01    0.252E-01
DAV:   3    -0.192061820832E+03    0.70654E-03   -0.17825E-03 10400   0.345E-01    0.103E-01
DAV:   4    -0.192061760142E+03    0.60690E-04   -0.30286E-04  8080   0.119E-01
  38 F= -.19206176E+03 E0= -.19197660E+03  d E =-.193886E-02
       N       E                     dE             d eps       ncg     rms          rms(c)
DAV:   1    -0.192062154737E+03   -0.33390E-03   -0.55134E-03 10720   0.196E-01    0.782E-02
DAV:   2    -0.192063306482E+03   -0.11517E-02   -0.21661E-03 11160   0.399E-01    0.321E-01
DAV:   3    -0.192062081795E+03    0.12247E-02   -0.14464E-03  9880   0.337E-01    0.352E-02
DAV:   4    -0.192062103963E+03   -0.22169E-04   -0.55349E-05  5680   0.653E-02
  39 F= -.19206210E+03 E0= -.19197707E+03  d E =-.343821E-03
       N       E                     dE             d eps       ncg     rms          rms(c)
DAV:   1    -0.192063788371E+03   -0.17066E-02   -0.11650E-01  8160   0.731E-01    0.941E-02
DAV:   2    -0.192064305045E+03   -0.51667E-03   -0.47732E-03 12160   0.272E-01    0.163E-01
DAV:   3    -0.192064064409E+03    0.24064E-03   -0.94172E-04 11000   0.251E-01    0.942E-02
DAV:   4    -0.192064000016E+03    0.64393E-04   -0.24350E-04  7040   0.123E-01
  40 F= -.19206400E+03 E0= -.19197882E+03  d E =-.189605E-02
       N       E                     dE             d eps       ncg     rms          rms(c)
DAV:   1    -0.192064159362E+03   -0.94953E-04   -0.13895E-03 12440   0.120E-01    0.528E-02
DAV:   2    -0.192064599415E+03   -0.44005E-03   -0.81559E-04 10480   0.254E-01    0.196E-01
DAV:   3    -0.192064122810E+03    0.47661E-03   -0.54831E-04  8680   0.213E-01    0.288E-02
DAV:   4    -0.192064134304E+03   -0.11494E-04   -0.36713E-05  5760   0.518E-02
  41 F= -.19206413E+03 E0= -.19197900E+03  d E =-.134287E-03
       N       E                     dE             d eps       ncg     rms          rms(c)
DAV:   1    -0.192066398285E+03   -0.22755E-02   -0.26444E-01  8160   0.111E+00    0.142E-01
DAV:   2    -0.192067610185E+03   -0.12119E-02   -0.11378E-02 12600   0.415E-01    0.258E-01
DAV:   3    -0.192067061997E+03    0.54819E-03   -0.24594E-03 11720   0.387E-01    0.149E-01
DAV:   4    -0.192066850352E+03    0.21164E-03   -0.54392E-04  8600   0.174E-01    0.764E-02
DAV:   5    -0.192066831554E+03    0.18798E-04   -0.26313E-04  7920   0.138E-01
  42 F= -.19206683E+03 E0= -.19198113E+03  d E =-.269725E-02
       N       E                     dE             d eps       ncg     rms          rms(c)
DAV:   1    -0.192064025496E+03    0.28249E-02   -0.23236E-01  8160   0.105E+00    0.139E-01
DAV:   2    -0.192065774851E+03   -0.17494E-02   -0.11527E-02 13520   0.492E-01    0.343E-01
DAV:   3    -0.192064562956E+03    0.12119E-02   -0.32900E-03 11360   0.444E-01    0.126E-01
DAV:   4    -0.192064403101E+03    0.15985E-03   -0.47150E-04  8840   0.141E-01    0.601E-02
DAV:   5    -0.192064362206E+03    0.40895E-04   -0.16999E-04  6320   0.950E-02
  43 F= -.19206436E+03 E0= -.19197924E+03  d E =0.246935E-02
       N       E                     dE             d eps       ncg     rms          rms(c)
DAV:   1    -0.192065898387E+03   -0.14953E-02   -0.11355E-01  8160   0.725E-01    0.100E-01
DAV:   2    -0.192067048681E+03   -0.11503E-02   -0.56277E-03 13400   0.390E-01    0.277E-01
DAV:   3    -0.192066116857E+03    0.93182E-03   -0.15991E-03 10560   0.337E-01    0.685E-02
DAV:   4    -0.192066123081E+03   -0.62247E-05   -0.22469E-04  6600   0.117E-01
  44 F= -.19206612E+03 E0= -.19198091E+03  d E =-.176088E-02
       N       E                     dE             d eps       ncg     rms          rms(c)
DAV:   1    -0.192066241727E+03   -0.12487E-03   -0.11389E-03 12040   0.119E-01    0.373E-02
DAV:   2    -0.192066402207E+03   -0.16048E-03   -0.34705E-04  9120   0.155E-01    0.116E-01
DAV:   3    -0.192066227895E+03    0.17431E-03   -0.22362E-04  7480   0.138E-01    0.251E-02
DAV:   4    -0.192066232678E+03   -0.47835E-05   -0.27039E-05  5680   0.403E-02
  45 F= -.19206623E+03 E0= -.19198108E+03  d E =-.109597E-03
       N       E                     dE             d eps       ncg     rms          rms(c)
DAV:   1    -0.192067967872E+03   -0.17400E-02   -0.14691E-01  8160   0.830E-01    0.123E-01
DAV:   2    -0.192069445678E+03   -0.14778E-02   -0.77927E-03 12720   0.463E-01    0.339E-01
DAV:   3    -0.192068206065E+03    0.12396E-02   -0.25688E-03 11120   0.403E-01    0.871E-02
DAV:   4    -0.192068156157E+03    0.49909E-04   -0.29482E-04  8240   0.115E-01
  46 F= -.19206816E+03 E0= -.19198279E+03  d E =-.192348E-02
       N       E                     dE             d eps       ncg     rms          rms(c)
DAV:   1    -0.192069309591E+03   -0.11035E-02   -0.52597E-02  8160   0.522E-01    0.105E-01
DAV:   2    -0.192070319936E+03   -0.10103E-02   -0.34196E-03 13440   0.390E-01    0.286E-01
DAV:   3    -0.192069276237E+03    0.10437E-02   -0.13963E-03 10880   0.346E-01    0.607E-02
DAV:   4    -0.192069311638E+03   -0.35401E-04   -0.22954E-04  7120   0.109E-01
  47 F= -.19206931E+03 E0= -.19198368E+03  d E =-.115548E-02
       N       E                     dE             d eps       ncg     rms          rms(c)
DAV:   1    -0.192070430707E+03   -0.11545E-02   -0.58426E-02  8160   0.528E-01    0.790E-02
DAV:   2    -0.192070614181E+03   -0.18347E-03   -0.23241E-03 12640   0.169E-01    0.114E-01
DAV:   3    -0.192070556979E+03    0.57201E-04   -0.64904E-04  9960   0.201E-01
  48 F= -.19207056E+03 E0= -.19198459E+03  d E =-.124534E-02
       N       E                     dE             d eps       ncg     rms          rms(c)
DAV:   1    -0.192070729628E+03   -0.11545E-03   -0.68416E-03  8720   0.207E-01    0.451E-02
DAV:   2    -0.192070851293E+03   -0.12167E-03   -0.44742E-04  9880   0.136E-01    0.102E-01
DAV:   3    -0.192070727235E+03    0.12406E-03   -0.26693E-04  8680   0.142E-01    0.437E-02
DAV:   4    -0.192070712374E+03    0.14861E-04   -0.50032E-05  5840   0.542E-02
  49 F= -.19207071E+03 E0= -.19198496E+03  d E =-.155395E-03
       N       E                     dE             d eps       ncg     rms          rms(c)
DAV:   1    -0.192071788713E+03   -0.10615E-02   -0.49251E-02  8160   0.479E-01    0.785E-02
DAV:   2    -0.192072379321E+03   -0.59061E-03   -0.26924E-03 12040   0.310E-01    0.210E-01
DAV:   3    -0.192071840498E+03    0.53882E-03   -0.84044E-04 10000   0.255E-01    0.481E-02
DAV:   4    -0.192071860520E+03   -0.20021E-04   -0.12010E-04  5760   0.917E-02
  50 F= -.19207186E+03 E0= -.19198598E+03  d E =-.114815E-02
       N       E                     dE             d eps       ncg     rms          rms(c)
DAV:   1    -0.192073012672E+03   -0.11722E-02   -0.61743E-02  8160   0.540E-01    0.746E-02
DAV:   2    -0.192073243616E+03   -0.23094E-03   -0.23938E-03 13320   0.173E-01    0.117E-01
DAV:   3    -0.192073155490E+03    0.88125E-04   -0.55036E-04  9880   0.192E-01
  51 F= -.19207316E+03 E0= -.19198716E+03  d E =-.129497E-02
       N       E                     dE             d eps       ncg     rms          rms(c)
DAV:   1    -0.192073039957E+03    0.20366E-03   -0.15184E-03 10280   0.116E-01    0.303E-02
DAV:   2    -0.192073091808E+03   -0.51850E-04   -0.15484E-04  6520   0.852E-02
  52 F= -.19207309E+03 E0= -.19198722E+03  d E =0.636824E-04
       N       E                     dE             d eps       ncg     rms          rms(c)
DAV:   1    -0.192073393563E+03   -0.35361E-03   -0.57136E-03  8160   0.183E-01    0.395E-02
DAV:   2    -0.192073559813E+03   -0.16625E-03   -0.49663E-04 10200   0.159E-01    0.121E-01
DAV:   3    -0.192073379648E+03    0.18016E-03   -0.23525E-04  7440   0.138E-01    0.200E-02
DAV:   4    -0.192073389106E+03   -0.94575E-05   -0.27083E-05  5760   0.378E-02
  53 F= -.19207339E+03 E0= -.19198750E+03  d E =-.297298E-03
       N       E                     dE             d eps       ncg     rms          rms(c)
DAV:   1    -0.192074777064E+03   -0.13974E-02   -0.93648E-02  8160   0.660E-01    0.852E-02
DAV:   2    -0.192075322479E+03   -0.54542E-03   -0.36657E-03 12680   0.273E-01    0.193E-01
DAV:   3    -0.192074942934E+03    0.37954E-03   -0.94409E-04 10680   0.248E-01    0.705E-02
DAV:   4    -0.192074913978E+03    0.28956E-04   -0.11912E-04  5560   0.891E-02
  54 F= -.19207491E+03 E0= -.19198880E+03  d E =-.152487E-02
       N       E                     dE             d eps       ncg     rms          rms(c)
DAV:   1    -0.192074364032E+03    0.57890E-03   -0.10264E-02  8160   0.233E-01    0.387E-02
DAV:   2    -0.192074618491E+03   -0.25446E-03   -0.71078E-04 10760   0.187E-01    0.132E-01
DAV:   3    -0.192074382013E+03    0.23648E-03   -0.24973E-04  8240   0.152E-01    0.953E-03
DAV:   4    -0.192074390763E+03   -0.87495E-05   -0.19006E-05  5680   0.277E-02
  55 F= -.19207439E+03 E0= -.19198841E+03  d E =0.523215E-03
       N       E                     dE             d eps       ncg     rms          rms(c)
DAV:   1    -0.192074888402E+03   -0.50639E-03   -0.15668E-02  8160   0.276E-01    0.498E-02
DAV:   2    -0.192075059483E+03   -0.17108E-03   -0.10306E-03 11000   0.176E-01    0.125E-01
DAV:   3    -0.192074889606E+03    0.16988E-03   -0.33561E-04  8400   0.151E-01    0.354E-02
DAV:   4    -0.192074888616E+03    0.99025E-06   -0.51803E-05  5440   0.605E-02
  56 F= -.19207489E+03 E0= -.19198889E+03  d E =-.497853E-03
       N       E                     dE             d eps       ncg     rms          rms(c)
DAV:   1    -0.192075679757E+03   -0.79015E-03   -0.24909E-02  8160   0.348E-01    0.600E-02
DAV:   2    -0.192075795791E+03   -0.11603E-03   -0.12194E-03 11520   0.175E-01    0.105E-01
DAV:   3    -0.192075670874E+03    0.12492E-03   -0.27020E-04  8840   0.149E-01    0.421E-02
DAV:   4    -0.192075655486E+03    0.15388E-04   -0.71584E-05  6160   0.612E-02
  57 F= -.19207566E+03 E0= -.19198954E+03  d E =-.766870E-03
       N       E                     dE             d eps       ncg     rms          rms(c)
DAV:   1    -0.192075073025E+03    0.59785E-03   -0.15461E-02  8160   0.280E-01    0.557E-02
DAV:   2    -0.192075487418E+03   -0.41439E-03   -0.12464E-03 12000   0.251E-01    0.189E-01
DAV:   3    -0.192075053441E+03    0.43398E-03   -0.50823E-04  8880   0.207E-01    0.257E-02
DAV:   4    -0.192075077215E+03   -0.23774E-04   -0.55991E-05  5560   0.655E-02
  58 F= -.19207508E+03 E0= -.19198905E+03  d E =0.578271E-03
       N       E                     dE             d eps       ncg     rms          rms(c)
DAV:   1    -0.192075137163E+03   -0.83722E-04   -0.23873E-02  8160   0.381E-01    0.103E-01
DAV:   2    -0.192075155440E+03   -0.18277E-04   -0.18792E-03 11440   0.242E-01    0.163E-01
DAV:   3    -0.192074874504E+03    0.28094E-03   -0.75723E-04  9760   0.243E-01    0.707E-02
DAV:   4    -0.192074812970E+03    0.61534E-04   -0.23257E-04  6640   0.103E-01
  59 F= -.19207481E+03 E0= -.19198918E+03  d E =0.264245E-03
       N       E                     dE             d eps       ncg     rms          rms(c)
DAV:   1    -0.192076776944E+03   -0.19024E-02   -0.10855E-01  8160   0.747E-01    0.134E-01
DAV:   2    -0.192077126569E+03   -0.34963E-03   -0.55312E-03 11520   0.345E-01    0.212E-01
DAV:   3    -0.192076669092E+03    0.45748E-03   -0.13833E-03 11080   0.319E-01    0.104E-01
DAV:   4    -0.192076591812E+03    0.77280E-04   -0.51086E-04  9120   0.162E-01
  60 F= -.19207659E+03 E0= -.19199019E+03  d E =-.177884E-02
       N       E                     dE             d eps       ncg     rms          rms(c)
DAV:   1    -0.192076156741E+03    0.51235E-03   -0.87946E-02  8160   0.712E-01    0.195E-01
DAV:   2    -0.192078584970E+03   -0.24282E-02   -0.99008E-03 11440   0.732E-01    0.515E-01
DAV:   3    -0.192075426174E+03    0.31588E-02   -0.47897E-03 11440   0.606E-01    0.116E-01
DAV:   4    -0.192075694654E+03   -0.26848E-03   -0.12128E-03  9640   0.289E-01    0.203E-01
DAV:   5    -0.192075221741E+03    0.47291E-03   -0.87472E-04  9640   0.250E-01    0.654E-02
DAV:   6    -0.192075165285E+03    0.56456E-04   -0.19345E-04  5440   0.857E-02
  61 F= -.19207517E+03 E0= -.19198961E+03  d E =0.142653E-02
       N       E                     dE             d eps       ncg     rms          rms(c)
DAV:   1    -0.192084133914E+03   -0.89122E-02   -0.80387E-01  8160   0.207E+00    0.459E-01
DAV:   2    -0.192085985806E+03   -0.18519E-02   -0.48978E-02 12320   0.108E+00    0.738E-01
DAV:   3    -0.192081299042E+03    0.46868E-02   -0.18299E-02 12040   0.114E+00    0.422E-01
DAV:   4    -0.192080034682E+03    0.12644E-02   -0.77645E-03 12240   0.661E-01    0.361E-01
DAV:   5    -0.192079131094E+03    0.90359E-03   -0.48920E-03 10440   0.580E-01    0.284E-01
DAV:   6    -0.192078124021E+03    0.10071E-02   -0.22396E-03 11520   0.340E-01    0.860E-02
DAV:   7    -0.192078118243E+03    0.57771E-05   -0.52570E-04  8680   0.162E-01
  62 F= -.19207812E+03 E0= -.19199136E+03  d E =-.295296E-02
       N       E                     dE             d eps       ncg     rms          rms(c)
DAV:   1    -0.192081085665E+03   -0.29616E-02   -0.18884E-01  8160   0.103E+00    0.283E-01
DAV:   2    -0.192081193545E+03   -0.10788E-03   -0.13989E-02 11440   0.663E-01    0.449E-01
DAV:   3    -0.192079216627E+03    0.19769E-02   -0.59960E-03 11120   0.679E-01    0.228E-01
DAV:   4    -0.192078890390E+03    0.32624E-03   -0.28790E-03 11440   0.389E-01    0.231E-01
DAV:   5    -0.192078565172E+03    0.32522E-03   -0.19830E-03 10040   0.368E-01    0.173E-01
DAV:   6    -0.192078163110E+03    0.40206E-03   -0.71282E-04  9720   0.190E-01    0.380E-02
DAV:   7    -0.192078175850E+03   -0.12740E-04   -0.11037E-04  6200   0.790E-02
  63 F= -.19207818E+03 E0= -.19199197E+03  d E =-.576067E-04
       N       E                     dE             d eps       ncg     rms          rms(c)
DAV:   1    -0.192079575686E+03   -0.14126E-02   -0.90299E-02  8160   0.651E-01    0.834E-02
DAV:   2    -0.192079839260E+03   -0.26357E-03   -0.35703E-03 11520   0.193E-01    0.106E-01
DAV:   3    -0.192079838060E+03    0.12003E-05   -0.62388E-04  9960   0.206E-01
  64 F= -.19207984E+03 E0= -.19199345E+03  d E =-.166221E-02
       N       E                     dE             d eps       ncg     rms          rms(c)
DAV:   1    -0.192078425409E+03    0.14139E-02   -0.59271E-02  8160   0.542E-01    0.804E-02
DAV:   2    -0.192079614704E+03   -0.11893E-02   -0.39725E-03 12720   0.381E-01    0.313E-01
DAV:   3    -0.192078524417E+03    0.10903E-02   -0.16182E-03  9640   0.328E-01    0.309E-02
DAV:   4    -0.192078532391E+03   -0.79733E-05   -0.44429E-05  5440   0.441E-02
  65 F= -.19207853E+03 E0= -.19199234E+03  d E =0.130567E-02
       N       E                     dE             d eps       ncg     rms          rms(c)
DAV:   1    -0.192078519656E+03    0.47613E-05   -0.49130E-03  8160   0.172E-01    0.599E-02
DAV:   2    -0.192078740512E+03   -0.22086E-03   -0.77068E-04 10440   0.224E-01    0.159E-01
DAV:   3    -0.192078431894E+03    0.30862E-03   -0.39264E-04  9040   0.182E-01    0.322E-02
DAV:   4    -0.192078449231E+03   -0.17337E-04   -0.73267E-05  5560   0.757E-02
  66 F= -.19207845E+03 E0= -.19199224E+03  d E =0.831596E-04
       N       E                     dE             d eps       ncg     rms          rms(c)
DAV:   1    -0.192079812617E+03   -0.13807E-02   -0.87972E-02  8160   0.642E-01    0.859E-02
DAV:   2    -0.192080473555E+03   -0.66094E-03   -0.37782E-03 12680   0.319E-01    0.220E-01
DAV:   3    -0.192079940802E+03    0.53275E-03   -0.11122E-03 10400   0.270E-01    0.606E-02
DAV:   4    -0.192079953282E+03   -0.12480E-04   -0.16226E-04  6120   0.104E-01
  67 F= -.19207995E+03 E0= -.19199390E+03  d E =-.150405E-02
       N       E                     dE             d eps       ncg     rms          rms(c)
DAV:   1    -0.192080531875E+03   -0.59107E-03   -0.15132E-02  8160   0.294E-01    0.535E-02
DAV:   2    -0.192080646939E+03   -0.11506E-03   -0.79716E-04 11960   0.134E-01    0.988E-02
DAV:   3    -0.192080539712E+03    0.10723E-03   -0.28192E-04  8920   0.142E-01    0.517E-02
DAV:   4    -0.192080532032E+03    0.76801E-05   -0.82262E-05  5640   0.718E-02
  68 F= -.19208053E+03 E0= -.19199424E+03  d E =-.578750E-03
       N       E                     dE             d eps       ncg     rms          rms(c)
DAV:   1    -0.192080254957E+03    0.28476E-03   -0.28093E-03  9440   0.139E-01    0.290E-02
DAV:   2    -0.192080398468E+03   -0.14351E-03   -0.32716E-04  9440   0.145E-01    0.108E-01
DAV:   3    -0.192080247391E+03    0.15108E-03   -0.17947E-04  6480   0.125E-01    0.163E-02
DAV:   4    -0.192080253411E+03   -0.60205E-05   -0.24404E-05  5640   0.295E-02
  69 F= -.19208025E+03 E0= -.19199407E+03  d E =0.278621E-03
       N       E                     dE             d eps       ncg     rms          rms(c)
DAV:   1    -0.192081535202E+03   -0.12878E-02   -0.75319E-02  8160   0.591E-01    0.764E-02
DAV:   2    -0.192081946380E+03   -0.41118E-03   -0.32569E-03 11640   0.238E-01    0.156E-01
DAV:   3    -0.192081711960E+03    0.23442E-03   -0.74242E-04  9960   0.218E-01    0.715E-02
DAV:   4    -0.192081675527E+03    0.36432E-04   -0.11748E-04  5520   0.885E-02
  70 F= -.19208168E+03 E0= -.19199544E+03  d E =-.142212E-02
       N       E                     dE             d eps       ncg     rms          rms(c)
DAV:   1    -0.192081391266E+03    0.32069E-03   -0.27439E-03  8480   0.137E-01    0.343E-02
DAV:   2    -0.192081604165E+03   -0.21290E-03   -0.42142E-04  9560   0.173E-01    0.127E-01
DAV:   3    -0.192081389001E+03    0.21516E-03   -0.22497E-04  7400   0.144E-01    0.123E-02
DAV:   4    -0.192081396824E+03   -0.78222E-05   -0.18030E-05  5600   0.275E-02
  71 F= -.19208140E+03 E0= -.19199525E+03  d E =0.278704E-03
       N       E                     dE             d eps       ncg     rms          rms(c)
DAV:   1    -0.192080982107E+03    0.40689E-03   -0.22783E-02  8160   0.328E-01    0.567E-02
DAV:   2    -0.192081274843E+03   -0.29274E-03   -0.12794E-03 12440   0.212E-01    0.157E-01
DAV:   3    -0.192080980324E+03    0.29452E-03   -0.47938E-04  8680   0.188E-01    0.377E-02
DAV:   4    -0.192080994644E+03   -0.14320E-04   -0.88575E-05  5440   0.736E-02
  72 F= -.19208099E+03 E0= -.19199500E+03  d E =0.402180E-03
       N       E                     dE             d eps       ncg     rms          rms(c)
DAV:   1    -0.192082370273E+03   -0.13899E-02   -0.87485E-02  8160   0.648E-01    0.781E-02
DAV:   2    -0.192082685073E+03   -0.31480E-03   -0.34050E-03 11400   0.188E-01    0.109E-01
DAV:   3    -0.192082593627E+03    0.91446E-04   -0.47252E-04 10200   0.189E-01
  73 F= -.19208259E+03 E0= -.19199631E+03  d E =-.159898E-02
       N       E                     dE             d eps       ncg     rms          rms(c)
DAV:   1    -0.192082096778E+03    0.58829E-03   -0.77744E-03  9000   0.238E-01    0.542E-02
DAV:   2    -0.192082596518E+03   -0.49974E-03   -0.11776E-03 10320   0.264E-01    0.214E-01
DAV:   3    -0.192082065179E+03    0.53134E-03   -0.70381E-04  8560   0.225E-01    0.222E-02
DAV:   4    -0.192082082569E+03   -0.17390E-04   -0.40444E-05  5440   0.471E-02
  74 F= -.19208208E+03 E0= -.19199595E+03  d E =0.511058E-03
       N       E                     dE             d eps       ncg     rms          rms(c)
DAV:   1    -0.192082852534E+03   -0.78736E-03   -0.40199E-02  8160   0.447E-01    0.749E-02
DAV:   2    -0.192083028804E+03   -0.17627E-03   -0.21727E-03 11320   0.190E-01    0.127E-01
DAV:   3    -0.192082903911E+03    0.12489E-03   -0.61157E-04  9480   0.197E-01    0.823E-02
DAV:   4    -0.192082832687E+03    0.71224E-04   -0.15688E-04  5520   0.101E-01
  75 F= -.19208283E+03 E0= -.19199697E+03  d E =-.750119E-03
       N       E                     dE             d eps       ncg     rms          rms(c)
DAV:   1    -0.192083834699E+03   -0.93079E-03   -0.38101E-02  8160   0.466E-01    0.140E-01
DAV:   2    -0.192084210981E+03   -0.37628E-03   -0.33918E-03 11440   0.399E-01    0.277E-01
DAV:   3    -0.192083310751E+03    0.90023E-03   -0.16356E-03 11320   0.363E-01    0.799E-02
DAV:   4    -0.192083273746E+03    0.37006E-04   -0.50405E-04  8840   0.148E-01
  76 F= -.19208327E+03 E0= -.19199698E+03  d E =-.441059E-03
       N       E                     dE             d eps       ncg     rms          rms(c)
DAV:   1    -0.192084871418E+03   -0.15607E-02   -0.11539E-01  8160   0.787E-01    0.157E-01
DAV:   2    -0.192085221530E+03   -0.35011E-03   -0.65353E-03 11680   0.338E-01    0.245E-01
DAV:   3    -0.192084850700E+03    0.37083E-03   -0.28199E-03 11480   0.419E-01    0.196E-01
DAV:   4    -0.192084412343E+03    0.43836E-03   -0.85395E-04  9520   0.204E-01    0.610E-02
DAV:   5    -0.192084463506E+03   -0.51163E-04   -0.38712E-04  9120   0.154E-01
  77 F= -.19208446E+03 E0= -.19199793E+03  d E =-.118976E-02
       N       E                     dE             d eps       ncg     rms          rms(c)
DAV:   1    -0.192085286247E+03   -0.87390E-03   -0.18943E-02  8160   0.325E-01    0.834E-02
DAV:   2    -0.192085460735E+03   -0.17449E-03   -0.15111E-03 11240   0.239E-01    0.171E-01
DAV:   3    -0.192085151783E+03    0.30895E-03   -0.70437E-04  9080   0.229E-01    0.668E-02
DAV:   4    -0.192085124319E+03    0.27464E-04   -0.22001E-04  6760   0.110E-01
  78 F= -.19208512E+03 E0= -.19199881E+03  d E =-.660813E-03
       N       E                     dE             d eps       ncg     rms          rms(c)
DAV:   1    -0.192087714264E+03   -0.25625E-02   -0.20413E-01  8160   0.102E+00    0.194E-01
DAV:   2    -0.192088713029E+03   -0.99876E-03   -0.11012E-02 11760   0.533E-01    0.358E-01
DAV:   3    -0.192087480519E+03    0.12325E-02   -0.36718E-03 12240   0.503E-01    0.167E-01
DAV:   4    -0.192087300980E+03    0.17954E-03   -0.12524E-03  9920   0.263E-01    0.144E-01
DAV:   5    -0.192087199553E+03    0.10143E-03   -0.85287E-04 10040   0.252E-01    0.119E-01
DAV:   6    -0.192087026220E+03    0.17333E-03   -0.38379E-04  8320   0.142E-01    0.377E-02
DAV:   7    -0.192087038339E+03   -0.12119E-04   -0.91558E-05  6520   0.832E-02
  79 F= -.19208704E+03 E0= -.19200119E+03  d E =-.191402E-02
       N       E                     dE             d eps       ncg     rms          rms(c)
DAV:   1    -0.192087920205E+03   -0.89398E-03   -0.27852E-02  8160   0.377E-01    0.101E-01
DAV:   2    -0.192088585115E+03   -0.66491E-03   -0.26983E-03 11600   0.380E-01    0.269E-01
DAV:   3    -0.192087729786E+03    0.85533E-03   -0.12415E-03 10120   0.314E-01    0.593E-02
DAV:   4    -0.192087780787E+03   -0.51000E-04   -0.29443E-04  8720   0.141E-01
  80 F= -.19208778E+03 E0= -.19200209E+03  d E =-.742448E-03
       N       E                     dE             d eps       ncg     rms          rms(c)
DAV:   1    -0.192089741482E+03   -0.20117E-02   -0.13803E-01  8160   0.836E-01    0.137E-01
DAV:   2    -0.192090122039E+03   -0.38056E-03   -0.63669E-03 11000   0.311E-01    0.198E-01
DAV:   3    -0.192089876213E+03    0.24583E-03   -0.19133E-03 11760   0.343E-01    0.156E-01
DAV:   4    -0.192089620844E+03    0.25537E-03   -0.62902E-04  8760   0.195E-01    0.718E-02
DAV:   5    -0.192089606809E+03    0.14034E-04   -0.32266E-04  7720   0.134E-01
  81 F= -.19208961E+03 E0= -.19200359E+03  d E =-.182602E-02
       N       E                     dE             d eps       ncg     rms          rms(c)
DAV:   1    -0.192090339069E+03   -0.71823E-03   -0.17564E-02  8160   0.306E-01    0.449E-02
DAV:   2    -0.192090453615E+03   -0.11455E-03   -0.78994E-04 10840   0.126E-01    0.881E-02
DAV:   3    -0.192090367855E+03    0.85761E-04   -0.22066E-04  8520   0.127E-01
  82 F= -.19209037E+03 E0= -.19200469E+03  d E =-.761045E-03
       N       E                     dE             d eps       ncg     rms          rms(c)
DAV:   1    -0.192092004168E+03   -0.15506E-02   -0.73391E-02  8160   0.588E-01    0.102E-01
DAV:   2    -0.192093150166E+03   -0.11460E-02   -0.43442E-03 11160   0.416E-01    0.312E-01
DAV:   3    -0.192092050612E+03    0.10996E-02   -0.15402E-03 10240   0.339E-01    0.576E-02
DAV:   4    -0.192092083399E+03   -0.32787E-04   -0.20044E-04  7240   0.114E-01
  83 F= -.19209208E+03 E0= -.19200660E+03  d E =-.171554E-02
       N       E                     dE             d eps       ncg     rms          rms(c)
DAV:   1    -0.192094101122E+03   -0.20505E-02   -0.10169E-01  8160   0.702E-01    0.102E-01
DAV:   2    -0.192094430427E+03   -0.32931E-03   -0.38602E-03 12120   0.229E-01    0.147E-01
DAV:   3    -0.192094307483E+03    0.12294E-03   -0.10303E-03 11160   0.254E-01    0.116E-01
DAV:   4    -0.192094186332E+03    0.12115E-03   -0.29675E-04  7760   0.130E-01    0.551E-02
DAV:   5    -0.192094185552E+03    0.77999E-06   -0.13816E-04  6520   0.101E-01
  84 F= -.19209419E+03 E0= -.19200911E+03  d E =-.210215E-02
       N       E                     dE             d eps       ncg     rms          rms(c)
DAV:   1    -0.192094324074E+03   -0.13774E-03   -0.87556E-04 10280   0.103E-01    0.348E-02
DAV:   2    -0.192094522523E+03   -0.19845E-03   -0.39186E-04  9160   0.163E-01    0.133E-01
DAV:   3    -0.192094307654E+03    0.21487E-03   -0.24728E-04  7960   0.145E-01    0.207E-02
DAV:   4    -0.192094309900E+03   -0.22457E-05   -0.16793E-05  5760   0.242E-02
  85 F= -.19209431E+03 E0= -.19200936E+03  d E =-.124348E-03
       N       E                     dE             d eps       ncg     rms          rms(c)
DAV:   1    -0.192096956163E+03   -0.26485E-02   -0.16290E-01  8160   0.872E-01    0.106E-01
DAV:   2    -0.192097386759E+03   -0.43060E-03   -0.51365E-03 11080   0.256E-01    0.148E-01
DAV:   3    -0.192097291787E+03    0.94972E-04   -0.10847E-03 11080   0.260E-01    0.124E-01
DAV:   4    -0.192097152183E+03    0.13960E-03   -0.32625E-04  7840   0.144E-01    0.605E-02
DAV:   5    -0.192097139906E+03    0.12277E-04   -0.14843E-04  6520   0.111E-01
  86 F= -.19209714E+03 E0= -.19201268E+03  d E =-.283001E-02
       N       E                     dE             d eps       ncg     rms          rms(c)
DAV:   1    -0.192094114456E+03    0.30377E-02   -0.15890E-01  8160   0.862E-01    0.100E-01
DAV:   2    -0.192094514559E+03   -0.40010E-03   -0.50142E-03 10680   0.211E-01    0.120E-01
DAV:   3    -0.192094479572E+03    0.34986E-04   -0.96065E-04 10840   0.229E-01
  87 F= -.19209448E+03 E0= -.19200967E+03  d E =0.266033E-02
       N       E                     dE             d eps       ncg     rms          rms(c)
DAV:   1    -0.192095206119E+03   -0.69156E-03   -0.54758E-02  8160   0.516E-01    0.651E-02
DAV:   2    -0.192095450085E+03   -0.24397E-03   -0.27947E-03 10560   0.152E-01    0.675E-02
DAV:   3    -0.192095351357E+03    0.98728E-04   -0.34959E-04 10160   0.880E-02
  88 F= -.19209535E+03 E0= -.19201065E+03  d E =-.871785E-03
       N       E                     dE             d eps       ncg     rms          rms(c)
DAV:   1    -0.192093873831E+03    0.15763E-02   -0.50468E-02  8160   0.500E-01    0.766E-02
DAV:   2    -0.192094082685E+03   -0.20885E-03   -0.21382E-03 12160   0.188E-01    0.126E-01
DAV:   3    -0.192093940460E+03    0.14222E-03   -0.53466E-04  9120   0.200E-01    0.799E-02
DAV:   4    -0.192093892921E+03    0.47540E-04   -0.16940E-04  6720   0.102E-01
  89 F= -.19209389E+03 E0= -.19200910E+03  d E =0.145844E-02
       N       E                     dE             d eps       ncg     rms          rms(c)
DAV:   1    -0.192096747092E+03   -0.28066E-02   -0.18957E-01  8160   0.950E-01    0.118E-01
DAV:   2    -0.192097823324E+03   -0.10762E-02   -0.73489E-03 11760   0.377E-01    0.269E-01
DAV:   3    -0.192097073449E+03    0.74988E-03   -0.18188E-03 10920   0.345E-01    0.969E-02
DAV:   4    -0.192096980992E+03    0.92457E-04   -0.25665E-04  7360   0.105E-01
  90 F= -.19209698E+03 E0= -.19201256E+03  d E =-.308807E-02
       N       E                     dE             d eps       ncg     rms          rms(c)
DAV:   1    -0.192094708397E+03    0.23651E-02   -0.84762E-02  8160   0.640E-01    0.845E-02
DAV:   2    -0.192095338360E+03   -0.62996E-03   -0.36679E-03 11760   0.279E-01    0.199E-01
DAV:   3    -0.192094859474E+03    0.47889E-03   -0.10211E-03 10200   0.266E-01    0.687E-02
DAV:   4    -0.192094838541E+03    0.20933E-04   -0.14565E-04  5720   0.947E-02
  91 F= -.19209484E+03 E0= -.19201024E+03  d E =0.214245E-02
       N       E                     dE             d eps       ncg     rms          rms(c)
DAV:   1    -0.192093357883E+03    0.15016E-02   -0.70759E-02  8160   0.599E-01    0.131E-01
DAV:   2    -0.192093645680E+03   -0.28780E-03   -0.39909E-03 11560   0.336E-01    0.222E-01
DAV:   3    -0.192093142917E+03    0.50276E-03   -0.15368E-03 10600   0.330E-01    0.112E-01
DAV:   4    -0.192093105941E+03    0.36975E-04   -0.56090E-04  8840   0.185E-01
  92 F= -.19209311E+03 E0= -.19200832E+03  d E =0.173260E-02
       N       E                     dE             d eps       ncg     rms          rms(c)
DAV:   1    -0.192097043956E+03   -0.39010E-02   -0.32098E-01  8160   0.124E+00    0.169E-01
DAV:   2    -0.192098786402E+03   -0.17424E-02   -0.12711E-02 11760   0.548E-01    0.340E-01
DAV:   3    -0.192097419024E+03    0.13674E-02   -0.27144E-03 11760   0.458E-01    0.104E-01
DAV:   4    -0.192097335469E+03    0.83555E-04   -0.42446E-04  9040   0.145E-01
  93 F= -.19209734E+03 E0= -.19201302E+03  d E =-.422953E-02
       N       E                     dE             d eps       ncg     rms          rms(c)
DAV:   1    -0.192090286053E+03    0.71330E-02   -0.79238E-01  8160   0.194E+00    0.276E-01
DAV:   2    -0.192095642330E+03   -0.53563E-02   -0.33775E-02 11080   0.922E-01    0.620E-01
DAV:   3    -0.192091240155E+03    0.44022E-02   -0.85418E-03 12120   0.795E-01    0.199E-01
DAV:   4    -0.192091230249E+03    0.99063E-05   -0.18175E-03 10840   0.335E-01    0.212E-01
DAV:   5    -0.192090809295E+03    0.42095E-03   -0.12603E-03 10280   0.313E-01    0.127E-01
DAV:   6    -0.192090711591E+03    0.97704E-04   -0.71570E-04  9880   0.178E-01
  94 F= -.19209071E+03 E0= -.19200567E+03  d E =0.662388E-02
       N       E                     dE             d eps       ncg     rms          rms(c)
DAV:   1    -0.192092139158E+03   -0.13299E-02   -0.52822E-02  8160   0.532E-01    0.109E-01
DAV:   2    -0.192093926483E+03   -0.17873E-02   -0.47364E-03 12360   0.510E-01    0.382E-01
DAV:   3    -0.192092109898E+03    0.18166E-02   -0.22356E-03 10600   0.431E-01    0.478E-02
DAV:   4    -0.192092125105E+03   -0.15207E-04   -0.14426E-04  5920   0.806E-02
  95 F= -.19209213E+03 E0= -.19200722E+03  d E =-.141351E-02
       N       E                     dE             d eps       ncg     rms          rms(c)
DAV:   1    -0.192088435492E+03    0.36744E-02   -0.32461E-01  8160   0.123E+00    0.164E-01
DAV:   2    -0.192090275882E+03   -0.18404E-02   -0.14178E-02 11680   0.530E-01    0.326E-01
DAV:   3    -0.192089141946E+03    0.11339E-02   -0.31892E-03 11840   0.470E-01    0.139E-01
DAV:   4    -0.192089006313E+03    0.13563E-03   -0.66551E-04  9800   0.192E-01    0.956E-02
DAV:   5    -0.192088940412E+03    0.65900E-04   -0.36049E-04  9000   0.160E-01
  96 F= -.19208894E+03 E0= -.19200339E+03  d E =0.318469E-02
       N       E                     dE             d eps       ncg     rms          rms(c)
DAV:   1    -0.192090199643E+03   -0.11933E-02   -0.11167E-01  8160   0.745E-01    0.162E-01
DAV:   2    -0.192091486013E+03   -0.12864E-02   -0.84531E-03 10920   0.521E-01    0.380E-01
DAV:   3    -0.192089981273E+03    0.15047E-02   -0.33168E-03 10960   0.467E-01    0.126E-01
DAV:   4    -0.192089873817E+03    0.10746E-03   -0.68481E-04  8920   0.197E-01    0.110E-01
DAV:   5    -0.192089778904E+03    0.94913E-04   -0.49134E-04  9960   0.188E-01
  97 F= -.19208978E+03 E0= -.19200368E+03  d E =-.838491E-03
       N       E                     dE             d eps       ncg     rms          rms(c)
DAV:   1    -0.192090008476E+03   -0.13466E-03   -0.45062E-02  8160   0.456E-01    0.604E-02
DAV:   2    -0.192090142610E+03   -0.13413E-03   -0.19873E-03 12160   0.137E-01    0.667E-02
DAV:   3    -0.192090119202E+03    0.23408E-04   -0.28255E-04  8600   0.127E-01
  98 F= -.19209012E+03 E0= -.19200379E+03  d E =-.340299E-03
       N       E                     dE             d eps       ncg     rms          rms(c)
DAV:   1    -0.192091979284E+03   -0.18367E-02   -0.10958E-01  8160   0.719E-01    0.989E-02
DAV:   2    -0.192092432807E+03   -0.45352E-03   -0.44753E-03 10800   0.258E-01    0.163E-01
DAV:   3    -0.192092233401E+03    0.19941E-03   -0.10345E-03 10760   0.259E-01    0.110E-01
DAV:   4    -0.192092127876E+03    0.10552E-03   -0.25579E-04  7440   0.121E-01    0.477E-02
DAV:   5    -0.192092107699E+03    0.20178E-04   -0.96980E-05  6520   0.710E-02
  99 F= -.19209211E+03 E0= -.19200623E+03  d E =-.198850E-02
       N       E                     dE             d eps       ncg     rms          rms(c)
DAV:   1    -0.192092987223E+03   -0.85935E-03   -0.19336E-02  8160   0.314E-01    0.534E-02
DAV:   2    -0.192093256427E+03   -0.26920E-03   -0.10706E-03 12000   0.195E-01    0.148E-01
DAV:   3    -0.192092992115E+03    0.26431E-03   -0.40808E-04  9000   0.176E-01    0.307E-02
DAV:   4    -0.192092999107E+03   -0.69912E-05   -0.36649E-05  5760   0.368E-02
 100 F= -.19209300E+03 E0= -.19200729E+03  d E =-.891408E-03
