   27   27  100    1
  0.9710400E+02  0.1002848E-08  0.1002848E-08  0.3000000E-08  0.5000000E-15
  1.000000000000000E-004
  CAR 
 unknown system                          
    159     34    120
 
  0.0000000E+00  0.0000000E+00  0.0000000E+00  0.1562500E-01
    1      -17.827535   1.000000
    2      -16.794703   1.000000
    3      -16.674060   1.000000
    4      -16.616644   1.000000
    5      -16.560736   1.000000
    6      -16.486887   1.000000
    7      -16.368377   1.000000
    8      -16.257847   1.000000
    9      -16.190629   1.000000
   10      -16.123588   1.000000
   11      -16.112357   1.000000
   12      -16.017148   1.000000
   13      -15.828490   1.000000
   14      -15.651366   1.000000
   15      -15.558792   1.000000
   16      -15.490532   1.000000
   17      -15.283271   1.000000
   18      -15.177803   1.000000
   19       -9.375823   1.000000
   20       -9.095679   1.000000
   21       -9.048495   1.000000
   22       -8.960113   1.000000
   23       -8.736592   1.000000
   24       -8.698479   1.000000
   25       -8.653030   1.000000
   26       -8.570851   1.000000
   27       -8.476314   1.000000
   28       -8.458566   1.000000
   29       -8.367208   1.000000
   30       -8.333732   1.000000
   31       -8.313073   1.000000
   32       -8.080307   1.000000
   33       -7.970208   1.000000
   34       -7.915583   1.000000
   35       -7.866344   1.000000
   36       -7.813492   1.000000
   37       -7.714534   1.000000
   38       -7.586280   1.000000
   39       -7.493830   1.000000
   40       -7.426457   1.000000
   41       -7.355790   1.000000
   42       -7.268637   1.000000
   43       -7.026310   1.000000
   44       -6.956790   1.000000
   45       -6.834672   1.000000
   46       -6.803455   1.000000
   47       -6.748245   1.000000
   48       -6.588622   1.000000
   49       -6.518724   1.000000
   50       -6.473560   1.000000
   51       -6.424746   1.000000
   52       -6.422573   1.000000
   53       -6.293874   1.000000
   54       -6.270496   1.000000
   55       -6.229291   1.000000
   56       -6.150651   1.000000
   57       -6.098797   1.000000
   58       -5.932993   1.000000
   59       -5.749665   1.000000
   60       -5.535829   1.000000
   61       -5.465165   1.000000
   62       -5.384711   1.000000
   63       -5.173050   1.000000
   64       -5.121771   1.000000
   65       -5.048144   1.000000
   66       -5.032414   1.000000
   67       -4.974557   1.000000
   68       -4.812554   1.000000
   69       -4.784331   1.000000
   70       -4.704137   1.000000
   71       -4.672871   1.000000
   72       -4.591828   1.000000
   73       -4.522712   1.000000
   74       -4.257926   1.000000
   75       -4.104317   1.000000
   76       -4.062931   1.000000
   77       -3.677011   0.990841
   78       -3.635171   0.980456
   79       -3.503924   0.871857
   80       -3.389087   0.626726
   81       -3.343052   0.499072
   82       -2.865076   0.000360
   83       -2.743942   0.000011
   84       -2.708236   0.000004
   85       -2.555996   0.000000
   86       -2.464095   0.000000
   87       -2.390895   0.000000
   88       -2.294915   0.000000
   89       -2.248567   0.000000
   90       -2.122688   0.000000
   91       -1.879984   0.000000
   92       -1.370153   0.000000
   93       -1.268181   0.000000
   94       -1.197104   0.000000
   95       -1.135402   0.000000
   96       -1.038852   0.000000
   97       -0.940625   0.000000
   98       -0.854275   0.000000
   99       -0.745399   0.000000
  100       -0.663295   0.000000
  101       -0.572548   0.000000
  102       -0.498002   0.000000
  103       -0.447558   0.000000
  104       -0.384502   0.000000
  105       -0.225490   0.000000
  106       -0.158324   0.000000
  107       -0.133491   0.000000
  108        0.000525   0.000000
  109        0.137137   0.000000
  110        0.386618   0.000000
  111        0.474741   0.000000
  112        0.584708   0.000000
  113        0.772829   0.000000
  114        0.833620   0.000000
  115        0.855557   0.000000
  116        0.962356   0.000000
  117        1.071525   0.000000
  118        1.641351   0.000000
  119        1.830505   0.000000
  120        2.148169   0.000000
 
  0.1250000E+00  0.2775558E-16  0.0000000E+00  0.3125000E-01
    1      -17.802943   1.000000
    2      -16.808033   1.000000
    3      -16.789943   1.000000
    4      -16.631329   1.000000
    5      -16.537580   1.000000
    6      -16.464334   1.000000
    7      -16.345362   1.000000
    8      -16.309368   1.000000
    9      -16.194950   1.000000
   10      -16.108445   1.000000
   11      -16.015874   1.000000
   12      -15.994290   1.000000
   13      -15.826768   1.000000
   14      -15.650366   1.000000
   15      -15.555574   1.000000
   16      -15.495891   1.000000
   17      -15.294603   1.000000
   18      -15.183598   1.000000
   19       -9.370911   1.000000
   20       -9.220297   1.000000
   21       -9.123710   1.000000
   22       -9.049929   1.000000
   23       -8.755487   1.000000
   24       -8.710789   1.000000
   25       -8.633562   1.000000
   26       -8.573449   1.000000
   27       -8.490775   1.000000
   28       -8.423204   1.000000
   29       -8.376597   1.000000
   30       -8.284066   1.000000
   31       -8.198226   1.000000
   32       -8.009381   1.000000
   33       -7.979334   1.000000
   34       -7.878980   1.000000
   35       -7.808708   1.000000
   36       -7.727700   1.000000
   37       -7.692876   1.000000
   38       -7.546905   1.000000
   39       -7.516224   1.000000
   40       -7.431667   1.000000
   41       -7.341691   1.000000
   42       -7.279522   1.000000
   43       -7.059719   1.000000
   44       -6.963181   1.000000
   45       -6.912793   1.000000
   46       -6.803036   1.000000
   47       -6.730242   1.000000
   48       -6.618777   1.000000
   49       -6.547321   1.000000
   50       -6.471075   1.000000
   51       -6.411485   1.000000
   52       -6.375424   1.000000
   53       -6.318986   1.000000
   54       -6.274301   1.000000
   55       -6.192350   1.000000
   56       -6.128959   1.000000
   57       -6.055954   1.000000
   58       -5.924874   1.000000
   59       -5.735915   1.000000
   60       -5.526392   1.000000
   61       -5.469772   1.000000
   62       -5.423042   1.000000
   63       -5.351718   1.000000
   64       -5.163107   1.000000
   65       -5.090699   1.000000
   66       -4.987244   1.000000
   67       -4.945855   1.000000
   68       -4.891811   1.000000
   69       -4.780961   1.000000
   70       -4.687710   1.000000
   71       -4.663514   1.000000
   72       -4.546610   1.000000
   73       -4.452275   1.000000
   74       -4.241511   1.000000
   75       -4.062382   1.000000
   76       -3.990517   0.999998
   77       -3.802116   0.999410
   78       -3.690129   0.992894
   79       -3.585796   0.956748
   80       -3.459421   0.794043
   81       -3.150171   0.085938
   82       -2.866430   0.000372
   83       -2.725261   0.000006
   84       -2.683347   0.000002
   85       -2.542360   0.000000
   86       -2.460902   0.000000
   87       -2.377976   0.000000
   88       -2.293532   0.000000
   89       -2.225952   0.000000
   90       -2.094615   0.000000
   91       -1.896740   0.000000
   92       -1.367060   0.000000
   93       -1.281264   0.000000
   94       -1.194835   0.000000
   95       -1.124870   0.000000
   96       -1.034253   0.000000
   97       -0.933857   0.000000
   98       -0.866840   0.000000
   99       -0.768139   0.000000
  100       -0.694229   0.000000
  101       -0.632208   0.000000
  102       -0.584110   0.000000
  103       -0.491854   0.000000
  104       -0.435244   0.000000
  105       -0.337063   0.000000
  106       -0.248994   0.000000
  107       -0.063783   0.000000
  108        0.052339   0.000000
  109        0.222554   0.000000
  110        0.374521   0.000000
  111        0.486831   0.000000
  112        0.525120   0.000000
  113        0.732114   0.000000
  114        0.793080   0.000000
  115        0.836334   0.000000
  116        1.008921   0.000000
  117        1.202192   0.000000
  118        1.686250   0.000000
  119        1.869935   0.000000
  120        2.183739   0.000000
 
  0.2500000E+00  0.5551115E-16  0.0000000E+00  0.3125000E-01
    1      -17.730900   1.000000
    2      -17.009412   1.000000
    3      -16.778640   1.000000
    4      -16.666877   1.000000
    5      -16.611683   1.000000
    6      -16.407659   1.000000
    7      -16.367765   1.000000
    8      -16.258976   1.000000
    9      -16.173580   1.000000
   10      -16.087626   1.000000
   11      -15.964278   1.000000
   12      -15.905149   1.000000
   13      -15.794587   1.000000
   14      -15.653082   1.000000
   15      -15.557617   1.000000
   16      -15.493597   1.000000
   17      -15.320366   1.000000
   18      -15.199330   1.000000
   19       -9.529641   1.000000
   20       -9.358521   1.000000
   21       -9.204576   1.000000
   22       -9.128149   1.000000
   23       -8.805405   1.000000
   24       -8.713974   1.000000
   25       -8.672154   1.000000
   26       -8.540738   1.000000
   27       -8.472240   1.000000
   28       -8.401751   1.000000
   29       -8.299690   1.000000
   30       -8.210134   1.000000
   31       -8.122031   1.000000
   32       -8.032780   1.000000
   33       -7.872482   1.000000
   34       -7.818924   1.000000
   35       -7.786472   1.000000
   36       -7.682448   1.000000
   37       -7.598563   1.000000
   38       -7.512243   1.000000
   39       -7.436824   1.000000
   40       -7.385869   1.000000
   41       -7.299770   1.000000
   42       -7.185003   1.000000
   43       -7.118982   1.000000
   44       -6.973056   1.000000
   45       -6.900962   1.000000
   46       -6.829998   1.000000
   47       -6.767956   1.000000
   48       -6.642686   1.000000
   49       -6.571811   1.000000
   50       -6.485814   1.000000
   51       -6.433953   1.000000
   52       -6.352141   1.000000
   53       -6.294916   1.000000
   54       -6.202478   1.000000
   55       -6.138983   1.000000
   56       -6.102361   1.000000
   57       -5.969931   1.000000
   58       -5.884445   1.000000
   59       -5.745447   1.000000
   60       -5.701851   1.000000
   61       -5.623817   1.000000
   62       -5.498002   1.000000
   63       -5.450982   1.000000
   64       -5.241725   1.000000
   65       -5.212241   1.000000
   66       -5.004591   1.000000
   67       -4.952544   1.000000
   68       -4.852023   1.000000
   69       -4.777802   1.000000
   70       -4.636771   1.000000
   71       -4.592356   1.000000
   72       -4.425001   1.000000
   73       -4.343249   1.000000
   74       -4.281065   1.000000
   75       -4.104912   1.000000
   76       -4.021387   0.999999
   77       -3.906000   0.999965
   78       -3.821196   0.999636
   79       -3.547391   0.925429
   80       -3.423405   0.714254
   81       -3.014011   0.009930
   82       -2.854139   0.000271
   83       -2.720151   0.000005
   84       -2.629668   0.000000
   85       -2.502283   0.000000
   86       -2.462912   0.000000
   87       -2.349561   0.000000
   88       -2.277261   0.000000
   89       -2.162566   0.000000
   90       -2.012031   0.000000
   91       -1.926707   0.000000
   92       -1.369099   0.000000
   93       -1.313233   0.000000
   94       -1.185780   0.000000
   95       -1.105095   0.000000
   96       -1.032688   0.000000
   97       -0.966407   0.000000
   98       -0.933084   0.000000
   99       -0.862572   0.000000
  100       -0.788373   0.000000
  101       -0.742825   0.000000
  102       -0.668657   0.000000
  103       -0.568108   0.000000
  104       -0.508722   0.000000
  105       -0.421283   0.000000
  106       -0.341210   0.000000
  107       -0.200940   0.000000
  108        0.164905   0.000000
  109        0.229552   0.000000
  110        0.319677   0.000000
  111        0.459983   0.000000
  112        0.559297   0.000000
  113        0.603037   0.000000
  114        0.818839   0.000000
  115        0.889303   0.000000
  116        1.099079   0.000000
  117        1.378898   0.000000
  118        1.810311   0.000000
  119        1.983631   0.000000
  120        2.289020   0.000000
 
  0.3750000E+00  0.0000000E+00  0.0000000E+00  0.3125000E-01
    1      -17.619528   1.000000
    2      -17.211392   1.000000
    3      -16.762753   1.000000
    4      -16.700845   1.000000
    5      -16.665155   1.000000
    6      -16.439010   1.000000
    7      -16.333535   1.000000
    8      -16.214853   1.000000
    9      -16.139690   1.000000
   10      -16.062221   1.000000
   11      -15.911488   1.000000
   12      -15.873137   1.000000
   13      -15.756309   1.000000
   14      -15.663332   1.000000
   15      -15.579444   1.000000
   16      -15.459535   1.000000
   17      -15.341992   1.000000
   18      -15.218000   1.000000
   19       -9.737953   1.000000
   20       -9.423192   1.000000
   21       -9.298030   1.000000
   22       -9.062454   1.000000
   23       -8.846890   1.000000
   24       -8.797892   1.000000
   25       -8.626955   1.000000
   26       -8.484573   1.000000
   27       -8.448075   1.000000
   28       -8.342625   1.000000
   29       -8.275397   1.000000
   30       -8.189719   1.000000
   31       -8.143650   1.000000
   32       -8.003942   1.000000
   33       -7.901351   1.000000
   34       -7.831880   1.000000
   35       -7.765931   1.000000
   36       -7.755723   1.000000
   37       -7.582965   1.000000
   38       -7.472163   1.000000
   39       -7.345524   1.000000
   40       -7.268698   1.000000
   41       -7.202735   1.000000
   42       -7.100819   1.000000
   43       -7.030322   1.000000
   44       -6.947957   1.000000
   45       -6.851858   1.000000
   46       -6.753283   1.000000
   47       -6.750001   1.000000
   48       -6.619182   1.000000
   49       -6.569055   1.000000
   50       -6.524467   1.000000
   51       -6.435645   1.000000
   52       -6.332644   1.000000
   53       -6.269396   1.000000
   54       -6.162876   1.000000
   55       -6.105868   1.000000
   56       -6.054247   1.000000
   57       -6.006835   1.000000
   58       -5.936692   1.000000
   59       -5.869318   1.000000
   60       -5.796777   1.000000
   61       -5.702694   1.000000
   62       -5.656904   1.000000
   63       -5.545709   1.000000
   64       -5.288994   1.000000
   65       -5.202938   1.000000
   66       -5.002608   1.000000
   67       -4.955709   1.000000
   68       -4.812512   1.000000
   69       -4.747759   1.000000
   70       -4.679630   1.000000
   71       -4.569814   1.000000
   72       -4.436607   1.000000
   73       -4.368361   1.000000
   74       -4.272167   1.000000
   75       -4.187733   1.000000
   76       -4.059179   1.000000
   77       -3.889975   0.999944
   78       -3.774950   0.998862
   79       -3.490166   0.850349
   80       -3.383042   0.610433
   81       -2.940720   0.002205
   82       -2.833516   0.000156
   83       -2.736470   0.000009
   84       -2.601249   0.000000
   85       -2.499048   0.000000
   86       -2.423372   0.000000
   87       -2.323797   0.000000
   88       -2.235467   0.000000
   89       -2.107015   0.000000
   90       -1.946745   0.000000
   91       -1.897968   0.000000
   92       -1.392817   0.000000
   93       -1.316828   0.000000
   94       -1.183831   0.000000
   95       -1.166214   0.000000
   96       -1.093430   0.000000
   97       -1.059681   0.000000
   98       -0.987939   0.000000
   99       -0.934461   0.000000
  100       -0.844871   0.000000
  101       -0.782397   0.000000
  102       -0.692221   0.000000
  103       -0.636387   0.000000
  104       -0.578227   0.000000
  105       -0.481798   0.000000
  106       -0.381926   0.000000
  107       -0.323369   0.000000
  108        0.085786   0.000000
  109        0.221234   0.000000
  110        0.268239   0.000000
  111        0.418017   0.000000
  112        0.550760   0.000000
  113        0.626020   0.000000
  114        0.854576   0.000000
  115        0.992943   0.000000
  116        1.162139   0.000000
  117        1.504776   0.000000
  118        1.994551   0.000000
  119        2.160923   0.000000
  120        2.459562   0.000000
 
  0.5000000E+00  0.1110223E-15  0.0000000E+00  0.1562500E-01
    1      -17.528006   1.000000
    2      -17.335087   1.000000
    3      -16.752681   1.000000
    4      -16.715253   1.000000
    5      -16.685836   1.000000
    6      -16.450091   1.000000
    7      -16.325557   1.000000
    8      -16.200828   1.000000
    9      -16.123894   1.000000
   10      -16.048966   1.000000
   11      -15.896410   1.000000
   12      -15.839424   1.000000
   13      -15.760410   1.000000
   14      -15.673426   1.000000
   15      -15.591383   1.000000
   16      -15.436080   1.000000
   17      -15.349969   1.000000
   18      -15.226745   1.000000
   19       -9.814352   1.000000
   20       -9.452088   1.000000
   21       -9.334863   1.000000
   22       -9.002044   1.000000
   23       -8.865395   1.000000
   24       -8.827222   1.000000
   25       -8.625270   1.000000
   26       -8.499612   1.000000
   27       -8.425202   1.000000
   28       -8.318160   1.000000
   29       -8.223596   1.000000
   30       -8.183513   1.000000
   31       -8.110551   1.000000
   32       -8.000049   1.000000
   33       -7.957112   1.000000
   34       -7.900578   1.000000
   35       -7.831793   1.000000
   36       -7.745893   1.000000
   37       -7.555980   1.000000
   38       -7.442422   1.000000
   39       -7.331613   1.000000
   40       -7.296124   1.000000
   41       -7.096420   1.000000
   42       -7.049479   1.000000
   43       -6.961923   1.000000
   44       -6.923652   1.000000
   45       -6.800208   1.000000
   46       -6.697750   1.000000
   47       -6.645589   1.000000
   48       -6.612944   1.000000
   49       -6.577725   1.000000
   50       -6.489217   1.000000
   51       -6.474268   1.000000
   52       -6.370794   1.000000
   53       -6.333569   1.000000
   54       -6.232448   1.000000
   55       -6.155395   1.000000
   56       -6.049334   1.000000
   57       -6.000512   1.000000
   58       -5.957240   1.000000
   59       -5.858706   1.000000
   60       -5.778911   1.000000
   61       -5.712795   1.000000
   62       -5.642582   1.000000
   63       -5.572960   1.000000
   64       -5.309906   1.000000
   65       -5.247521   1.000000
   66       -5.056695   1.000000
   67       -4.963965   1.000000
   68       -4.932208   1.000000
   69       -4.742249   1.000000
   70       -4.599727   1.000000
   71       -4.554655   1.000000
   72       -4.451750   1.000000
   73       -4.369886   1.000000
   74       -4.282603   1.000000
   75       -4.219480   1.000000
   76       -4.030802   0.999999
   77       -3.871734   0.999907
   78       -3.755486   0.998216
   79       -3.478478   0.830282
   80       -3.351557   0.523052
   81       -2.916923   0.001283
   82       -2.828909   0.000137
   83       -2.742128   0.000011
   84       -2.597704   0.000000
   85       -2.505955   0.000000
   86       -2.396470   0.000000
   87       -2.310471   0.000000
   88       -2.212372   0.000000
   89       -2.092766   0.000000
   90       -1.935372   0.000000
   91       -1.853027   0.000000
   92       -1.406984   0.000000
   93       -1.294791   0.000000
   94       -1.231759   0.000000
   95       -1.216014   0.000000
   96       -1.121265   0.000000
   97       -1.077759   0.000000
   98       -1.009579   0.000000
   99       -0.977805   0.000000
  100       -0.855278   0.000000
  101       -0.767349   0.000000
  102       -0.694829   0.000000
  103       -0.682611   0.000000
  104       -0.600846   0.000000
  105       -0.503331   0.000000
  106       -0.398547   0.000000
  107       -0.364437   0.000000
  108        0.034070   0.000000
  109        0.209925   0.000000
  110        0.262572   0.000000
  111        0.383034   0.000000
  112        0.559733   0.000000
  113        0.638171   0.000000
  114        0.873483   0.000000
  115        1.040017   0.000000
  116        1.182012   0.000000
  117        1.549599   0.000000
  118        2.200703   0.000000
  119        2.259363   0.000000
  120        2.385950   0.000000
 
  0.0000000E+00  0.1250000E+00  0.0000000E+00  0.3125000E-01
    1      -17.804079   1.000000
    2      -16.810568   1.000000
    3      -16.763868   1.000000
    4      -16.674685   1.000000
    5      -16.526606   1.000000
    6      -16.450151   1.000000
    7      -16.357362   1.000000
    8      -16.293774   1.000000
    9      -16.172420   1.000000
   10      -16.123631   1.000000
   11      -16.066713   1.000000
   12      -15.949972   1.000000
   13      -15.823834   1.000000
   14      -15.661950   1.000000
   15      -15.559104   1.000000
   16      -15.499595   1.000000
   17      -15.289575   1.000000
   18      -15.182349   1.000000
   19       -9.381538   1.000000
   20       -9.201327   1.000000
   21       -9.107431   1.000000
   22       -9.038504   1.000000
   23       -8.756048   1.000000
   24       -8.733150   1.000000
   25       -8.680364   1.000000
   26       -8.538085   1.000000
   27       -8.499292   1.000000
   28       -8.460420   1.000000
   29       -8.360651   1.000000
   30       -8.239516   1.000000
   31       -8.195823   1.000000
   32       -8.018773   1.000000
   33       -7.959456   1.000000
   34       -7.895013   1.000000
   35       -7.813363   1.000000
   36       -7.720536   1.000000
   37       -7.664672   1.000000
   38       -7.596587   1.000000
   39       -7.538401   1.000000
   40       -7.415433   1.000000
   41       -7.336230   1.000000
   42       -7.251032   1.000000
   43       -7.093400   1.000000
   44       -6.995139   1.000000
   45       -6.853485   1.000000
   46       -6.767619   1.000000
   47       -6.754662   1.000000
   48       -6.633556   1.000000
   49       -6.573379   1.000000
   50       -6.477449   1.000000
   51       -6.413639   1.000000
   52       -6.389503   1.000000
   53       -6.287279   1.000000
   54       -6.250483   1.000000
   55       -6.204472   1.000000
   56       -6.140887   1.000000
   57       -6.040519   1.000000
   58       -5.929830   1.000000
   59       -5.740636   1.000000
   60       -5.530577   1.000000
   61       -5.482429   1.000000
   62       -5.442531   1.000000
   63       -5.310207   1.000000
   64       -5.234334   1.000000
   65       -5.062005   1.000000
   66       -4.984084   1.000000
   67       -4.959533   1.000000
   68       -4.897284   1.000000
   69       -4.727173   1.000000
   70       -4.677840   1.000000
   71       -4.633992   1.000000
   72       -4.556659   1.000000
   73       -4.461120   1.000000
   74       -4.209610   1.000000
   75       -4.070912   1.000000
   76       -4.039521   1.000000
   77       -3.834038   0.999739
   78       -3.663202   0.988135
   79       -3.609187   0.969914
   80       -3.367835   0.568642
   81       -3.235592   0.222975
   82       -2.846975   0.000224
   83       -2.718050   0.000005
   84       -2.676015   0.000001
   85       -2.541506   0.000000
   86       -2.448166   0.000000
   87       -2.369451   0.000000
   88       -2.294343   0.000000
   89       -2.236794   0.000000
   90       -2.102530   0.000000
   91       -1.878802   0.000000
   92       -1.380770   0.000000
   93       -1.278534   0.000000
   94       -1.204345   0.000000
   95       -1.132784   0.000000
   96       -1.042123   0.000000
   97       -0.944284   0.000000
   98       -0.862263   0.000000
   99       -0.753584   0.000000
  100       -0.724097   0.000000
  101       -0.635774   0.000000
  102       -0.552169   0.000000
  103       -0.511601   0.000000
  104       -0.439626   0.000000
  105       -0.360353   0.000000
  106       -0.154561   0.000000
  107       -0.043200   0.000000
  108        0.055169   0.000000
  109        0.140833   0.000000
  110        0.310584   0.000000
  111        0.404348   0.000000
  112        0.593870   0.000000
  113        0.783958   0.000000
  114        0.814426   0.000000
  115        0.883054   0.000000
  116        0.998486   0.000000
  117        1.181337   0.000000
  118        1.684615   0.000000
  119        1.869784   0.000000
  120        2.183066   0.000000
 
  0.1250000E+00  0.1250000E+00  0.0000000E+00  0.3125000E-01
    1      -17.755787   1.000000
    2      -16.937201   1.000000
    3      -16.800099   1.000000
    4      -16.705088   1.000000
    5      -16.518903   1.000000
    6      -16.436498   1.000000
    7      -16.351998   1.000000
    8      -16.277868   1.000000
    9      -16.178474   1.000000
   10      -16.115577   1.000000
   11      -15.977113   1.000000
   12      -15.885291   1.000000
   13      -15.828173   1.000000
   14      -15.654798   1.000000
   15      -15.564357   1.000000
   16      -15.502434   1.000000
   17      -15.314806   1.000000
   18      -15.186258   1.000000
   19       -9.460601   1.000000
   20       -9.326513   1.000000
   21       -9.223643   1.000000
   22       -9.101549   1.000000
   23       -8.785132   1.000000
   24       -8.703371   1.000000
   25       -8.653401   1.000000
   26       -8.551503   1.000000
   27       -8.457490   1.000000
   28       -8.357234   1.000000
   29       -8.324900   1.000000
   30       -8.295402   1.000000
   31       -8.120494   1.000000
   32       -8.043179   1.000000
   33       -7.941847   1.000000
   34       -7.813476   1.000000
   35       -7.757182   1.000000
   36       -7.696853   1.000000
   37       -7.621528   1.000000
   38       -7.542713   1.000000
   39       -7.409542   1.000000
   40       -7.393172   1.000000
   41       -7.320718   1.000000
   42       -7.250724   1.000000
   43       -7.135370   1.000000
   44       -7.012942   1.000000
   45       -6.880341   1.000000
   46       -6.808495   1.000000
   47       -6.716744   1.000000
   48       -6.649987   1.000000
   49       -6.612402   1.000000
   50       -6.507906   1.000000
   51       -6.375799   1.000000
   52       -6.351955   1.000000
   53       -6.310483   1.000000
   54       -6.235437   1.000000
   55       -6.147748   1.000000
   56       -6.105703   1.000000
   57       -5.975525   1.000000
   58       -5.929689   1.000000
   59       -5.730270   1.000000
   60       -5.682139   1.000000
   61       -5.530175   1.000000
   62       -5.480181   1.000000
   63       -5.411373   1.000000
   64       -5.265777   1.000000
   65       -5.165047   1.000000
   66       -5.069475   1.000000
   67       -4.925536   1.000000
   68       -4.826542   1.000000
   69       -4.746933   1.000000
   70       -4.639478   1.000000
   71       -4.604671   1.000000
   72       -4.475584   1.000000
   73       -4.369683   1.000000
   74       -4.204156   1.000000
   75       -4.115761   1.000000
   76       -3.989936   0.999998
   77       -3.941580   0.999988
   78       -3.783170   0.999064
   79       -3.596540   0.963281
   80       -3.411609   0.685256
   81       -3.101851   0.043830
   82       -2.840020   0.000186
   83       -2.690371   0.000002
   84       -2.635470   0.000000
   85       -2.501948   0.000000
   86       -2.441611   0.000000
   87       -2.330154   0.000000
   88       -2.275096   0.000000
   89       -2.200985   0.000000
   90       -2.068910   0.000000
   91       -1.891150   0.000000
   92       -1.385385   0.000000
   93       -1.313672   0.000000
   94       -1.200535   0.000000
   95       -1.121472   0.000000
   96       -1.041833   0.000000
   97       -0.948375   0.000000
   98       -0.898555   0.000000
   99       -0.841962   0.000000
  100       -0.751001   0.000000
  101       -0.732832   0.000000
  102       -0.644753   0.000000
  103       -0.580409   0.000000
  104       -0.494485   0.000000
  105       -0.430136   0.000000
  106       -0.242529   0.000000
  107       -0.135437   0.000000
  108        0.123875   0.000000
  109        0.238738   0.000000
  110        0.293664   0.000000
  111        0.426321   0.000000
  112        0.541043   0.000000
  113        0.677216   0.000000
  114        0.825019   0.000000
  115        0.907158   0.000000
  116        1.058290   0.000000
  117        1.333821   0.000000
  118        1.769246   0.000000
  119        1.945516   0.000000
  120        2.253320   0.000000
 
  0.2500000E+00  0.1250000E+00  0.0000000E+00  0.3125000E-01
    1      -17.663622   1.000000
    2      -17.114563   1.000000
    3      -16.853036   1.000000
    4      -16.739362   1.000000
    5      -16.513893   1.000000
    6      -16.422830   1.000000
    7      -16.344917   1.000000
    8      -16.237824   1.000000
    9      -16.159377   1.000000
   10      -16.093939   1.000000
   11      -15.921402   1.000000
   12      -15.843992   1.000000
   13      -15.793359   1.000000
   14      -15.666455   1.000000
   15      -15.580691   1.000000
   16      -15.471544   1.000000
   17      -15.340606   1.000000
   18      -15.200491   1.000000
   19       -9.642914   1.000000
   20       -9.467851   1.000000
   21       -9.294478   1.000000
   22       -9.111872   1.000000
   23       -8.763558   1.000000
   24       -8.702995   1.000000
   25       -8.618639   1.000000
   26       -8.492080   1.000000
   27       -8.424049   1.000000
   28       -8.381888   1.000000
   29       -8.280065   1.000000
   30       -8.215302   1.000000
   31       -8.146603   1.000000
   32       -8.050114   1.000000
   33       -7.946528   1.000000
   34       -7.865870   1.000000
   35       -7.807678   1.000000
   36       -7.696222   1.000000
   37       -7.523400   1.000000
   38       -7.477354   1.000000
   39       -7.369313   1.000000
   40       -7.307962   1.000000
   41       -7.206844   1.000000
   42       -7.134974   1.000000
   43       -7.066858   1.000000
   44       -6.974524   1.000000
   45       -6.881709   1.000000
   46       -6.782431   1.000000
   47       -6.735446   1.000000