       N       E                     dE             d eps       ncg     rms          rms(c)
DAV:   1     0.112630560602E+04    0.11263E+04   -0.35979E+04  8160   0.577E+02
DAV:   2    -0.127628105642E+01   -0.11276E+04   -0.10858E+04 11120   0.173E+02
DAV:   3    -0.199610845832E+03   -0.19833E+03   -0.19015E+03 10880   0.822E+01
DAV:   4    -0.208980284477E+03   -0.93694E+01   -0.90732E+01 12280   0.264E+01
DAV:   5    -0.209307629616E+03   -0.32735E+00   -0.32636E+00 11600   0.345E+00    0.275E+01
DAV:   6    -0.236765655020E+03   -0.27458E+02   -0.10842E+02 12880   0.604E+01    0.594E+01
DAV:   7    -0.196683713493E+03    0.40082E+02   -0.17826E+02 12760   0.151E+02    0.202E+01
DAV:   8    -0.189951016888E+03    0.67327E+01   -0.20181E+01 11640   0.133E+01    0.134E+01
DAV:   9    -0.188233398747E+03    0.17176E+01   -0.28855E+00 11920   0.621E+00    0.919E+00
DAV:  10    -0.187049915696E+03    0.11835E+01   -0.18569E+00 13280   0.774E+00    0.292E+00
DAV:  11    -0.187025487834E+03    0.24428E-01   -0.61363E-01 13560   0.300E+00    0.305E+00
DAV:  12    -0.187176439279E+03   -0.15095E+00   -0.82302E-01 13120   0.524E+00    0.582E+00
DAV:  13    -0.186920727875E+03    0.25571E+00   -0.78843E-01 12760   0.420E+00    0.209E+00
DAV:  14    -0.186877067083E+03    0.43661E-01   -0.11734E-01 13160   0.203E+00    0.905E-01
DAV:  15    -0.186874422105E+03    0.26450E-02   -0.17024E-02 12960   0.698E-01    0.774E-01
DAV:  16    -0.186868442766E+03    0.59793E-02   -0.99441E-03 13200   0.512E-01    0.178E-01
DAV:  17    -0.186868474412E+03   -0.31646E-04   -0.37237E-03 12720   0.222E-01    0.213E-01
DAV:  18    -0.186867788865E+03    0.68555E-03   -0.17103E-03 11600   0.133E-01    0.101E-01
DAV:  19    -0.186867818016E+03   -0.29151E-04   -0.55398E-04  9280   0.739E-02
   1 F= -.18686782E+03 E0= -.18669611E+03  d E =-.186868E+03
       N       E                     dE             d eps       ncg     rms          rms(c)
DAV:   1    -0.187481308117E+03   -0.61352E+00   -0.27046E+02  8160   0.349E+01    0.466E+00
DAV:   2    -0.189429607085E+03   -0.19483E+01   -0.20277E+01 11920   0.155E+01    0.945E+00
DAV:   3    -0.189342690847E+03    0.86916E-01   -0.45881E+00 12280   0.124E+01    0.663E+00
DAV:   4    -0.188750912791E+03    0.59178E+00   -0.61060E-01 12240   0.456E+00    0.210E+00
DAV:   5    -0.188846618147E+03   -0.95705E-01   -0.43480E-01 11360   0.351E+00    0.500E+00
DAV:   6    -0.188747143660E+03    0.99474E-01   -0.73723E-01 12360   0.435E+00    0.270E+00
DAV:   7    -0.188665383402E+03    0.81760E-01   -0.22315E-01 12240   0.167E+00    0.115E+00
DAV:   8    -0.188662151296E+03    0.32321E-02   -0.82677E-02 11840   0.143E+00    0.148E+00
DAV:   9    -0.188646521989E+03    0.15629E-01   -0.33522E-02 11360   0.106E+00    0.561E-01
DAV:  10    -0.188643835143E+03    0.26868E-02   -0.67605E-03 12000   0.356E-01    0.315E-01
DAV:  11    -0.188643406434E+03    0.42871E-03   -0.33043E-03 12760   0.245E-01    0.132E-01
DAV:  12    -0.188643398357E+03    0.80769E-05   -0.12361E-03 11160   0.109E-01    0.103E-01
DAV:  13    -0.188643544273E+03   -0.14592E-03   -0.30213E-04  6880   0.689E-02    0.405E-02
DAV:  14    -0.188643609395E+03   -0.65121E-04   -0.11762E-04  7840   0.343E-02
   2 F= -.18864361E+03 E0= -.18850234E+03  d E =-.177579E+01
       N       E                     dE             d eps       ncg     rms          rms(c)
DAV:   1    -0.190575337316E+03   -0.19318E+01   -0.31111E+01  9200   0.142E+01    0.447E+00
DAV:   2    -0.190571795569E+03    0.35417E-02   -0.28484E+00 11800   0.977E+00    0.754E+00
DAV:   3    -0.190047242499E+03    0.52455E+00   -0.13765E+00 12280   0.868E+00    0.419E+00
DAV:   4    -0.189848630060E+03    0.19861E+00   -0.74124E-01 13000   0.413E+00    0.270E+00
DAV:   5    -0.189896265813E+03   -0.47636E-01   -0.48956E-01 12360   0.424E+00    0.385E+00
DAV:   6    -0.189740209020E+03    0.15606E+00   -0.22241E-01 12240   0.324E+00    0.624E-01
DAV:   7    -0.189734225557E+03    0.59835E-02   -0.15269E-02 12040   0.467E-01    0.218E-01
DAV:   8    -0.189734557792E+03   -0.33223E-03   -0.34304E-03 11400   0.249E-01    0.256E-01
DAV:   9    -0.189734314018E+03    0.24377E-03   -0.18152E-03 10600   0.274E-01    0.185E-01
DAV:  10    -0.189734499002E+03   -0.18498E-03   -0.11675E-03 10000   0.183E-01    0.147E-01
DAV:  11    -0.189734243343E+03    0.25566E-03   -0.53398E-04  8440   0.926E-02    0.170E-02
DAV:  12    -0.189734298717E+03   -0.55374E-04   -0.71203E-05  6840   0.250E-02
   3 F= -.18973430E+03 E0= -.18961515E+03  d E =-.109069E+01
       N       E                     dE             d eps       ncg     rms          rms(c)
DAV:   1    -0.191296500874E+03   -0.15623E+01   -0.70553E+01  8160   0.192E+01    0.464E+00
DAV:   2    -0.191171312554E+03    0.12519E+00   -0.54058E+00 13480   0.837E+00    0.525E+00
DAV:   3    -0.191199048331E+03   -0.27736E-01   -0.15728E+00 12200   0.928E+00    0.624E+00
DAV:   4    -0.190809971432E+03    0.38908E+00   -0.11371E+00 12960   0.680E+00    0.255E+00
DAV:   5    -0.190710712448E+03    0.99259E-01   -0.28237E-01 11240   0.210E+00    0.102E+00
DAV:   6    -0.190708025192E+03    0.26873E-02   -0.89629E-02 12240   0.176E+00    0.128E+00
DAV:   7    -0.190698293998E+03    0.97312E-02   -0.47472E-02 11960   0.149E+00    0.684E-01
DAV:   8    -0.190692395767E+03    0.58982E-02   -0.82449E-03 10680   0.517E-01    0.152E-01
DAV:   9    -0.190692689510E+03   -0.29374E-03   -0.17138E-03 11080   0.141E-01    0.148E-01
DAV:  10    -0.190692811181E+03   -0.12167E-03   -0.15647E-03 11840   0.217E-01    0.180E-01
DAV:  11    -0.190692576337E+03    0.23484E-03   -0.80548E-04  9120   0.190E-01    0.714E-02
DAV:  12    -0.190692542933E+03    0.33403E-04   -0.12135E-04  6280   0.624E-02
   4 F= -.19069254E+03 E0= -.19059121E+03  d E =-.958244E+00
       N       E                     dE             d eps       ncg     rms          rms(c)
DAV:   1    -0.192088123205E+03   -0.13955E+01   -0.14586E+02  8160   0.271E+01    0.568E+00
DAV:   2    -0.191793680264E+03    0.29444E+00   -0.92848E+00 12400   0.807E+00    0.383E+00
DAV:   3    -0.191862397769E+03   -0.68718E-01   -0.17206E+00 12400   0.876E+00    0.614E+00
DAV:   4    -0.191609522794E+03    0.25287E+00   -0.15584E+00 12520   0.957E+00    0.385E+00
DAV:   5    -0.191371330038E+03    0.23819E+00   -0.41672E-01 12520   0.362E+00    0.829E-01
DAV:   6    -0.191369183435E+03    0.21466E-02   -0.10383E-01 12520   0.146E+00    0.103E+00
DAV:   7    -0.191368062929E+03    0.11205E-02   -0.68641E-02 11920   0.168E+00    0.971E-01
DAV:   8    -0.191356890095E+03    0.11173E-01   -0.17618E-02 12040   0.855E-01    0.165E-01
DAV:   9    -0.191357885475E+03   -0.99538E-03   -0.40211E-03 11800   0.311E-01    0.289E-01
DAV:  10    -0.191357230248E+03    0.65523E-03   -0.21980E-03 12080   0.339E-01    0.115E-01
DAV:  11    -0.191357150750E+03    0.79498E-04   -0.41171E-04  9080   0.114E-01
   5 F= -.19135715E+03 E0= -.19126125E+03  d E =-.664608E+00
       N       E                     dE             d eps       ncg     rms          rms(c)
DAV:   1    -0.191452648348E+03   -0.95418E-01   -0.89411E+00  8160   0.631E+00    0.783E-01
DAV:   2    -0.191521769448E+03   -0.69121E-01   -0.32349E-01 12640   0.288E+00    0.224E+00
DAV:   3    -0.191465840320E+03    0.55929E-01   -0.11881E-01 12520   0.261E+00    0.546E-01
DAV:   4    -0.191463278089E+03    0.25622E-02   -0.11182E-02 10960   0.526E-01    0.344E-01
DAV:   5    -0.191462999344E+03    0.27875E-03   -0.65397E-03 11240   0.561E-01    0.417E-01
DAV:   6    -0.191461901511E+03    0.10978E-02   -0.53061E-03 11600   0.524E-01    0.229E-01
DAV:   7    -0.191461345092E+03    0.55642E-03   -0.17188E-03 11560   0.220E-01    0.725E-02
DAV:   8    -0.191461343366E+03    0.17256E-05   -0.46505E-04  9000   0.122E-01
   6 F= -.19146134E+03 E0= -.19136269E+03  d E =-.104193E+00
       N       E                     dE             d eps       ncg     rms          rms(c)
DAV:   1    -0.191480158618E+03   -0.18814E-01   -0.29891E-01  8160   0.117E+00    0.169E-01
DAV:   2    -0.191483524706E+03   -0.33661E-02   -0.14478E-02 12760   0.690E-01    0.517E-01
DAV:   3    -0.191480496390E+03    0.30283E-02   -0.53490E-03 11680   0.555E-01    0.951E-02
DAV:   4    -0.191480627571E+03   -0.13118E-03   -0.82082E-04  9120   0.172E-01    0.149E-01
DAV:   5    -0.191480436681E+03    0.19089E-03   -0.67867E-04  8680   0.178E-01    0.708E-02
DAV:   6    -0.191480410918E+03    0.25764E-04   -0.16463E-04  5960   0.736E-02
   7 F= -.19148041E+03 E0= -.19138138E+03  d E =-.190676E-01
       N       E                     dE             d eps       ncg     rms          rms(c)
DAV:   1    -0.191220269855E+03    0.26017E+00   -0.45426E+01  8160   0.143E+01    0.190E+00
DAV:   2    -0.191611606025E+03   -0.39134E+00   -0.19484E+00 13120   0.762E+00    0.494E+00
DAV:   3    -0.191274689865E+03    0.33692E+00   -0.45833E-01 12320   0.551E+00    0.928E-01
DAV:   4    -0.191266147132E+03    0.85427E-02   -0.51705E-02 12240   0.956E-01    0.737E-01
DAV:   5    -0.191261173272E+03    0.49739E-02   -0.28607E-02 12440   0.100E+00    0.728E-01
DAV:   6    -0.191262642113E+03   -0.14688E-02   -0.29737E-02 12520   0.127E+00    0.783E-01
DAV:   7    -0.191255698355E+03    0.69438E-02   -0.12053E-02 11960   0.738E-01    0.139E-01
DAV:   8    -0.191255524930E+03    0.17343E-03   -0.16790E-03 11560   0.201E-01    0.128E-01
DAV:   9    -0.191255490407E+03    0.34523E-04   -0.86405E-04  9520   0.196E-01
   8 F= -.19125549E+03 E0= -.19116690E+03  d E =0.224921E+00
       N       E                     dE             d eps       ncg     rms          rms(c)
DAV:   1    -0.191134286310E+03    0.12124E+00   -0.14476E+01  8160   0.808E+00    0.104E+00
DAV:   2    -0.191241583808E+03   -0.10730E+00   -0.55960E-01 13560   0.387E+00    0.267E+00
DAV:   3    -0.191150712852E+03    0.90871E-01   -0.14907E-01 12240   0.305E+00    0.608E-01
DAV:   4    -0.191148382206E+03    0.23306E-02   -0.19706E-02 11800   0.696E-01    0.524E-01
DAV:   5    -0.191146472032E+03    0.19102E-02   -0.12450E-02 11960   0.794E-01    0.507E-01
DAV:   6    -0.191145011194E+03    0.14608E-02   -0.85684E-03 12160   0.691E-01    0.312E-01
DAV:   7    -0.191143814301E+03    0.11969E-02   -0.28188E-03 11640   0.305E-01    0.836E-02
DAV:   8    -0.191143718953E+03    0.95348E-04   -0.52821E-04 10760   0.112E-01
   9 F= -.19114372E+03 E0= -.19106211E+03  d E =0.111771E+00
       N       E                     dE             d eps       ncg     rms          rms(c)
DAV:   1    -0.191140199802E+03    0.36145E-02   -0.21490E-02  8600   0.330E-01    0.733E-02
DAV:   2    -0.191141187612E+03   -0.98781E-03   -0.26553E-03 12400   0.334E-01    0.302E-01
DAV:   3    -0.191140165288E+03    0.10223E-02   -0.16285E-03 10080   0.291E-01    0.353E-02
DAV:   4    -0.191140206035E+03   -0.40747E-04   -0.88369E-05  5800   0.672E-02
  10 F= -.19114021E+03 E0= -.19105881E+03  d E =0.351292E-02
       N       E                     dE             d eps       ncg     rms          rms(c)
DAV:   1    -0.191154225302E+03   -0.14060E-01   -0.40873E+00  8160   0.432E+00    0.482E-01
DAV:   2    -0.191172263394E+03   -0.18038E-01   -0.12784E-01 13560   0.151E+00    0.109E+00
DAV:   3    -0.191160864319E+03    0.11399E-01   -0.33111E-02 12360   0.134E+00    0.442E-01
DAV:   4    -0.191158986397E+03    0.18779E-02   -0.52626E-03 11680   0.446E-01    0.206E-01
DAV:   5    -0.191158461079E+03    0.52532E-03   -0.26138E-03 12600   0.265E-01    0.160E-01
DAV:   6    -0.191158843561E+03   -0.38248E-03   -0.21727E-03 11840   0.349E-01    0.247E-01
DAV:   7    -0.191158104179E+03    0.73938E-03   -0.11638E-03 10080   0.251E-01    0.564E-02
DAV:   8    -0.191158095982E+03    0.81968E-05   -0.13517E-04  6000   0.814E-02
  11 F= -.19115810E+03 E0= -.19107589E+03  d E =-.178899E-01
       N       E                     dE             d eps       ncg     rms          rms(c)
DAV:   1    -0.191158050316E+03    0.53863E-04   -0.12834E+00  8160   0.244E+00    0.266E-01
DAV:   2    -0.191161472717E+03   -0.34224E-02   -0.31196E-02 13560   0.691E-01    0.493E-01
DAV:   3    -0.191159601023E+03    0.18717E-02   -0.85580E-03 12360   0.684E-01    0.291E-01
DAV:   4    -0.191158849381E+03    0.75164E-03   -0.19331E-03 11040   0.288E-01    0.124E-01
DAV:   5    -0.191158748972E+03    0.10041E-03   -0.92033E-04 10560   0.204E-01    0.124E-01
DAV:   6    -0.191158717361E+03    0.31611E-04   -0.70045E-04  9960   0.209E-01
  12 F= -.19115872E+03 E0= -.19107559E+03  d E =-.621379E-03
       N       E                     dE             d eps       ncg     rms          rms(c)
DAV:   1    -0.191165501903E+03   -0.67529E-02   -0.29760E+00  8160   0.371E+00    0.401E-01
DAV:   2    -0.191171920362E+03   -0.64185E-02   -0.69626E-02 13600   0.962E-01    0.651E-01
DAV:   3    -0.191169429602E+03    0.24908E-02   -0.17469E-02 12080   0.983E-01    0.474E-01
DAV:   4    -0.191167402570E+03    0.20270E-02   -0.49437E-03 11680   0.480E-01    0.193E-01
DAV:   5    -0.191166980112E+03    0.42246E-03   -0.19461E-03 11520   0.272E-01    0.156E-01
DAV:   6    -0.191167095783E+03   -0.11567E-03   -0.14713E-03 10480   0.302E-01    0.183E-01
DAV:   7    -0.191166683006E+03    0.41278E-03   -0.75440E-04  9880   0.195E-01    0.521E-02
DAV:   8    -0.191166685304E+03   -0.22982E-05   -0.13880E-04  6040   0.881E-02
  13 F= -.19116669E+03 E0= -.19108111E+03  d E =-.796794E-02
       N       E                     dE             d eps       ncg     rms          rms(c)
DAV:   1    -0.191191850301E+03   -0.25167E-01   -0.82728E+00  8160   0.618E+00    0.639E-01
DAV:   2    -0.191212743195E+03   -0.20893E-01   -0.18950E-01 13440   0.164E+00    0.116E+00
DAV:   3    -0.191202107302E+03    0.10636E-01   -0.46781E-02 12440   0.162E+00    0.667E-01
DAV:   4    -0.191198608199E+03    0.34991E-02   -0.12594E-02 12440   0.754E-01    0.345E-01
DAV:   5    -0.191197361504E+03    0.12467E-02   -0.57978E-03 12240   0.556E-01    0.302E-01
DAV:   6    -0.191197103503E+03    0.25800E-03   -0.36476E-03 12200   0.481E-01    0.229E-01
DAV:   7    -0.191196312657E+03    0.79085E-03   -0.12053E-03 10440   0.215E-01    0.454E-02
DAV:   8    -0.191196303365E+03    0.92920E-05   -0.14268E-04  6640   0.563E-02
  14 F= -.19119630E+03 E0= -.19110600E+03  d E =-.296181E-01
       N       E                     dE             d eps       ncg     rms          rms(c)
DAV:   1    -0.191217269078E+03   -0.20956E-01   -0.23213E+01  8160   0.103E+01    0.127E+00
DAV:   2    -0.191401415319E+03   -0.18415E+00   -0.74254E-01 13560   0.490E+00    0.407E+00
DAV:   3    -0.191239227029E+03    0.16219E+00   -0.35353E-01 12000   0.440E+00    0.885E-01
DAV:   4    -0.191244908601E+03   -0.56816E-02   -0.48059E-02 11720   0.157E+00    0.115E+00
DAV:   5    -0.191230198379E+03    0.14710E-01   -0.29071E-02 11120   0.136E+00    0.495E-01
DAV:   6    -0.191228452801E+03    0.17456E-02   -0.11385E-02 12640   0.579E-01    0.317E-01
DAV:   7    -0.191228718219E+03   -0.26542E-03   -0.75043E-03 12040   0.572E-01    0.430E-01
DAV:   8    -0.191226725708E+03    0.19925E-02   -0.35145E-03 11360   0.419E-01    0.518E-02
DAV:   9    -0.191226750753E+03   -0.25044E-04   -0.19007E-04  6080   0.591E-02
  15 F= -.19122675E+03 E0= -.19113979E+03  d E =-.304474E-01
       N       E                     dE             d eps       ncg     rms          rms(c)
DAV:   1    -0.191312026717E+03   -0.85301E-01   -0.14549E+01  8160   0.803E+00    0.101E+00
DAV:   2    -0.191448088055E+03   -0.13606E+00   -0.52865E-01 13600   0.430E+00    0.331E+00
DAV:   3    -0.191328176065E+03    0.11991E+00   -0.22419E-01 12320   0.362E+00    0.595E-01
DAV:   4    -0.191329197306E+03   -0.10212E-02   -0.21457E-02 12320   0.897E-01    0.734E-01
DAV:   5    -0.191324429431E+03    0.47679E-02   -0.14607E-02 11840   0.924E-01    0.437E-01
DAV:   6    -0.191322777245E+03    0.16522E-02   -0.62999E-03 11400   0.486E-01    0.206E-01
DAV:   7    -0.191322336196E+03    0.44105E-03   -0.22115E-03 12280   0.225E-01    0.136E-01
DAV:   8    -0.191322194369E+03    0.14183E-03   -0.85813E-04  9360   0.192E-01    0.855E-02
DAV:   9    -0.191322129038E+03    0.65331E-04   -0.19874E-04  6360   0.906E-02
  16 F= -.19132213E+03 E0= -.19123072E+03  d E =-.953783E-01
       N       E                     dE             d eps       ncg     rms          rms(c)
DAV:   1    -0.191226833960E+03    0.95360E-01   -0.21104E+01  8160   0.972E+00    0.111E+00
DAV:   2    -0.191346467593E+03   -0.11963E+00   -0.59062E-01 13520   0.365E+00    0.275E+00
DAV:   3    -0.191248444072E+03    0.98024E-01   -0.16587E-01 12120   0.324E+00    0.735E-01
DAV:   4    -0.191247364222E+03    0.10798E-02   -0.27013E-02 12320   0.922E-01    0.691E-01
DAV:   5    -0.191243643568E+03    0.37207E-02   -0.17521E-02 12400   0.990E-01    0.547E-01
DAV:   6    -0.191241782205E+03    0.18614E-02   -0.10202E-02 12000   0.700E-01    0.323E-01
DAV:   7    -0.191240316181E+03    0.14660E-02   -0.33083E-03 12040   0.305E-01    0.791E-02
DAV:   8    -0.191240382165E+03   -0.65984E-04   -0.70667E-04 10400   0.167E-01
  17 F= -.19124038E+03 E0= -.19115111E+03  d E =0.817469E-01
       N       E                     dE             d eps       ncg     rms          rms(c)
DAV:   1    -0.191171212834E+03    0.69103E-01   -0.25542E+01  8160   0.107E+01    0.126E+00
DAV:   2    -0.191327718799E+03   -0.15651E+00   -0.73560E-01 13600   0.444E+00    0.320E+00
DAV:   3    -0.191193399836E+03    0.13432E+00   -0.20554E-01 11880   0.366E+00    0.730E-01
DAV:   4    -0.191195760274E+03   -0.23604E-02   -0.33620E-02 12400   0.113E+00    0.900E-01
DAV:   5    -0.191188299322E+03    0.74610E-02   -0.23823E-02 11760   0.120E+00    0.525E-01
DAV:   6    -0.191186834750E+03    0.14646E-02   -0.10917E-02 11680   0.652E-01    0.322E-01
DAV:   7    -0.191185046692E+03    0.17881E-02   -0.35726E-03 11320   0.283E-01    0.757E-02
DAV:   8    -0.191185120109E+03   -0.73417E-04   -0.66421E-04 10200   0.158E-01
  18 F= -.19118512E+03 E0= -.19109290E+03  d E =0.552621E-01
       N       E                     dE             d eps       ncg     rms          rms(c)
DAV:   1    -0.191283308949E+03   -0.98262E-01   -0.40783E+01  8160   0.135E+01    0.170E+00
DAV:   2    -0.191662026827E+03   -0.37872E+00   -0.14505E+00 13600   0.707E+00    0.567E+00
DAV:   3    -0.191334187695E+03    0.32784E+00   -0.68819E-01 12320   0.630E+00    0.113E+00
DAV:   4    -0.191338990737E+03   -0.48030E-02   -0.73047E-02 12080   0.188E+00    0.140E+00
DAV:   5    -0.191317770172E+03    0.21221E-01   -0.40117E-02 11240   0.159E+00    0.583E-01
DAV:   6    -0.191315032737E+03    0.27374E-02   -0.15835E-02 11360   0.671E-01    0.346E-01
DAV:   7    -0.191313854619E+03    0.11781E-02   -0.70332E-03 11880   0.437E-01    0.294E-01
DAV:   8    -0.191313047870E+03    0.80675E-03   -0.29380E-03 11040   0.367E-01    0.123E-01
DAV:   9    -0.191312922488E+03    0.12538E-03   -0.52369E-04  8880   0.129E-01    0.520E-02
DAV:  10    -0.191312857789E+03    0.64699E-04   -0.15302E-04  7040   0.472E-02
  19 F= -.19131286E+03 E0= -.19122012E+03  d E =-.127738E+00
       N       E                     dE             d eps       ncg     rms          rms(c)
DAV:   1    -0.191374497845E+03   -0.61575E-01   -0.45199E+00  8160   0.452E+00    0.544E-01
DAV:   2    -0.191402596489E+03   -0.28099E-01   -0.14964E-01 13400   0.206E+00    0.142E+00
DAV:   3    -0.191379341803E+03    0.23255E-01   -0.45137E-02 12360   0.168E+00    0.342E-01
DAV:   4    -0.191378251967E+03    0.10898E-02   -0.53099E-03 12080   0.365E-01    0.237E-01
DAV:   5    -0.191377951905E+03    0.30006E-03   -0.32970E-03 11560   0.381E-01    0.280E-01
DAV:   6    -0.191377575200E+03    0.37670E-03   -0.30448E-03 11440   0.412E-01    0.187E-01
DAV:   7    -0.191377150267E+03    0.42493E-03   -0.92743E-04  9880   0.184E-01    0.346E-02
DAV:   8    -0.191377137912E+03    0.12355E-04   -0.95165E-05  6600   0.417E-02
  20 F= -.19137714E+03 E0= -.19128208E+03  d E =-.642801E-01
       N       E                     dE             d eps       ncg     rms          rms(c)
DAV:   1    -0.191394790134E+03   -0.17640E-01   -0.57757E-01  8160   0.160E+00    0.190E-01
DAV:   2    -0.191399070101E+03   -0.42800E-02   -0.17656E-02 13280   0.718E-01    0.560E-01
DAV:   3    -0.191395352426E+03    0.37177E-02   -0.64759E-03 11640   0.640E-01    0.122E-01
DAV:   4    -0.191395459921E+03   -0.10750E-03   -0.91382E-04  9680   0.190E-01    0.152E-01
DAV:   5    -0.191395238282E+03    0.22164E-03   -0.59860E-04  8560   0.184E-01    0.722E-02
DAV:   6    -0.191395215720E+03    0.22562E-04   -0.18494E-04  5800   0.836E-02
  21 F= -.19139522E+03 E0= -.19130000E+03  d E =-.180778E-01
       N       E                     dE             d eps       ncg     rms          rms(c)
DAV:   1    -0.191333888362E+03    0.61350E-01   -0.16495E+01  8160   0.859E+00    0.106E+00
DAV:   2    -0.191456360296E+03   -0.12247E+00   -0.51546E-01 13600   0.412E+00    0.287E+00
DAV:   3    -0.191347197703E+03    0.10916E+00   -0.15541E-01 11960   0.326E+00    0.568E-01
DAV:   4    -0.191348538117E+03   -0.13404E-02   -0.22900E-02 12360   0.900E-01    0.698E-01
DAV:   5    -0.191344638761E+03    0.38994E-02   -0.16417E-02 12200   0.990E-01    0.483E-01
DAV:   6    -0.191342599199E+03    0.20396E-02   -0.72287E-03 11800   0.559E-01    0.221E-01
DAV:   7    -0.191341965442E+03    0.63376E-03   -0.20607E-03 12120   0.212E-01    0.869E-02
DAV:   8    -0.191341938913E+03    0.26529E-04   -0.55961E-04  9120   0.154E-01
  22 F= -.19134194E+03 E0= -.19124571E+03  d E =0.532768E-01
       N       E                     dE             d eps       ncg     rms          rms(c)
DAV:   1    -0.191446456455E+03   -0.10449E+00   -0.26395E+01  8160   0.108E+01    0.139E+00
DAV:   2    -0.191706657292E+03   -0.26020E+00   -0.99219E-01 13440   0.610E+00    0.464E+00
DAV:   3    -0.191480032392E+03    0.22662E+00   -0.41998E-01 12280   0.511E+00    0.824E-01
DAV:   4    -0.191484427133E+03   -0.43947E-02   -0.44218E-02 12320   0.148E+00    0.114E+00
DAV:   5    -0.191470589715E+03    0.13837E-01   -0.25962E-02 11520   0.129E+00    0.449E-01
DAV:   6    -0.191469484651E+03    0.11051E-02   -0.10316E-02 11960   0.521E-01    0.293E-01
DAV:   7    -0.191467970922E+03    0.15137E-02   -0.40826E-03 10720   0.280E-01    0.131E-01
DAV:   8    -0.191467965847E+03    0.50749E-05   -0.11847E-03 10040   0.225E-01    0.123E-01
DAV:   9    -0.191467810839E+03    0.15501E-03   -0.35891E-04  7920   0.124E-01    0.369E-02
DAV:  10    -0.191467784766E+03    0.26073E-04   -0.85285E-05  6320   0.360E-02
  23 F= -.19146778E+03 E0= -.19137173E+03  d E =-.125846E+00
       N       E                     dE             d eps       ncg     rms          rms(c)
DAV:   1    -0.191516614200E+03   -0.48803E-01   -0.28415E+00  8160   0.360E+00    0.389E-01
DAV:   2    -0.191527406754E+03   -0.10793E-01   -0.85335E-02 12960   0.126E+00    0.778E-01
DAV:   3    -0.191520901305E+03    0.65054E-02   -0.17384E-02 12400   0.104E+00    0.321E-01
DAV:   4    -0.191519958930E+03    0.94237E-03   -0.33573E-03 11120   0.360E-01    0.209E-01
DAV:   5    -0.191519908239E+03    0.50691E-04   -0.23907E-03 12360   0.361E-01    0.251E-01
DAV:   6    -0.191519434332E+03    0.47391E-03   -0.18662E-03 10200   0.318E-01    0.115E-01
DAV:   7    -0.191519254485E+03    0.17985E-03   -0.44866E-04  8440   0.116E-01    0.362E-02
DAV:   8    -0.191519266992E+03   -0.12507E-04   -0.11901E-04  6880   0.803E-02
  24 F= -.19151927E+03 E0= -.19142353E+03  d E =-.514822E-01
       N       E                     dE             d eps       ncg     rms          rms(c)
DAV:   1    -0.191554818293E+03   -0.35564E-01   -0.19362E+00  8160   0.292E+00    0.337E-01
DAV:   2    -0.191567781561E+03   -0.12963E-01   -0.56289E-02 13120   0.124E+00    0.968E-01
DAV:   3    -0.191557002472E+03    0.10779E-01   -0.19254E-02 12160   0.113E+00    0.235E-01
DAV:   4    -0.191557172004E+03   -0.16953E-03   -0.27157E-03 10880   0.352E-01    0.269E-01
DAV:   5    -0.191556458873E+03    0.71313E-03   -0.15230E-03  9880   0.314E-01    0.119E-01
DAV:   6    -0.191556412795E+03    0.46078E-04   -0.61731E-04 10200   0.136E-01
  25 F= -.19155641E+03 E0= -.19146124E+03  d E =-.371458E-01
       N       E                     dE             d eps       ncg     rms          rms(c)
DAV:   1    -0.191529589824E+03    0.26869E-01   -0.25411E+00  8160   0.337E+00    0.424E-01
DAV:   2    -0.191550153215E+03   -0.20563E-01   -0.79978E-02 13520   0.168E+00    0.121E+00
DAV:   3    -0.191531533174E+03    0.18620E-01   -0.26739E-02 12080   0.138E+00    0.240E-01
DAV:   4    -0.191531727841E+03   -0.19467E-03   -0.37663E-03 11440   0.374E-01    0.278E-01
DAV:   5    -0.191531157908E+03    0.56993E-03   -0.25928E-03 12040   0.399E-01    0.197E-01
DAV:   6    -0.191530795780E+03    0.36213E-03   -0.11218E-03  9760   0.220E-01    0.797E-02
DAV:   7    -0.191530731442E+03    0.64338E-04   -0.28975E-04  7680   0.743E-02
  26 F= -.19153073E+03 E0= -.19143516E+03  d E =0.256814E-01
       N       E                     dE             d eps       ncg     rms          rms(c)
DAV:   1    -0.191625773908E+03   -0.94978E-01   -0.12259E+01  8160   0.740E+00    0.935E-01
DAV:   2    -0.191738029642E+03   -0.11226E+00   -0.47063E-01 13560   0.413E+00    0.295E+00
DAV:   3    -0.191643200951E+03    0.94829E-01   -0.15887E-01 12240   0.329E+00    0.538E-01
DAV:   4    -0.191645274511E+03   -0.20736E-02   -0.19116E-02 12320   0.985E-01    0.772E-01
DAV:   5    -0.191638987214E+03    0.62873E-02   -0.12019E-02 11360   0.889E-01    0.304E-01
DAV:   6    -0.191638675269E+03    0.31195E-03   -0.50492E-03 11480   0.363E-01    0.213E-01
DAV:   7    -0.191637940074E+03    0.73520E-03   -0.22932E-03 12120   0.238E-01    0.140E-01
DAV:   8    -0.191637783250E+03    0.15682E-03   -0.60764E-04  8560   0.173E-01    0.562E-02
DAV:   9    -0.191637745330E+03    0.37920E-04   -0.85531E-05  5760   0.540E-02
  27 F= -.19163775E+03 E0= -.19154394E+03  d E =-.107014E+00
       N       E                     dE             d eps       ncg     rms          rms(c)
DAV:   1    -0.191710288494E+03   -0.72505E-01   -0.63305E+00  8160   0.532E+00    0.582E-01
DAV:   2    -0.191747903304E+03   -0.37615E-01   -0.21166E-01 13120   0.227E+00    0.157E+00
DAV:   3    -0.191721706059E+03    0.26197E-01   -0.53322E-02 12040   0.187E+00    0.444E-01
DAV:   4    -0.191721880121E+03   -0.17406E-03   -0.87701E-03 10960   0.678E-01    0.499E-01
DAV:   5    -0.191719177177E+03    0.27029E-02   -0.46136E-03 11520   0.568E-01    0.186E-01
DAV:   6    -0.191719309981E+03   -0.13280E-03   -0.22719E-03 12280   0.255E-01    0.179E-01
DAV:   7    -0.191719269550E+03    0.40431E-04   -0.19015E-03 10640   0.310E-01    0.212E-01
DAV:   8    -0.191718787707E+03    0.48184E-03   -0.80023E-04  8280   0.214E-01    0.308E-02
DAV:   9    -0.191718792702E+03   -0.49952E-05   -0.64708E-05  5480   0.335E-02
  28 F= -.19171879E+03 E0= -.19162666E+03  d E =-.810474E-01
       N       E                     dE             d eps       ncg     rms          rms(c)
DAV:   1    -0.191779183134E+03   -0.60395E-01   -0.43987E+00  8160   0.447E+00    0.546E-01
DAV:   2    -0.191812797890E+03   -0.33615E-01   -0.17840E-01 13600   0.225E+00    0.155E+00
DAV:   3    -0.191787353115E+03    0.25445E-01   -0.46892E-02 12080   0.177E+00    0.374E-01
DAV:   4    -0.191787955233E+03   -0.60212E-03   -0.80324E-03 11000   0.663E-01    0.487E-01
DAV:   5    -0.191785374439E+03    0.25808E-02   -0.46167E-03 11120   0.567E-01    0.184E-01
DAV:   6    -0.191785374504E+03   -0.64737E-07   -0.21500E-03 11360   0.256E-01    0.169E-01
DAV:   7    -0.191785433776E+03   -0.59272E-04   -0.18039E-03 10600   0.316E-01    0.216E-01
DAV:   8    -0.191784904693E+03    0.52908E-03   -0.76414E-04  8240   0.211E-01    0.234E-02
DAV:   9    -0.191784916401E+03   -0.11708E-04   -0.60131E-05  5480   0.286E-02
  29 F= -.19178492E+03 E0= -.19169365E+03  d E =-.661237E-01
       N       E                     dE             d eps       ncg     rms          rms(c)
DAV:   1    -0.191882519960E+03   -0.97615E-01   -0.27081E+01  8160   0.110E+01    0.119E+00
DAV:   2    -0.192031443908E+03   -0.14892E+00   -0.95554E-01 12880   0.449E+00    0.310E+00
DAV:   3    -0.191941392339E+03    0.90052E-01   -0.23678E-01 12000   0.386E+00    0.103E+00
DAV:   4    -0.191937300205E+03    0.40921E-02   -0.41047E-02 12160   0.148E+00    0.967E-01
DAV:   5    -0.191926818104E+03    0.10482E-01   -0.19287E-02 12160   0.118E+00    0.418E-01
DAV:   6    -0.191926903444E+03   -0.85339E-04   -0.10717E-02 12520   0.620E-01    0.416E-01
DAV:   7    -0.191927225349E+03   -0.32191E-03   -0.10023E-02 12000   0.775E-01    0.493E-01
DAV:   8    -0.191924444803E+03    0.27805E-02   -0.44743E-03 11440   0.510E-01    0.693E-02
DAV:   9    -0.191924416156E+03    0.28647E-04   -0.38402E-04  9600   0.699E-02
  30 F= -.19192442E+03 E0= -.19183501E+03  d E =-.139500E+00
       N       E                     dE             d eps       ncg     rms          rms(c)
DAV:   1    -0.191958927037E+03   -0.34482E-01   -0.23558E+00  8160   0.335E+00    0.537E-01
DAV:   2    -0.191977702797E+03   -0.18776E-01   -0.13483E-01 13320   0.182E+00    0.123E+00
DAV:   3    -0.191962396162E+03    0.15307E-01   -0.33245E-02 12200   0.151E+00    0.396E-01
DAV:   4    -0.191962334535E+03    0.61626E-04   -0.89224E-03 12080   0.690E-01    0.482E-01
DAV:   5    -0.191960206255E+03    0.21283E-02   -0.62211E-03 12080   0.655E-01    0.274E-01
DAV:   6    -0.191959524236E+03    0.68202E-03   -0.29790E-03 11200   0.342E-01    0.152E-01
DAV:   7    -0.191959561307E+03   -0.37070E-04   -0.16010E-03 11160   0.298E-01    0.191E-01
DAV:   8    -0.191959148822E+03    0.41248E-03   -0.66438E-04  8800   0.204E-01    0.336E-02
DAV:   9    -0.191959138875E+03    0.99479E-05   -0.59235E-05  6040   0.362E-02
  31 F= -.19195914E+03 E0= -.19186929E+03  d E =-.347227E-01
       N       E                     dE             d eps       ncg     rms          rms(c)
DAV:   1    -0.191979714882E+03   -0.20566E-01   -0.13734E+00  8160   0.249E+00    0.280E-01
DAV:   2    -0.191984008230E+03   -0.42933E-02   -0.52561E-02 11440   0.773E-01    0.399E-01
DAV:   3    -0.191983814440E+03    0.19379E-03   -0.93745E-03 12240   0.732E-01    0.404E-01
DAV:   4    -0.191981988155E+03    0.18263E-02   -0.28988E-03 11200   0.411E-01    0.109E-01
DAV:   5    -0.191982041966E+03   -0.53811E-04   -0.10085E-03 10040   0.186E-01    0.146E-01
DAV:   6    -0.191982011287E+03    0.30679E-04   -0.10714E-03 11560   0.255E-01    0.137E-01
DAV:   7    -0.191981806533E+03    0.20475E-03   -0.43481E-04  8240   0.145E-01    0.313E-02
DAV:   8    -0.191981799499E+03    0.70342E-05   -0.67119E-05  5680   0.368E-02
  32 F= -.19198180E+03 E0= -.19189266E+03  d E =-.226606E-01
       N       E                     dE             d eps       ncg     rms          rms(c)
DAV:   1    -0.191998376465E+03   -0.16570E-01   -0.90292E-01  8160   0.205E+00    0.264E-01
DAV:   2    -0.192002857151E+03   -0.44807E-02   -0.41068E-02 13400   0.830E-01    0.517E-01
DAV:   3    -0.192000480728E+03    0.23764E-02   -0.76150E-03 11880   0.701E-01    0.245E-01
DAV:   4    -0.192000092590E+03    0.38814E-03   -0.22815E-03 10960   0.346E-01    0.202E-01
DAV:   5    -0.191999744290E+03    0.34830E-03   -0.12926E-03  9640   0.299E-01    0.135E-01
DAV:   6    -0.191999618683E+03    0.12561E-03   -0.75034E-04  9600   0.183E-01    0.828E-02
DAV:   7    -0.191999609190E+03    0.94932E-05   -0.39857E-04  9440   0.152E-01
  33 F= -.19199961E+03 E0= -.19191040E+03  d E =-.178097E-01
       N       E                     dE             d eps       ncg     rms          rms(c)
DAV:   1    -0.192020309527E+03   -0.20691E-01   -0.28969E+00  8160   0.361E+00    0.392E-01
DAV:   2    -0.192031679559E+03   -0.11370E-01   -0.11513E-01 12080   0.118E+00    0.660E-01
DAV:   3    -0.192029392450E+03    0.22871E-02   -0.20544E-02 11480   0.106E+00    0.487E-01
DAV:   4    -0.192027049688E+03    0.23428E-02   -0.54963E-03 12280   0.536E-01    0.220E-01
DAV:   5    -0.192026642039E+03    0.40765E-03   -0.18224E-03 11120   0.345E-01    0.172E-01
DAV:   6    -0.192026550443E+03    0.91595E-04   -0.13375E-03 12400   0.271E-01    0.127E-01
DAV:   7    -0.192026323132E+03    0.22731E-03   -0.63608E-04 10400   0.133E-01    0.498E-02
DAV:   8    -0.192026315997E+03    0.71352E-05   -0.12114E-04  7280   0.895E-02
  34 F= -.19202632E+03 E0= -.19193741E+03  d E =-.267068E-01
       N       E                     dE             d eps       ncg     rms          rms(c)
DAV:   1    -0.192035100594E+03   -0.87775E-02   -0.36512E-01  8160   0.135E+00    0.234E-01
DAV:   2    -0.192036635684E+03   -0.15351E-02   -0.19589E-02 11920   0.620E-01    0.404E-01
DAV:   3    -0.192035241830E+03    0.13939E-02   -0.47667E-03 11720   0.582E-01    0.213E-01
DAV:   4    -0.192034843884E+03    0.39795E-03   -0.17008E-03 11080   0.307E-01    0.163E-01
DAV:   5    -0.192034706441E+03    0.13744E-03   -0.11507E-03 10000   0.277E-01    0.146E-01
DAV:   6    -0.192034464213E+03    0.24223E-03   -0.59457E-04  8920   0.183E-01    0.572E-02
DAV:   7    -0.192034470431E+03   -0.62171E-05   -0.22590E-04  6920   0.112E-01
  35 F= -.19203447E+03 E0= -.19194515E+03  d E =-.815443E-02
       N       E                     dE             d eps       ncg     rms          rms(c)
DAV:   1    -0.192043004999E+03   -0.85408E-02   -0.52784E-01  8160   0.154E+00    0.179E-01
DAV:   2    -0.192044660323E+03   -0.16553E-02   -0.20996E-02 11360   0.493E-01    0.228E-01
DAV:   3    -0.192044636598E+03    0.23724E-04   -0.34401E-03 12400   0.437E-01    0.240E-01
DAV:   4    -0.192044057861E+03    0.57874E-03   -0.14014E-03  9720   0.288E-01    0.104E-01
DAV:   5    -0.192044013041E+03    0.44820E-04   -0.44614E-04  8240   0.154E-01
  36 F= -.19204401E+03 E0= -.19195500E+03  d E =-.954261E-02
       N       E                     dE             d eps       ncg     rms          rms(c)
DAV:   1    -0.192054175644E+03   -0.10118E-01   -0.90768E-01  8160   0.205E+00    0.236E-01
DAV:   2    -0.192056299039E+03   -0.21234E-02   -0.33237E-02 12240   0.480E-01    0.197E-01
DAV:   3    -0.192057104638E+03   -0.80560E-03   -0.40335E-03 12440   0.497E-01    0.345E-01
DAV:   4    -0.192055797528E+03    0.13071E-02   -0.22821E-03 10960   0.395E-01    0.119E-01
DAV:   5    -0.192055871662E+03   -0.74135E-04   -0.87243E-04 10040   0.224E-01
  37 F= -.19205587E+03 E0= -.19196697E+03  d E =-.118586E-01
       N       E                     dE             d eps       ncg     rms          rms(c)
DAV:   1    -0.192070628592E+03   -0.14831E-01   -0.27527E+00  8160   0.360E+00    0.433E-01
DAV:   2    -0.192076971368E+03   -0.63428E-02   -0.10116E-01 12200   0.902E-01    0.448E-01
DAV:   3    -0.192079241733E+03   -0.22704E-02   -0.18260E-02 12400   0.101E+00    0.658E-01
DAV:   4    -0.192074458782E+03    0.47830E-02   -0.82578E-03 12280   0.709E-01    0.188E-01
DAV:   5    -0.192074153802E+03    0.30498E-03   -0.25191E-03 10680   0.239E-01    0.146E-01
DAV:   6    -0.192074226274E+03   -0.72472E-04   -0.13969E-03 12120   0.298E-01    0.179E-01
DAV:   7    -0.192073797576E+03    0.42870E-03   -0.57905E-04  9560   0.215E-01    0.298E-02
DAV:   8    -0.192073797615E+03   -0.39248E-07   -0.72270E-05  6720   0.459E-02
  38 F= -.19207380E+03 E0= -.19198408E+03  d E =-.179260E-01
       N       E                     dE             d eps       ncg     rms          rms(c)
DAV:   1    -0.192080521031E+03   -0.67235E-02   -0.47423E-01  8160   0.147E+00    0.198E-01
DAV:   2    -0.192083093083E+03   -0.25721E-02   -0.19113E-02 11400   0.623E-01    0.401E-01
DAV:   3    -0.192081356292E+03    0.17368E-02   -0.43642E-03 12040   0.546E-01    0.165E-01
DAV:   4    -0.192081273670E+03    0.82622E-04   -0.11074E-03  9920   0.248E-01    0.147E-01
DAV:   5    -0.192081099607E+03    0.17406E-03   -0.66232E-04  9360   0.216E-01    0.972E-02
DAV:   6    -0.192081030503E+03    0.69104E-04   -0.34081E-04  8880   0.129E-01
  39 F= -.19208103E+03 E0= -.19199118E+03  d E =-.723289E-02
       N       E                     dE             d eps       ncg     rms          rms(c)
DAV:   1    -0.192082756598E+03   -0.16570E-02   -0.24988E-02  8160   0.367E-01    0.840E-02
DAV:   2    -0.192083604990E+03   -0.84839E-03   -0.23911E-03 12760   0.348E-01    0.279E-01
DAV:   3    -0.192082685319E+03    0.91967E-03   -0.13974E-03  9840   0.316E-01    0.454E-02
DAV:   4    -0.192082714308E+03   -0.28988E-04   -0.12136E-04  5840   0.786E-02
  40 F= -.19208271E+03 E0= -.19199270E+03  d E =-.168380E-02
       N       E                     dE             d eps       ncg     rms          rms(c)
DAV:   1    -0.192084129986E+03   -0.14447E-02   -0.40780E-02  8160   0.441E-01    0.685E-02
DAV:   2    -0.192084728028E+03   -0.59804E-03   -0.26864E-03 13400   0.275E-01    0.213E-01
DAV:   3    -0.192084219069E+03    0.50896E-03   -0.79695E-04  9160   0.237E-01    0.374E-02
DAV:   4    -0.192084225217E+03   -0.61474E-05   -0.58284E-05  5800   0.512E-02
  41 F= -.19208423E+03 E0= -.19199432E+03  d E =-.151091E-02
       N       E                     dE             d eps       ncg     rms          rms(c)
DAV:   1    -0.192085613359E+03   -0.13943E-02   -0.79177E-02  8160   0.649E-01    0.151E-01
DAV:   2    -0.192086166620E+03   -0.55326E-03   -0.58671E-03 11600   0.423E-01    0.299E-01
DAV:   3    -0.192085287368E+03    0.87925E-03   -0.22813E-03 10880   0.391E-01    0.126E-01
DAV:   4    -0.192085209936E+03    0.77432E-04   -0.75143E-04  8360   0.209E-01
  42 F= -.19208521E+03 E0= -.19199581E+03  d E =-.984719E-03
       N       E                     dE             d eps       ncg     rms          rms(c)
DAV:   1    -0.192092338743E+03   -0.70514E-02   -0.39281E-01  8160   0.138E+00    0.218E-01
DAV:   2    -0.192093583537E+03   -0.12448E-02   -0.14004E-02 12880   0.583E-01    0.360E-01
DAV:   3    -0.192092067052E+03    0.15165E-02   -0.36882E-03 11760   0.521E-01    0.162E-01
DAV:   4    -0.192091932105E+03    0.13495E-03   -0.14266E-03 10720   0.237E-01    0.135E-01
DAV:   5    -0.192091701671E+03    0.23043E-03   -0.97531E-04 10280   0.204E-01    0.113E-01
DAV:   6    -0.192091607587E+03    0.94085E-04   -0.47717E-04  8840   0.176E-01
  43 F= -.19209161E+03 E0= -.19200155E+03  d E =-.639765E-02
       N       E                     dE             d eps       ncg     rms          rms(c)
DAV:   1    -0.192099259722E+03   -0.75581E-02   -0.57589E-01  8160   0.165E+00    0.224E-01
DAV:   2    -0.192100500090E+03   -0.12404E-02   -0.19786E-02 11880   0.451E-01    0.269E-01
DAV:   3    -0.192100277419E+03    0.22267E-03   -0.46285E-03 12600   0.503E-01    0.278E-01
DAV:   4    -0.192099629865E+03    0.64755E-03   -0.19025E-03 11760   0.356E-01    0.136E-01
DAV:   5    -0.192099363527E+03    0.26634E-03   -0.79193E-04 10000   0.172E-01    0.864E-02
DAV:   6    -0.192099426382E+03   -0.62855E-04   -0.53098E-04  9560   0.187E-01
  44 F= -.19209943E+03 E0= -.19200900E+03  d E =-.781880E-02
       N       E                     dE             d eps       ncg     rms          rms(c)
DAV:   1    -0.192100460354E+03   -0.10968E-02   -0.17162E-02  8200   0.306E-01    0.553E-02
DAV:   2    -0.192100794464E+03   -0.33411E-03   -0.10727E-03 12080   0.226E-01    0.162E-01
DAV:   3    -0.192100455696E+03    0.33877E-03   -0.46975E-04  9080   0.194E-01    0.325E-02
DAV:   4    -0.192100467501E+03   -0.11805E-04   -0.73128E-05  6120   0.615E-02
  45 F= -.19210047E+03 E0= -.19200992E+03  d E =-.104112E-02
       N       E                     dE             d eps       ncg     rms          rms(c)
DAV:   1    -0.192102772624E+03   -0.23169E-02   -0.51703E-02  8160   0.495E-01    0.756E-02
DAV:   2    -0.192103079770E+03   -0.30715E-03   -0.20816E-03 11560   0.209E-01    0.161E-01
DAV:   3    -0.192102805631E+03    0.27414E-03   -0.81830E-04 10640   0.215E-01    0.756E-02
DAV:   4    -0.192102767994E+03    0.37637E-04   -0.19037E-04  6680   0.948E-02
  46 F= -.19210277E+03 E0= -.19201223E+03  d E =-.230049E-02
       N       E                     dE             d eps       ncg     rms          rms(c)
DAV:   1    -0.192102521965E+03    0.28367E-03   -0.15060E-02  8160   0.263E-01    0.465E-02
DAV:   2    -0.192102752145E+03   -0.23018E-03   -0.10010E-03 11920   0.185E-01    0.129E-01
DAV:   3    -0.192102538973E+03    0.21317E-03   -0.30499E-04  8840   0.152E-01    0.239E-02
DAV:   4    -0.192102555628E+03   -0.16655E-04   -0.57897E-05  5960   0.570E-02
  47 F= -.19210256E+03 E0= -.19201182E+03  d E =0.212365E-03
       N       E                     dE             d eps       ncg     rms          rms(c)
DAV:   1    -0.192108472316E+03   -0.59333E-02   -0.34905E-01  8160   0.128E+00    0.174E-01
DAV:   2    -0.192109131623E+03   -0.65931E-03   -0.11818E-02 11600   0.339E-01    0.199E-01
DAV:   3    -0.192109154091E+03   -0.22469E-04   -0.30068E-03 11800   0.388E-01    0.237E-01
DAV:   4    -0.192108659707E+03    0.49438E-03   -0.14051E-03 10560   0.285E-01    0.103E-01
DAV:   5    -0.192108516284E+03    0.14342E-03   -0.46043E-04  8320   0.138E-01    0.675E-02
DAV:   6    -0.192108520907E+03   -0.46223E-05   -0.23753E-04  8400   0.136E-01
  48 F= -.19210852E+03 E0= -.19201741E+03  d E =-.596528E-02
       N       E                     dE             d eps       ncg     rms          rms(c)
DAV:   1    -0.192110400387E+03   -0.18841E-02   -0.36963E-02  8160   0.425E-01    0.622E-02
DAV:   2    -0.192110547498E+03   -0.14711E-03   -0.13885E-03 12400   0.163E-01    0.106E-01
DAV:   3    -0.192110419768E+03    0.12773E-03   -0.38181E-04  8880   0.156E-01    0.570E-02
DAV:   4    -0.192110400742E+03    0.19026E-04   -0.10517E-04  5920   0.855E-02
  49 F= -.19211040E+03 E0= -.19201942E+03  d E =-.187984E-02
       N       E                     dE             d eps       ncg     rms          rms(c)
DAV:   1    -0.192114275191E+03   -0.38554E-02   -0.15559E-01  8160   0.852E-01    0.114E-01
DAV:   2    -0.192114654974E+03   -0.37978E-03   -0.50300E-03 11480   0.238E-01    0.153E-01
DAV:   3    -0.192114529452E+03    0.12552E-03   -0.12201E-03 11080   0.272E-01    0.132E-01
DAV:   4    -0.192114382316E+03    0.14714E-03   -0.42991E-04  8280   0.164E-01    0.618E-02
DAV:   5    -0.192114319948E+03    0.62368E-04   -0.15490E-04  6160   0.699E-02
  50 F= -.19211432E+03 E0= -.19202315E+03  d E =-.391921E-02
       N       E                     dE             d eps       ncg     rms          rms(c)
DAV:   1    -0.192123533235E+03   -0.91509E-02   -0.89712E-01  8160   0.204E+00    0.267E-01
DAV:   2    -0.192126713466E+03   -0.31802E-02   -0.29529E-02 11720   0.678E-01    0.432E-01
DAV:   3    -0.192124738070E+03    0.19754E-02   -0.66912E-03 12120   0.662E-01    0.242E-01
DAV:   4    -0.192124382129E+03    0.35594E-03   -0.19058E-03 11880   0.333E-01    0.169E-01
DAV:   5    -0.192124146114E+03    0.23601E-03   -0.11184E-03 10240   0.267E-01    0.134E-01
DAV:   6    -0.192124024212E+03    0.12190E-03   -0.64811E-04 10280   0.201E-01    0.788E-02
DAV:   7    -0.192123960920E+03    0.63292E-04   -0.19265E-04  6600   0.987E-02
  51 F= -.19212396E+03 E0= -.19203256E+03  d E =-.964097E-02
       N       E                     dE             d eps       ncg     rms          rms(c)
DAV:   1    -0.192130915383E+03   -0.68912E-02   -0.56596E-01  8160   0.161E+00    0.199E-01
DAV:   2    -0.192132370197E+03   -0.14548E-02   -0.17915E-02 11800   0.429E-01    0.249E-01
DAV:   3    -0.192131841595E+03    0.52860E-03   -0.34348E-03 12320   0.428E-01    0.200E-01
DAV:   4    -0.192131549939E+03    0.29166E-03   -0.11035E-03 10960   0.281E-01    0.122E-01
DAV:   5    -0.192131386194E+03    0.16375E-03   -0.53937E-04  8520   0.173E-01    0.863E-02
DAV:   6    -0.192131391253E+03   -0.50589E-05   -0.36451E-04  9480   0.161E-01
  52 F= -.19213139E+03 E0= -.19203982E+03  d E =-.743033E-02
       N       E                     dE             d eps       ncg     rms          rms(c)
DAV:   1    -0.192135596850E+03   -0.42107E-02   -0.22013E-01  8160   0.101E+00    0.124E-01
DAV:   2    -0.192136113565E+03   -0.51672E-03   -0.68602E-03 12240   0.266E-01    0.146E-01
DAV:   3    -0.192135986020E+03    0.12754E-03   -0.12726E-03 11520   0.264E-01    0.131E-01
DAV:   4    -0.192135852607E+03    0.13341E-03   -0.47696E-04  9440   0.180E-01    0.776E-02
DAV:   5    -0.192135798122E+03    0.54485E-04   -0.25049E-04  7520   0.117E-01
  53 F= -.19213580E+03 E0= -.19204413E+03  d E =-.440687E-02
       N       E                     dE             d eps       ncg     rms          rms(c)
DAV:   1    -0.192139585295E+03   -0.37327E-02   -0.16940E-01  8160   0.886E-01    0.122E-01
DAV:   2    -0.192140362068E+03   -0.77677E-03   -0.57167E-03 12720   0.345E-01    0.228E-01
DAV:   3    -0.192139765271E+03    0.59680E-03   -0.13439E-03 11480   0.322E-01    0.906E-02
DAV:   4    -0.192139730154E+03    0.35117E-04   -0.32238E-04  7680   0.126E-01
  54 F= -.19213973E+03 E0= -.19204803E+03  d E =-.393203E-02
       N       E                     dE             d eps       ncg     rms          rms(c)
DAV:   1    -0.192144522672E+03   -0.47574E-02   -0.29933E-01  8160   0.117E+00    0.157E-01
DAV:   2    -0.192145412826E+03   -0.89015E-03   -0.94574E-03 12640   0.343E-01    0.229E-01
DAV:   3    -0.192144987142E+03    0.42568E-03   -0.24947E-03 12200   0.384E-01    0.175E-01
DAV:   4    -0.192144748404E+03    0.23874E-03   -0.90922E-04  9960   0.222E-01    0.867E-02
DAV:   5    -0.192144631774E+03    0.11663E-03   -0.33238E-04  7800   0.956E-02    0.448E-02
DAV:   6    -0.192144677431E+03   -0.45657E-04   -0.16767E-04  7200   0.113E-01
  55 F= -.19214468E+03 E0= -.19205288E+03  d E =-.494728E-02
       N       E                     dE             d eps       ncg     rms          rms(c)
DAV:   1    -0.192148957490E+03   -0.43257E-02   -0.28016E-01  8160   0.114E+00    0.143E-01
DAV:   2    -0.192149590965E+03   -0.63347E-03   -0.97204E-03 12160   0.279E-01    0.145E-01
DAV:   3    -0.192149573238E+03    0.17727E-04   -0.16954E-03 11080   0.284E-01    0.169E-01
DAV:   4    -0.192149309539E+03    0.26370E-03   -0.69915E-04  9760   0.223E-01    0.860E-02
DAV:   5    -0.192149224581E+03    0.84958E-04   -0.29761E-04  7280   0.118E-01
  56 F= -.19214922E+03 E0= -.19205740E+03  d E =-.454715E-02
       N       E                     dE             d eps       ncg     rms          rms(c)
DAV:   1    -0.192152418428E+03   -0.31089E-02   -0.15334E-01  8160   0.844E-01    0.129E-01
DAV:   2    -0.192153763960E+03   -0.13455E-02   -0.67121E-03 12680   0.479E-01    0.309E-01
DAV:   3    -0.192152559732E+03    0.12042E-02   -0.18876E-03 12160   0.393E-01    0.683E-02
DAV:   4    -0.192152559514E+03    0.21835E-06   -0.21208E-04  6400   0.107E-01
  57 F= -.19215256E+03 E0= -.19206083E+03  d E =-.333493E-02
       N       E                     dE             d eps       ncg     rms          rms(c)
DAV:   1    -0.192157741233E+03   -0.51815E-02   -0.57089E-01  8160   0.162E+00    0.196E-01
DAV:   2    -0.192159272137E+03   -0.15309E-02   -0.18975E-02 12960   0.451E-01    0.236E-01
DAV:   3    -0.192158944713E+03    0.32742E-03   -0.31458E-03 11800   0.426E-01    0.213E-01
DAV:   4    -0.192158581843E+03    0.36287E-03   -0.12064E-03 10560   0.288E-01    0.123E-01
DAV:   5    -0.192158453742E+03    0.12810E-03   -0.63375E-04  9040   0.186E-01    0.941E-02
DAV:   6    -0.192158442347E+03    0.11394E-04   -0.38582E-04  9360   0.165E-01
  58 F= -.19215844E+03 E0= -.19206667E+03  d E =-.588283E-02
       N       E                     dE             d eps       ncg     rms          rms(c)
DAV:   1    -0.192160266495E+03   -0.18128E-02   -0.67511E-02  8160   0.564E-01    0.842E-02
DAV:   2    -0.192160406622E+03   -0.14013E-03   -0.28749E-03 11000   0.179E-01    0.930E-02
DAV:   3    -0.192160417799E+03   -0.11177E-04   -0.60209E-04 10000   0.193E-01
  59 F= -.19216042E+03 E0= -.19206856E+03  d E =-.197545E-02
       N       E                     dE             d eps       ncg     rms          rms(c)
DAV:   1    -0.192163379336E+03   -0.29727E-02   -0.21675E-01  8160   0.100E+00    0.140E-01
DAV:   2    -0.192164054994E+03   -0.67566E-03   -0.80712E-03 12920   0.319E-01    0.189E-01
DAV:   3    -0.192163752265E+03    0.30273E-03   -0.18505E-03 11800   0.314E-01    0.155E-01
DAV:   4    -0.192163570563E+03    0.18170E-03   -0.72395E-04  9600   0.217E-01    0.901E-02
DAV:   5    -0.192163444603E+03    0.12596E-03   -0.26435E-04  7040   0.894E-02    0.302E-02
DAV:   6    -0.192163475022E+03   -0.30419E-04   -0.10764E-04  6760   0.817E-02
  60 F= -.19216348E+03 E0= -.19207159E+03  d E =-.305722E-02
       N       E                     dE             d eps       ncg     rms          rms(c)
DAV:   1    -0.192166156374E+03   -0.27118E-02   -0.22342E-01  8160   0.101E+00    0.115E-01
DAV:   2    -0.192166935469E+03   -0.77910E-03   -0.86320E-03 13000   0.331E-01    0.153E-01
DAV:   3    -0.192166768390E+03    0.16708E-03   -0.11218E-03 10920   0.266E-01    0.114E-01
DAV:   4    -0.192166641289E+03    0.12710E-03   -0.33246E-04  8440   0.150E-01    0.631E-02
DAV:   5    -0.192166613153E+03    0.28136E-04   -0.14416E-04  5480   0.945E-02
  61 F= -.19216661E+03 E0= -.19207499E+03  d E =-.313813E-02
       N       E                     dE             d eps       ncg     rms          rms(c)
DAV:   1    -0.192169440134E+03   -0.27988E-02   -0.30996E-01  8160   0.119E+00    0.148E-01
DAV:   2    -0.192170647201E+03   -0.12071E-02   -0.12096E-02 12400   0.441E-01    0.231E-01
DAV:   3    -0.192170122996E+03    0.52420E-03   -0.17126E-03 12320   0.363E-01    0.117E-01
DAV:   4    -0.192169928279E+03    0.19472E-03   -0.30035E-04  7400   0.132E-01    0.473E-02
DAV:   5    -0.192169999344E+03   -0.71066E-04   -0.28783E-04  7800   0.118E-01
  62 F= -.19217000E+03 E0= -.19207876E+03  d E =-.338619E-02
       N       E                     dE             d eps       ncg     rms          rms(c)
DAV:   1    -0.192173066695E+03   -0.31384E-02   -0.10460E+00  8160   0.219E+00    0.240E-01
DAV:   2    -0.192176224039E+03   -0.31573E-02   -0.38534E-02 12160   0.617E-01    0.262E-01
DAV:   3    -0.192176212074E+03    0.11965E-04   -0.46702E-03 12200   0.529E-01    0.281E-01
DAV:   4    -0.192175344766E+03    0.86731E-03   -0.16384E-03 10280   0.340E-01    0.122E-01
DAV:   5    -0.192175278941E+03    0.65825E-04   -0.69674E-04  8920   0.201E-01
  63 F= -.19217528E+03 E0= -.19208469E+03  d E =-.527960E-02
       N       E                     dE             d eps       ncg     rms          rms(c)
DAV:   1    -0.192175867800E+03   -0.52303E-03   -0.24784E+00  8160   0.337E+00    0.377E-01
DAV:   2    -0.192184018731E+03   -0.81509E-02   -0.89590E-02 11560   0.999E-01    0.486E-01
DAV:   3    -0.192182485044E+03    0.15337E-02   -0.10677E-02 12400   0.892E-01    0.369E-01
DAV:   4    -0.192180615676E+03    0.18694E-02   -0.24257E-03 11720   0.413E-01    0.114E-01
DAV:   5    -0.192181182313E+03   -0.56664E-03   -0.16187E-03 12120   0.307E-01    0.239E-01
DAV:   6    -0.192180619506E+03    0.56281E-03   -0.15132E-03 10920   0.330E-01    0.921E-02
DAV:   7    -0.192180488498E+03    0.13101E-03   -0.26880E-04  7760   0.100E-01    0.197E-02
DAV:   8    -0.192180488510E+03   -0.12159E-07   -0.55924E-05  7600   0.281E-02
  64 F= -.19218049E+03 E0= -.19209116E+03  d E =-.520957E-02
       N       E                     dE             d eps       ncg     rms          rms(c)
DAV:   1    -0.192181054381E+03   -0.56588E-03   -0.38017E-02  8160   0.426E-01    0.722E-02
DAV:   2    -0.192181272267E+03   -0.21789E-03   -0.20361E-03 11840   0.213E-01    0.141E-01
DAV:   3    -0.192181068539E+03    0.20373E-03   -0.56603E-04  9160   0.195E-01    0.580E-02
DAV:   4    -0.192181017370E+03    0.51169E-04   -0.95192E-05  6240   0.739E-02
  65 F= -.19218102E+03 E0= -.19209160E+03  d E =-.528860E-03
