       N       E                     dE             d eps       ncg     rms          rms(c)
DAV:   1     0.112461599241E+04    0.11246E+04   -0.35863E+04  8160   0.577E+02
DAV:   2    -0.152555012103E+01   -0.11261E+04   -0.10835E+04 11000   0.173E+02
DAV:   3    -0.199677333555E+03   -0.19815E+03   -0.18988E+03 10920   0.821E+01
DAV:   4    -0.208957771240E+03   -0.92804E+01   -0.89749E+01 12040   0.261E+01
DAV:   5    -0.209303302825E+03   -0.34553E+00   -0.34450E+00 11720   0.371E+00    0.275E+01
DAV:   6    -0.236709407296E+03   -0.27406E+02   -0.10809E+02 12720   0.604E+01    0.593E+01
DAV:   7    -0.196695687939E+03    0.40014E+02   -0.17828E+02 13160   0.151E+02    0.202E+01
DAV:   8    -0.189935779260E+03    0.67599E+01   -0.20089E+01 11760   0.133E+01    0.134E+01
DAV:   9    -0.188238620539E+03    0.16972E+01   -0.28943E+00 11800   0.622E+00    0.920E+00
DAV:  10    -0.187050334574E+03    0.11883E+01   -0.18669E+00 13320   0.773E+00    0.291E+00
DAV:  11    -0.187027043375E+03    0.23291E-01   -0.62334E-01 13600   0.305E+00    0.309E+00
DAV:  12    -0.187173662580E+03   -0.14662E+00   -0.82120E-01 13120   0.525E+00    0.577E+00
DAV:  13    -0.186922212213E+03    0.25145E+00   -0.77850E-01 12760   0.415E+00    0.213E+00
DAV:  14    -0.186875893476E+03    0.46319E-01   -0.11900E-01 13040   0.203E+00    0.793E-01
DAV:  15    -0.186869609054E+03    0.62844E-02   -0.11983E-02 12840   0.439E-01    0.286E-01
DAV:  16    -0.186870797004E+03   -0.11880E-02   -0.80231E-03 13320   0.519E-01    0.538E-01
DAV:  17    -0.186868527968E+03    0.22690E-02   -0.61775E-03 12480   0.449E-01    0.213E-01
DAV:  18    -0.186867958480E+03    0.56949E-03   -0.11503E-03 11480   0.141E-01    0.570E-02
DAV:  19    -0.186868579531E+03   -0.62105E-03   -0.74584E-04  9400   0.567E-02    0.696E-02
DAV:  20    -0.186868910793E+03   -0.33126E-03   -0.28403E-04  7280   0.495E-02    0.476E-02
DAV:  21    -0.186870103095E+03   -0.11923E-02   -0.33147E-04  8960   0.497E-02    0.338E-02
DAV:  22    -0.186871494801E+03   -0.13917E-02   -0.15888E-04  7800   0.389E-02    0.146E-02
DAV:  23    -0.186872120566E+03   -0.62576E-03   -0.29623E-05  6440   0.168E-02    0.712E-03
DAV:  24    -0.186872375163E+03   -0.25460E-03   -0.14311E-05  5920   0.107E-02    0.537E-03
DAV:  25    -0.186872735890E+03   -0.36073E-03   -0.13192E-05  5440   0.901E-03    0.270E-03
DAV:  26    -0.186872965215E+03   -0.22932E-03   -0.86602E-06  6800   0.617E-03    0.248E-03
DAV:  27    -0.186873058634E+03   -0.93419E-04   -0.36481E-06  7240   0.432E-03
   1 F= -.18687306E+03 E0= -.18670150E+03  d E =-.186873E+03
       N       E                     dE             d eps       ncg     rms          rms(c)
DAV:   1    -0.187493608990E+03   -0.62064E+00   -0.26987E+02  8160   0.349E+01    0.459E+00
DAV:   2    -0.189299532659E+03   -0.18059E+01   -0.19984E+01 12240   0.149E+01    0.829E+00
DAV:   3    -0.189414060498E+03   -0.11453E+00   -0.42117E+00 12400   0.120E+01    0.696E+00
DAV:   4    -0.188761804971E+03    0.65226E+00   -0.62571E-01 12200   0.491E+00    0.200E+00
DAV:   5    -0.188875691212E+03   -0.11389E+00   -0.43290E-01 11240   0.360E+00    0.537E+00
DAV:   6    -0.188744920401E+03    0.13077E+00   -0.78920E-01 12640   0.434E+00    0.237E+00
DAV:   7    -0.188681516167E+03    0.63404E-01   -0.18465E-01 11360   0.139E+00    0.107E+00
DAV:   8    -0.188665755494E+03    0.15761E-01   -0.48876E-02 11520   0.685E-01    0.652E-01
DAV:   9    -0.188660944557E+03    0.48109E-02   -0.91019E-03 12240   0.309E-01    0.343E-01
DAV:  10    -0.188660346338E+03    0.59822E-03   -0.33997E-03 12960   0.258E-01    0.186E-01
DAV:  11    -0.188660489326E+03   -0.14299E-03   -0.24055E-03 13120   0.268E-01    0.271E-01
DAV:  12    -0.188660103643E+03    0.38568E-03   -0.14170E-03 11400   0.214E-01    0.120E-01
DAV:  13    -0.188660065635E+03    0.38008E-04   -0.26812E-04  7480   0.811E-02
   2 F= -.18866007E+03 E0= -.18851905E+03  d E =-.178701E+01
       N       E                     dE             d eps       ncg     rms          rms(c)
DAV:   1    -0.190571226173E+03   -0.19111E+01   -0.30746E+01  9160   0.141E+01    0.445E+00
DAV:   2    -0.190564101794E+03    0.71244E-02   -0.28074E+00 11280   0.969E+00    0.748E+00
DAV:   3    -0.190050219996E+03    0.51388E+00   -0.13590E+00 12320   0.863E+00    0.418E+00
DAV:   4    -0.189852301439E+03    0.19792E+00   -0.73177E-01 12720   0.412E+00    0.268E+00
DAV:   5    -0.189898613173E+03   -0.46312E-01   -0.48238E-01 12400   0.420E+00    0.382E+00
DAV:   6    -0.189745391740E+03    0.15322E+00   -0.21901E-01 12320   0.322E+00    0.617E-01
DAV:   7    -0.189739528206E+03    0.58635E-02   -0.14906E-02 11880   0.459E-01    0.211E-01
DAV:   8    -0.189739546118E+03   -0.17913E-04   -0.28177E-03 10240   0.155E-01    0.147E-01
DAV:   9    -0.189739684925E+03   -0.13881E-03   -0.97785E-04 10720   0.135E-01    0.144E-01
DAV:  10    -0.189740225177E+03   -0.54025E-03   -0.15581E-03 10440   0.261E-01    0.268E-01
DAV:  11    -0.189739582034E+03    0.64314E-03   -0.98130E-04  9560   0.202E-01    0.226E-02
DAV:  12    -0.189739603152E+03   -0.21118E-04   -0.61494E-05  5840   0.269E-02
   3 F= -.18973960E+03 E0= -.18962057E+03  d E =-.107954E+01
       N       E                     dE             d eps       ncg     rms          rms(c)
DAV:   1    -0.191282363384E+03   -0.15428E+01   -0.70055E+01  8160   0.192E+01    0.460E+00
DAV:   2    -0.191158530724E+03    0.12383E+00   -0.53601E+00 13440   0.827E+00    0.517E+00
DAV:   3    -0.191195637562E+03   -0.37107E-01   -0.15524E+00 12200   0.921E+00    0.623E+00
DAV:   4    -0.190808187429E+03    0.38745E+00   -0.11303E+00 12960   0.679E+00    0.253E+00
DAV:   5    -0.190710362625E+03    0.97825E-01   -0.27915E-01 11200   0.210E+00    0.101E+00
DAV:   6    -0.190707405315E+03    0.29573E-02   -0.86261E-02 12720   0.174E+00    0.129E+00
DAV:   7    -0.190698012154E+03    0.93932E-02   -0.48795E-02 11680   0.150E+00    0.687E-01
DAV:   8    -0.190692019088E+03    0.59931E-02   -0.78138E-03 11120   0.506E-01    0.150E-01
DAV:   9    -0.190692262354E+03   -0.24327E-03   -0.16013E-03 10520   0.123E-01    0.136E-01
DAV:  10    -0.190692157149E+03    0.10521E-03   -0.11727E-03 10880   0.128E-01    0.600E-02
DAV:  11    -0.190692231559E+03   -0.74410E-04   -0.36269E-04  9000   0.119E-01
   4 F= -.19069223E+03 E0= -.19059088E+03  d E =-.952628E+00
       N       E                     dE             d eps       ncg     rms          rms(c)
DAV:   1    -0.192148739649E+03   -0.14566E+01   -0.15336E+02  8160   0.278E+01    0.586E+00
DAV:   2    -0.191831839765E+03    0.31690E+00   -0.98120E+00 12360   0.835E+00    0.400E+00
DAV:   3    -0.191917354939E+03   -0.85515E-01   -0.18545E+00 12240   0.919E+00    0.648E+00
DAV:   4    -0.191629245316E+03    0.28811E+00   -0.17303E+00 12320   0.100E+01    0.393E+00
DAV:   5    -0.191382190935E+03    0.24705E+00   -0.45022E-01 12160   0.376E+00    0.111E+00
DAV:   6    -0.191396700279E+03   -0.14509E-01   -0.17866E-01 12720   0.246E+00    0.190E+00
DAV:   7    -0.191368907570E+03    0.27793E-01   -0.11314E-01 12080   0.212E+00    0.670E-01
DAV:   8    -0.191361850867E+03    0.70567E-02   -0.10912E-02 10240   0.572E-01    0.210E-01
DAV:   9    -0.191363044791E+03   -0.11939E-02   -0.40947E-03 12920   0.438E-01    0.379E-01
DAV:  10    -0.191361952742E+03    0.10920E-02   -0.35594E-03 11080   0.376E-01    0.847E-02
DAV:  11    -0.191361950644E+03    0.20977E-05   -0.50865E-04 10480   0.892E-02
   5 F= -.19136195E+03 E0= -.19126618E+03  d E =-.669719E+00
       N       E                     dE             d eps       ncg     rms          rms(c)
DAV:   1    -0.191452183936E+03   -0.90231E-01   -0.81432E+00  8160   0.602E+00    0.779E-01
DAV:   2    -0.191534826664E+03   -0.82643E-01   -0.34145E-01 12840   0.336E+00    0.251E+00
DAV:   3    -0.191464919296E+03    0.69907E-01   -0.13128E-01 12480   0.275E+00    0.446E-01
DAV:   4    -0.191463752392E+03    0.11669E-02   -0.99612E-03 11080   0.496E-01    0.383E-01
DAV:   5    -0.191463025813E+03    0.72658E-03   -0.64466E-03 11560   0.571E-01    0.374E-01
DAV:   6    -0.191462019021E+03    0.10068E-02   -0.41227E-03 11800   0.439E-01    0.183E-01
DAV:   7    -0.191461691440E+03    0.32758E-03   -0.14515E-03 11480   0.182E-01    0.837E-02
DAV:   8    -0.191461693454E+03   -0.20147E-05   -0.55711E-04  9480   0.150E-01
   6 F= -.19146169E+03 E0= -.19136292E+03  d E =-.997428E-01
       N       E                     dE             d eps       ncg     rms          rms(c)
DAV:   1    -0.191464017992E+03   -0.23266E-02   -0.49960E-03  9080   0.185E-01    0.375E-02
DAV:   2    -0.191464205700E+03   -0.18771E-03   -0.54853E-04  8960   0.138E-01    0.126E-01
DAV:   3    -0.191464038765E+03    0.16694E-03   -0.37241E-04  8320   0.140E-01    0.308E-02
DAV:   4    -0.191464054280E+03   -0.15515E-04   -0.61413E-05  6040   0.466E-02
   7 F= -.19146405E+03 E0= -.19136529E+03  d E =-.236083E-02
       N       E                     dE             d eps       ncg     rms          rms(c)
DAV:   1    -0.191563687430E+03   -0.99649E-01   -0.94327E+00  8160   0.648E+00    0.780E-01
DAV:   2    -0.191637676534E+03   -0.73989E-01   -0.32285E-01 13160   0.318E+00    0.238E+00
DAV:   3    -0.191575969705E+03    0.61707E-01   -0.12079E-01 12440   0.267E+00    0.501E-01
DAV:   4    -0.191575376814E+03    0.59289E-03   -0.12842E-02 11040   0.629E-01    0.520E-01
DAV:   5    -0.191573585625E+03    0.17912E-02   -0.10542E-02 12320   0.711E-01    0.385E-01
DAV:   6    -0.191572375360E+03    0.12103E-02   -0.45834E-03 11400   0.408E-01    0.169E-01
DAV:   7    -0.191572203089E+03    0.17227E-03   -0.17438E-03 11720   0.204E-01    0.148E-01
DAV:   8    -0.191572040072E+03    0.16302E-03   -0.75773E-04  8960   0.199E-01    0.903E-02
DAV:   9    -0.191571960379E+03    0.79693E-04   -0.17520E-04  6080   0.909E-02
   8 F= -.19157196E+03 E0= -.19147295E+03  d E =-.107906E+00
       N       E                     dE             d eps       ncg     rms          rms(c)
DAV:   1    -0.191540529106E+03    0.31511E-01   -0.72433E-01  8160   0.181E+00    0.222E-01
DAV:   2    -0.191546183692E+03   -0.56546E-02   -0.26108E-02 12720   0.900E-01    0.641E-01
DAV:   3    -0.191541336308E+03    0.48474E-02   -0.81580E-03 11640   0.710E-01    0.131E-01
DAV:   4    -0.191541384106E+03   -0.47797E-04   -0.11357E-03  9920   0.188E-01    0.158E-01
DAV:   5    -0.191541196160E+03    0.18795E-03   -0.94470E-04  8680   0.212E-01    0.108E-01
DAV:   6    -0.191541104715E+03    0.91446E-04   -0.39322E-04  7520   0.118E-01
   9 F= -.19154110E+03 E0= -.19144182E+03  d E =0.308557E-01
       N       E                     dE             d eps       ncg     rms          rms(c)
DAV:   1    -0.191401569786E+03    0.13963E+00   -0.12816E+01  8160   0.763E+00    0.910E-01
DAV:   2    -0.191482965722E+03   -0.81396E-01   -0.45265E-01 13240   0.323E+00    0.227E+00
DAV:   3    -0.191419421188E+03    0.63545E-01   -0.11667E-01 12320   0.266E+00    0.599E-01
DAV:   4    -0.191416691159E+03    0.27300E-02   -0.15959E-02 10680   0.636E-01    0.454E-01
DAV:   5    -0.191416306369E+03    0.38479E-03   -0.13021E-02 12800   0.755E-01    0.528E-01
DAV:   6    -0.191414410323E+03    0.18960E-02   -0.97800E-03 11680   0.629E-01    0.258E-01
DAV:   7    -0.191413616764E+03    0.79356E-03   -0.25166E-03 11640   0.245E-01    0.104E-01
DAV:   8    -0.191413566202E+03    0.50562E-04   -0.63205E-04  9640   0.167E-01
  10 F= -.19141357E+03 E0= -.19131643E+03  d E =0.127539E+00
       N       E                     dE             d eps       ncg     rms          rms(c)
DAV:   1    -0.191262048952E+03    0.15157E+00   -0.21005E+01  8160   0.982E+00    0.120E+00
DAV:   2    -0.191387952702E+03   -0.12590E+00   -0.72522E-01 13600   0.402E+00    0.286E+00
DAV:   3    -0.191286197687E+03    0.10176E+00   -0.18888E-01 12200   0.337E+00    0.832E-01
DAV:   4    -0.191281240045E+03    0.49576E-02   -0.31586E-02 12320   0.954E-01    0.651E-01
DAV:   5    -0.191279534031E+03    0.17060E-02   -0.20328E-02 11760   0.104E+00    0.685E-01
DAV:   6    -0.191275500093E+03    0.40339E-02   -0.12713E-02 11480   0.818E-01    0.304E-01
DAV:   7    -0.191274420909E+03    0.10792E-02   -0.33480E-03 11360   0.304E-01    0.100E-01
DAV:   8    -0.191274228570E+03    0.19234E-03   -0.64327E-04 10880   0.111E-01    0.619E-02
DAV:   9    -0.191274287510E+03   -0.58940E-04   -0.41523E-04  9080   0.130E-01
  11 F= -.19127429E+03 E0= -.19118500E+03  d E =0.139279E+00
       N       E                     dE             d eps       ncg     rms          rms(c)
DAV:   1    -0.191336608060E+03   -0.62379E-01   -0.45154E+00  8160   0.451E+00    0.627E-01
DAV:   2    -0.191390084166E+03   -0.53476E-01   -0.20542E-01 13280   0.278E+00    0.208E+00
DAV:   3    -0.191341244612E+03    0.48840E-01   -0.83484E-02 12320   0.220E+00    0.299E-01
DAV:   4    -0.191341242558E+03    0.20536E-05   -0.70569E-03 11280   0.424E-01    0.365E-01
DAV:   5    -0.191340455992E+03    0.78657E-03   -0.67650E-03 12000   0.530E-01    0.309E-01
DAV:   6    -0.191339657935E+03    0.79806E-03   -0.32965E-03 11000   0.339E-01    0.127E-01
DAV:   7    -0.191339432731E+03    0.22520E-03   -0.84084E-04 10600   0.120E-01    0.424E-02
DAV:   8    -0.191339389759E+03    0.42972E-04   -0.11712E-04  6920   0.427E-02
  12 F= -.19133939E+03 E0= -.19124622E+03  d E =-.651022E-01
       N       E                     dE             d eps       ncg     rms          rms(c)
DAV:   1    -0.191335776171E+03    0.36566E-02   -0.26203E+00  8160   0.351E+00    0.417E-01
DAV:   2    -0.191343607965E+03   -0.78318E-02   -0.71744E-02 13400   0.102E+00    0.795E-01
DAV:   3    -0.191338883294E+03    0.47247E-02   -0.21123E-02 12400   0.107E+00    0.462E-01
DAV:   4    -0.191336964358E+03    0.19189E-02   -0.50628E-03 11320   0.464E-01    0.220E-01
DAV:   5    -0.191336826893E+03    0.13746E-03   -0.27088E-03 11720   0.383E-01    0.251E-01
DAV:   6    -0.191336266500E+03    0.56039E-03   -0.19095E-03 11640   0.323E-01    0.112E-01
DAV:   7    -0.191336121594E+03    0.14491E-03   -0.48130E-04  9320   0.129E-01    0.650E-02
DAV:   8    -0.191336101399E+03    0.20196E-04   -0.22962E-04  6800   0.103E-01
  13 F= -.19133610E+03 E0= -.19124319E+03  d E =0.328836E-02
       N       E                     dE             d eps       ncg     rms          rms(c)
DAV:   1    -0.191416248553E+03   -0.80127E-01   -0.85455E+00  8160   0.623E+00    0.817E-01
DAV:   2    -0.191499185925E+03   -0.82937E-01   -0.34698E-01 13600   0.329E+00    0.258E+00
DAV:   3    -0.191427602678E+03    0.71583E-01   -0.14622E-01 12320   0.284E+00    0.550E-01
DAV:   4    -0.191428107989E+03   -0.50531E-03   -0.17078E-02 12320   0.842E-01    0.666E-01
DAV:   5    -0.191424122061E+03    0.39859E-02   -0.10891E-02 10960   0.790E-01    0.344E-01
DAV:   6    -0.191422766927E+03    0.13551E-02   -0.37392E-03 10200   0.351E-01    0.134E-01
DAV:   7    -0.191422606182E+03    0.16075E-03   -0.13090E-03 10760   0.137E-01    0.721E-02
DAV:   8    -0.191422557852E+03    0.48330E-04   -0.38760E-04  9560   0.116E-01
  14 F= -.19142256E+03 E0= -.19132566E+03  d E =-.864565E-01
       N       E                     dE             d eps       ncg     rms          rms(c)
DAV:   1    -0.191529517588E+03   -0.10691E+00   -0.13575E+01  8160   0.782E+00    0.103E+00
DAV:   2    -0.191674499012E+03   -0.14498E+00   -0.57036E-01 13320   0.445E+00    0.348E+00
DAV:   3    -0.191548042308E+03    0.12646E+00   -0.24421E-01 12320   0.371E+00    0.611E-01
DAV:   4    -0.191550153975E+03   -0.21117E-02   -0.24883E-02 12320   0.102E+00    0.859E-01
DAV:   5    -0.191543257424E+03    0.68966E-02   -0.16584E-02 11240   0.970E-01    0.382E-01
DAV:   6    -0.191541937645E+03    0.13198E-02   -0.54763E-03 10360   0.400E-01    0.192E-01
DAV:   7    -0.191542323485E+03   -0.38584E-03   -0.40935E-03 11280   0.365E-01    0.314E-01
DAV:   8    -0.191541352611E+03    0.97087E-03   -0.23255E-03  9960   0.313E-01    0.702E-02
DAV:   9    -0.191541318859E+03    0.33752E-04   -0.18246E-04  5800   0.678E-02
  15 F= -.19154132E+03 E0= -.19144069E+03  d E =-.118761E+00
       N       E                     dE             d eps       ncg     rms          rms(c)
DAV:   1    -0.191616941169E+03   -0.75589E-01   -0.65887E+00  8160   0.543E+00    0.669E-01
DAV:   2    -0.191676049888E+03   -0.59109E-01   -0.25423E-01 12720   0.282E+00    0.216E+00
DAV:   3    -0.191627214545E+03    0.48835E-01   -0.91710E-02 12320   0.231E+00    0.439E-01
DAV:   4    -0.191628787257E+03   -0.15727E-02   -0.12566E-02 12240   0.751E-01    0.630E-01
DAV:   5    -0.191624852594E+03    0.39347E-02   -0.78242E-03 10880   0.657E-01    0.213E-01
DAV:   6    -0.191624795770E+03    0.56824E-04   -0.25296E-03 10480   0.263E-01    0.192E-01
DAV:   7    -0.191625238625E+03   -0.44286E-03   -0.34335E-03 11560   0.387E-01    0.305E-01
DAV:   8    -0.191624278651E+03    0.95997E-03   -0.16964E-03  9880   0.272E-01    0.326E-02
DAV:   9    -0.191624299077E+03   -0.20426E-04   -0.90220E-05  5640   0.371E-02
  16 F= -.19162430E+03 E0= -.19152332E+03  d E =-.829802E-01
       N       E                     dE             d eps       ncg     rms          rms(c)
DAV:   1    -0.191697732218E+03   -0.73454E-01   -0.61012E+00  8160   0.527E+00    0.696E-01
DAV:   2    -0.191759845165E+03   -0.62113E-01   -0.26849E-01 12920   0.294E+00    0.228E+00
DAV:   3    -0.191707816398E+03    0.52029E-01   -0.96693E-02 12200   0.238E+00    0.474E-01
DAV:   4    -0.191710396541E+03   -0.25801E-02   -0.16686E-02 10480   0.904E-01    0.736E-01
DAV:   5    -0.191704659322E+03    0.57372E-02   -0.98450E-03 11200   0.739E-01    0.202E-01
DAV:   6    -0.191705282995E+03   -0.62367E-03   -0.40788E-03 10720   0.367E-01    0.326E-01
DAV:   7    -0.191704742866E+03    0.54013E-03   -0.42552E-03 11200   0.451E-01    0.237E-01
DAV:   8    -0.191704082653E+03    0.66021E-03   -0.11352E-03  9680   0.208E-01    0.317E-02
DAV:   9    -0.191704091235E+03   -0.85818E-05   -0.10443E-04  6520   0.364E-02
  17 F= -.19170409E+03 E0= -.19160362E+03  d E =-.797922E-01
       N       E                     dE             d eps       ncg     rms          rms(c)
DAV:   1    -0.191819345223E+03   -0.11526E+00   -0.29238E+01  8160   0.116E+01    0.135E+00
DAV:   2    -0.192022943474E+03   -0.20360E+00   -0.11330E+00 13080   0.518E+00    0.402E+00
DAV:   3    -0.191881656159E+03    0.14129E+00   -0.35551E-01 12080   0.447E+00    0.115E+00
DAV:   4    -0.191885460291E+03   -0.38041E-02   -0.67951E-02 11200   0.190E+00    0.139E+00
DAV:   5    -0.191863064419E+03    0.22396E-01   -0.34249E-02 11800   0.145E+00    0.410E-01
DAV:   6    -0.191869655101E+03   -0.65907E-02   -0.22292E-02 12640   0.990E-01    0.910E-01
DAV:   7    -0.191862237946E+03    0.74172E-02   -0.19081E-02 12200   0.100E+00    0.311E-01
DAV:   8    -0.191860794395E+03    0.14436E-02   -0.28174E-03 10480   0.279E-01    0.608E-02
DAV:   9    -0.191860777226E+03    0.17168E-04   -0.45613E-04  9600   0.659E-02
  18 F= -.19186078E+03 E0= -.19176344E+03  d E =-.156686E+00
       N       E                     dE             d eps       ncg     rms          rms(c)
DAV:   1    -0.191911351991E+03   -0.50558E-01   -0.37314E+00  8160   0.424E+00    0.636E-01
DAV:   2    -0.191937165623E+03   -0.25814E-01   -0.20032E-01 12680   0.205E+00    0.147E+00
DAV:   3    -0.191917901093E+03    0.19265E-01   -0.54275E-02 12120   0.176E+00    0.530E-01
DAV:   4    -0.191917796422E+03    0.10467E-03   -0.15458E-02 11680   0.874E-01    0.638E-01
DAV:   5    -0.191913808657E+03    0.39878E-02   -0.10646E-02 11560   0.783E-01    0.282E-01
DAV:   6    -0.191913884048E+03   -0.75392E-04   -0.57352E-03 11200   0.442E-01    0.327E-01
DAV:   7    -0.191913051554E+03    0.83249E-03   -0.36321E-03 11320   0.429E-01    0.174E-01
DAV:   8    -0.191912694529E+03    0.35703E-03   -0.69731E-04  8720   0.161E-01    0.366E-02
DAV:   9    -0.191912675173E+03    0.19356E-04   -0.92406E-05  7480   0.382E-02
  19 F= -.19191268E+03 E0= -.19181604E+03  d E =-.518979E-01
       N       E                     dE             d eps       ncg     rms          rms(c)
DAV:   1    -0.191949364684E+03   -0.36670E-01   -0.42130E+01  8160   0.140E+01    0.151E+00
DAV:   2    -0.192101935329E+03   -0.15257E+00   -0.15411E+00 11920   0.457E+00    0.269E+00
DAV:   3    -0.192056401875E+03    0.45533E-01   -0.31434E-01 12200   0.408E+00    0.157E+00
DAV:   4    -0.192032536137E+03    0.23866E-01   -0.61201E-02 12240   0.187E+00    0.107E+00
DAV:   5    -0.192021870102E+03    0.10666E-01   -0.34071E-02 11880   0.153E+00    0.636E-01
DAV:   6    -0.192022347265E+03   -0.47716E-03   -0.29004E-02 12640   0.100E+00    0.705E-01
DAV:   7    -0.192017024721E+03    0.53225E-02   -0.12525E-02 12720   0.843E-01    0.236E-01
DAV:   8    -0.192016372060E+03    0.65266E-03   -0.18452E-03 11440   0.247E-01    0.839E-02
DAV:   9    -0.192016217943E+03    0.15412E-03   -0.56376E-04 10640   0.863E-02    0.397E-02
DAV:  10    -0.192016218544E+03   -0.60139E-06   -0.16617E-04  7520   0.421E-02
  20 F= -.19201622E+03 E0= -.19192381E+03  d E =-.103543E+00
       N       E                     dE             d eps       ncg     rms          rms(c)
DAV:   1    -0.192014447230E+03    0.17707E-02   -0.22018E+00  8160   0.315E+00    0.299E-01
DAV:   2    -0.192020676514E+03   -0.62293E-02   -0.49302E-02 12400   0.874E-01    0.636E-01
DAV:   3    -0.192016861268E+03    0.38152E-02   -0.12290E-02 12640   0.849E-01    0.293E-01
DAV:   4    -0.192016073153E+03    0.78811E-03   -0.24036E-03 11840   0.311E-01    0.172E-01
DAV:   5    -0.192016049934E+03    0.23219E-04   -0.15943E-03 11120   0.318E-01    0.179E-01
DAV:   6    -0.192015834293E+03    0.21564E-03   -0.12908E-03 10280   0.236E-01    0.119E-01
DAV:   7    -0.192015756644E+03    0.77649E-04   -0.66575E-04  9720   0.195E-01
  21 F= -.19201576E+03 E0= -.19192248E+03  d E =0.461900E-03
       N       E                     dE             d eps       ncg     rms          rms(c)
DAV:   1    -0.192027890218E+03   -0.12056E-01   -0.88642E-01  8160   0.200E+00    0.226E-01
DAV:   2    -0.192029636633E+03   -0.17464E-02   -0.30219E-02 11360   0.473E-01    0.180E-01
DAV:   3    -0.192030643911E+03   -0.10073E-02   -0.39541E-03 12360   0.488E-01    0.364E-01
DAV:   4    -0.192029101650E+03    0.15423E-02   -0.22223E-03 10000   0.390E-01    0.772E-02
DAV:   5    -0.192029174931E+03   -0.73282E-04   -0.59398E-04 10040   0.122E-01
  22 F= -.19202917E+03 E0= -.19193708E+03  d E =-.134183E-01
       N       E                     dE             d eps       ncg     rms          rms(c)
DAV:   1    -0.192048868920E+03   -0.19767E-01   -0.44478E+00  8160   0.451E+00    0.536E-01
DAV:   2    -0.192058886082E+03   -0.10017E-01   -0.15946E-01 11280   0.108E+00    0.485E-01
DAV:   3    -0.192062034586E+03   -0.31485E-02   -0.20529E-02 11960   0.115E+00    0.747E-01
DAV:   4    -0.192055651324E+03    0.63833E-02   -0.11889E-02 11320   0.862E-01    0.275E-01
DAV:   5    -0.192056135750E+03   -0.48443E-03   -0.53082E-03 11400   0.567E-01    0.354E-01
DAV:   6    -0.192054815554E+03    0.13202E-02   -0.31346E-03 11400   0.394E-01    0.103E-01
DAV:   7    -0.192054646966E+03    0.16859E-03   -0.66805E-04 10800   0.141E-01    0.713E-02
DAV:   8    -0.192054617290E+03    0.29676E-04   -0.19875E-04  8840   0.112E-01
  23 F= -.19205462E+03 E0= -.19196431E+03  d E =-.254424E-01
       N       E                     dE             d eps       ncg     rms          rms(c)
DAV:   1    -0.192063783380E+03   -0.91364E-02   -0.10470E+00  8160   0.219E+00    0.267E-01
DAV:   2    -0.192066383898E+03   -0.26005E-02   -0.40653E-02 11240   0.528E-01    0.220E-01
DAV:   3    -0.192066972286E+03   -0.58839E-03   -0.44371E-03 12600   0.534E-01    0.330E-01
DAV:   4    -0.192065567628E+03    0.14047E-02   -0.19199E-03 11560   0.398E-01    0.950E-02
DAV:   5    -0.192065606954E+03   -0.39326E-04   -0.89056E-04 10280   0.165E-01
  24 F= -.19206561E+03 E0= -.19197621E+03  d E =-.109897E-01
       N       E                     dE             d eps       ncg     rms          rms(c)
DAV:   1    -0.192068771463E+03   -0.32038E-02   -0.94020E-02  8160   0.693E-01    0.146E-01
DAV:   2    -0.192072059212E+03   -0.32877E-02   -0.93243E-03 12080   0.654E-01    0.534E-01
DAV:   3    -0.192068729457E+03    0.33298E-02   -0.50879E-03 10400   0.565E-01    0.744E-02
DAV:   4    -0.192068789869E+03   -0.60412E-04   -0.38429E-04  8320   0.135E-01
  25 F= -.19206879E+03 E0= -.19197925E+03  d E =-.318291E-02
       N       E                     dE             d eps       ncg     rms          rms(c)
DAV:   1    -0.192071120328E+03   -0.23909E-02   -0.58720E-02  8160   0.534E-01    0.809E-02
DAV:   2    -0.192071439090E+03   -0.31876E-03   -0.24584E-03 11400   0.211E-01    0.151E-01
DAV:   3    -0.192071217307E+03    0.22178E-03   -0.77524E-04 10640   0.213E-01    0.780E-02
DAV:   4    -0.192071193598E+03    0.23709E-04   -0.18074E-04  5960   0.102E-01
  26 F= -.19207119E+03 E0= -.19198212E+03  d E =-.240373E-02
       N       E                     dE             d eps       ncg     rms          rms(c)
DAV:   1    -0.192076980547E+03   -0.57632E-02   -0.29454E-01  8160   0.117E+00    0.159E-01
DAV:   2    -0.192078396529E+03   -0.14160E-02   -0.11332E-02 11680   0.454E-01    0.284E-01
DAV:   3    -0.192077499397E+03    0.89713E-03   -0.22330E-03 12160   0.406E-01    0.120E-01
DAV:   4    -0.192077432946E+03    0.66451E-04   -0.54875E-04  9440   0.165E-01
  27 F= -.19207743E+03 E0= -.19198898E+03  d E =-.623935E-02
       N       E                     dE             d eps       ncg     rms          rms(c)
DAV:   1    -0.192076933032E+03    0.56637E-03   -0.49552E-03 12280   0.250E-01    0.882E-02
DAV:   2    -0.192078460666E+03   -0.15276E-02   -0.32857E-03 11400   0.457E-01    0.374E-01
DAV:   3    -0.192076821275E+03    0.16394E-02   -0.21222E-03 10000   0.382E-01    0.283E-02
DAV:   4    -0.192076865991E+03   -0.44716E-04   -0.76822E-05  5760   0.669E-02
  28 F= -.19207687E+03 E0= -.19198855E+03  d E =0.566955E-03
       N       E                     dE             d eps       ncg     rms          rms(c)
DAV:   1    -0.192082559740E+03   -0.57385E-02   -0.29991E-01  8160   0.119E+00    0.179E-01
DAV:   2    -0.192083584249E+03   -0.10245E-02   -0.12945E-02 10520   0.462E-01    0.272E-01
DAV:   3    -0.192082974965E+03    0.60928E-03   -0.28722E-03 11760   0.431E-01    0.171E-01
DAV:   4    -0.192082776751E+03    0.19821E-03   -0.11029E-03 10120   0.245E-01    0.133E-01
DAV:   5    -0.192082660677E+03    0.11607E-03   -0.63028E-04  8880   0.211E-01    0.960E-02
DAV:   6    -0.192082574941E+03    0.85736E-04   -0.31658E-04  8120   0.127E-01
  29 F= -.19208257E+03 E0= -.19199506E+03  d E =-.570895E-02
       N       E                     dE             d eps       ncg     rms          rms(c)
DAV:   1    -0.192084059801E+03   -0.13991E-02   -0.33092E-02  8160   0.427E-01    0.112E-01
DAV:   2    -0.192084615279E+03   -0.55548E-03   -0.28505E-03 11760   0.341E-01    0.268E-01
DAV:   3    -0.192083820497E+03    0.79478E-03   -0.15844E-03 10280   0.337E-01    0.841E-02
DAV:   4    -0.192083733573E+03    0.86924E-04   -0.30061E-04  8240   0.992E-02
  30 F= -.19208373E+03 E0= -.19199591E+03  d E =-.115863E-02
       N       E                     dE             d eps       ncg     rms          rms(c)
DAV:   1    -0.192095256574E+03   -0.11436E-01   -0.79073E-01  8160   0.202E+00    0.387E-01
DAV:   2    -0.192094834511E+03    0.42206E-03   -0.36595E-02 11400   0.707E-01    0.425E-01
DAV:   3    -0.192094927696E+03   -0.93185E-04   -0.12070E-02 11840   0.865E-01    0.469E-01
DAV:   4    -0.192092661583E+03    0.22661E-02   -0.72112E-03 11600   0.629E-01    0.260E-01
DAV:   5    -0.192092412674E+03    0.24891E-03   -0.36354E-03 11040   0.463E-01    0.249E-01
DAV:   6    -0.192091649262E+03    0.76341E-03   -0.15414E-03 11680   0.309E-01    0.640E-02
DAV:   7    -0.192091597607E+03    0.51655E-04   -0.20446E-04  6240   0.732E-02
  31 F= -.19209160E+03 E0= -.19200370E+03  d E =-.786403E-02
       N       E                     dE             d eps       ncg     rms          rms(c)
DAV:   1    -0.192096069355E+03   -0.44201E-02   -0.89109E-02  8160   0.742E-01    0.212E-01
DAV:   2    -0.192096105261E+03   -0.35906E-04   -0.71580E-03 11360   0.488E-01    0.343E-01
DAV:   3    -0.192094989559E+03    0.11157E-02   -0.34655E-03 11360   0.518E-01    0.182E-01
DAV:   4    -0.192094729065E+03    0.26049E-03   -0.14334E-03 10120   0.290E-01    0.155E-01
DAV:   5    -0.192094617807E+03    0.11126E-03   -0.99131E-04 10040   0.269E-01    0.128E-01
DAV:   6    -0.192094379964E+03    0.23784E-03   -0.36296E-04  7760   0.144E-01    0.154E-02
DAV:   7    -0.192094391936E+03   -0.11971E-04   -0.59553E-05  6600   0.290E-02
  32 F= -.19209439E+03 E0= -.19200736E+03  d E =-.279433E-02
       N       E                     dE             d eps       ncg     rms          rms(c)
DAV:   1    -0.192102429214E+03   -0.80492E-02   -0.46772E-01  8160   0.147E+00    0.184E-01
DAV:   2    -0.192103640693E+03   -0.12115E-02   -0.16033E-02 10400   0.435E-01    0.224E-01
DAV:   3    -0.192103427348E+03    0.21335E-03   -0.23957E-03 12360   0.417E-01    0.191E-01
DAV:   4    -0.192103020888E+03    0.40646E-03   -0.85824E-04 10040   0.233E-01    0.939E-02
DAV:   5    -0.192103062756E+03   -0.41868E-04   -0.49675E-04  9120   0.188E-01
  33 F= -.19210306E+03 E0= -.19201712E+03  d E =-.867082E-02
       N       E                     dE             d eps       ncg     rms          rms(c)
DAV:   1    -0.192090541678E+03    0.12479E-01   -0.87344E-01  8160   0.203E+00    0.264E-01
DAV:   2    -0.192094327263E+03   -0.37856E-02   -0.34041E-02 11040   0.726E-01    0.482E-01
DAV:   3    -0.192092265413E+03    0.20619E-02   -0.87018E-03 11920   0.711E-01    0.265E-01
DAV:   4    -0.192091711859E+03    0.55355E-03   -0.21546E-03 11320   0.334E-01    0.161E-01
DAV:   5    -0.192091482722E+03    0.22914E-03   -0.10236E-03 10480   0.250E-01    0.130E-01
DAV:   6    -0.192091390731E+03    0.91991E-04   -0.69953E-04 10160   0.209E-01
  34 F= -.19209139E+03 E0= -.19200383E+03  d E =0.116720E-01
       N       E                     dE             d eps       ncg     rms          rms(c)
DAV:   1    -0.192075173068E+03    0.16310E-01   -0.15843E+00  8160   0.272E+00    0.341E-01
DAV:   2    -0.192079911426E+03   -0.47384E-02   -0.54806E-02 11080   0.816E-01    0.470E-01
DAV:   3    -0.192078916509E+03    0.99492E-03   -0.11081E-02 11920   0.824E-01    0.383E-01
DAV:   4    -0.192077671975E+03    0.12445E-02   -0.37144E-03 11680   0.465E-01    0.234E-01
DAV:   5    -0.192077233009E+03    0.43897E-03   -0.17449E-03 10520   0.357E-01    0.149E-01
DAV:   6    -0.192077166117E+03    0.66892E-04   -0.98755E-04 10320   0.208E-01
  35 F= -.19207717E+03 E0= -.19198767E+03  d E =0.142246E-01
       N       E                     dE             d eps       ncg     rms          rms(c)
DAV:   1    -0.192079010130E+03   -0.17771E-02   -0.92751E-02  8160   0.670E-01    0.134E-01
DAV:   2    -0.192081935095E+03   -0.29250E-02   -0.85121E-03 12480   0.624E-01    0.501E-01
DAV:   3    -0.192079038785E+03    0.28963E-02   -0.38497E-03 11200   0.535E-01    0.553E-02
DAV:   4    -0.192079033141E+03    0.56433E-05   -0.15696E-04  5800   0.610E-02
  36 F= -.19207903E+03 E0= -.19198984E+03  d E =-.186702E-02
       N       E                     dE             d eps       ncg     rms          rms(c)
DAV:   1    -0.192078034470E+03    0.10043E-02   -0.60156E-02  8160   0.538E-01    0.776E-02
DAV:   2    -0.192078418182E+03   -0.38371E-03   -0.24941E-03 12640   0.223E-01    0.170E-01
DAV:   3    -0.192078122204E+03    0.29598E-03   -0.83523E-04  9640   0.223E-01    0.681E-02
DAV:   4    -0.192078086759E+03    0.35444E-04   -0.14192E-04  5680   0.726E-02
  37 F= -.19207809E+03 E0= -.19198877E+03  d E =0.946382E-03
       N       E                     dE             d eps       ncg     rms          rms(c)
DAV:   1    -0.192083649606E+03   -0.55274E-02   -0.37365E-01  8160   0.132E+00    0.161E-01
DAV:   2    -0.192084737143E+03   -0.10875E-02   -0.14253E-02 10240   0.407E-01    0.197E-01
DAV:   3    -0.192084761125E+03   -0.23983E-04   -0.22485E-03 12520   0.384E-01    0.207E-01
DAV:   4    -0.192084262153E+03    0.49897E-03   -0.80929E-04  9480   0.230E-01    0.604E-02
DAV:   5    -0.192084292484E+03   -0.30331E-04   -0.29854E-04  7560   0.102E-01
  38 F= -.19208429E+03 E0= -.19199515E+03  d E =-.620572E-02
       N       E                     dE             d eps       ncg     rms          rms(c)
DAV:   1    -0.192084021401E+03    0.24075E-03   -0.77472E-03  8920   0.237E-01    0.769E-02
DAV:   2    -0.192085346891E+03   -0.13255E-02   -0.28474E-03 11600   0.417E-01    0.345E-01
DAV:   3    -0.192083952613E+03    0.13943E-02   -0.18529E-03  9880   0.353E-01    0.267E-02
DAV:   4    -0.192083963956E+03   -0.11343E-04   -0.39556E-05  5560   0.338E-02
  39 F= -.19208396E+03 E0= -.19199489E+03  d E =0.328527E-03
       N       E                     dE             d eps       ncg     rms          rms(c)
DAV:   1    -0.192090405860E+03   -0.64532E-02   -0.37190E-01  8160   0.132E+00    0.179E-01
DAV:   2    -0.192091550979E+03   -0.11451E-02   -0.14464E-02 10280   0.468E-01    0.252E-01
DAV:   3    -0.192091134856E+03    0.41612E-03   -0.26839E-03 12000   0.423E-01    0.177E-01
DAV:   4    -0.192090880342E+03    0.25451E-03   -0.10797E-03 10160   0.247E-01    0.131E-01
DAV:   5    -0.192090777444E+03    0.10290E-03   -0.59617E-04  9280   0.205E-01    0.915E-02
DAV:   6    -0.192090704476E+03    0.72967E-04   -0.28367E-04  7880   0.116E-01
  40 F= -.19209070E+03 E0= -.19200244E+03  d E =-.674052E-02
       N       E                     dE             d eps       ncg     rms          rms(c)
DAV:   1    -0.192093414132E+03   -0.26367E-02   -0.62830E-02  8160   0.543E-01    0.764E-02
DAV:   2    -0.192093696229E+03   -0.28210E-03   -0.24596E-03 11000   0.206E-01    0.137E-01
DAV:   3    -0.192093523506E+03    0.17272E-03   -0.58800E-04  9720   0.205E-01    0.769E-02
DAV:   4    -0.192093473283E+03    0.50224E-04   -0.14065E-04  6120   0.898E-02
  41 F= -.19209347E+03 E0= -.19200538E+03  d E =-.276881E-02
       N       E                     dE             d eps       ncg     rms          rms(c)
DAV:   1    -0.192099331520E+03   -0.58080E-02   -0.29438E-01  8160   0.117E+00    0.151E-01
DAV:   2    -0.192099823661E+03   -0.49214E-03   -0.96970E-03 10360   0.296E-01    0.125E-01
DAV:   3    -0.192100099033E+03   -0.27537E-03   -0.14966E-03 11160   0.308E-01    0.204E-01
DAV:   4    -0.192099656227E+03    0.44281E-03   -0.97052E-04 10640   0.252E-01    0.842E-02
DAV:   5    -0.192099659195E+03   -0.29680E-05   -0.39776E-04  8520   0.153E-01
  42 F= -.19209966E+03 E0= -.19201199E+03  d E =-.618591E-02
       N       E                     dE             d eps       ncg     rms          rms(c)
DAV:   1    -0.192102250627E+03   -0.25944E-02   -0.63395E-02  8160   0.553E-01    0.745E-02
DAV:   2    -0.192102394552E+03   -0.14392E-03   -0.21951E-03 10880   0.134E-01    0.728E-02
DAV:   3    -0.192102366128E+03    0.28424E-04   -0.37240E-04 10040   0.130E-01
  43 F= -.19210237E+03 E0= -.19201514E+03  d E =-.270693E-02
       N       E                     dE             d eps       ncg     rms          rms(c)
DAV:   1    -0.192106962966E+03   -0.45684E-02   -0.16726E-01  8160   0.887E-01    0.129E-01
DAV:   2    -0.192107537510E+03   -0.57454E-03   -0.57282E-03 10400   0.311E-01    0.200E-01
DAV:   3    -0.192107189621E+03    0.34789E-03   -0.11957E-03 11000   0.308E-01    0.119E-01
DAV:   4    -0.192107105528E+03    0.84093E-04   -0.39512E-04  8720   0.162E-01
  44 F= -.19210711E+03 E0= -.19202019E+03  d E =-.473940E-02
       N       E                     dE             d eps       ncg     rms          rms(c)
DAV:   1    -0.192113369047E+03   -0.61794E-02   -0.33302E-01  8160   0.125E+00    0.167E-01
DAV:   2    -0.192113960913E+03   -0.59187E-03   -0.10938E-02 11160   0.308E-01    0.152E-01
DAV:   3    -0.192114327464E+03   -0.36655E-03   -0.21459E-03 11920   0.368E-01    0.244E-01
DAV:   4    -0.192113701619E+03    0.62585E-03   -0.11490E-03 10360   0.279E-01    0.806E-02
DAV:   5    -0.192113685104E+03    0.16515E-04   -0.35010E-04  8120   0.135E-01
  45 F= -.19211369E+03 E0= -.19202750E+03  d E =-.657958E-02
       N       E                     dE             d eps       ncg     rms          rms(c)
DAV:   1    -0.192116932755E+03   -0.32311E-02   -0.89341E-02  8160   0.653E-01    0.987E-02
DAV:   2    -0.192117474573E+03   -0.54182E-03   -0.37504E-03 10880   0.293E-01    0.200E-01
DAV:   3    -0.192117038935E+03    0.43564E-03   -0.10476E-03 10200   0.272E-01    0.781E-02
DAV:   4    -0.192117044338E+03   -0.54029E-05   -0.22996E-04  7720   0.123E-01
  46 F= -.19211704E+03 E0= -.19203141E+03  d E =-.335923E-02
       N       E                     dE             d eps       ncg     rms          rms(c)
DAV:   1    -0.192122789713E+03   -0.57508E-02   -0.28858E-01  8160   0.116E+00    0.159E-01
DAV:   2    -0.192123607293E+03   -0.81758E-03   -0.10063E-02 11240   0.359E-01    0.205E-01
DAV:   3    -0.192123333235E+03    0.27406E-03   -0.16647E-03 12480   0.363E-01    0.154E-01
DAV:   4    -0.192123059063E+03    0.27417E-03   -0.47454E-04  9200   0.178E-01    0.682E-02
DAV:   5    -0.192123131238E+03   -0.72175E-04   -0.41576E-04  9040   0.158E-01
  47 F= -.19212313E+03 E0= -.19203851E+03  d E =-.608690E-02
       N       E                     dE             d eps       ncg     rms          rms(c)
DAV:   1    -0.192127361370E+03   -0.43023E-02   -0.17736E-01  8160   0.913E-01    0.119E-01
DAV:   2    -0.192127858052E+03   -0.49668E-03   -0.61740E-03 10600   0.281E-01    0.152E-01
DAV:   3    -0.192127722169E+03    0.13588E-03   -0.10250E-03 11280   0.277E-01    0.119E-01
DAV:   4    -0.192127586620E+03    0.13555E-03   -0.29986E-04  8320   0.145E-01    0.657E-02
DAV:   5    -0.192127580342E+03    0.62780E-05   -0.17871E-04  7640   0.118E-01
  48 F= -.19212758E+03 E0= -.19204345E+03  d E =-.444910E-02
       N       E                     dE             d eps       ncg     rms          rms(c)
DAV:   1    -0.192142790085E+03   -0.15203E-01   -0.36149E+00  8160   0.409E+00    0.509E-01
DAV:   2    -0.192151580390E+03   -0.87903E-02   -0.12669E-01 10880   0.110E+00    0.518E-01
DAV:   3    -0.192151821190E+03   -0.24080E-03   -0.17652E-02 12520   0.108E+00    0.590E-01
DAV:   4    -0.192148230529E+03    0.35907E-02   -0.77861E-03 12360   0.762E-01    0.287E-01
DAV:   5    -0.192147715093E+03    0.51544E-03   -0.35227E-03 11520   0.461E-01    0.250E-01
DAV:   6    -0.192147550309E+03    0.16478E-03   -0.24490E-03 11200   0.417E-01    0.186E-01
DAV:   7    -0.192147032827E+03    0.51748E-03   -0.91546E-04 10360   0.203E-01    0.427E-02
DAV:   8    -0.192147046924E+03   -0.14096E-04   -0.13849E-04  7000   0.904E-02
  49 F= -.19214705E+03 E0= -.19206581E+03  d E =-.194666E-01
       N       E                     dE             d eps       ncg     rms          rms(c)
DAV:   1    -0.192150617259E+03   -0.35844E-02   -0.14884E-01  8160   0.847E-01    0.124E-01
DAV:   2    -0.192150894342E+03   -0.27708E-03   -0.64309E-03 10520   0.241E-01    0.117E-01
DAV:   3    -0.192151049900E+03   -0.15556E-03   -0.11244E-03 11360   0.276E-01    0.175E-01
DAV:   4    -0.192150703355E+03    0.34654E-03   -0.55517E-04  9240   0.208E-01    0.543E-02
DAV:   5    -0.192150672298E+03    0.31058E-04   -0.13199E-04  5880   0.619E-02
  50 F= -.19215067E+03 E0= -.19206965E+03  d E =-.362537E-02
       N       E                     dE             d eps       ncg     rms          rms(c)
DAV:   1    -0.192154320372E+03   -0.36170E-02   -0.14993E-01  8160   0.836E-01    0.110E-01
DAV:   2    -0.192154755188E+03   -0.43482E-03   -0.59236E-03 10280   0.247E-01    0.130E-01
DAV:   3    -0.192154746122E+03    0.90665E-05   -0.97298E-04 11120   0.259E-01
  51 F= -.19215475E+03 E0= -.19207447E+03  d E =-.407382E-02
       N       E                     dE             d eps       ncg     rms          rms(c)
DAV:   1    -0.192155352543E+03   -0.59735E-03   -0.78016E-03 11360   0.255E-01    0.764E-02
DAV:   2    -0.192156023566E+03   -0.67102E-03   -0.17606E-03 11960   0.313E-01    0.242E-01
DAV:   3    -0.192155298597E+03    0.72497E-03   -0.10131E-03  9840   0.279E-01    0.518E-02
DAV:   4    -0.192155283312E+03    0.15285E-04   -0.97723E-05  5720   0.704E-02
  52 F= -.19215528E+03 E0= -.19207513E+03  d E =-.537190E-03
       N       E                     dE             d eps       ncg     rms          rms(c)
DAV:   1    -0.192157798835E+03   -0.25002E-02   -0.80589E-02  8160   0.613E-01    0.102E-01
DAV:   2    -0.192158703345E+03   -0.90451E-03   -0.43777E-03 11200   0.364E-01    0.264E-01
DAV:   3    -0.192157892391E+03    0.81095E-03   -0.14081E-03 11000   0.323E-01    0.708E-02
DAV:   4    -0.192157896091E+03   -0.37006E-05   -0.25384E-04  7600   0.117E-01
  53 F= -.19215790E+03 E0= -.19207823E+03  d E =-.261278E-02
       N       E                     dE             d eps       ncg     rms          rms(c)
DAV:   1    -0.192160272324E+03   -0.23799E-02   -0.71986E-02  8160   0.584E-01    0.115E-01
DAV:   2    -0.192161518806E+03   -0.12465E-02   -0.41337E-03 11680   0.458E-01    0.318E-01
DAV:   3    -0.192160216277E+03    0.13025E-02   -0.16254E-03 11320   0.379E-01    0.604E-02
DAV:   4    -0.192160270957E+03   -0.54680E-04   -0.27548E-04  8320   0.128E-01
  54 F= -.19216027E+03 E0= -.19208094E+03  d E =-.237487E-02
       N       E                     dE             d eps       ncg     rms          rms(c)
DAV:   1    -0.192164678297E+03   -0.44620E-02   -0.22707E-01  8160   0.104E+00    0.145E-01
DAV:   2    -0.192165139588E+03   -0.46129E-03   -0.86021E-03 11200   0.262E-01    0.119E-01
DAV:   3    -0.192165038434E+03    0.10115E-03   -0.13050E-03 12120   0.205E-01    0.124E-01
DAV:   4    -0.192165010722E+03    0.27712E-04   -0.69445E-04  9480   0.227E-01
  55 F= -.19216501E+03 E0= -.19208690E+03  d E =-.473977E-02
       N       E                     dE             d eps       ncg     rms          rms(c)
DAV:   1    -0.192166217233E+03   -0.11788E-02   -0.20194E-02  8200   0.337E-01    0.585E-02
DAV:   2    -0.192166353892E+03   -0.13666E-03   -0.89544E-04 12720   0.145E-01    0.111E-01
DAV:   3    -0.192166229254E+03    0.12464E-03   -0.30957E-04  9600   0.151E-01    0.490E-02
DAV:   4    -0.192166222787E+03    0.64669E-05   -0.68191E-05  5840   0.570E-02
  56 F= -.19216622E+03 E0= -.19208828E+03  d E =-.121207E-02
       N       E                     dE             d eps       ncg     rms          rms(c)
DAV:   1    -0.192171679103E+03   -0.54498E-02   -0.36471E-01  8160   0.130E+00    0.173E-01
DAV:   2    -0.192173164261E+03   -0.14852E-02   -0.14914E-02 10760   0.446E-01    0.269E-01
DAV:   3    -0.192172578935E+03    0.58533E-03   -0.28796E-03 11600   0.441E-01    0.178E-01
DAV:   4    -0.192172353003E+03    0.22593E-03   -0.89045E-04  9920   0.231E-01    0.116E-01
DAV:   5    -0.192172230811E+03    0.12219E-03   -0.37938E-04  9600   0.176E-01    0.705E-02
DAV:   6    -0.192172215616E+03    0.15195E-04   -0.19119E-04  7280   0.103E-01
  57 F= -.19217222E+03 E0= -.19209534E+03  d E =-.599283E-02
       N       E                     dE             d eps       ncg     rms          rms(c)
DAV:   1    -0.192173396497E+03   -0.11657E-02   -0.14987E-02  8160   0.268E-01    0.373E-02
DAV:   2    -0.192173442920E+03   -0.46423E-04   -0.64775E-04 10680   0.850E-02
  58 F= -.19217344E+03 E0= -.19209690E+03  d E =-.122730E-02
       N       E                     dE             d eps       ncg     rms          rms(c)
DAV:   1    -0.192177413373E+03   -0.40169E-02   -0.16293E-01  8160   0.873E-01    0.131E-01
DAV:   2    -0.192178419344E+03   -0.10060E-02   -0.71209E-03 11440   0.401E-01    0.257E-01
DAV:   3    -0.192177656132E+03    0.76321E-03   -0.17082E-03 11720   0.354E-01    0.983E-02
DAV:   4    -0.192177671246E+03   -0.15115E-04   -0.42985E-04  8600   0.161E-01
  59 F= -.19217767E+03 E0= -.19210194E+03  d E =-.422833E-02
       N       E                     dE             d eps       ncg     rms          rms(c)
DAV:   1    -0.192179051103E+03   -0.13950E-02   -0.24243E-02  8160   0.398E-01    0.863E-02
DAV:   2    -0.192179257972E+03   -0.20687E-03   -0.14148E-03 12280   0.215E-01    0.162E-01
DAV:   3    -0.192178982195E+03    0.27578E-03   -0.74605E-04  9360   0.239E-01    0.848E-02
DAV:   4    -0.192178937272E+03    0.44923E-04   -0.21962E-04  6840   0.104E-01
  60 F= -.19217894E+03 E0= -.19210369E+03  d E =-.126603E-02
       N       E                     dE             d eps       ncg     rms          rms(c)
DAV:   1    -0.192185030557E+03   -0.60484E-02   -0.37887E-01  8160   0.133E+00    0.194E-01
DAV:   2    -0.192187239134E+03   -0.22086E-02   -0.16169E-02 11760   0.589E-01    0.376E-01
DAV:   3    -0.192185597712E+03    0.16414E-02   -0.37893E-03 11760   0.530E-01    0.149E-01
DAV:   4    -0.192185580854E+03    0.16859E-04   -0.97598E-04  9840   0.235E-01
  61 F= -.19218558E+03 E0= -.19211168E+03  d E =-.664358E-02
       N       E                     dE             d eps       ncg     rms          rms(c)
DAV:   1    -0.192180399842E+03    0.51979E-02   -0.19579E-01  8160   0.977E-01    0.126E-01
DAV:   2    -0.192182304131E+03   -0.19043E-02   -0.86966E-03 12200   0.497E-01    0.349E-01
DAV:   3    -0.192180786341E+03    0.15178E-02   -0.22447E-03 11320   0.434E-01    0.715E-02
DAV:   4    -0.192180857746E+03   -0.71404E-04   -0.35274E-04  8600   0.151E-01
  62 F= -.19218086E+03 E0= -.19210613E+03  d E =0.472311E-02
       N       E                     dE             d eps       ncg     rms          rms(c)
DAV:   1    -0.192164153741E+03    0.16633E-01   -0.29729E+00  8160   0.377E+00    0.528E-01
DAV:   2    -0.192175761279E+03   -0.11608E-01   -0.10814E-01 12360   0.151E+00    0.890E-01
DAV:   3    -0.192167322360E+03    0.84389E-02   -0.24589E-02 12360   0.133E+00    0.407E-01
DAV:   4    -0.192166376402E+03    0.94596E-03   -0.68550E-03 12440   0.588E-01    0.355E-01
DAV:   5    -0.192165587541E+03    0.78886E-03   -0.51157E-03 11920   0.592E-01    0.312E-01
DAV:   6    -0.192164737746E+03    0.84980E-03   -0.29389E-03 11600   0.420E-01    0.130E-01
DAV:   7    -0.192164478719E+03    0.25903E-03   -0.65858E-04 10320   0.135E-01    0.397E-02
DAV:   8    -0.192164477261E+03    0.14580E-05   -0.10158E-04  7480   0.806E-02
  63 F= -.19216448E+03 E0= -.19208546E+03  d E =0.163805E-01
       N       E                     dE             d eps       ncg     rms          rms(c)
DAV:   1    -0.192159175684E+03    0.53030E-02   -0.55281E-01  8160   0.161E+00    0.203E-01
DAV:   2    -0.192160572710E+03   -0.13970E-02   -0.17332E-02 11640   0.487E-01    0.258E-01
DAV:   3    -0.192160213773E+03    0.35894E-03   -0.29673E-03 12400   0.468E-01    0.210E-01
DAV:   4    -0.192159843460E+03    0.37031E-03   -0.10552E-03 10360   0.270E-01    0.127E-01
DAV:   5    -0.192159762293E+03    0.81167E-04   -0.57325E-04  9080   0.215E-01
  64 F= -.19215976E+03 E0= -.19207936E+03  d E =0.471497E-02
       N       E                     dE             d eps       ncg     rms          rms(c)
DAV:   1    -0.192162888070E+03   -0.30446E-02   -0.22057E-01  8160   0.102E+00    0.141E-01
DAV:   2    -0.192164118860E+03   -0.12308E-02   -0.93713E-03 12520   0.439E-01    0.255E-01
DAV:   3    -0.192163180509E+03    0.93835E-03   -0.21543E-03 12400   0.370E-01    0.119E-01
DAV:   4    -0.192163057406E+03    0.12310E-03   -0.45963E-04 10080   0.168E-01    0.765E-02
DAV:   5    -0.192163041354E+03    0.16052E-04   -0.23721E-04  8400   0.128E-01
  65 F= -.19216304E+03 E0= -.19208347E+03  d E =-.327906E-02
       N       E                     dE             d eps       ncg     rms          rms(c)
DAV:   1    -0.192165242799E+03   -0.21854E-02   -0.77100E-02  8160   0.611E-01    0.104E-01
DAV:   2    -0.192165524456E+03   -0.28166E-03   -0.33420E-03 11720   0.276E-01    0.167E-01
DAV:   3    -0.192165237559E+03    0.28690E-03   -0.74771E-04 10840   0.249E-01    0.767E-02
DAV:   4    -0.192165186326E+03    0.51233E-04   -0.19173E-04  6280   0.108E-01
  66 F= -.19216519E+03 E0= -.19208608E+03  d E =-.214497E-02
       N       E                     dE             d eps       ncg     rms          rms(c)
DAV:   1    -0.192167503131E+03   -0.22656E-02   -0.85377E-02  8160   0.643E-01    0.105E-01
DAV:   2    -0.192168247911E+03   -0.74478E-03   -0.41164E-03 12640   0.322E-01    0.246E-01
DAV:   3    -0.192167585693E+03    0.66222E-03   -0.13706E-03 11040   0.318E-01    0.819E-02
DAV:   4    -0.192167536301E+03    0.49392E-04   -0.18191E-04  6360   0.863E-02
  67 F= -.19216754E+03 E0= -.19208907E+03  d E =-.234998E-02
       N       E                     dE             d eps       ncg     rms          rms(c)
DAV:   1    -0.192169791121E+03   -0.22054E-02   -0.79565E-02  8160   0.613E-01    0.994E-02
DAV:   2    -0.192170352505E+03   -0.56138E-03   -0.35089E-03 11440   0.302E-01    0.206E-01
DAV:   3    -0.192169867708E+03    0.48480E-03   -0.97225E-04 11040   0.281E-01    0.763E-02
DAV:   4    -0.192169881765E+03   -0.14057E-04   -0.25380E-04  7640   0.127E-01
  68 F= -.19216988E+03 E0= -.19209178E+03  d E =-.234546E-02
       N       E                     dE             d eps       ncg     rms          rms(c)
DAV:   1    -0.192171411261E+03   -0.15436E-02   -0.37690E-02  8160   0.433E-01    0.732E-02
DAV:   2    -0.192171680453E+03   -0.26919E-03   -0.17448E-03 12800   0.199E-01    0.145E-01
DAV:   3    -0.192171449244E+03    0.23121E-03   -0.57497E-04 10280   0.202E-01    0.656E-02
DAV:   4    -0.192171429741E+03    0.19503E-04   -0.12709E-04  6040   0.888E-02
  69 F= -.19217143E+03 E0= -.19209384E+03  d E =-.154798E-02
       N       E                     dE             d eps       ncg     rms          rms(c)
DAV:   1    -0.192175349215E+03   -0.39000E-02   -0.24103E-01  8160   0.106E+00    0.151E-01
DAV:   2    -0.192176360096E+03   -0.10109E-02   -0.96158E-03 11800   0.384E-01    0.233E-01
DAV:   3    -0.192175786386E+03    0.57371E-03   -0.18251E-03 12440   0.377E-01    0.132E-01
DAV:   4    -0.192175662245E+03    0.12414E-03   -0.49845E-04  9040   0.173E-01    0.874E-02
DAV:   5    -0.192175624552E+03    0.37693E-04   -0.35285E-04  9280   0.154E-01
  70 F= -.19217562E+03 E0= -.19209915E+03  d E =-.419481E-02
       N       E                     dE             d eps       ncg     rms          rms(c)
DAV:   1    -0.192173073283E+03    0.25890E-02   -0.83081E-02  8160   0.637E-01    0.900E-02
DAV:   2    -0.192173859101E+03   -0.78582E-03   -0.42710E-03 12520   0.320E-01    0.229E-01
DAV:   3    -0.192173243841E+03    0.61526E-03   -0.12451E-03 10360   0.298E-01    0.763E-02
DAV:   4    -0.192173181809E+03    0.62032E-04   -0.19348E-04  6680   0.914E-02
  71 F= -.19217318E+03 E0= -.19209599E+03  d E =0.244274E-02
       N       E                     dE             d eps       ncg     rms          rms(c)
DAV:   1    -0.192170064376E+03    0.31795E-02   -0.26067E-01  8160   0.114E+00    0.209E-01
DAV:   2    -0.192170878431E+03   -0.81405E-03   -0.11719E-02 11560   0.524E-01    0.345E-01
DAV:   3    -0.192169808183E+03    0.10702E-02   -0.35459E-03 12200   0.518E-01    0.188E-01
DAV:   4    -0.192169525933E+03    0.28225E-03   -0.14164E-03 10320   0.282E-01    0.146E-01
DAV:   5    -0.192169389434E+03    0.13650E-03   -0.93203E-04 10360   0.251E-01    0.119E-01
DAV:   6    -0.192169210261E+03    0.17917E-03   -0.39240E-04  9200   0.154E-01    0.358E-02
DAV:   7    -0.192169200595E+03    0.96661E-05   -0.75544E-05  6240   0.523E-02
  72 F= -.19216920E+03 E0= -.19209063E+03  d E =0.398121E-02
       N       E                     dE             d eps       ncg     rms          rms(c)
DAV:   1    -0.192176552970E+03   -0.73427E-02   -0.74767E-01  8160   0.188E+00    0.282E-01
DAV:   2    -0.192179999849E+03   -0.34469E-02   -0.31915E-02 11400   0.834E-01    0.510E-01
DAV:   3    -0.192177374464E+03    0.26254E-02   -0.70547E-03 12320   0.736E-01    0.240E-01
DAV:   4    -0.192176993699E+03    0.38076E-03   -0.22931E-03 11440   0.366E-01    0.198E-01
DAV:   5    -0.192176700686E+03    0.29301E-03   -0.14869E-03 10280   0.322E-01    0.143E-01
DAV:   6    -0.192176496797E+03    0.20389E-03   -0.69350E-04 11480   0.189E-01    0.587E-02
DAV:   7    -0.192176465094E+03    0.31703E-04   -0.14176E-04  6200   0.850E-02
  73 F= -.19217647E+03 E0= -.19209993E+03  d E =-.726450E-02
       N       E                     dE             d eps       ncg     rms          rms(c)
DAV:   1    -0.192179698849E+03   -0.32021E-02   -0.15683E-01  8160   0.857E-01    0.117E-01
DAV:   2    -0.192180292525E+03   -0.59368E-03   -0.64669E-03 10960   0.298E-01    0.167E-01
DAV:   3    -0.192180049437E+03    0.24309E-03   -0.11447E-03 11160   0.284E-01    0.112E-01
DAV:   4    -0.192179963750E+03    0.85687E-04   -0.33718E-04  8600   0.153E-01
  74 F= -.19217996E+03 E0= -.19210427E+03  d E =-.349866E-02
       N       E                     dE             d eps       ncg     rms          rms(c)
DAV:   1    -0.192163641041E+03    0.16408E-01   -0.27926E+00  8160   0.363E+00    0.473E-01
DAV:   2    -0.192175237696E+03   -0.11597E-01   -0.10649E-01 12080   0.141E+00    0.790E-01
DAV:   3    -0.192168496809E+03    0.67409E-02   -0.18936E-02 12320   0.122E+00    0.361E-01
DAV:   4    -0.192167090016E+03    0.14068E-02   -0.40950E-03 11840   0.454E-01    0.213E-01
DAV:   5    -0.192166880461E+03    0.20956E-03   -0.27762E-03 12040   0.376E-01    0.232E-01
DAV:   6    -0.192166698067E+03    0.18239E-03   -0.21920E-03 11880   0.392E-01    0.176E-01
DAV:   7    -0.192166273653E+03    0.42441E-03   -0.64337E-04  9040   0.179E-01    0.286E-02
DAV:   8    -0.192166279447E+03   -0.57941E-05   -0.83773E-05  7400   0.541E-02
  75 F= -.19216628E+03 E0= -.19208704E+03  d E =0.136843E-01
       N       E                     dE             d eps       ncg     rms          rms(c)
DAV:   1    -0.192163614155E+03    0.26595E-02   -0.14268E-01  8160   0.818E-01    0.105E-01
DAV:   2    -0.192164000401E+03   -0.38625E-03   -0.51503E-03 10680   0.222E-01    0.123E-01
DAV:   3    -0.192164011774E+03   -0.11373E-04   -0.89094E-04 11280   0.251E-01
  76 F= -.19216401E+03 E0= -.19208404E+03  d E =0.226767E-02
       N       E                     dE             d eps       ncg     rms          rms(c)
DAV:   1    -0.192163987280E+03    0.13122E-04   -0.85424E-03 10480   0.239E-01    0.532E-02
DAV:   2    -0.192164084005E+03   -0.96725E-04   -0.47620E-04  9920   0.137E-01
  77 F= -.19216408E+03 E0= -.19208406E+03  d E =-.722301E-04
       N       E                     dE             d eps       ncg     rms          rms(c)
DAV:   1    -0.192162065741E+03    0.19215E-02   -0.29136E-01  8160   0.118E+00    0.162E-01
DAV:   2    -0.192163274689E+03   -0.12089E-02   -0.10238E-02 11480   0.419E-01    0.290E-01
DAV:   3    -0.192162518858E+03    0.75583E-03   -0.23040E-03 11240   0.412E-01    0.145E-01
DAV:   4    -0.192162317953E+03    0.20090E-03   -0.48053E-04  9320   0.158E-01    0.680E-02
DAV:   5    -0.192162347565E+03   -0.29611E-04   -0.32018E-04  9360   0.152E-01
  78 F= -.19216235E+03 E0= -.19208172E+03  d E =0.173644E-02
       N       E                     dE             d eps       ncg     rms          rms(c)
DAV:   1    -0.192165296971E+03   -0.29790E-02   -0.26164E-01  8160   0.111E+00    0.159E-01
DAV:   2    -0.192167636868E+03   -0.23399E-02   -0.11782E-02 12400   0.588E-01    0.429E-01
DAV:   3    -0.192165599812E+03    0.20371E-02   -0.38922E-03 12320   0.519E-01    0.104E-01
DAV:   4    -0.192165486254E+03    0.11356E-03   -0.34642E-04  9000   0.108E-01    0.533E-02
DAV:   5    -0.192165486831E+03   -0.57745E-06   -0.20577E-04  7360   0.101E-01
  79 F= -.19216549E+03 E0= -.19208576E+03  d E =-.313927E-02
       N       E                     dE             d eps       ncg     rms          rms(c)
DAV:   1    -0.192166661477E+03   -0.11752E-02   -0.39985E-02  8160   0.444E-01    0.750E-02
DAV:   2    -0.192167098995E+03   -0.43752E-03   -0.21875E-03 12280   0.244E-01    0.185E-01
DAV:   3    -0.192166705828E+03    0.39317E-03   -0.71249E-04 10760   0.235E-01    0.580E-02
DAV:   4    -0.192166688001E+03    0.17828E-04   -0.11201E-04  5880   0.703E-02
  80 F= -.19216669E+03 E0= -.19208717E+03  d E =-.120117E-02
       N       E                     dE             d eps       ncg     rms          rms(c)
DAV:   1    -0.192168121152E+03   -0.14153E-02   -0.69230E-02  8160   0.570E-01    0.821E-02
DAV:   2    -0.192168351016E+03   -0.22986E-03   -0.26628E-03 11160   0.204E-01    0.128E-01
DAV:   3    -0.192168219542E+03    0.13147E-03   -0.60402E-04  9960   0.207E-01    0.855E-02
DAV:   4    -0.192168155046E+03    0.64495E-04   -0.16588E-04  6080   0.107E-01
  81 F= -.19216816E+03 E0= -.19208903E+03  d E =-.146705E-02
       N       E                     dE             d eps       ncg     rms          rms(c)
DAV:   1    -0.192172642199E+03   -0.44227E-02   -0.13224E+00  8160   0.246E+00    0.329E-01
DAV:   2    -0.192177298838E+03   -0.46566E-02   -0.54637E-02 11120   0.866E-01    0.456E-01
DAV:   3    -0.192175667269E+03    0.16316E-02   -0.82033E-03 12360   0.775E-01    0.322E-01
DAV:   4    -0.192174760561E+03    0.90671E-03   -0.28581E-03 11640   0.433E-01    0.206E-01
DAV:   5    -0.192174453806E+03    0.30675E-03   -0.16325E-03 10680   0.335E-01    0.166E-01
DAV:   6    -0.192174283805E+03    0.17000E-03   -0.96943E-04 10520   0.251E-01    0.938E-02
DAV:   7    -0.192174149857E+03    0.13395E-03   -0.27772E-04  8200   0.988E-02    0.249E-02
DAV:   8    -0.192174154655E+03   -0.47981E-05   -0.54692E-05  7440   0.516E-02
  82 F= -.19217415E+03 E0= -.19209657E+03  d E =-.599961E-02
       N       E                     dE             d eps       ncg     rms          rms(c)
DAV:   1    -0.192172668784E+03    0.14811E-02   -0.21026E-01  8160   0.100E+00    0.153E-01
DAV:   2    -0.192173797656E+03   -0.11289E-02   -0.97203E-03 11160   0.475E-01    0.292E-01
DAV:   3    -0.192172830836E+03    0.96682E-03   -0.21748E-03 12160   0.404E-01    0.113E-01
DAV:   4    -0.192172770530E+03    0.60306E-04   -0.58164E-04  9480   0.182E-01
  83 F= -.19217277E+03 E0= -.19209472E+03  d E =0.138413E-02
       N       E                     dE             d eps       ncg     rms          rms(c)
DAV:   1    -0.192173346245E+03   -0.51541E-03   -0.10757E-01  8160   0.769E-01    0.149E-01
DAV:   2    -0.192173172267E+03    0.17398E-03   -0.47250E-03 10480   0.220E-01    0.128E-01
DAV:   3    -0.192173259114E+03   -0.86847E-04   -0.15447E-03 12120   0.291E-01    0.191E-01
DAV:   4    -0.192172913479E+03    0.34564E-03   -0.88711E-04 10640   0.261E-01    0.894E-02
DAV:   5    -0.192172801592E+03    0.11189E-03   -0.33718E-04  8000   0.118E-01    0.517E-02
DAV:   6    -0.192172778946E+03    0.22646E-04   -0.12403E-04  6680   0.933E-02
  84 F= -.19217278E+03 E0= -.19209444E+03  d E =-.841593E-05
       N       E                     dE             d eps       ncg     rms          rms(c)
DAV:   1    -0.192174670057E+03   -0.18685E-02   -0.10039E-01  8160   0.695E-01    0.109E-01
DAV:   2    -0.192175070084E+03   -0.40003E-03   -0.46809E-03 11440   0.307E-01    0.176E-01
DAV:   3    -0.192174732773E+03    0.33731E-03   -0.92487E-04 10240   0.268E-01    0.801E-02
DAV:   4    -0.192174663894E+03    0.68878E-04   -0.23206E-04  7040   0.117E-01
  85 F= -.19217466E+03 E0= -.19209696E+03  d E =-.188495E-02
       N       E                     dE             d eps       ncg     rms          rms(c)
DAV:   1    -0.192172888928E+03    0.18438E-02   -0.18582E-01  8160   0.931E-01    0.127E-01
DAV:   2    -0.192174589808E+03   -0.17009E-02   -0.96441E-03 12000   0.479E-01    0.333E-01
DAV:   3    -0.192173317802E+03    0.12720E-02   -0.24780E-03 12000   0.420E-01    0.873E-02
DAV:   4    -0.192173283057E+03    0.34745E-04   -0.30632E-04  8400   0.118E-01
  86 F= -.19217328E+03 E0= -.19209533E+03  d E =0.138084E-02
       N       E                     dE             d eps       ncg     rms          rms(c)
DAV:   1    -0.192175210477E+03   -0.18927E-02   -0.11485E-01  8160   0.735E-01    0.924E-02
DAV:   2    -0.192175629659E+03   -0.41918E-03   -0.43450E-03 10640   0.225E-01    0.130E-01
DAV:   3    -0.192175504734E+03    0.12492E-03   -0.65462E-04 10160   0.226E-01    0.923E-02
DAV:   4    -0.192175429083E+03    0.75651E-04   -0.17294E-04  6880   0.113E-01
  87 F= -.19217543E+03 E0= -.19209794E+03  d E =-.214603E-02
       N       E                     dE             d eps       ncg     rms          rms(c)
DAV:   1    -0.192175288573E+03    0.21616E-03   -0.63360E-04 11600   0.111E-01    0.461E-02
DAV:   2    -0.192175705052E+03   -0.41648E-03   -0.73391E-04 10680   0.244E-01    0.189E-01
DAV:   3    -0.192175263244E+03    0.44181E-03   -0.48154E-04  9120   0.201E-01    0.175E-02
DAV:   4    -0.192175273251E+03   -0.10007E-04   -0.14445E-05  5920   0.308E-02
  88 F= -.19217527E+03 E0= -.19209786E+03  d E =0.155832E-03
       N       E                     dE             d eps       ncg     rms          rms(c)
DAV:   1    -0.192174727299E+03    0.53595E-03   -0.23718E-02  8160   0.333E-01    0.647E-02
DAV:   2    -0.192175383408E+03   -0.65611E-03   -0.18256E-03 12400   0.309E-01    0.240E-01
DAV:   3    -0.192174711450E+03    0.67196E-03   -0.84977E-04  9640   0.256E-01    0.258E-02
DAV:   4    -0.192174725303E+03   -0.13853E-04   -0.44022E-05  5760   0.492E-02
  89 F= -.19217473E+03 E0= -.19209723E+03  d E =0.547948E-03
       N       E                     dE             d eps       ncg     rms          rms(c)
DAV:   1    -0.192174293861E+03    0.41759E-03   -0.49907E-02  8160   0.496E-01    0.939E-02
DAV:   2    -0.192174473944E+03   -0.18008E-03   -0.24679E-03 11160   0.255E-01    0.157E-01
DAV:   3    -0.192174232005E+03    0.24194E-03   -0.66890E-04  9760   0.233E-01    0.759E-02
DAV:   4    -0.192174194178E+03    0.37827E-04   -0.24814E-04  7400   0.124E-01
  90 F= -.19217419E+03 E0= -.19209654E+03  d E =0.531125E-03
       N       E                     dE             d eps       ncg     rms          rms(c)
DAV:   1    -0.192177052163E+03   -0.28202E-02   -0.23247E-01  8160   0.104E+00    0.125E-01
DAV:   2    -0.192177884287E+03   -0.83212E-03   -0.84635E-03 12360   0.344E-01    0.198E-01
DAV:   3    -0.192177573524E+03    0.31076E-03   -0.14383E-03 11360   0.321E-01    0.131E-01
DAV:   4    -0.192177410813E+03    0.16271E-03   -0.41912E-04  8560   0.163E-01    0.640E-02
DAV:   5    -0.192177363411E+03    0.47401E-04   -0.14764E-04  6360   0.866E-02
  91 F= -.19217736E+03 E0= -.19210077E+03  d E =-.316923E-02
       N       E                     dE             d eps       ncg     rms          rms(c)
DAV:   1    -0.192178489288E+03   -0.10785E-02   -0.25880E-02  8160   0.360E-01    0.759E-02
DAV:   2    -0.192179128623E+03   -0.63933E-03   -0.19316E-03 12200   0.309E-01    0.224E-01
DAV:   3    -0.192178477493E+03    0.65113E-03   -0.79392E-04 10080   0.266E-01    0.399E-02
DAV:   4    -0.192178510299E+03   -0.32807E-04   -0.97113E-05  5560   0.872E-02
  92 F= -.19217851E+03 E0= -.19210206E+03  d E =-.114689E-02
       N       E                     dE             d eps       ncg     rms          rms(c)
DAV:   1    -0.192178587640E+03   -0.11015E-03   -0.89147E-04 11280   0.100E-01    0.232E-02
DAV:   2    -0.192178642051E+03   -0.54411E-04   -0.13172E-04  7400   0.900E-02
  93 F= -.19217864E+03 E0= -.19210221E+03  d E =-.131752E-03
       N       E                     dE             d eps       ncg     rms          rms(c)
DAV:   1    -0.192180578600E+03   -0.19910E-02   -0.80009E-02  8160   0.614E-01    0.819E-02
DAV:   2    -0.192180741334E+03   -0.16273E-03   -0.29484E-03 11240   0.145E-01    0.608E-02
DAV:   3    -0.192180740440E+03    0.89442E-06   -0.33664E-04  9480   0.117E-01
  94 F= -.19218074E+03 E0= -.19210482E+03  d E =-.209839E-02
       N       E                     dE             d eps       ncg     rms          rms(c)
DAV:   1    -0.192177568221E+03    0.31731E-02   -0.17473E-01  8160   0.919E-01    0.123E-01
DAV:   2    -0.192179202864E+03   -0.16346E-02   -0.77284E-03 11480   0.471E-01    0.342E-01
DAV:   3    -0.192177861432E+03    0.13414E-02   -0.20953E-03 10760   0.416E-01    0.746E-02
DAV:   4    -0.192177865663E+03   -0.42311E-05   -0.23229E-04  7080   0.124E-01
  95 F= -.19217787E+03 E0= -.19210158E+03  d E =0.287478E-02
       N       E                     dE             d eps       ncg     rms          rms(c)
DAV:   1    -0.192180791581E+03   -0.29301E-02   -0.22109E-01  8160   0.102E+00    0.132E-01
DAV:   2    -0.192182154761E+03   -0.13632E-02   -0.90341E-03 11440   0.467E-01    0.290E-01
DAV:   3    -0.192181186783E+03    0.96798E-03   -0.18447E-03 12160   0.390E-01    0.953E-02
DAV:   4    -0.192181176660E+03    0.10123E-04   -0.42605E-04  8480   0.164E-01
  96 F= -.19218118E+03 E0= -.19210551E+03  d E =-.331100E-02
       N       E                     dE             d eps       ncg     rms          rms(c)
DAV:   1    -0.192181410924E+03   -0.22414E-03   -0.28213E-03 11200   0.175E-01    0.493E-02
DAV:   2    -0.192181614374E+03   -0.20345E-03   -0.45634E-04  9880   0.181E-01    0.131E-01
DAV:   3    -0.192181383136E+03    0.23124E-03   -0.28994E-04  8960   0.162E-01    0.290E-02
DAV:   4    -0.192181393474E+03   -0.10338E-04   -0.48004E-05  5640   0.535E-02
  97 F= -.19218139E+03 E0= -.19210601E+03  d E =-.216813E-03
       N       E                     dE             d eps       ncg     rms          rms(c)
DAV:   1    -0.192184546913E+03   -0.31638E-02   -0.22475E-01  8160   0.102E+00    0.137E-01
DAV:   2    -0.192185433427E+03   -0.88651E-03   -0.92840E-03 11400   0.353E-01    0.212E-01
DAV:   3    -0.192185130252E+03    0.30317E-03   -0.17713E-03 11680   0.358E-01    0.152E-01
DAV:   4    -0.192184893621E+03    0.23663E-03   -0.50813E-04  8840   0.176E-01    0.614E-02
DAV:   5    -0.192184867206E+03    0.26415E-04   -0.17062E-04  6560   0.968E-02
  98 F= -.19218487E+03 E0= -.19211056E+03  d E =-.347373E-02
       N       E                     dE             d eps       ncg     rms          rms(c)
DAV:   1    -0.192180968639E+03    0.39250E-02   -0.31330E-01  8160   0.124E+00    0.179E-01
DAV:   2    -0.192182326732E+03   -0.13581E-02   -0.14212E-02 12040   0.459E-01    0.298E-01
DAV:   3    -0.192181567140E+03    0.75959E-03   -0.32385E-03 11480   0.474E-01    0.189E-01
DAV:   4    -0.192181171395E+03    0.39574E-03   -0.95655E-04 10000   0.228E-01    0.872E-02
DAV:   5    -0.192181140846E+03    0.30549E-04   -0.38972E-04  8920   0.165E-01
  99 F= -.19218114E+03 E0= -.19210555E+03  d E =0.372636E-02
       N       E                     dE             d eps       ncg     rms          rms(c)
DAV:   1    -0.192183761150E+03   -0.25898E-02   -0.14143E-01  8160   0.813E-01    0.122E-01
DAV:   2    -0.192184670616E+03   -0.90947E-03   -0.67794E-03 11120   0.408E-01    0.240E-01
DAV:   3    -0.192183948910E+03    0.72171E-03   -0.14326E-03 11360   0.342E-01    0.859E-02
DAV:   4    -0.192183889241E+03    0.59669E-04   -0.30092E-04  7880   0.127E-01
 100 F= -.19218389E+03 E0= -.19210899E+03  d E =-.274840E-02
