<?xml version="1.0" encoding="ISO-8859-1"?>
<modeling>
 <generator>
  <i name="program" type="string">vasp </i>
  <i name="version" type="string">5.4.1  </i>
  <i name="subversion" type="string">05Feb16 (build Jul 05 2020 17:13:04) complex                          parallel </i>
  <i name="platform" type="string">IFC91_ompi </i>
  <i name="date" type="string">2024 05 14 </i>
  <i name="time" type="string">13:28:05 </i>
 </generator>
 <incar>
  <i type="int" name="ISTART">     0</i>
  <i type="string" name="PREC">normal</i>
  <i type="string" name="ALGO"> Normal</i>
  <i type="int" name="ISPIN">     1</i>
  <i type="int" name="ICHARG">     2</i>
  <i type="int" name="IBRION">     1</i>
  <i type="int" name="NSW">   100</i>
  <i type="int" name="ISIF">     3</i>
  <i type="int" name="ISYM">     0</i>
  <i name="SYMPREC">      0.00000001</i>
  <i name="POTIM">      0.50000000</i>
  <i type="logical" name="LREAL"> F  </i>
  <i type="logical" name="LPLANE"> F  </i>
  <i type="int" name="ISMEAR">     0</i>
  <i type="logical" name="LWAVE"> F  </i>
  <i type="logical" name="LCHARG"> F  </i>
  <v type="int" name="KPOINT_BSE">    -1     0     0     0</v>
 </incar>
 <kpoints>
  <generation param="Gamma">
   <v type="int" name="divisions">       8        8        1 </v>
   <v name="usershift">      0.00000000       0.00000000       0.00000000 </v>
   <v name="genvec1">      0.12500000       0.00000000       0.00000000 </v>
   <v name="genvec2">     -0.00000000       0.12500000       0.00000000 </v>
   <v name="genvec3">      0.00000000       0.00000000       1.00000000 </v>
   <v name="shift">      0.00000000       0.00000000       0.00000000 </v>
  </generation>
  <varray name="kpointlist" >
   <v>       0.00000000       0.00000000       0.00000000 </v>
   <v>       0.12500000       0.00000000       0.00000000 </v>
   <v>       0.25000000       0.00000000       0.00000000 </v>
   <v>       0.37500000       0.00000000       0.00000000 </v>
   <v>       0.50000000       0.00000000       0.00000000 </v>
   <v>       0.00000000       0.12500000       0.00000000 </v>
   <v>       0.12500000       0.12500000       0.00000000 </v>
   <v>       0.25000000       0.12500000       0.00000000 </v>
   <v>       0.37500000       0.12500000       0.00000000 </v>
   <v>       0.50000000       0.12500000       0.00000000 </v>
   <v>      -0.37500000       0.12500000       0.00000000 </v>
   <v>      -0.25000000       0.12500000       0.00000000 </v>
   <v>      -0.12500000       0.12500000       0.00000000 </v>
   <v>       0.00000000       0.25000000       0.00000000 </v>
   <v>       0.12500000       0.25000000       0.00000000 </v>
   <v>       0.25000000       0.25000000       0.00000000 </v>
   <v>       0.37500000       0.25000000       0.00000000 </v>
   <v>       0.50000000       0.25000000       0.00000000 </v>
   <v>      -0.37500000       0.25000000       0.00000000 </v>
   <v>      -0.25000000       0.25000000       0.00000000 </v>
   <v>      -0.12500000       0.25000000       0.00000000 </v>
   <v>      -0.00000000       0.37500000       0.00000000 </v>
   <v>       0.12500000       0.37500000       0.00000000 </v>
   <v>       0.25000000       0.37500000       0.00000000 </v>
   <v>       0.37500000       0.37500000       0.00000000 </v>
   <v>       0.50000000       0.37500000       0.00000000 </v>
   <v>      -0.37500000       0.37500000       0.00000000 </v>
   <v>      -0.25000000       0.37500000       0.00000000 </v>
   <v>      -0.12500000       0.37500000       0.00000000 </v>
   <v>       0.00000000       0.50000000       0.00000000 </v>
   <v>       0.12500000       0.50000000       0.00000000 </v>
   <v>       0.25000000       0.50000000       0.00000000 </v>
   <v>       0.37500000       0.50000000       0.00000000 </v>
   <v>       0.50000000       0.50000000       0.00000000 </v>
  </varray>
  <varray name="weights" >
   <v>       0.01562500 </v>
   <v>       0.03125000 </v>
   <v>       0.03125000 </v>
   <v>       0.03125000 </v>
   <v>       0.01562500 </v>
   <v>       0.03125000 </v>
   <v>       0.03125000 </v>
   <v>       0.03125000 </v>
   <v>       0.03125000 </v>
   <v>       0.03125000 </v>
   <v>       0.03125000 </v>
   <v>       0.03125000 </v>
   <v>       0.03125000 </v>
   <v>       0.03125000 </v>
   <v>       0.03125000 </v>
   <v>       0.03125000 </v>
   <v>       0.03125000 </v>
   <v>       0.03125000 </v>
   <v>       0.03125000 </v>
   <v>       0.03125000 </v>
   <v>       0.03125000 </v>
   <v>       0.03125000 </v>
   <v>       0.03125000 </v>
   <v>       0.03125000 </v>
   <v>       0.03125000 </v>
   <v>       0.03125000 </v>
   <v>       0.03125000 </v>
   <v>       0.03125000 </v>
   <v>       0.03125000 </v>
   <v>       0.01562500 </v>
   <v>       0.03125000 </v>
   <v>       0.03125000 </v>
   <v>       0.03125000 </v>
   <v>       0.01562500 </v>
  </varray>
 </kpoints>
 <parameters>
  <separator name="general" >
   <i type="string" name="SYSTEM">unknown system</i>
   <i type="logical" name="LCOMPAT"> F  </i>
  </separator>
  <separator name="electronic" >
   <i type="string" name="PREC">normal</i>
   <i name="ENMAX">    280.00000000</i>
   <i name="ENAUG">    373.43800000</i>
   <i name="EDIFF">      0.00010000</i>
   <i type="int" name="IALGO">    38</i>
   <i type="int" name="IWAVPR">    11</i>
   <i type="int" name="NBANDS">   120</i>
   <i name="NELECT">    159.00000000</i>
   <i type="int" name="TURBO">     0</i>
   <i type="int" name="IRESTART">     0</i>
   <i type="int" name="NREBOOT">     0</i>
   <i type="int" name="NMIN">     0</i>
   <i name="EREF">      0.00000000</i>
   <separator name="electronic smearing" >
    <i type="int" name="ISMEAR">     0</i>
    <i name="SIGMA">      0.20000000</i>
    <i name="KSPACING">      0.50000000</i>
    <i type="logical" name="KGAMMA"> T  </i>
   </separator>
   <separator name="electronic projectors" >
    <i type="logical" name="LREAL"> F  </i>
    <v name="ROPT">      0.00000000      0.00000000      0.00000000      0.00000000</v>
    <i type="int" name="LMAXPAW">  -100</i>
    <i type="int" name="LMAXMIX">     2</i>
    <i type="logical" name="NLSPLINE"> F  </i>
   </separator>
   <separator name="electronic startup" >
    <i type="int" name="ISTART">     0</i>
    <i type="int" name="ICHARG">     2</i>
    <i type="int" name="INIWAV">     1</i>
   </separator>
   <separator name="electronic spin" >
    <i type="int" name="ISPIN">     1</i>
    <i type="logical" name="LNONCOLLINEAR"> F  </i>
    <v name="MAGMOM">      1.00000000      1.00000000      1.00000000      1.00000000      1.00000000      1.00000000      1.00000000      1.00000000      1.00000000      1.00000000      1.00000000      1.00000000      1.00000000      1.00000000      1.00000000      1.00000000      1.00000000      1.00000000      1.00000000      1.00000000
      1.00000000      1.00000000      1.00000000      1.00000000      1.00000000      1.00000000      1.00000000</v>
    <i name="NUPDOWN">     -1.00000000</i>
    <i type="logical" name="LSORBIT"> F  </i>
    <v name="SAXIS">      0.00000000      0.00000000      1.00000000</v>
    <i type="logical" name="LSPIRAL"> F  </i>
    <v name="QSPIRAL">      0.00000000      0.00000000      0.00000000</v>
    <i type="logical" name="LZEROZ"> F  </i>
   </separator>
   <separator name="electronic exchange-correlation" >
    <i type="logical" name="LASPH"> F  </i>
    <i type="logical" name="LMETAGGA"> F  </i>
   </separator>
   <separator name="electronic convergence" >
    <i type="int" name="NELM">    60</i>
    <i type="int" name="NELMDL">    -5</i>
    <i type="int" name="NELMIN">     2</i>
    <i name="ENINI">    280.00000000</i>
    <separator name="electronic convergence detail" >
     <i type="logical" name="LDIAG"> T  </i>
     <i type="logical" name="LSUBROT"> F  </i>
     <i name="WEIMIN">      0.00100000</i>
     <i name="EBREAK">      0.00000021</i>
     <i name="DEPER">      0.30000000</i>
     <i type="int" name="NRMM">     4</i>
     <i name="TIME">      0.40000000</i>
    </separator>
   </separator>
   <separator name="electronic mixer" >
    <i name="AMIX">      0.40000000</i>
    <i name="BMIX">      1.00000000</i>
    <i name="AMIN">      0.10000000</i>
    <i name="AMIX_MAG">      1.60000000</i>
    <i name="BMIX_MAG">      1.00000000</i>
    <separator name="electronic mixer details" >
     <i type="int" name="IMIX">     4</i>
     <i type="logical" name="MIXFIRST"> F  </i>
     <i type="int" name="MAXMIX">   -45</i>
     <i name="WC">    100.00000000</i>
     <i type="int" name="INIMIX">     1</i>
     <i type="int" name="MIXPRE">     1</i>
     <i type="int" name="MREMOVE">     5</i>
    </separator>
   </separator>
   <separator name="electronic dipolcorrection" >
    <i type="logical" name="LDIPOL"> F  </i>
    <i type="logical" name="LMONO"> F  </i>
    <i type="int" name="IDIPOL">     0</i>
    <i name="EPSILON">      1.00000000</i>
    <v name="DIPOL">   -100.00000000   -100.00000000   -100.00000000</v>
    <i name="EFIELD">      0.00000000</i>
   </separator>
  </separator>
  <separator name="grids" >
   <i type="int" name="NGX">    42</i>
   <i type="int" name="NGY">    42</i>
   <i type="int" name="NGZ">   126</i>
   <i type="int" name="NGXF">    84</i>
   <i type="int" name="NGYF">    84</i>
   <i type="int" name="NGZF">   252</i>
   <i type="logical" name="ADDGRID"> F  </i>
  </separator>
  <separator name="ionic" >
   <i type="int" name="NSW">   100</i>
   <i type="int" name="IBRION">     1</i>
   <i type="int" name="ISIF">     3</i>
   <i name="PSTRESS">      0.00000000</i>
   <i name="EDIFFG">      0.00100000</i>
   <i type="int" name="NFREE">     0</i>
   <i name="POTIM">      0.50000000</i>
   <i name="SMASS">     -3.00000000</i>
   <i name="SCALEE">      1.00000000</i>
  </separator>
  <separator name="ionic md" >
   <i name="TEBEG">      0.00010000</i>
   <i name="TEEND">      0.00010000</i>
   <i type="int" name="NBLOCK">     1</i>
   <i type="int" name="KBLOCK">   100</i>
   <i type="int" name="NPACO">   256</i>
   <i name="APACO">     16.00000000</i>
  </separator>
  <separator name="symmetry" >
   <i type="int" name="ISYM">     0</i>
   <i name="SYMPREC">      0.00000001</i>
  </separator>
  <separator name="dos" >
   <i type="logical" name="LORBIT"> F  </i>
   <v name="RWIGS">     -1.00000000     -1.00000000     -1.00000000     -1.00000000</v>
   <i type="int" name="NEDOS">   301</i>
   <i name="EMIN">     10.00000000</i>
   <i name="EMAX">    -10.00000000</i>
   <i name="EFERMI">      0.00000000</i>
  </separator>
  <separator name="writing" >
   <i type="int" name="NWRITE">     2</i>
   <i type="logical" name="LWAVE"> F  </i>
   <i type="logical" name="LCHARG"> F  </i>
   <i type="logical" name="LPARD"> F  </i>
   <i type="logical" name="LVTOT"> F  </i>
   <i type="logical" name="LVHAR"> F  </i>
   <i type="logical" name="LELF"> F  </i>
   <i type="logical" name="LOPTICS"> F  </i>
   <v name="STM">      0.00000000      0.00000000      0.00000000      0.00000000      0.00000000      0.00000000      0.00000000</v>
  </separator>
  <separator name="performance" >
   <i type="int" name="NPAR">    40</i>
   <i type="int" name="NSIM">     4</i>
   <i type="int" name="NBLK">    -1</i>
   <i type="logical" name="LPLANE"> F  </i>
   <i type="logical" name="LSCALAPACK"> T  </i>
   <i type="logical" name="LSCAAWARE"> F  </i>
   <i type="logical" name="LSCALU"> F  </i>
   <i type="logical" name="LASYNC"> F  </i>
   <i type="logical" name="LORBITALREAL"> F  </i>
  </separator>
  <separator name="miscellaneous" >
   <i type="int" name="IDIOT">     3</i>
   <i type="logical" name="LMUSIC"> F  </i>
   <v name="POMASS">     50.94100000     95.94000000    183.85000000     32.06600000</v>
   <v name="DARWINR">      0.00000000      0.00000000      0.00000000      0.00000000</v>
   <v name="DARWINV">      1.00000000      1.00000000      1.00000000      1.00000000</v>
   <i type="logical" name="LCORR"> T  </i>
  </separator>
  <i type="logical" name="GGA_COMPAT"> T  </i>
  <i type="logical" name="LBERRY"> F  </i>
  <i type="int" name="ICORELEVEL">     0</i>
  <i type="logical" name="LDAU"> F  </i>
  <i type="int" name="I_CONSTRAINED_M">     0</i>
  <separator name="electronic exchange-correlation" >
   <i type="string" name="GGA">--</i>
   <i type="int" name="VOSKOWN">     0</i>
   <i type="logical" name="LHFCALC"> F  </i>
   <i type="string" name="PRECFOCK"></i>
   <i type="logical" name="LSYMGRAD"> F  </i>
   <i type="logical" name="LHFONE"> F  </i>
   <i type="logical" name="LRHFCALC"> F  </i>
   <i type="logical" name="LTHOMAS"> F  </i>
   <i type="logical" name="LMODELHF"> F  </i>
   <i name="ENCUT4O">     -1.00000000</i>
   <i type="int" name="EXXOEP">     0</i>
   <i type="int" name="FOURORBIT">     0</i>
   <i name="AEXX">      0.00000000</i>
   <i name="HFALPHA">      0.00000000</i>
   <i name="MCALPHA">      0.00000000</i>
   <i name="ALDAX">      1.00000000</i>
   <i name="AGGAX">      1.00000000</i>
   <i name="ALDAC">      1.00000000</i>
   <i name="AGGAC">      1.00000000</i>
   <i type="int" name="NKREDX">     1</i>
   <i type="int" name="NKREDY">     1</i>
   <i type="int" name="NKREDZ">     1</i>
   <i type="logical" name="SHIFTRED"> F  </i>
   <i type="logical" name="ODDONLY"> F  </i>
   <i type="logical" name="EVENONLY"> F  </i>
   <i type="int" name="LMAXFOCK">     0</i>
   <i type="int" name="NMAXFOCKAE">     0</i>
   <i type="logical" name="LFOCKAEDFT"> F  </i>
   <i name="HFSCREEN">      0.00000000</i>
   <i name="HFSCREENC">      0.00000000</i>
   <i type="int" name="NBANDSGWLOW">     0</i>
  </separator>
  <separator name="vdW DFT" >
   <i type="logical" name="LUSE_VDW"> F  </i>
   <i name="Zab_VDW">     -0.84910000</i>
   <i name="PARAM1">      0.12340000</i>
   <i name="PARAM2">      1.00000000</i>
   <i name="PARAM3">      0.00000000</i>
  </separator>
  <separator name="model GW" >
   <i type="int" name="MODEL_GW">     0</i>
   <i name="MODEL_EPS0">     58.26239943</i>
   <i name="MODEL_ALPHA">      1.00000000</i>
  </separator>
  <separator name="linear response parameters" >
   <i type="logical" name="LEPSILON"> F  </i>
   <i type="logical" name="LRPA"> F  </i>
   <i type="logical" name="LNABLA"> F  </i>
   <i type="logical" name="LVEL"> F  </i>
   <i type="int" name="KINTER">     0</i>
   <i name="CSHIFT">      0.10000000</i>
   <i name="OMEGAMAX">     -1.00000000</i>
   <i name="DEG_THRESHOLD">      0.00200000</i>
  </separator>
  <separator name="orbital magnetization" >
   <i type="logical" name="NUCIND"> F  </i>
   <v name="MAGPOS">      0.00000000      0.00000000      0.00000000</v>
   <i type="logical" name="LNICSALL"> T  </i>
   <i type="logical" name="ORBITALMAG"> F  </i>
   <i type="logical" name="LMAGBLOCH"> F  </i>
   <i type="logical" name="LCHIMAG"> F  </i>
   <i type="logical" name="LGAUGE"> T  </i>
   <i type="int" name="MAGATOM">     0</i>
   <v name="MAGDIPOL">      0.00000000      0.00000000      0.00000000</v>
   <v name="AVECCONST">      0.00000000      0.00000000      0.00000000</v>
  </separator>
  <separator name="response functions" >
   <i type="logical" name="LADDER"> F  </i>
   <i type="logical" name="LFXC"> F  </i>
   <i type="logical" name="LHARTREE"> T  </i>
   <i type="int" name="IBSE">     0</i>
   <v type="int" name="KPOINT">    -1     0     0     0</v>
   <i type="logical" name="LTCTE"> F  </i>
   <i type="logical" name="LTETE"> F  </i>
   <i type="logical" name="LTRIPLET"> F  </i>
   <i type="logical" name="LFXCEPS"> F  </i>
   <i type="logical" name="LFXHEG"> F  </i>
   <i type="int" name="NATURALO">     0</i>
   <i type="logical" name="L2ORDER"> F  </i>
   <i type="logical" name="LUSEW"> F  </i>
   <i name="ENCUTGW">     -2.00000000</i>
   <i name="ENCUTGWSOFT">     -2.00000000</i>
   <i name="ENCUTLF">     -1.00000000</i>
   <i type="int" name="LMAXMP2">    -1</i>
   <i name="SCISSOR">      0.00000000</i>
   <i type="int" name="NOMEGA">     0</i>
   <i type="int" name="NOMEGAR">     0</i>
   <i type="int" name="NBANDSGW">    -1</i>
   <i type="int" name="NBANDSO">    -1</i>
   <i type="int" name="NBANDSV">    -1</i>
   <i type="int" name="NELM">     1</i>
   <i type="int" name="NELMHF">     1</i>
   <i type="int" name="DIM">     3</i>
   <i type="int" name="ANTIRES">     0</i>
   <i name="OMEGAMAX">    -30.00000000</i>
   <i name="OMEGAMIN">    -30.00000000</i>
   <i name="OMEGATL">   -200.00000000</i>
   <i type="int" name="OMEGAGRID">     0</i>
   <i name="CSHIFT">     -0.10000000</i>
   <i type="logical" name="SELFENERGY"> F  </i>
   <i type="logical" name="LSPECTRAL"> F  </i>
   <i type="logical" name="LSPECTRALGW"> F  </i>
   <i type="logical" name="LSINGLES"> F  </i>
   <i type="logical" name="LFERMIGW"> F  </i>
   <i type="logical" name="ODDONLYGW"> F  </i>
   <i type="logical" name="EVENONLYGW"> F  </i>
   <i type="int" name="NKREDLFX">     1</i>
   <i type="int" name="NKREDLFY">     1</i>
   <i type="int" name="NKREDLFZ">     1</i>
   <i type="int" name="MAXMEM">  1800</i>
   <i type="int" name="TELESCOPE">     0</i>
   <i type="int" name="TAUPAR">     1</i>
   <i type="int" name="OMEGAPAR">    -1</i>
   <i name="LAMBDA">      1.00000000</i>
  </separator>
  <separator name="External order field" >
   <i name="OFIELD_KAPPA">      0.00000000</i>
   <v name="OFIELD_K">      0.00000000      0.00000000      0.00000000</v>
   <i name="OFIELD_Q6_NEAR">      0.00000000</i>
   <i name="OFIELD_Q6_FAR">      0.00000000</i>
   <i name="OFIELD_A">      0.00000000</i>
  </separator>
 </parameters>
 <atominfo>
  <atoms>      27 </atoms>
  <types>       4 </types>
  <array name="atoms" >
   <dimension dim="1">ion</dimension>
   <field type="string">element</field>
   <field type="int">atomtype</field>
   <set>
    <rc><c>V </c><c>   1</c></rc>
    <rc><c>V </c><c>   1</c></rc>
    <rc><c>V </c><c>   1</c></rc>
    <rc><c>Mo</c><c>   2</c></rc>
    <rc><c>Mo</c><c>   2</c></rc>
    <rc><c>Mo</c><c>   2</c></rc>
    <rc><c>W </c><c>   3</c></rc>
    <rc><c>W </c><c>   3</c></rc>
    <rc><c>W </c><c>   3</c></rc>
    <rc><c>S </c><c>   4</c></rc>
    <rc><c>S </c><c>   4</c></rc>
    <rc><c>S </c><c>   4</c></rc>
    <rc><c>S </c><c>   4</c></rc>
    <rc><c>S </c><c>   4</c></rc>
    <rc><c>S </c><c>   4</c></rc>
    <rc><c>S </c><c>   4</c></rc>
    <rc><c>S </c><c>   4</c></rc>
    <rc><c>S </c><c>   4</c></rc>
    <rc><c>S </c><c>   4</c></rc>
    <rc><c>S </c><c>   4</c></rc>
    <rc><c>S </c><c>   4</c></rc>
    <rc><c>S </c><c>   4</c></rc>
    <rc><c>S </c><c>   4</c></rc>
    <rc><c>S </c><c>   4</c></rc>
    <rc><c>S </c><c>   4</c></rc>
    <rc><c>S </c><c>   4</c></rc>
    <rc><c>S </c><c>   4</c></rc>
   </set>
  </array>
  <array name="atomtypes" >
   <dimension dim="1">type</dimension>
   <field type="int">atomspertype</field>
   <field type="string">element</field>
   <field>mass</field>
   <field>valence</field>
   <field type="string">pseudopotential</field>
   <set>
    <rc><c>   3</c><c>V </c><c>     50.94100000</c><c>      5.00000000</c><c> PAW_PBE V 08Apr2002                    </c></rc>
    <rc><c>   3</c><c>Mo</c><c>     95.94000000</c><c>      6.00000000</c><c> PAW_PBE Mo 08Apr2002                   </c></rc>
    <rc><c>   3</c><c>W </c><c>    183.85000000</c><c>      6.00000000</c><c> PAW_PBE W 08Apr2002                    </c></rc>
    <rc><c>  18</c><c>S </c><c>     32.06600000</c><c>      6.00000000</c><c>  PAW_PBE S 17Jan2003                   </c></rc>
   </set>
  </array>
 </atominfo>
 <structure name="initialpos" >
  <crystal>
   <varray name="basis" >
    <v>       8.66999996       5.03999989       0.00000000 </v>
    <v>      -8.66999982       5.04000013       0.00000000 </v>
    <v>       0.00000000       0.00000000      30.00000000 </v>
   </varray>
   <i name="volume">   2621.80797419 </i>
   <varray name="rec_basis" >
    <v>       0.05767013       0.09920635       0.00000000 </v>
    <v>      -0.05767013       0.09920635       0.00000000 </v>
    <v>       0.00000000       0.00000000       0.03333333 </v>
   </varray>
  </crystal>
  <varray name="positions" >
   <v>       0.33333334       0.33333334       0.00000000 </v>
   <v>       0.66666669       0.00000000       0.00000000 </v>
   <v>       0.33333334       0.00000000       0.00000000 </v>
   <v>       0.00000000       0.66666669       0.00000000 </v>
   <v>       0.33333334       0.66666669       0.00000000 </v>
   <v>       0.00000000       0.00000000       0.00000000 </v>
   <v>       1.00000000       0.33333334       0.00000000 </v>
   <v>       0.66666669       0.33333334       0.00000000 </v>
   <v>       0.66666669       0.66666669       0.00000000 </v>
   <v>       0.11068511       0.22244981       0.95539999 </v>
   <v>       0.22244981       0.11068511       0.04460000 </v>
   <v>       0.11068511       0.55578315       0.95539999 </v>
   <v>       0.22244981       0.44401845       0.04460000 </v>
   <v>       0.11068511       0.88911647       0.95539999 </v>
   <v>       0.22244981       0.77735180       0.04460000 </v>
   <v>       0.44401845       0.22244981       0.95539999 </v>
   <v>       0.55578315       0.11068511       0.04460000 </v>
   <v>       0.44401845       0.55578315       0.95539999 </v>
   <v>       0.55578315       0.44401845       0.04460000 </v>
   <v>       0.44401845       0.88911647       0.95539999 </v>
   <v>       0.55578315       0.77735180       0.04460000 </v>
   <v>       0.77735180       0.22244981       0.95539999 </v>
   <v>       0.88911647       0.11068511       0.04460000 </v>
   <v>       0.77735180       0.55578315       0.95539999 </v>
   <v>       0.88911647       0.44401845       0.04460000 </v>
   <v>       0.77735180       0.88911647       0.95539999 </v>
   <v>       0.88911647       0.77735180       0.04460000 </v>
  </varray>
 </structure>
 <calculation>
  <scstep>
   <time name="dav">   31.11   31.19</time>
   <time name="total">   31.18   31.26</time>
   <energy>
    <i name="alphaZ">     81.65567618 </i>
    <i name="ewald">  41890.25210945 </i>
    <i name="hartreedc"> -47722.88706572 </i>
    <i name="XCdc">   -242.92852183 </i>
    <i name="pawpsdc">   3467.42045192 </i>
    <i name="pawaedc">  -2871.19716117 </i>
    <i name="eentropy">     -0.53308141 </i>
    <i name="bandstr">   -238.60893928 </i>
    <i name="atom">   6761.44252427 </i>
    <i name="e_fr_energy">   1124.61599241 </i>
    <i name="e_wo_entrp">   1125.14907382 </i>
    <i name="e_0_energy">   1124.88253312 </i>
   </energy>
  </scstep>
  <scstep>
   <time name="dav">   39.44   39.54</time>
   <time name="total">   39.45   39.55</time>
   <energy>
    <i name="e_fr_energy">     -1.52555012 </i>
    <i name="e_wo_entrp">     -1.34977581 </i>
    <i name="e_0_energy">     -1.43766297 </i>
   </energy>
  </scstep>
  <scstep>
   <time name="dav">   39.31   39.40</time>
   <time name="total">   39.31   39.41</time>
   <energy>
    <i name="e_fr_energy">   -199.67733355 </i>
    <i name="e_wo_entrp">   -199.41078275 </i>
    <i name="e_0_energy">   -199.54405815 </i>
   </energy>
  </scstep>
  <scstep>
   <time name="dav">   41.99   42.09</time>
   <time name="total">   41.99   42.10</time>
   <energy>
    <i name="e_fr_energy">   -208.95777124 </i>
    <i name="e_wo_entrp">   -208.64870570 </i>
    <i name="e_0_energy">   -208.80323847 </i>
   </energy>
  </scstep>
  <scstep>
   <time name="dav">   41.19   41.28</time>
   <time name="total">   41.83   41.94</time>
   <energy>
    <i name="e_fr_energy">   -209.30330282 </i>
    <i name="e_wo_entrp">   -208.99715680 </i>
    <i name="e_0_energy">   -209.15022981 </i>
   </energy>
  </scstep>
  <scstep>
   <time name="dav">   44.01   44.12</time>
   <time name="total">   44.70   44.82</time>
   <energy>
    <i name="e_fr_energy">   -236.70940730 </i>
    <i name="e_wo_entrp">   -236.42676894 </i>
    <i name="e_0_energy">   -236.56808812 </i>
   </energy>
  </scstep>
  <scstep>
   <time name="dav">   45.24   45.35</time>
   <time name="total">   45.94   46.06</time>
   <energy>
    <i name="e_fr_energy">   -196.69568794 </i>
    <i name="e_wo_entrp">   -196.37452277 </i>
    <i name="e_0_energy">   -196.53510535 </i>
   </energy>
  </scstep>
  <scstep>
   <time name="dav">   41.57   41.67</time>
   <time name="total">   42.28   42.40</time>
   <energy>
    <i name="e_fr_energy">   -189.93577926 </i>
    <i name="e_wo_entrp">   -189.65927617 </i>
    <i name="e_0_energy">   -189.79752772 </i>
   </energy>
  </scstep>
  <scstep>
   <time name="dav">   41.40   41.50</time>
   <time name="total">   42.11   42.22</time>
   <energy>
    <i name="e_fr_energy">   -188.23862054 </i>
    <i name="e_wo_entrp">   -187.90807416 </i>
    <i name="e_0_energy">   -188.07334735 </i>
   </energy>
  </scstep>
  <scstep>
   <time name="dav">   45.79   45.90</time>
   <time name="total">   46.51   46.63</time>
   <energy>
    <i name="e_fr_energy">   -187.05033457 </i>
    <i name="e_wo_entrp">   -186.70811637 </i>
    <i name="e_0_energy">   -186.87922547 </i>
   </energy>
  </scstep>
  <scstep>
   <time name="dav">   46.56   46.67</time>
   <time name="total">   47.28   47.40</time>
   <energy>
    <i name="e_fr_energy">   -187.02704337 </i>
    <i name="e_wo_entrp">   -186.67492904 </i>
    <i name="e_0_energy">   -186.85098621 </i>
   </energy>
  </scstep>
  <scstep>
   <time name="dav">   45.14   45.26</time>
   <time name="total">   45.86   45.98</time>
   <energy>
    <i name="e_fr_energy">   -187.17366258 </i>
    <i name="e_wo_entrp">   -186.83955726 </i>
    <i name="e_0_energy">   -187.00660992 </i>
   </energy>
  </scstep>
  <scstep>
   <time name="dav">   44.05   44.16</time>
   <time name="total">   44.78   44.89</time>
   <energy>
    <i name="e_fr_energy">   -186.92221221 </i>
    <i name="e_wo_entrp">   -186.58880609 </i>
    <i name="e_0_energy">   -186.75550915 </i>
   </energy>
  </scstep>
  <scstep>
   <time name="dav">   44.90   45.01</time>
   <time name="total">   45.61   45.73</time>
   <energy>
    <i name="e_fr_energy">   -186.87589348 </i>
    <i name="e_wo_entrp">   -186.52984483 </i>
    <i name="e_0_energy">   -186.70286915 </i>
   </energy>
  </scstep>
  <scstep>
   <time name="dav">   44.27   44.38</time>
   <time name="total">   44.99   45.11</time>
   <energy>
    <i name="e_fr_energy">   -186.86960905 </i>
    <i name="e_wo_entrp">   -186.52537654 </i>
    <i name="e_0_energy">   -186.69749280 </i>
   </energy>
  </scstep>
  <scstep>
   <time name="dav">   46.13   46.24</time>
   <time name="total">   46.85   46.97</time>
   <energy>
    <i name="e_fr_energy">   -186.87079700 </i>
    <i name="e_wo_entrp">   -186.52738331 </i>
    <i name="e_0_energy">   -186.69909016 </i>
   </energy>
  </scstep>
  <scstep>
   <time name="dav">   43.13   43.23</time>
   <time name="total">   43.85   43.97</time>
   <energy>
    <i name="e_fr_energy">   -186.86852797 </i>
    <i name="e_wo_entrp">   -186.52563306 </i>
    <i name="e_0_energy">   -186.69708052 </i>
   </energy>
  </scstep>
  <scstep>
   <time name="dav">   40.66   40.76</time>
   <time name="total">   41.38   41.49</time>
   <energy>
    <i name="e_fr_energy">   -186.86795848 </i>
    <i name="e_wo_entrp">   -186.52466879 </i>
    <i name="e_0_energy">   -186.69631364 </i>
   </energy>
  </scstep>
  <scstep>
   <time name="dav">   34.62   34.70</time>
   <time name="total">   35.35   35.44</time>
   <energy>
    <i name="e_fr_energy">   -186.86857953 </i>
    <i name="e_wo_entrp">   -186.52545060 </i>
    <i name="e_0_energy">   -186.69701507 </i>
   </energy>
  </scstep>
  <scstep>
   <time name="dav">   28.45   28.52</time>
   <time name="total">   29.17   29.25</time>
   <energy>
    <i name="e_fr_energy">   -186.86891079 </i>
    <i name="e_wo_entrp">   -186.52578795 </i>
    <i name="e_0_energy">   -186.69734937 </i>
   </energy>
  </scstep>
  <scstep>
   <time name="dav">   33.31   33.39</time>
   <time name="total">   34.04   34.13</time>
   <energy>
    <i name="e_fr_energy">   -186.87010309 </i>
    <i name="e_wo_entrp">   -186.52692691 </i>
    <i name="e_0_energy">   -186.69851500 </i>
   </energy>
  </scstep>
  <scstep>
   <time name="dav">   30.03   30.10</time>
   <time name="total">   30.77   30.85</time>
   <energy>
    <i name="e_fr_energy">   -186.87149480 </i>
    <i name="e_wo_entrp">   -186.52844605 </i>
    <i name="e_0_energy">   -186.69997043 </i>
   </energy>
  </scstep>
  <scstep>
   <time name="dav">   25.30   25.36</time>
   <time name="total">   26.06   26.14</time>
   <energy>
    <i name="e_fr_energy">   -186.87212057 </i>
    <i name="e_wo_entrp">   -186.52901548 </i>
    <i name="e_0_energy">   -186.70056802 </i>
   </energy>
  </scstep>
  <scstep>
   <time name="dav">   24.05   24.10</time>
   <time name="total">   24.80   24.87</time>
   <energy>
    <i name="e_fr_energy">   -186.87237516 </i>
    <i name="e_wo_entrp">   -186.52925617 </i>
    <i name="e_0_energy">   -186.70081567 </i>
   </energy>
  </scstep>
  <scstep>
   <time name="dav">   22.77   22.82</time>
   <time name="total">   23.53   23.59</time>
   <energy>
    <i name="e_fr_energy">   -186.87273589 </i>
    <i name="e_wo_entrp">   -186.52961234 </i>
    <i name="e_0_energy">   -186.70117411 </i>
   </energy>
  </scstep>
  <scstep>
   <time name="dav">   26.44   26.50</time>
   <time name="total">   27.19   27.26</time>
   <energy>
    <i name="e_fr_energy">   -186.87296521 </i>
    <i name="e_wo_entrp">   -186.52984078 </i>
    <i name="e_0_energy">   -186.70140300 </i>
   </energy>
  </scstep>
  <scstep>
   <time name="dav">   27.86   27.93</time>
   <time name="total">   27.91   27.99</time>
   <energy>
    <i name="alphaZ">     81.65567618 </i>
    <i name="ewald">  41890.25210945 </i>
    <i name="hartreedc"> -47833.02764261 </i>
    <i name="XCdc">   -231.60495964 </i>
    <i name="pawpsdc">   4192.11754458 </i>
    <i name="pawaedc">  -3610.13052103 </i>
    <i name="eentropy">     -0.34311602 </i>
    <i name="bandstr">  -1437.23467381 </i>
    <i name="atom">   6761.44252427 </i>
    <i name="e_fr_energy">   -186.87305863 </i>
    <i name="e_wo_entrp">   -186.52994261 </i>
    <i name="e_0_energy">   -186.70150062 </i>
   </energy>
  </scstep>
  <structure>
   <crystal>
    <varray name="basis" >
     <v>       8.66999996       5.03999989       0.00000000 </v>
     <v>      -8.66999982       5.04000013       0.00000000 </v>
     <v>       0.00000000       0.00000000      30.00000000 </v>
    </varray>
    <i name="volume">   2621.80797419 </i>
    <varray name="rec_basis" >
     <v>       0.05767013       0.09920635       0.00000000 </v>
     <v>      -0.05767013       0.09920635       0.00000000 </v>
     <v>       0.00000000       0.00000000       0.03333333 </v>
    </varray>
   </crystal>
   <varray name="positions" >
    <v>       0.33333334       0.33333334       0.00000000 </v>
    <v>       0.66666669       0.00000000       0.00000000 </v>
    <v>       0.33333334       0.00000000       0.00000000 </v>
    <v>       0.00000000       0.66666669       0.00000000 </v>
    <v>       0.33333334       0.66666669       0.00000000 </v>
    <v>       0.00000000       0.00000000       0.00000000 </v>
    <v>       1.00000000       0.33333334       0.00000000 </v>
    <v>       0.66666669       0.33333334       0.00000000 </v>
    <v>       0.66666669       0.66666669       0.00000000 </v>
    <v>       0.11068511       0.22244981       0.95539999 </v>
    <v>       0.22244981       0.11068511       0.04460000 </v>
    <v>       0.11068511       0.55578315       0.95539999 </v>
    <v>       0.22244981       0.44401845       0.04460000 </v>
    <v>       0.11068511       0.88911647       0.95539999 </v>
    <v>       0.22244981       0.77735180       0.04460000 </v>
    <v>       0.44401845       0.22244981       0.95539999 </v>
    <v>       0.55578315       0.11068511       0.04460000 </v>
    <v>       0.44401845       0.55578315       0.95539999 </v>
    <v>       0.55578315       0.44401845       0.04460000 </v>
    <v>       0.44401845       0.88911647       0.95539999 </v>
    <v>       0.55578315       0.77735180       0.04460000 </v>
    <v>       0.77735180       0.22244981       0.95539999 </v>
    <v>       0.88911647       0.11068511       0.04460000 </v>
    <v>       0.77735180       0.55578315       0.95539999 </v>
    <v>       0.88911647       0.44401845       0.04460000 </v>
    <v>       0.77735180       0.88911647       0.95539999 </v>
    <v>       0.88911647       0.77735180       0.04460000 </v>
   </varray>
  </structure>
  <varray name="forces" >
   <v>      -0.12961155      -0.15097899       0.08653325 </v>
   <v>       0.12962671      -0.15098401      -0.08653965 </v>
   <v>       0.00001945      -0.39226452       0.00000062 </v>
   <v>      -0.00000344       0.27951460      -0.00000429 </v>
   <v>      -0.29512730      -0.10473617      -0.06291908 </v>
   <v>       0.29510909      -0.10478363       0.06291185 </v>
   <v>       0.05332849       0.29989483       0.14436759 </v>
   <v>       0.00002270       0.13812583      -0.00000099 </v>
   <v>      -0.05336068       0.29993557      -0.14437209 </v>
   <v>       0.37637036       0.68198073      -2.14877788 </v>
   <v>       0.31065555       0.67601551       1.43049764 </v>
   <v>       0.18535067      -0.14512191      -2.89171708 </v>
   <v>       0.68238143      -0.17710690       2.15916037 </v>
   <v>       0.52169474       0.68887753      -2.18212625 </v>
   <v>      -0.52168073       0.68886824       2.18213091 </v>
   <v>      -0.23605609      -0.51652789      -1.39151409 </v>
   <v>       0.23609496      -0.51654075       1.39149539 </v>
   <v>       0.61966013      -0.53529557      -2.09870460 </v>
   <v>      -0.47067895      -0.61037472       2.17287749 </v>
   <v>      -0.31063434       0.67605337      -1.43048599 </v>
   <v>      -0.37637376       0.68198354       2.14875347 </v>
   <v>       0.47068023      -0.61041817      -2.17287530 </v>
   <v>      -0.61968260      -0.53534486       2.09870155 </v>
   <v>       0.04015955      -0.11926120      -2.91049092 </v>
   <v>      -0.04016256      -0.11924754       2.91049738 </v>
   <v>      -0.68242860      -0.17712793      -2.15913196 </v>
   <v>      -0.18535347      -0.14513499       2.89173265 </v>
  </varray>
  <varray name="stress" >
   <v>       7.29689997       0.00003178      -1.60737490 </v>
   <v>       0.00003185       4.45973115      -0.00001036 </v>
   <v>      -1.60737478      -0.00001050      30.28615403 </v>
  </varray>
  <energy>
   <i name="e_fr_energy">   -186.87305863 </i>
   <i name="e_wo_entrp">   -186.70150062 </i>
   <i name="e_0_energy">     -0.34311602 </i>
  </energy>
  <time name="totalsc"> 1094.87 1097.77</time>
 </calculation>
 <calculation>
  <scstep>
   <time name="dav">   30.27   30.35</time>
   <time name="total">   31.04   31.11</time>
   <energy>
    <i name="alphaZ">     78.92082971 </i>
    <i name="ewald">  39379.95651198 </i>
    <i name="hartreedc"> -45337.44311211 </i>
    <i name="XCdc">   -239.06020162 </i>
    <i name="pawpsdc">   4192.09520815 </i>
    <i name="pawaedc">  -3610.10829690 </i>
    <i name="eentropy">     -0.28489898 </i>
    <i name="bandstr">  -1413.01217349 </i>
    <i name="atom">   6761.44252427 </i>
    <i name="e_fr_energy">   -187.49360899 </i>
    <i name="e_wo_entrp">   -187.20871001 </i>
    <i name="e_0_energy">   -187.35115950 </i>
   </energy>
  </scstep>
  <scstep>
   <time name="dav">   41.89   41.99</time>
   <time name="total">   42.63   42.74</time>
   <energy>
    <i name="e_fr_energy">   -189.29953266 </i>
    <i name="e_wo_entrp">   -188.97763835 </i>
    <i name="e_0_energy">   -189.13858550 </i>
   </energy>
  </scstep>
  <scstep>
   <time name="dav">   42.27   42.37</time>
   <time name="total">   43.02   43.13</time>
   <energy>
    <i name="e_fr_energy">   -189.41406050 </i>
    <i name="e_wo_entrp">   -189.13690554 </i>
    <i name="e_0_energy">   -189.27548302 </i>
   </energy>
  </scstep>
  <scstep>
   <time name="dav">   41.72   41.82</time>
   <time name="total">   42.48   42.59</time>
   <energy>
    <i name="e_fr_energy">   -188.76180497 </i>
    <i name="e_wo_entrp">   -188.47836558 </i>
    <i name="e_0_energy">   -188.62008528 </i>
   </energy>
  </scstep>
  <scstep>
   <time name="dav">   39.21   39.30</time>
   <time name="total">   39.97   40.08</time>
   <energy>
    <i name="e_fr_energy">   -188.87569121 </i>
    <i name="e_wo_entrp">   -188.58379292 </i>
    <i name="e_0_energy">   -188.72974206 </i>
   </energy>
  </scstep>
  <scstep>
   <time name="dav">   43.14   43.24</time>
   <time name="total">   43.90   44.01</time>
   <energy>
    <i name="e_fr_energy">   -188.74492040 </i>
    <i name="e_wo_entrp">   -188.45953217 </i>
    <i name="e_0_energy">   -188.60222628 </i>
   </energy>
  </scstep>
  <scstep>
   <time name="dav">   39.59   39.69</time>
   <time name="total">   40.35   40.46</time>
   <energy>
    <i name="e_fr_energy">   -188.68151617 </i>
    <i name="e_wo_entrp">   -188.39725133 </i>
    <i name="e_0_energy">   -188.53938375 </i>
   </energy>
  </scstep>
  <scstep>
   <time name="dav">   39.64   39.73</time>
   <time name="total">   40.40   40.50</time>
   <energy>
    <i name="e_fr_energy">   -188.66575549 </i>
    <i name="e_wo_entrp">   -188.38247483 </i>
    <i name="e_0_energy">   -188.52411516 </i>
   </energy>
  </scstep>
  <scstep>
   <time name="dav">   41.81   41.91</time>
   <time name="total">   42.56   42.67</time>
   <energy>
    <i name="e_fr_energy">   -188.66094456 </i>
    <i name="e_wo_entrp">   -188.37823834 </i>
    <i name="e_0_energy">   -188.51959145 </i>
   </energy>
  </scstep>
  <scstep>
   <time name="dav">   43.78   43.89</time>
   <time name="total">   44.54   44.65</time>
   <energy>
    <i name="e_fr_energy">   -188.66034634 </i>
    <i name="e_wo_entrp">   -188.37781695 </i>
    <i name="e_0_energy">   -188.51908164 </i>
   </energy>
  </scstep>
  <scstep>
   <time name="dav">   44.54   44.65</time>
   <time name="total">   45.30   45.43</time>
   <energy>
    <i name="e_fr_energy">   -188.66048933 </i>
    <i name="e_wo_entrp">   -188.37854286 </i>
    <i name="e_0_energy">   -188.51951609 </i>
   </energy>
  </scstep>
  <scstep>
   <time name="dav">   39.62   39.71</time>
   <time name="total">   40.38   40.49</time>
   <energy>
    <i name="e_fr_energy">   -188.66010364 </i>
    <i name="e_wo_entrp">   -188.37840546 </i>
    <i name="e_0_energy">   -188.51925455 </i>
   </energy>
  </scstep>
  <scstep>
   <time name="dav">   28.32   28.39</time>
   <time name="total">   28.37   28.45</time>
   <energy>
    <i name="alphaZ">     78.92082971 </i>
    <i name="ewald">  39379.95651198 </i>
    <i name="hartreedc"> -45348.18788827 </i>
    <i name="XCdc">   -237.97617782 </i>
    <i name="pawpsdc">   3950.55131607 </i>
    <i name="pawaedc">  -3365.06229141 </i>
    <i name="eentropy">     -0.28203209 </i>
    <i name="bandstr">  -1408.02285808 </i>
    <i name="atom">   6761.44252427 </i>
    <i name="e_fr_energy">   -188.66006563 </i>
    <i name="e_wo_entrp">   -188.37803354 </i>
    <i name="e_0_energy">   -188.51904959 </i>
   </energy>
  </scstep>
  <structure>
   <crystal>
    <varray name="basis" >
     <v>       8.85497635       5.10572061       0.00000000 </v>
     <v>      -8.85497527       5.10571924       0.00000000 </v>
     <v>       0.00000000       0.00000000      30.00000000 </v>
    </varray>
    <i name="volume">   2712.66158421 </i>
    <varray name="rec_basis" >
     <v>       0.05646542       0.09792938       0.00000000 </v>
     <v>      -0.05646544       0.09792939       0.00000000 </v>
     <v>       0.00000000       0.00000000       0.03333333 </v>
    </varray>
   </crystal>
   <varray name="positions" >
    <v>       0.33225016       0.33297136       0.00013915 </v>
    <v>       0.66630472      -0.00108325      -0.00013916 </v>
    <v>       0.33145603      -0.00187742       0.00000000 </v>
    <v>       0.00133774       0.66800445      -0.00000001 </v>
    <v>       0.33201099       0.66698651      -0.00010118 </v>
    <v>       0.00031955      -0.00132253       0.00010117 </v>
    <v>       1.00158366       0.33462026       0.00023216 </v>
    <v>       0.66732782       0.33399435      -0.00000000 </v>
    <v>       0.66795371       0.66825063      -0.00023216 </v>
    <v>       0.11499618       0.22466663       0.95194457 </v>
    <v>       0.22654950       0.11305621       0.04690037 </v>
    <v>       0.11050624       0.55457293       0.95074985 </v>
    <v>       0.22350067       0.44127233       0.04807212 </v>
    <v>       0.11543350       0.89096198       0.95189094 </v>
    <v>       0.22429532       0.78210010       0.04810906 </v>
    <v>       0.44088962       0.22063446       0.95316231 </v>
    <v>       0.55396785       0.10755610       0.04683765 </v>
    <v>       0.44318053       0.55149725       0.95202509 </v>
    <v>       0.55155241       0.44240672       0.04809418 </v>
    <v>       0.44638980       0.89321628       0.95309964 </v>
    <v>       0.55799998       0.78166289       0.04805538 </v>
    <v>       0.77573986       0.21821885       0.95190581 </v>
    <v>       0.88483026       0.10984702       0.04797490 </v>
    <v>       0.77689275       0.55510064       0.95071966 </v>
    <v>       0.88843401       0.44355948       0.04928034 </v>
    <v>       0.77460544       0.89016736       0.95192791 </v>
    <v>       0.88790617       0.77717287       0.04925016 </v>
   </varray>
  </structure>
  <varray name="forces" >
   <v>      -0.17032127      -0.12860014      -0.04585477 </v>
   <v>       0.17108860      -0.12857897       0.04590840 </v>
   <v>       0.00046601      -0.38794661      -0.00001697 </v>
   <v>       0.00010028       0.08747012      -0.00006416 </v>
   <v>      -0.25326539      -0.29030635      -0.07186648 </v>
   <v>       0.25231171      -0.29183661       0.07189134 </v>
   <v>      -0.09401918       0.35049851       0.04080407 </v>
   <v>       0.00095378       0.35944624       0.00001192 </v>
   <v>       0.09299302       0.35171437      -0.04080834 </v>
   <v>      -0.09721870       0.04411149       0.09315412 </v>
   <v>       0.02698220       0.03665748      -0.03352733 </v>
   <v>       0.04828070      -0.12258406      -0.13404528 </v>
   <v>      -0.01337938      -0.10617342       0.11627016 </v>
   <v>       0.03348503       0.09270702      -0.14718308 </v>
   <v>      -0.03354946       0.09263363       0.14736654 </v>
   <v>       0.06663451       0.07300755       0.22116155 </v>
   <v>      -0.06606222       0.07299178      -0.22252725 </v>
   <v>       0.08471511       0.05018887       0.12677930 </v>
   <v>       0.04315913       0.05373180      -0.13820931 </v>
   <v>      -0.02638842       0.03770048       0.03468251 </v>
   <v>       0.09695480       0.04479272      -0.09470828 </v>
   <v>      -0.04264542       0.05332659       0.13966470 </v>
   <v>      -0.08505805       0.04950992      -0.12826208 </v>
   <v>      -0.07459047      -0.08289132      -0.04033980 </v>
   <v>       0.07440946      -0.08280101       0.04049281 </v>
   <v>       0.01221097      -0.10615385      -0.11513427 </v>
   <v>      -0.04824736      -0.12261623       0.13436000 </v>
  </varray>
  <varray name="stress" >
   <v>     -19.88673922       0.00050915      -0.01245198 </v>
   <v>       0.00050933     -19.48438196      -0.00002561 </v>
   <v>      -0.01245195      -0.00002568      -1.72366615 </v>
  </varray>
  <energy>
   <i name="e_fr_energy">   -188.66006563 </i>
   <i name="e_wo_entrp">   -188.51904959 </i>
   <i name="e_0_energy">     -0.28203209 </i>
  </energy>
  <time name="totalsc">  585.28  586.81</time>
 </calculation>
 <calculation>
  <scstep>
   <time name="dav">   33.09   33.17</time>
   <time name="total">   33.85   33.93</time>
   <energy>
    <i name="alphaZ">     82.34217930 </i>
    <i name="ewald">  41301.60462723 </i>
    <i name="hartreedc"> -47300.23678473 </i>
    <i name="XCdc">   -233.85824536 </i>
    <i name="pawpsdc">   3949.34824136 </i>
    <i name="pawaedc">  -3363.84797104 </i>
    <i name="eentropy">     -0.23571739 </i>
    <i name="bandstr">  -1387.13007982 </i>
    <i name="atom">   6761.44252427 </i>
    <i name="e_fr_energy">   -190.57122617 </i>
    <i name="e_wo_entrp">   -190.33550878 </i>
    <i name="e_0_energy">   -190.45336748 </i>
   </energy>
  </scstep>
  <scstep>
   <time name="dav">   39.35   39.45</time>
   <time name="total">   40.09   40.20</time>
   <energy>
    <i name="e_fr_energy">   -190.56410179 </i>
    <i name="e_wo_entrp">   -190.32585335 </i>
    <i name="e_0_energy">   -190.44497757 </i>
   </energy>
  </scstep>
  <scstep>
   <time name="dav">   42.23   42.33</time>
   <time name="total">   42.98   43.09</time>
   <energy>
    <i name="e_fr_energy">   -190.05022000 </i>
    <i name="e_wo_entrp">   -189.80018119 </i>
    <i name="e_0_energy">   -189.92520059 </i>
   </energy>
  </scstep>
  <scstep>
   <time name="dav">   43.53   43.64</time>
   <time name="total">   44.28   44.40</time>
   <energy>
    <i name="e_fr_energy">   -189.85230144 </i>
    <i name="e_wo_entrp">   -189.61647528 </i>
    <i name="e_0_energy">   -189.73438836 </i>
   </energy>
  </scstep>
  <scstep>
   <time name="dav">   42.34   42.44</time>
   <time name="total">   43.08   43.20</time>
   <energy>
    <i name="e_fr_energy">   -189.89861317 </i>
    <i name="e_wo_entrp">   -189.65345200 </i>
    <i name="e_0_energy">   -189.77603258 </i>
   </energy>
  </scstep>
  <scstep>
   <time name="dav">   42.14   42.24</time>
   <time name="total">   42.90   43.01</time>
   <energy>
    <i name="e_fr_energy">   -189.74539174 </i>
    <i name="e_wo_entrp">   -189.50713680 </i>
    <i name="e_0_energy">   -189.62626427 </i>
   </energy>
  </scstep>
  <scstep>
   <time name="dav">   40.99   41.09</time>
   <time name="total">   41.74   41.85</time>
   <energy>
    <i name="e_fr_energy">   -189.73952821 </i>
    <i name="e_wo_entrp">   -189.50157628 </i>
    <i name="e_0_energy">   -189.62055224 </i>
   </energy>
  </scstep>
  <scstep>
   <time name="dav">   36.31   36.40</time>
   <time name="total">   37.06   37.16</time>
   <energy>
    <i name="e_fr_energy">   -189.73954612 </i>
    <i name="e_wo_entrp">   -189.50160390 </i>
    <i name="e_0_energy">   -189.62057501 </i>
   </energy>
  </scstep>
  <scstep>
   <time name="dav">   37.58   37.67</time>
   <time name="total">   38.32   38.42</time>
   <energy>
    <i name="e_fr_energy">   -189.73968493 </i>
    <i name="e_wo_entrp">   -189.50160800 </i>
    <i name="e_0_energy">   -189.62064646 </i>
   </energy>
  </scstep>
  <scstep>
   <time name="dav">   36.85   36.94</time>
   <time name="total">   37.60   37.70</time>
   <energy>
    <i name="e_fr_energy">   -189.74022518 </i>
    <i name="e_wo_entrp">   -189.50212248 </i>
    <i name="e_0_energy">   -189.62117383 </i>
   </energy>
  </scstep>
  <scstep>
   <time name="dav">   34.49   34.58</time>
   <time name="total">   35.24   35.33</time>
   <energy>
    <i name="e_fr_energy">   -189.73958203 </i>
    <i name="e_wo_entrp">   -189.50150648 </i>
    <i name="e_0_energy">   -189.62054426 </i>
   </energy>
  </scstep>
  <scstep>
   <time name="dav">   23.84   23.90</time>
   <time name="total">   23.89   23.96</time>
   <energy>
    <i name="alphaZ">     82.34217930 </i>
    <i name="ewald">  41301.60462723 </i>
    <i name="hartreedc"> -47273.87699624 </i>
    <i name="XCdc">   -235.24927162 </i>
    <i name="pawpsdc">   4038.71253696 </i>
    <i name="pawaedc">  -3454.41428348 </i>
    <i name="eentropy">     -0.23806719 </i>
    <i name="bandstr">  -1410.06285239 </i>
    <i name="atom">   6761.44252427 </i>
    <i name="e_fr_energy">   -189.73960315 </i>
    <i name="e_wo_entrp">   -189.50153596 </i>
    <i name="e_0_energy">   -189.62056956 </i>
   </energy>
  </scstep>
  <structure>
   <crystal>
    <varray name="basis" >
     <v>       8.66716379       4.99962337       0.00000000 </v>
     <v>      -8.66715719       4.99961241       0.00000000 </v>
     <v>       0.00000000       0.00000000      30.00000000 </v>
    </varray>
    <i name="volume">   2599.94943970 </i>
    <varray name="rec_basis" >
     <v>       0.05768896       0.10000760       0.00000000 </v>
     <v>      -0.05768908       0.10000768       0.00000000 </v>
     <v>       0.00000000       0.00000000       0.03333333 </v>
    </varray>
   </crystal>
   <varray name="positions" >
    <v>       0.33187239       0.33292074       0.00011316 </v>
    <v>       0.66625487      -0.00146172      -0.00011314 </v>
    <v>       0.33081031      -0.00252404      -0.00000001 </v>
    <v>       0.00148353       0.66815004      -0.00000004 </v>
    <v>       0.33128422       0.66674621      -0.00014192 </v>
    <v>       0.00007578      -0.00205093       0.00014193 </v>
    <v>       1.00207716       0.33529435       0.00025529 </v>
    <v>       0.66792743       0.33459213       0.00000001 </v>
    <v>       0.66862884       0.66874714      -0.00025530 </v>
    <v>       0.11497628       0.22483347       0.95199738 </v>
    <v>       0.22663647       0.11309136       0.04688136 </v>
    <v>       0.11034843       0.55432238       0.95067386 </v>
    <v>       0.22331098       0.44110834       0.04813804 </v>
    <v>       0.11562007       0.89108424       0.95180749 </v>
    <v>       0.22441739       0.78228661       0.04819261 </v>
    <v>       0.44107521       0.22069207       0.95328770 </v>
    <v>       0.55402598       0.10774112       0.04671149 </v>
    <v>       0.44334549       0.55149948       0.95209696 </v>
    <v>       0.55168335       0.44245476       0.04801582 </v>
    <v>       0.44642725       0.89330441       0.95311930 </v>
    <v>       0.55816770       0.78164438       0.04800169 </v>
    <v>       0.77578772       0.21834863       0.95198500 </v>
    <v>       0.88483104       0.11001117       0.04790218 </v>
    <v>       0.77668305       0.55503421       0.95069679 </v>
    <v>       0.88836756       0.44335010       0.04930329 </v>
    <v>       0.77444036       0.88997882       0.95186264 </v>
    <v>       0.88765560       0.77701497       0.04932633 </v>
   </varray>
  </structure>
  <varray name="forces" >
   <v>      -0.20822377      -0.10665223      -0.06761408 </v>
   <v>       0.20853111      -0.10652837       0.06772320 </v>
   <v>       0.00028940      -0.39109414      -0.00000153 </v>
   <v>      -0.00005088       0.00764656      -0.00004927 </v>
   <v>      -0.22767733      -0.35498859      -0.05029150 </v>
   <v>       0.22727694      -0.35592325       0.05023216 </v>
   <v>      -0.14997016       0.36738639       0.00234790 </v>
   <v>       0.00032508       0.42980591       0.00004332 </v>
   <v>       0.14949095       0.36820806      -0.00234042 </v>
   <v>       0.01934597       0.08691065      -0.38330684 </v>
   <v>       0.06949674       0.10153836       0.41764511 </v>
   <v>       0.00220077      -0.06304821      -0.69512482 </v>
   <v>       0.09970354      -0.01809654       0.64135397 </v>
   <v>       0.07279648       0.15528942      -0.64884985 </v>
   <v>      -0.07280397       0.15533406       0.64883919 </v>
   <v>      -0.00205496      -0.05714513      -0.22185750 </v>
   <v>       0.00306123      -0.05719121       0.22151000 </v>
   <v>       0.08000360      -0.07269079      -0.35120343 </v>
   <v>      -0.04218451      -0.05690252       0.35938412 </v>
   <v>      -0.06914104       0.10237621      -0.41726979 </v>
   <v>      -0.01984179       0.08768572       0.38327728 </v>
   <v>       0.04257744      -0.05753604      -0.35950909 </v>
   <v>      -0.08041771      -0.07340236       0.35116350 </v>
   <v>      -0.03331321      -0.00496892      -0.61255491 </v>
   <v>       0.03337335      -0.00501967       0.61267680 </v>
   <v>      -0.10053334      -0.01795882      -0.64136190 </v>
   <v>      -0.00225992      -0.06303456       0.69513836 </v>
  </varray>
  <varray name="stress" >
   <v>     -10.16539945       0.00037842      -0.02468181 </v>
   <v>       0.00037846      -9.82979245       0.00006178 </v>
   <v>      -0.02468185       0.00006182       6.50011367 </v>
  </varray>
  <energy>
   <i name="e_fr_energy">   -189.73960315 </i>
   <i name="e_wo_entrp">   -189.62056956 </i>
   <i name="e_0_energy">     -0.23806719 </i>
  </energy>
  <time name="totalsc">  521.12  522.48</time>
 </calculation>
 <calculation>
  <scstep>
   <time name="dav">   30.40   30.47</time>
   <time name="total">   31.15   31.23</time>
   <energy>
    <i name="alphaZ">     85.82318929 </i>
    <i name="ewald">  42833.40327905 </i>
    <i name="hartreedc"> -48850.39847020 </i>
    <i name="XCdc">   -232.96153417 </i>
    <i name="pawpsdc">   4038.55485475 </i>
    <i name="pawaedc">  -3454.24974809 </i>
    <i name="eentropy">     -0.19699092 </i>
    <i name="bandstr">  -1372.69946737 </i>
    <i name="atom">   6761.44252427 </i>
    <i name="e_fr_energy">   -191.28236338 </i>
    <i name="e_wo_entrp">   -191.08537246 </i>
    <i name="e_0_energy">   -191.18386792 </i>
   </energy>
  </scstep>
  <scstep>
   <time name="dav">   45.59   45.70</time>
   <time name="total">   46.33   46.45</time>
   <energy>
    <i name="e_fr_energy">   -191.15853072 </i>
    <i name="e_wo_entrp">   -190.95680772 </i>
    <i name="e_0_energy">   -191.05766922 </i>
   </energy>
  </scstep>
  <scstep>
   <time name="dav">   41.72   41.82</time>
   <time name="total">   42.45   42.57</time>
   <energy>
    <i name="e_fr_energy">   -191.19563756 </i>
    <i name="e_wo_entrp">   -190.97741276 </i>
    <i name="e_0_energy">   -191.08652516 </i>
   </energy>
  </scstep>
  <scstep>
   <time name="dav">   43.87   43.98</time>
   <time name="total">   44.62   44.74</time>
   <energy>
    <i name="e_fr_energy">   -190.80818743 </i>
    <i name="e_wo_entrp">   -190.60870411 </i>
    <i name="e_0_energy">   -190.70844577 </i>
   </energy>
  </scstep>
  <scstep>
   <time name="dav">   38.73   38.82</time>
   <time name="total">   39.47   39.58</time>
   <energy>
    <i name="e_fr_energy">   -190.71036262 </i>
    <i name="e_wo_entrp">   -190.50708885 </i>
    <i name="e_0_energy">   -190.60872574 </i>
   </energy>
  </scstep>
  <scstep>
   <time name="dav">   43.37   43.47</time>
   <time name="total">   44.10   44.22</time>
   <energy>
    <i name="e_fr_energy">   -190.70740531 </i>
    <i name="e_wo_entrp">   -190.50368576 </i>
    <i name="e_0_energy">   -190.60554554 </i>
   </energy>
  </scstep>
  <scstep>
   <time name="dav">   40.19   40.29</time>
   <time name="total">   40.93   41.04</time>
   <energy>
    <i name="e_fr_energy">   -190.69801215 </i>
    <i name="e_wo_entrp">   -190.49531188 </i>
    <i name="e_0_energy">   -190.59666202 </i>
   </energy>
  </scstep>
  <scstep>
   <time name="dav">   38.96   39.05</time>
   <time name="total">   39.71   39.82</time>
   <energy>
    <i name="e_fr_energy">   -190.69201909 </i>
    <i name="e_wo_entrp">   -190.48929651 </i>
    <i name="e_0_energy">   -190.59065780 </i>
   </energy>
  </scstep>
  <scstep>
   <time name="dav">   36.92   37.01</time>
   <time name="total">   37.67   37.77</time>
   <energy>
    <i name="e_fr_energy">   -190.69226235 </i>
    <i name="e_wo_entrp">   -190.48935787 </i>
    <i name="e_0_energy">   -190.59081011 </i>
   </energy>
  </scstep>
  <scstep>
   <time name="dav">   38.28   38.37</time>
   <time name="total">   39.02   39.12</time>
   <energy>
    <i name="e_fr_energy">   -190.69215715 </i>
    <i name="e_wo_entrp">   -190.48939905 </i>
    <i name="e_0_energy">   -190.59077810 </i>
   </energy>
  </scstep>
  <scstep>
   <time name="dav">   32.80   32.87</time>
   <time name="total">   32.85   32.94</time>
   <energy>
    <i name="alphaZ">     85.82318929 </i>
    <i name="ewald">  42833.40327905 </i>
    <i name="hartreedc"> -48821.54526393 </i>
    <i name="XCdc">   -234.30064826 </i>
    <i name="pawpsdc">   4062.75999643 </i>
    <i name="pawaedc">  -3478.62748073 </i>
    <i name="eentropy">     -0.20270840 </i>
    <i name="bandstr">  -1399.44511928 </i>
    <i name="atom">   6761.44252427 </i>
    <i name="e_fr_energy">   -190.69223156 </i>
    <i name="e_wo_entrp">   -190.48952316 </i>
    <i name="e_0_energy">   -190.59087736 </i>
   </energy>
  </scstep>
  <structure>
   <crystal>
    <varray name="basis" >
     <v>       8.48482890       4.89993234       0.00000000 </v>
     <v>      -8.48481100       4.89990178       0.00000000 </v>
     <v>       0.00000000       0.00000000      30.00000000 </v>
    </varray>
    <i name="volume">   2494.49484117 </i>
    <varray name="rec_basis" >
     <v>       0.05892859       0.10204244       0.00000000 </v>
     <v>      -0.05892895       0.10204265       0.00000000 </v>
     <v>       0.00000000       0.00000000       0.03333333 </v>
    </varray>
   </crystal>
   <varray name="positions" >
    <v>       0.33045110       0.33311476      -0.00004543 </v>
    <v>       0.66645038      -0.00288242       0.00004572 </v>
    <v>       0.32835181      -0.00498412       0.00000000 </v>
    <v>       0.00133147       0.66799879      -0.00000013 </v>
    <v>       0.32811091       0.66514585      -0.00022774 </v>
    <v>      -0.00152960      -0.00522796       0.00022755 </v>
    <v>       1.00379919       0.33826241       0.00022742 </v>
    <v>       0.67079769       0.33746185       0.00000012 </v>
    <v>       0.67160011       0.67047428      -0.00022741 </v>
    <v>       0.11586607       0.22524724       0.95079785 </v>
    <v>       0.22774776       0.11357742       0.04813050 </v>
    <v>       0.11004362       0.55413452       0.94875637 </v>
    <v>       0.22394137       0.44069153       0.04991350 </v>
    <v>       0.11706985       0.89189415       0.95003643 </v>
    <v>       0.22522793       0.78373692       0.04996348 </v>
    <v>       0.44028513       0.22011491       0.95245107 </v>
    <v>       0.55345273       0.10694642       0.04754826 </v>
    <v>       0.44286514       0.55045408       0.95096264 </v>
    <v>       0.55077447       0.44209706       0.04918378 </v>
    <v>       0.44691899       0.89441951       0.95187028 </v>
    <v>       0.55858443       0.78254139       0.04920246 </v>
    <v>       0.77542672       0.21743395       0.95081543 </v>
    <v>       0.88377949       0.10952788       0.04903765 </v>
    <v>       0.77678577       0.55525886       0.94894087 </v>
    <v>       0.88859210       0.44345159       0.05105944 </v>
    <v>       0.77402220       0.89061288       0.95008619 </v>
    <v>       0.88746760       0.77671071       0.05124359 </v>
   </varray>
  </structure>
  <varray name="forces" >
   <v>      -0.25683740      -0.09455078      -0.07820352 </v>
   <v>       0.24854012      -0.09389218       0.07591886 </v>
   <v>      -0.00761771      -0.33590115      -0.00019658 </v>
   <v>      -0.00139446      -0.11138359       0.00111233 </v>
   <v>      -0.20143283      -0.43716089       0.00493136 </v>
   <v>       0.21276695      -0.41895066      -0.00475780 </v>
   <v>      -0.21900500       0.42355916      -0.03146381 </v>
   <v>      -0.00914959       0.44195291      -0.00008528 </v>
   <v>       0.23292490       0.40762586       0.03158471 </v>
   <v>       0.02358043      -0.02943548      -0.19116998 </v>
   <v>       0.02564704      -0.00992974       0.30914905 </v>
   <v>      -0.04275119      -0.00020819      -0.53928943 </v>
   <v>       0.02010615       0.01559918       0.48966037 </v>
   <v>       0.03677522       0.03730193      -0.46097749 </v>
   <v>      -0.03668423       0.03769081       0.45917654 </v>
   <v>       0.02541955      -0.00297298      -0.09348254 </v>
   <v>      -0.03257756      -0.00268616       0.09931960 </v>
   <v>       0.00141723       0.01392784      -0.18459947 </v>
   <v>      -0.03785216       0.01045826       0.20310432 </v>
   <v>      -0.02890182      -0.01642593      -0.31275781 </v>
   <v>      -0.01964549      -0.03627717       0.19597704 </v>
   <v>       0.03416492       0.01616846      -0.20599826 </v>
   <v>       0.00268389       0.02036779       0.18930459 </v>
   <v>      -0.01165251       0.07522776      -0.48884407 </v>
   <v>       0.01142810       0.07460389       0.48668903 </v>
   <v>      -0.01264739       0.01556634      -0.49199172 </v>
   <v>       0.04269485      -0.00027528       0.53788998 </v>
  </varray>
  <varray name="stress" >
   <v>      -5.88376902      -0.01299631      -0.03992718 </v>
   <v>      -0.01299638      -5.83947426      -0.00102453 </v>
   <v>      -0.03992717      -0.00102452       4.49933937 </v>
  </varray>
  <energy>
   <i name="e_fr_energy">   -190.69223156 </i>
   <i name="e_wo_entrp">   -190.59087736 </i>
   <i name="e_0_energy">     -0.20270840 </i>
  </energy>
  <time name="totalsc">  498.37  499.67</time>
 </calculation>
 <calculation>
  <scstep>
   <time name="dav">   30.26   30.33</time>
   <time name="total">   30.99   31.07</time>
   <energy>
    <i name="alphaZ">     90.36743735 </i>
    <i name="ewald">  44752.71678589 </i>
    <i name="hartreedc"> -50798.26932662 </i>
    <i name="XCdc">   -231.70726392 </i>
    <i name="pawpsdc">   4062.90059404 </i>
    <i name="pawaedc">  -3478.76673352 </i>
    <i name="eentropy">     -0.18271299 </i>
    <i name="bandstr">  -1350.65004415 </i>
    <i name="atom">   6761.44252427 </i>
    <i name="e_fr_energy">   -192.14873965 </i>
    <i name="e_wo_entrp">   -191.96602666 </i>
    <i name="e_0_energy">   -192.05738315 </i>
   </energy>
  </scstep>
  <scstep>
   <time name="dav">   42.31   42.42</time>
   <time name="total">   43.04   43.16</time>
   <energy>
    <i name="e_fr_energy">   -191.83183976 </i>
    <i name="e_wo_entrp">   -191.64232316 </i>
    <i name="e_0_energy">   -191.73708146 </i>
   </energy>
  </scstep>
  <scstep>
   <time name="dav">   41.98   42.08</time>
   <time name="total">   42.70   42.81</time>
   <energy>
    <i name="e_fr_energy">   -191.91735494 </i>
    <i name="e_wo_entrp">   -191.71770216 </i>
    <i name="e_0_energy">   -191.81752855 </i>
   </energy>
  </scstep>
  <scstep>
   <time name="dav">   42.04   42.14</time>
   <time name="total">   42.78   42.89</time>
   <energy>
    <i name="e_fr_energy">   -191.62924532 </i>
    <i name="e_wo_entrp">   -191.44612097 </i>
    <i name="e_0_energy">   -191.53768314 </i>
   </energy>
  </scstep>
  <scstep>
   <time name="dav">   41.85   41.95</time>
   <time name="total">   42.57   42.69</time>
   <energy>
    <i name="e_fr_energy">   -191.38219094 </i>
    <i name="e_wo_entrp">   -191.19040064 </i>
    <i name="e_0_energy">   -191.28629579 </i>
   </energy>
  </scstep>
  <scstep>
   <time name="dav">   43.04   43.15</time>
   <time name="total">   43.76   43.88</time>
   <energy>
    <i name="e_fr_energy">   -191.39670028 </i>
    <i name="e_wo_entrp">   -191.20387875 </i>
    <i name="e_0_energy">   -191.30028952 </i>
   </energy>
  </scstep>
  <scstep>
   <time name="dav">   41.57   41.67</time>
   <time name="total">   42.28   42.39</time>
   <energy>
    <i name="e_fr_energy">   -191.36890757 </i>
    <i name="e_wo_entrp">   -191.17768981 </i>
    <i name="e_0_energy">   -191.27329869 </i>
   </energy>
  </scstep>
  <scstep>
   <time name="dav">   36.32   36.41</time>
   <time name="total">   37.05   37.15</time>
   <energy>
    <i name="e_fr_energy">   -191.36185087 </i>
    <i name="e_wo_entrp">   -191.17044544 </i>
    <i name="e_0_energy">   -191.26614815 </i>
   </energy>
  </scstep>
  <scstep>
   <time name="dav">   44.02   44.12</time>
   <time name="total">   44.72   44.84</time>
   <energy>
    <i name="e_fr_energy">   -191.36304479 </i>
    <i name="e_wo_entrp">   -191.17140854 </i>
    <i name="e_0_energy">   -191.26722667 </i>
   </energy>
  </scstep>
  <scstep>
   <time name="dav">   39.45   39.55</time>
   <time name="total">   40.16   40.27</time>
   <energy>
    <i name="e_fr_energy">   -191.36195274 </i>
    <i name="e_wo_entrp">   -191.17040100 </i>
    <i name="e_0_energy">   -191.26617687 </i>
   </energy>
  </scstep>
  <scstep>
   <time name="dav">   37.84   37.93</time>
   <time name="total">   37.89   37.99</time>
   <energy>
    <i name="alphaZ">     90.36743735 </i>
    <i name="ewald">  44752.71678589 </i>
    <i name="hartreedc"> -50762.53501807 </i>
    <i name="XCdc">   -233.32023790 </i>
    <i name="pawpsdc">   4085.08812904 </i>
    <i name="pawaedc">  -3501.03206720 </i>
    <i name="eentropy">     -0.19154775 </i>
    <i name="bandstr">  -1383.89795628 </i>
    <i name="atom">   6761.44252427 </i>
    <i name="e_fr_energy">   -191.36195064 </i>
    <i name="e_wo_entrp">   -191.17040289 </i>
    <i name="e_0_energy">   -191.26617677 </i>
   </energy>
  </scstep>
  <structure>
   <crystal>
    <varray name="basis" >
     <v>       8.26661025       4.77547499       0.00000000 </v>
     <v>      -8.26737205       4.77679454       0.00000000 </v>
     <v>       0.00000000       0.00000000      30.00000000 </v>
    </varray>
    <i name="volume">   2369.05581503 </i>
    <varray name="rec_basis" >
     <v>       0.06048985       0.10469199       0.00000000 </v>
     <v>      -0.06047314       0.10468234       0.00000000 </v>
     <v>       0.00000000       0.00000000       0.03333333 </v>
    </varray>
   </crystal>
   <varray name="positions" >
    <v>       0.32742722       0.33385224      -0.00038202 </v>
    <v>       0.66714311      -0.00584627       0.00037435 </v>
    <v>       0.32397812      -0.00926248      -0.00000068 </v>
    <v>      -0.00011055       0.66657484       0.00000379 </v>
    <v>       0.32112216       0.66104437      -0.00021623 </v>
    <v>      -0.00536218      -0.01209076       0.00021653 </v>
    <v>       1.00745801       0.34515517       0.00007810 </v>
    <v>       0.67648342       0.34326360      -0.00000012 </v>
    <v>       0.67840804       0.67387319      -0.00007764 </v>
    <v>       0.11619492       0.22483883       0.94942125 </v>
    <v>       0.22831448       0.11353702       0.04991786 </v>
    <v>       0.10976581       0.55454673       0.94588792 </v>
    <v>       0.22476464       0.44067229       0.05253963 </v>
    <v>       0.11830186       0.89238429       0.94753156 </v>
    <v>       0.22572338       0.78497291       0.05246178 </v>
    <v>       0.43980127       0.21955490       0.95154416 </v>
    <v>       0.55285263       0.10650851       0.04847667 </v>
    <v>       0.44260193       0.55002937       0.94962560 </v>
    <v>       0.55003032       0.44220636       0.05061090 </v>
    <v>       0.44678863       0.89493711       0.95006956 </v>
    <v>       0.55812725       0.78277403       0.05059761 </v>
    <v>       0.77557321       0.21677276       0.94937639 </v>
    <v>       0.88344833       0.10930799       0.05039279 </v>
    <v>       0.77779123       0.55633389       0.94628550 </v>
    <v>       0.88965893       0.44445071       0.05370722 </v>
    <v>       0.77404962       0.89138998       0.94745064 </v>
    <v>       0.88787866       0.77643291       0.05410679 </v>
   </varray>
  </structure>
  <varray name="forces" >
   <v>      -0.27212233      -0.12835400       0.00719680 </v>
   <v>       0.27697238      -0.12731648      -0.00206644 </v>
   <v>       0.00295674      -0.25786016       0.00083403 </v>
   <v>      -0.00604063      -0.18743915       0.00101160 </v>
   <v>      -0.16676525      -0.32841429       0.02510750 </v>
   <v>       0.15909975      -0.34498436      -0.02442907 </v>
   <v>      -0.29560107       0.35834513       0.00553982 </v>
   <v>       0.00873397       0.40997000      -0.00009727 </v>
   <v>       0.28889600       0.37996844      -0.00767018 </v>
   <v>      -0.06423153      -0.19104380       0.09116850 </v>
   <v>      -0.03829526      -0.12158337      -0.00722198 </v>
   <v>      -0.12124357       0.04052417      -0.27849121 </v>
   <v>      -0.06409879      -0.00303752       0.18223818 </v>
   <v>      -0.01040354      -0.10576612      -0.11207446 </v>
   <v>       0.01139199      -0.10465109       0.11000653 </v>
   <v>       0.04499341       0.08412634       0.17290583 </v>
   <v>      -0.04117604       0.08567738      -0.18468291 </v>
   <v>      -0.08419990       0.18439325       0.15217838 </v>
   <v>      -0.00842168       0.12098011      -0.06568057 </v>
   <v>       0.04139991      -0.11881048       0.01973019 </v>
   <v>       0.06179561      -0.18103571      -0.10798760 </v>
   <v>       0.00913459       0.11888144       0.07989085 </v>
   <v>       0.08221614       0.17995794      -0.16619755 </v>
   <v>      -0.02971659       0.09839018      -0.24318854 </v>
   <v>       0.03239504       0.09816363       0.23713702 </v>
   <v>       0.06293661      -0.00433436      -0.16065997 </v>
   <v>       0.11939407       0.04525287       0.27550252 </v>
  </varray>
  <varray name="stress" >
   <v>      -0.23732585       0.03753823       0.34396339 </v>
   <v>       0.03753807       0.26406445       0.01545841 </v>
   <v>       0.34396352       0.01545810      -0.48825177 </v>
  </varray>
  <energy>
   <i name="e_fr_energy">   -191.36195064 </i>
   <i name="e_wo_entrp">   -191.26617677 </i>
   <i name="e_0_energy">     -0.19154775 </i>
  </energy>
  <time name="totalsc">  508.44  509.78</time>
 </calculation>
 <calculation>
  <scstep>
   <time name="dav">   30.97   31.05</time>
   <time name="total">   31.68   31.75</time>
   <energy>
    <i name="alphaZ">     90.37669808 </i>
    <i name="ewald">  44737.36408224 </i>
    <i name="hartreedc"> -50747.92293338 </i>
    <i name="XCdc">   -233.39801766 </i>
    <i name="pawpsdc">   4085.26543403 </i>
    <i name="pawaedc">  -3501.20675565 </i>
    <i name="eentropy">     -0.19512860 </i>
    <i name="bandstr">  -1383.17808728 </i>
    <i name="atom">   6761.44252427 </i>
    <i name="e_fr_energy">   -191.45218394 </i>
    <i name="e_wo_entrp">   -191.25705534 </i>
    <i name="e_0_energy">   -191.35461964 </i>
   </energy>
  </scstep>
  <scstep>
   <time name="dav">   44.44   44.54</time>
   <time name="total">   45.14   45.25</time>
   <energy>
    <i name="e_fr_energy">   -191.53482666 </i>
    <i name="e_wo_entrp">   -191.32920757 </i>
    <i name="e_0_energy">   -191.43201711 </i>
   </energy>
  </scstep>
  <scstep>
   <time name="dav">   43.00   43.11</time>
   <time name="total">   43.71   43.82</time>
   <energy>
    <i name="e_fr_energy">   -191.46491930 </i>
    <i name="e_wo_entrp">   -191.26835965 </i>
    <i name="e_0_energy">   -191.36663947 </i>
   </energy>
  </scstep>
  <scstep>
   <time name="dav">   39.44   39.54</time>
   <time name="total">   40.13   40.24</time>
   <energy>
    <i name="e_fr_energy">   -191.46375239 </i>
    <i name="e_wo_entrp">   -191.26678983 </i>
    <i name="e_0_energy">   -191.36527111 </i>
   </energy>
  </scstep>
  <scstep>
   <time name="dav">   40.89   40.99</time>
   <time name="total">   41.60   41.71</time>
   <energy>
    <i name="e_fr_energy">   -191.46302581 </i>
    <i name="e_wo_entrp">   -191.26534381 </i>
    <i name="e_0_energy">   -191.36418481 </i>
   </energy>
  </scstep>
  <scstep>
   <time name="dav">   41.66   41.76</time>
   <time name="total">   42.36   42.48</time>
   <energy>
    <i name="e_fr_energy">   -191.46201902 </i>
    <i name="e_wo_entrp">   -191.26451369 </i>
    <i name="e_0_energy">   -191.36326635 </i>
   </energy>
  </scstep>
  <scstep>
   <time name="dav">   40.65   40.75</time>
   <time name="total">   41.35   41.46</time>
   <energy>
    <i name="e_fr_energy">   -191.46169144 </i>
    <i name="e_wo_entrp">   -191.26408064 </i>
    <i name="e_0_energy">   -191.36288604 </i>
   </energy>
  </scstep>
  <scstep>
   <time name="dav">   34.90   34.98</time>
   <time name="total">   34.95   35.04</time>
   <energy>
    <i name="alphaZ">     90.37669808 </i>
    <i name="ewald">  44737.36408224 </i>
    <i name="hartreedc"> -50748.87258672 </i>
    <i name="XCdc">   -233.37852584 </i>
    <i name="pawpsdc">   4083.69239530 </i>
    <i name="pawaedc">  -3499.59821684 </i>
    <i name="eentropy">     -0.19755200 </i>
    <i name="bandstr">  -1382.29051194 </i>
    <i name="atom">   6761.44252427 </i>
    <i name="e_fr_energy">   -191.46169345 </i>
    <i name="e_wo_entrp">   -191.26414145 </i>
    <i name="e_0_energy">   -191.36291745 </i>
   </energy>
  </scstep>
  <structure>
   <crystal>
    <varray name="basis" >
     <v>       8.26112746       4.77925407       0.00000000 </v>
     <v>      -8.26093661       4.77892645       0.00000000 </v>
     <v>       0.00000000       0.00000000      30.00000000 </v>
    </varray>
    <i name="volume">   2368.81306225 </i>
    <varray name="rec_basis" >
     <v>       0.06052305       0.10462121       0.00000000 </v>
     <v>      -0.06052720       0.10462363       0.00000000 </v>
     <v>       0.00000000       0.00000000       0.03333333 </v>
    </varray>
   </crystal>
   <varray name="positions" >
    <v>       0.32595470       0.33400362      -0.00037228 </v>
    <v>       0.66731399      -0.00732720       0.00037290 </v>
    <v>       0.32264759      -0.01060982       0.00000067 </v>
    <v>      -0.00109195       0.66562919       0.00000545 </v>
    <v>       0.31891773       0.65983829      -0.00017545 </v>
    <v>      -0.00667395      -0.01435615       0.00017685 </v>
    <v>       1.00843423       0.34789046       0.00008618 </v>
    <v>       0.67863142       0.34536056      -0.00000028 </v>
    <v>       0.68123378       0.67497812      -0.00008917 </v>
    <v>       0.11503572       0.22405244       0.94955935 </v>
    <v>       0.22758697       0.11303084       0.04991803 </v>
    <v>       0.10961387       0.55511293       0.94541751 </v>
    <v>       0.22456674       0.44084517       0.05285234 </v>
    <v>       0.11774081       0.89187965       0.94733342 </v>
    <v>       0.22522732       0.78441471       0.05265653 </v>
    <v>       0.44035760       0.21984683       0.95181780 </v>
    <v>       0.55316352       0.10706165       0.04818403 </v>
    <v>       0.44329075       0.55121256       0.94986298 </v>
    <v>       0.55061583       0.44284730       0.05051445 </v>
    <v>       0.44630526       0.89421443       0.95008962 </v>
    <v>       0.55738442       0.78167267       0.05043231 </v>
    <v>       0.77620580       0.21734584       0.94949584 </v>
    <v>       0.88460370       0.10998023       0.05013275 </v>
    <v>       0.77821138       0.55692904       0.94587360 </v>
    <v>       0.89026084       0.44486176       0.05410927 </v>
    <v>       0.77421275       0.89118871       0.94717290 </v>
    <v>       0.88846364       0.77631059       0.05457232 </v>
   </varray>
  </structure>
  <varray name="forces" >
   <v>      -0.28407234      -0.17961811      -0.04003963 </v>
   <v>       0.26770551      -0.17761584       0.03961268 </v>
   <v>      -0.00267635      -0.28672083      -0.00069590 </v>
   <v>      -0.00170325      -0.16834647      -0.00349884 </v>
   <v>      -0.21311792      -0.34667709      -0.00371016 </v>
   <v>       0.22287061      -0.33214466       0.00077085 </v>
   <v>      -0.29876321       0.39746842      -0.02529061 </v>
   <v>      -0.00480154       0.45028038       0.00063755 </v>
   <v>       0.31434858       0.38456158       0.02608413 </v>
   <v>      -0.07157255      -0.13789855       0.13673159 </v>
   <v>      -0.03329390      -0.07433638      -0.03861459 </v>
   <v>      -0.10269238       0.03302695      -0.22779628 </v>
   <v>      -0.04974075      -0.00682585       0.16439330 </v>
   <v>       0.00144727      -0.07605971      -0.09409438 </v>
   <v>      -0.00104427      -0.07642961       0.09295520 </v>
   <v>       0.02714802       0.07989311       0.24523671 </v>
   <v>      -0.03078697       0.07872532      -0.24175548 </v>
   <v>      -0.04600909       0.14918229       0.21778293 </v>
   <v>      -0.00613128       0.10028441      -0.10043142 </v>
   <v>       0.03232696      -0.07622286       0.03797560 </v>
   <v>       0.07387322      -0.14298179      -0.13417049 </v>
   <v>       0.00522936       0.10087031       0.09656746 </v>
   <v>       0.04778520       0.15139402      -0.21310427 </v>
   <v>      -0.01837189       0.06585987      -0.22646110 </v>
   <v>       0.01806240       0.06455894       0.22617528 </v>
   <v>       0.05116352      -0.00516281      -0.16959731 </v>
   <v>       0.10281704       0.03093495       0.23433719 </v>
  </varray>
  <varray name="stress" >
   <v>      -0.01586317      -0.02073170       0.26467596 </v>
   <v>      -0.02073160       0.21117854      -0.01162706 </v>
   <v>       0.26467565      -0.01162691      -1.18167540 </v>
  </varray>
  <energy>
   <i name="e_fr_energy">   -191.46169345 </i>
   <i name="e_wo_entrp">   -191.36291745 </i>
   <i name="e_0_energy">     -0.19755200 </i>
  </energy>
  <time name="totalsc">  381.32  382.32</time>
 </calculation>
 <calculation>
  <scstep>
   <time name="dav">   33.64   33.72</time>
   <time name="total">   34.35   34.43</time>
   <energy>
    <i name="alphaZ">     90.37487680 </i>
    <i name="ewald">  44736.54396562 </i>
    <i name="hartreedc"> -50748.07022437 </i>
    <i name="XCdc">   -233.37795643 </i>
    <i name="pawpsdc">   4083.64928375 </i>
    <i name="pawaedc">  -3499.55498999 </i>
    <i name="eentropy">     -0.19751945 </i>
    <i name="bandstr">  -1382.27397818 </i>
    <i name="atom">   6761.44252427 </i>
    <i name="e_fr_energy">   -191.46401799 </i>
    <i name="e_wo_entrp">   -191.26649854 </i>
    <i name="e_0_energy">   -191.36525827 </i>
   </energy>
  </scstep>
  <scstep>
   <time name="dav">   33.21   33.29</time>
   <time name="total">   33.91   34.00</time>
   <energy>
    <i name="e_fr_energy">   -191.46420570 </i>
    <i name="e_wo_entrp">   -191.26631950 </i>
    <i name="e_0_energy">   -191.36526260 </i>
   </energy>
  </scstep>
  <scstep>
   <time name="dav">   31.60   31.67</time>
   <time name="total">   32.30   32.39</time>
   <energy>
    <i name="e_fr_energy">   -191.46403876 </i>
    <i name="e_wo_entrp">   -191.26642002 </i>
    <i name="e_0_energy">   -191.36522939 </i>
   </energy>
  </scstep>
  <scstep>
   <time name="dav">   24.97   25.03</time>
   <time name="total">   25.02   25.09</time>
   <energy>
    <i name="alphaZ">     90.37487680 </i>
    <i name="ewald">  44736.54396562 </i>
    <i name="hartreedc"> -50748.29025134 </i>
    <i name="XCdc">   -233.37621344 </i>
    <i name="pawpsdc">   4083.64996498 </i>
    <i name="pawaedc">  -3499.55645468 </i>
    <i name="eentropy">     -0.19752715 </i>
    <i name="bandstr">  -1382.05493932 </i>
    <i name="atom">   6761.44252427 </i>
    <i name="e_fr_energy">   -191.46405428 </i>
    <i name="e_wo_entrp">   -191.26652713 </i>
    <i name="e_0_energy">   -191.36529071 </i>
   </energy>
  </scstep>
  <structure>
   <crystal>
    <varray name="basis" >
     <v>       8.26114576       4.77932467       0.00000000 </v>
     <v>      -8.26096803       4.77901971       0.00000000 </v>
     <v>       0.00000000       0.00000000      30.00000000 </v>
    </varray>
    <i name="volume">   2368.86079989 </i>
    <varray name="rec_basis" >
     <v>       0.06052301       0.10461950       0.00000000 </v>
     <v>      -0.06052687       0.10462175       0.00000000 </v>
     <v>       0.00000000       0.00000000       0.03333333 </v>
    </varray>
   </crystal>
   <varray name="positions" >
    <v>       0.32591321       0.33400147      -0.00037379 </v>
    <v>       0.66731092      -0.00736727       0.00037439 </v>
    <v>       0.32261332      -0.01064372       0.00000064 </v>
    <v>      -0.00111228       0.66560909       0.00000531 </v>
    <v>       0.31886181       0.65981197      -0.00017561 </v>
    <v>      -0.00669778      -0.01441097       0.00017690 </v>
    <v>       1.00846093       0.34795868       0.00008521 </v>
    <v>       0.67868486       0.34541468      -0.00000026 </v>
    <v>       0.68130150       0.67500210      -0.00008817 </v>
    <v>       0.11501371       0.22404082       0.94956514 </v>
    <v>       0.22757540       0.11302416       0.04991599 </v>
[...]
      <set comment="kpoint 31">
       <r>  -17.5567    1.0000 </r>
       <r>  -17.2853    1.0000 </r>
       <r>  -16.8942    1.0000 </r>
       <r>  -16.7345    1.0000 </r>
       <r>  -16.5152    1.0000 </r>
       <r>  -16.4720    1.0000 </r>
       <r>  -16.3236    1.0000 </r>
       <r>  -16.1838    1.0000 </r>
       <r>  -16.1223    1.0000 </r>
       <r>  -16.0393    1.0000 </r>
       <r>  -15.9556    1.0000 </r>
       <r>  -15.8927    1.0000 </r>
       <r>  -15.7603    1.0000 </r>
       <r>  -15.6512    1.0000 </r>
       <r>  -15.5414    1.0000 </r>
       <r>  -15.5054    1.0000 </r>
       <r>  -15.3204    1.0000 </r>
       <r>  -15.2496    1.0000 </r>
       <r>   -9.7836    1.0000 </r>
       <r>   -9.5014    1.0000 </r>
       <r>   -9.3525    1.0000 </r>
       <r>   -9.0611    1.0000 </r>
       <r>   -8.8338    1.0000 </r>
       <r>   -8.7287    1.0000 </r>
       <r>   -8.5783    1.0000 </r>
       <r>   -8.5475    1.0000 </r>
       <r>   -8.4550    1.0000 </r>
       <r>   -8.3167    1.0000 </r>
       <r>   -8.2714    1.0000 </r>
       <r>   -8.1939    1.0000 </r>
       <r>   -8.1050    1.0000 </r>
       <r>   -8.0534    1.0000 </r>
       <r>   -8.0020    1.0000 </r>
       <r>   -7.8959    1.0000 </r>
       <r>   -7.8447    1.0000 </r>
       <r>   -7.7880    1.0000 </r>
       <r>   -7.5937    1.0000 </r>
       <r>   -7.3983    1.0000 </r>
       <r>   -7.3099    1.0000 </r>
       <r>   -7.2206    1.0000 </r>
       <r>   -7.1500    1.0000 </r>
       <r>   -7.1096    1.0000 </r>
       <r>   -6.9955    1.0000 </r>
       <r>   -6.9313    1.0000 </r>
       <r>   -6.8456    1.0000 </r>
       <r>   -6.7770    1.0000 </r>
       <r>   -6.6674    1.0000 </r>
       <r>   -6.5882    1.0000 </r>
       <r>   -6.5359    1.0000 </r>
       <r>   -6.4898    1.0000 </r>
       <r>   -6.4278    1.0000 </r>
       <r>   -6.3548    1.0000 </r>
       <r>   -6.3028    1.0000 </r>
       <r>   -6.2582    1.0000 </r>
       <r>   -6.1422    1.0000 </r>
       <r>   -6.0200    1.0000 </r>
       <r>   -5.9587    1.0000 </r>
       <r>   -5.9181    1.0000 </r>
       <r>   -5.8592    1.0000 </r>
       <r>   -5.7580    1.0000 </r>
       <r>   -5.6881    1.0000 </r>
       <r>   -5.5791    1.0000 </r>
       <r>   -5.4588    1.0000 </r>
       <r>   -5.3468    1.0000 </r>
       <r>   -5.2441    1.0000 </r>
       <r>   -5.1132    1.0000 </r>
       <r>   -5.0827    1.0000 </r>
       <r>   -4.8972    1.0000 </r>
       <r>   -4.8207    1.0000 </r>
       <r>   -4.7200    1.0000 </r>
       <r>   -4.6072    1.0000 </r>
       <r>   -4.5419    1.0000 </r>
       <r>   -4.3667    1.0000 </r>
       <r>   -4.2878    1.0000 </r>
       <r>   -4.0853    1.0000 </r>
       <r>   -3.9467    1.0000 </r>
       <r>   -3.8149    0.9998 </r>
       <r>   -3.7647    0.9994 </r>
       <r>   -3.5222    0.9359 </r>
       <r>   -3.3847    0.7084 </r>
       <r>   -2.9617    0.0073 </r>
       <r>   -2.8517    0.0006 </r>
       <r>   -2.7579    0.0001 </r>
       <r>   -2.7056    0.0000 </r>
       <r>   -2.5701    0.0000 </r>
       <r>   -2.4318    0.0000 </r>
       <r>   -2.3384    0.0000 </r>
       <r>   -2.2719    0.0000 </r>
       <r>   -2.0767    0.0000 </r>
       <r>   -1.9160    0.0000 </r>
       <r>   -1.7811    0.0000 </r>
       <r>   -1.4153    0.0000 </r>
       <r>   -1.3211    0.0000 </r>
       <r>   -1.2855    0.0000 </r>
       <r>   -1.1822    0.0000 </r>
       <r>   -1.1388    0.0000 </r>
       <r>   -1.0700    0.0000 </r>
       <r>   -1.0102    0.0000 </r>
       <r>   -0.9672    0.0000 </r>
       <r>   -0.8928    0.0000 </r>
       <r>   -0.7955    0.0000 </r>
       <r>   -0.7362    0.0000 </r>
       <r>   -0.6808    0.0000 </r>
       <r>   -0.5471    0.0000 </r>
       <r>   -0.4974    0.0000 </r>
       <r>   -0.3668    0.0000 </r>
       <r>   -0.3133    0.0000 </r>
       <r>   -0.1099    0.0000 </r>
       <r>   -0.0531    0.0000 </r>
       <r>    0.2335    0.0000 </r>
       <r>    0.3933    0.0000 </r>
       <r>    0.5653    0.0000 </r>
       <r>    0.6797    0.0000 </r>
       <r>    0.9271    0.0000 </r>
       <r>    1.0698    0.0000 </r>
       <r>    1.2545    0.0000 </r>
       <r>    1.5765    0.0000 </r>
       <r>    2.1359    0.0000 </r>
       <r>    2.3043    0.0000 </r>
       <r>    2.3880    0.0000 </r>
      </set>
      <set comment="kpoint 32">
       <r>  -17.5554    1.0000 </r>
       <r>  -17.2542    1.0000 </r>
       <r>  -16.9779    1.0000 </r>
       <r>  -16.7341    1.0000 </r>
       <r>  -16.4991    1.0000 </r>
       <r>  -16.3843    1.0000 </r>
       <r>  -16.2998    1.0000 </r>
       <r>  -16.2174    1.0000 </r>
       <r>  -16.1480    1.0000 </r>
       <r>  -16.0718    1.0000 </r>
       <r>  -15.9709    1.0000 </r>
       <r>  -15.8791    1.0000 </r>
       <r>  -15.7476    1.0000 </r>
       <r>  -15.6634    1.0000 </r>
       <r>  -15.5435    1.0000 </r>
       <r>  -15.4850    1.0000 </r>
       <r>  -15.3198    1.0000 </r>
       <r>  -15.2494    1.0000 </r>
       <r>   -9.7252    1.0000 </r>
       <r>   -9.6016    1.0000 </r>
       <r>   -9.4328    1.0000 </r>
       <r>   -9.0163    1.0000 </r>
       <r>   -8.7047    1.0000 </r>
       <r>   -8.6834    1.0000 </r>
       <r>   -8.5832    1.0000 </r>
       <r>   -8.4570    1.0000 </r>
       <r>   -8.4227    1.0000 </r>
       <r>   -8.3729    1.0000 </r>
       <r>   -8.2737    1.0000 </r>
       <r>   -8.2614    1.0000 </r>
       <r>   -8.1431    1.0000 </r>
       <r>   -8.1092    1.0000 </r>
       <r>   -8.0190    1.0000 </r>
       <r>   -7.9269    1.0000 </r>
       <r>   -7.8410    1.0000 </r>
       <r>   -7.8151    1.0000 </r>
       <r>   -7.5718    1.0000 </r>
       <r>   -7.3984    1.0000 </r>
       <r>   -7.3336    1.0000 </r>
       <r>   -7.2592    1.0000 </r>
       <r>   -7.1702    1.0000 </r>
       <r>   -7.0579    1.0000 </r>
       <r>   -6.9779    1.0000 </r>
       <r>   -6.9239    1.0000 </r>
       <r>   -6.8559    1.0000 </r>
       <r>   -6.7450    1.0000 </r>
       <r>   -6.6847    1.0000 </r>
       <r>   -6.5565    1.0000 </r>
       <r>   -6.5244    1.0000 </r>
       <r>   -6.5062    1.0000 </r>
       <r>   -6.4175    1.0000 </r>
       <r>   -6.3653    1.0000 </r>
       <r>   -6.3442    1.0000 </r>
       <r>   -6.2043    1.0000 </r>
       <r>   -6.1100    1.0000 </r>
       <r>   -6.0566    1.0000 </r>
       <r>   -5.9425    1.0000 </r>
       <r>   -5.8910    1.0000 </r>
       <r>   -5.7987    1.0000 </r>
       <r>   -5.7296    1.0000 </r>
       <r>   -5.6753    1.0000 </r>
       <r>   -5.5421    1.0000 </r>
       <r>   -5.4522    1.0000 </r>
       <r>   -5.4143    1.0000 </r>
       <r>   -5.2690    1.0000 </r>
       <r>   -5.1525    1.0000 </r>
       <r>   -5.0243    1.0000 </r>
       <r>   -4.9054    1.0000 </r>
       <r>   -4.8407    1.0000 </r>
       <r>   -4.7383    1.0000 </r>
       <r>   -4.7082    1.0000 </r>
       <r>   -4.5250    1.0000 </r>
       <r>   -4.3642    1.0000 </r>
       <r>   -4.2992    1.0000 </r>
       <r>   -4.0781    1.0000 </r>
       <r>   -3.9979    1.0000 </r>
       <r>   -3.7992    0.9997 </r>
       <r>   -3.7253    0.9984 </r>
       <r>   -3.5107    0.9251 </r>
       <r>   -3.3319    0.5696 </r>
       <r>   -3.0043    0.0161 </r>
       <r>   -2.8886    0.0015 </r>
       <r>   -2.7443    0.0000 </r>
       <r>   -2.7056    0.0000 </r>
       <r>   -2.5655    0.0000 </r>
       <r>   -2.4403    0.0000 </r>
       <r>   -2.3297    0.0000 </r>
       <r>   -2.2521    0.0000 </r>
       <r>   -2.0418    0.0000 </r>
       <r>   -1.9577    0.0000 </r>
       <r>   -1.7973    0.0000 </r>
       <r>   -1.4643    0.0000 </r>
       <r>   -1.3201    0.0000 </r>
       <r>   -1.2558    0.0000 </r>
       <r>   -1.1651    0.0000 </r>
       <r>   -1.1251    0.0000 </r>
       <r>   -1.0472    0.0000 </r>
       <r>   -0.9907    0.0000 </r>
       <r>   -0.9400    0.0000 </r>
       <r>   -0.8947    0.0000 </r>
       <r>   -0.8215    0.0000 </r>
       <r>   -0.7206    0.0000 </r>
       <r>   -0.6730    0.0000 </r>
       <r>   -0.6025    0.0000 </r>
       <r>   -0.5127    0.0000 </r>
       <r>   -0.3634    0.0000 </r>
       <r>   -0.3057    0.0000 </r>
       <r>   -0.0614    0.0000 </r>
       <r>    0.0204    0.0000 </r>
       <r>    0.2246    0.0000 </r>
       <r>    0.4038    0.0000 </r>
       <r>    0.5079    0.0000 </r>
       <r>    0.6926    0.0000 </r>
       <r>    0.8850    0.0000 </r>
       <r>    1.0414    0.0000 </r>
       <r>    1.2591    0.0000 </r>
       <r>    1.5652    0.0000 </r>
       <r>    2.1097    0.0000 </r>
       <r>    2.2707    0.0000 </r>
       <r>    2.5718    0.0000 </r>
      </set>
      <set comment="kpoint 33">
       <r>  -17.5267    1.0000 </r>
       <r>  -17.3287    1.0000 </r>
       <r>  -16.8825    1.0000 </r>
       <r>  -16.7318    1.0000 </r>
       <r>  -16.5154    1.0000 </r>
       <r>  -16.4695    1.0000 </r>
       <r>  -16.3266    1.0000 </r>
       <r>  -16.1949    1.0000 </r>
       <r>  -16.1618    1.0000 </r>
       <r>  -16.0544    1.0000 </r>
       <r>  -15.9095    1.0000 </r>
       <r>  -15.8566    1.0000 </r>
       <r>  -15.7373    1.0000 </r>
       <r>  -15.6787    1.0000 </r>
       <r>  -15.5675    1.0000 </r>
       <r>  -15.4881    1.0000 </r>
       <r>  -15.3189    1.0000 </r>
       <r>  -15.2498    1.0000 </r>
       <r>   -9.7904    1.0000 </r>
       <r>   -9.5047    1.0000 </r>
       <r>   -9.4084    1.0000 </r>
       <r>   -8.9733    1.0000 </r>
       <r>   -8.8034    1.0000 </r>
       <r>   -8.7523    1.0000 </r>
       <r>   -8.6728    1.0000 </r>
       <r>   -8.5935    1.0000 </r>
       <r>   -8.3995    1.0000 </r>
       <r>   -8.2946    1.0000 </r>
       <r>   -8.2573    1.0000 </r>
       <r>   -8.1542    1.0000 </r>
       <r>   -8.1133    1.0000 </r>
       <r>   -8.0585    1.0000 </r>
       <r>   -7.9907    1.0000 </r>
       <r>   -7.8683    1.0000 </r>
       <r>   -7.8515    1.0000 </r>
       <r>   -7.8195    1.0000 </r>
       <r>   -7.5290    1.0000 </r>
       <r>   -7.4511    1.0000 </r>
       <r>   -7.4207    1.0000 </r>
       <r>   -7.3570    1.0000 </r>
       <r>   -7.1297    1.0000 </r>
       <r>   -7.0243    1.0000 </r>
       <r>   -6.9632    1.0000 </r>
       <r>   -6.8810    1.0000 </r>
       <r>   -6.8444    1.0000 </r>
       <r>   -6.7664    1.0000 </r>
       <r>   -6.6550    1.0000 </r>
       <r>   -6.6070    1.0000 </r>
       <r>   -6.5316    1.0000 </r>
       <r>   -6.4873    1.0000 </r>
       <r>   -6.4346    1.0000 </r>
       <r>   -6.3619    1.0000 </r>
       <r>   -6.2812    1.0000 </r>
       <r>   -6.1577    1.0000 </r>
       <r>   -6.1055    1.0000 </r>
       <r>   -6.0338    1.0000 </r>
       <r>   -5.9822    1.0000 </r>
       <r>   -5.9042    1.0000 </r>
       <r>   -5.8728    1.0000 </r>
       <r>   -5.7376    1.0000 </r>
       <r>   -5.6563    1.0000 </r>
       <r>   -5.5599    1.0000 </r>
       <r>   -5.4948    1.0000 </r>
       <r>   -5.4322    1.0000 </r>
       <r>   -5.2819    1.0000 </r>
       <r>   -5.1308    1.0000 </r>
       <r>   -5.0677    1.0000 </r>
       <r>   -4.8784    1.0000 </r>
       <r>   -4.7848    1.0000 </r>
       <r>   -4.6856    1.0000 </r>
       <r>   -4.6402    1.0000 </r>
       <r>   -4.5072    1.0000 </r>
       <r>   -4.3996    1.0000 </r>
       <r>   -4.2915    1.0000 </r>
       <r>   -4.1108    1.0000 </r>
       <r>   -4.0562    1.0000 </r>
       <r>   -3.8915    1.0000 </r>
       <r>   -3.6485    0.9921 </r>
       <r>   -3.5185    0.9326 </r>
       <r>   -3.2756    0.4119 </r>
       <r>   -3.0379    0.0285 </r>
       <r>   -2.9491    0.0057 </r>
       <r>   -2.7385    0.0000 </r>
       <r>   -2.7142    0.0000 </r>
       <r>   -2.5623    0.0000 </r>
       <r>   -2.4349    0.0000 </r>
       <r>   -2.3131    0.0000 </r>
       <r>   -2.2136    0.0000 </r>
       <r>   -2.0326    0.0000 </r>
       <r>   -1.9414    0.0000 </r>
       <r>   -1.8064    0.0000 </r>
       <r>   -1.5025    0.0000 </r>
       <r>   -1.3001    0.0000 </r>
       <r>   -1.2539    0.0000 </r>
       <r>   -1.1678    0.0000 </r>
       <r>   -1.1104    0.0000 </r>
       <r>   -1.0442    0.0000 </r>
       <r>   -0.9750    0.0000 </r>
       <r>   -0.9227    0.0000 </r>
       <r>   -0.8889    0.0000 </r>
       <r>   -0.8357    0.0000 </r>
       <r>   -0.7289    0.0000 </r>
       <r>   -0.6443    0.0000 </r>
       <r>   -0.6151    0.0000 </r>
       <r>   -0.5240    0.0000 </r>
       <r>   -0.4328    0.0000 </r>
       <r>   -0.3765    0.0000 </r>
       <r>    0.0073    0.0000 </r>
       <r>    0.1162    0.0000 </r>
       <r>    0.2150    0.0000 </r>
       <r>    0.4271    0.0000 </r>
       <r>    0.4912    0.0000 </r>
       <r>    0.7097    0.0000 </r>
       <r>    0.8426    0.0000 </r>
       <r>    1.0385    0.0000 </r>
       <r>    1.2622    0.0000 </r>
       <r>    1.5669    0.0000 </r>
       <r>    2.1455    0.0000 </r>
       <r>    2.3023    0.0000 </r>
       <r>    2.4062    0.0000 </r>
      </set>
      <set comment="kpoint 34">
       <r>  -17.4920    1.0000 </r>
       <r>  -17.3921    1.0000 </r>
       <r>  -16.7581    1.0000 </r>
       <r>  -16.7137    1.0000 </r>
       <r>  -16.6479    1.0000 </r>
       <r>  -16.4973    1.0000 </r>
       <r>  -16.3225    1.0000 </r>
       <r>  -16.1917    1.0000 </r>
       <r>  -16.1652    1.0000 </r>
       <r>  -16.0451    1.0000 </r>
       <r>  -15.8675    1.0000 </r>
       <r>  -15.8353    1.0000 </r>
       <r>  -15.7229    1.0000 </r>
       <r>  -15.6831    1.0000 </r>
       <r>  -15.6039    1.0000 </r>
       <r>  -15.4915    1.0000 </r>
       <r>  -15.3189    1.0000 </r>
       <r>  -15.2498    1.0000 </r>
       <r>   -9.8262    1.0000 </r>
       <r>   -9.4308    1.0000 </r>
       <r>   -9.3541    1.0000 </r>
       <r>   -8.9395    1.0000 </r>
       <r>   -8.9165    1.0000 </r>
       <r>   -8.8475    1.0000 </r>
       <r>   -8.7248    1.0000 </r>
       <r>   -8.6095    1.0000 </r>
       <r>   -8.3913    1.0000 </r>
       <r>   -8.3024    1.0000 </r>
       <r>   -8.2348    1.0000 </r>
       <r>   -8.1434    1.0000 </r>
       <r>   -8.0930    1.0000 </r>
       <r>   -8.0127    1.0000 </r>
       <r>   -7.8987    1.0000 </r>
       <r>   -7.8707    1.0000 </r>
       <r>   -7.8027    1.0000 </r>
       <r>   -7.7084    1.0000 </r>
       <r>   -7.6753    1.0000 </r>
       <r>   -7.5023    1.0000 </r>
       <r>   -7.4482    1.0000 </r>
       <r>   -7.3502    1.0000 </r>
       <r>   -7.0969    1.0000 </r>
       <r>   -7.0347    1.0000 </r>
       <r>   -6.9818    1.0000 </r>
       <r>   -6.8844    1.0000 </r>
       <r>   -6.7932    1.0000 </r>
       <r>   -6.7471    1.0000 </r>
       <r>   -6.6602    1.0000 </r>
       <r>   -6.6153    1.0000 </r>
       <r>   -6.5197    1.0000 </r>
       <r>   -6.4839    1.0000 </r>
       <r>   -6.4457    1.0000 </r>
       <r>   -6.3278    1.0000 </r>
       <r>   -6.2904    1.0000 </r>
       <r>   -6.2207    1.0000 </r>
       <r>   -6.1418    1.0000 </r>
       <r>   -6.0226    1.0000 </r>
       <r>   -5.9547    1.0000 </r>
       <r>   -5.8865    1.0000 </r>
       <r>   -5.8362    1.0000 </r>
       <r>   -5.7778    1.0000 </r>
       <r>   -5.6808    1.0000 </r>
       <r>   -5.6026    1.0000 </r>
       <r>   -5.5041    1.0000 </r>
       <r>   -5.4579    1.0000 </r>
       <r>   -5.2981    1.0000 </r>
       <r>   -5.1042    1.0000 </r>
       <r>   -5.0556    1.0000 </r>
       <r>   -4.8696    1.0000 </r>
       <r>   -4.8214    1.0000 </r>
       <r>   -4.5966    1.0000 </r>
       <r>   -4.5156    1.0000 </r>
       <r>   -4.4987    1.0000 </r>
       <r>   -4.4140    1.0000 </r>
       <r>   -4.2869    1.0000 </r>
       <r>   -4.2092    1.0000 </r>
       <r>   -4.0659    1.0000 </r>
       <r>   -3.9431    1.0000 </r>
       <r>   -3.5972    0.9799 </r>
       <r>   -3.5459    0.9544 </r>
       <r>   -3.2533    0.3520 </r>
       <r>   -3.0450    0.0319 </r>
       <r>   -2.9828    0.0109 </r>
       <r>   -2.7510    0.0000 </r>
       <r>   -2.7054    0.0000 </r>
       <r>   -2.5650    0.0000 </r>
       <r>   -2.4244    0.0000 </r>
       <r>   -2.3069    0.0000 </r>
       <r>   -2.1931    0.0000 </r>
       <r>   -2.0337    0.0000 </r>
       <r>   -1.9218    0.0000 </r>
       <r>   -1.8092    0.0000 </r>
       <r>   -1.5141    0.0000 </r>
       <r>   -1.2790    0.0000 </r>
       <r>   -1.2604    0.0000 </r>
       <r>   -1.1777    0.0000 </r>
       <r>   -1.1177    0.0000 </r>
       <r>   -1.0364    0.0000 </r>
       <r>   -0.9704    0.0000 </r>
       <r>   -0.9177    0.0000 </r>
       <r>   -0.8864    0.0000 </r>
       <r>   -0.8376    0.0000 </r>
       <r>   -0.7329    0.0000 </r>
       <r>   -0.6286    0.0000 </r>
       <r>   -0.5928    0.0000 </r>
       <r>   -0.5836    0.0000 </r>
       <r>   -0.4569    0.0000 </r>
       <r>   -0.3922    0.0000 </r>
       <r>    0.0264    0.0000 </r>
       <r>    0.1095    0.0000 </r>
       <r>    0.2474    0.0000 </r>
       <r>    0.4549    0.0000 </r>
       <r>    0.4904    0.0000 </r>
       <r>    0.7070    0.0000 </r>
       <r>    0.8352    0.0000 </r>
       <r>    1.0435    0.0000 </r>
       <r>    1.2608    0.0000 </r>
       <r>    1.5717    0.0000 </r>
       <r>    2.2321    0.0000 </r>
       <r>    2.2567    0.0000 </r>
       <r>    2.3922    0.0000 </r>
      </set>
     </set>
    </set>
   </array>
  </eigenvalues>
  <separator name="orbital magnetization" >
   <v name="MAGDIPOLOUT">      0.00000000      0.00000000      0.00000000</v>
  </separator>
 </calculation>
 <structure name="finalpos" >
  <crystal>
   <varray name="basis" >
    <v>       8.31692008       4.83465831       0.00000000 </v>
    <v>      -8.30541566       4.81495631       0.00000000 </v>
    <v>       0.00000000       0.00000000      30.00000000 </v>
   </varray>
   <i name="volume">   2405.98360800 </i>
   <varray name="rec_basis" >
    <v>       0.06003727       0.10355950       0.00000000 </v>
    <v>      -0.06028293       0.10370295       0.00000000 </v>
    <v>       0.00000000       0.00000000       0.03333333 </v>
   </varray>
  </crystal>
  <varray name="positions" >
   <v>       0.29479412       0.31897055       0.00228705 </v>
   <v>       0.68649567      -0.01232506      -0.00082080 </v>
   <v>       0.30426281      -0.02111051       0.00046147 </v>
   <v>       0.00102854       0.66720385      -0.00012411 </v>
   <v>       0.29944818       0.65254487       0.00085913 </v>
   <v>      -0.00803359      -0.02416511      -0.00012558 </v>
   <v>       1.00979519       0.36173637      -0.00039633 </v>
   <v>       0.70098574       0.36272562      -0.00068902 </v>
   <v>       0.70173122       0.68189679      -0.00105805 </v>
   <v>       0.10460280       0.22096400       0.95004015 </v>
   <v>       0.22224306       0.10872385       0.05177325 </v>
   <v>       0.10764217       0.55912061       0.94313644 </v>
   <v>       0.21767636       0.44167540       0.05549899 </v>
   <v>       0.11546208       0.89088454       0.94537490 </v>
   <v>       0.22490261       0.78431377       0.05463724 </v>
   <v>       0.44253992       0.22502564       0.95806762 </v>
   <v>       0.55693537       0.10878289       0.04136088 </v>
   <v>       0.44473247       0.55129529       0.95667498 </v>
   <v>       0.55148569       0.44425286       0.04663438 </v>
   <v>       0.44356955       0.89041748       0.95329865 </v>
   <v>       0.55546367       0.77469688       0.04636418 </v>
   <v>       0.77793699       0.22012229       0.94918518 </v>
   <v>       0.89019940       0.11334365       0.04778142 </v>
   <v>       0.78394854       0.56151005       0.94296680 </v>
   <v>       0.89586445       0.45068328       0.05629846 </v>
   <v>       0.77857401       0.88812537       0.94410309 </v>
   <v>       0.89392743       0.77679925       0.05640951 </v>
  </varray>
 </structure>
</modeling>
