unknown system                          
           1
     8.854976    5.105721    0.000000
    -8.854975    5.105719    0.000000
     0.000000    0.000000   30.000000
   V    Mo   W    S 
   3   3   3  18
Direct configuration=     1
   0.33333334  0.33333334  0.00000000
   0.66666669  0.00000000  0.00000000
   0.33333334  0.00000000  0.00000000
   0.00000000  0.66666669  0.00000000
   0.33333334  0.66666669  0.00000000
   0.00000000  0.00000000  0.00000000
   1.00000000  0.33333334  0.00000000
   0.66666669  0.33333334  0.00000000
   0.66666669  0.66666669  0.00000000
   0.11068511  0.22244981  0.95539999
   0.22244981  0.11068511  0.04460000
   0.11068511  0.55578315  0.95539999
   0.22244981  0.44401845  0.04460000
   0.11068511  0.88911647  0.95539999
   0.22244981  0.77735180  0.04460000
   0.44401845  0.22244981  0.95539999
   0.55578315  0.11068511  0.04460000
   0.44401845  0.55578315  0.95539999
   0.55578315  0.44401845  0.04460000
   0.44401845  0.88911647  0.95539999
   0.55578315  0.77735180  0.04460000
   0.77735180  0.22244981  0.95539999
   0.88911647  0.11068511  0.04460000
   0.77735180  0.55578315  0.95539999
   0.88911647  0.44401845  0.04460000
   0.77735180  0.88911647  0.95539999
   0.88911647  0.77735180  0.04460000
unknown system                          
           1
     8.667164    4.999623    0.000000
    -8.667157    4.999612    0.000000
     0.000000    0.000000   30.000000
   V    Mo   W    S 
   3   3   3  18
Direct configuration=     2
   0.33225016  0.33297136  0.00013915
   0.66630472 -0.00108325 -0.00013916
   0.33145603 -0.00187742  0.00000000
   0.00133774  0.66800445 -0.00000001
   0.33201099  0.66698651 -0.00010118
   0.00031955 -0.00132253  0.00010117
   1.00158366  0.33462026  0.00023216
   0.66732782  0.33399435 -0.00000000
   0.66795371  0.66825063 -0.00023216
   0.11499618  0.22466663  0.95194457
   0.22654950  0.11305621  0.04690037
   0.11050624  0.55457293  0.95074985
   0.22350067  0.44127233  0.04807212
   0.11543350  0.89096198  0.95189094
   0.22429532  0.78210010  0.04810906
   0.44088962  0.22063446  0.95316231
   0.55396785  0.10755610  0.04683765
   0.44318053  0.55149725  0.95202509
   0.55155241  0.44240672  0.04809418
   0.44638980  0.89321628  0.95309964
   0.55799998  0.78166289  0.04805538
   0.77573986  0.21821885  0.95190581
   0.88483026  0.10984702  0.04797490
   0.77689275  0.55510064  0.95071966
   0.88843401  0.44355948  0.04928034
   0.77460544  0.89016736  0.95192791
   0.88790617  0.77717287  0.04925016
unknown system                          
           1
     8.484829    4.899932    0.000000
    -8.484811    4.899902    0.000000
     0.000000    0.000000   30.000000
   V    Mo   W    S 
   3   3   3  18
Direct configuration=     3
   0.33187239  0.33292074  0.00011316
   0.66625487 -0.00146172 -0.00011314
   0.33081031 -0.00252404 -0.00000001
   0.00148353  0.66815004 -0.00000004
   0.33128422  0.66674621 -0.00014192
   0.00007578 -0.00205093  0.00014193
   1.00207716  0.33529435  0.00025529
   0.66792743  0.33459213  0.00000001
   0.66862884  0.66874714 -0.00025530
   0.11497628  0.22483347  0.95199738
   0.22663647  0.11309136  0.04688136
   0.11034843  0.55432238  0.95067386
   0.22331098  0.44110834  0.04813804
   0.11562007  0.89108424  0.95180749
   0.22441739  0.78228661  0.04819261
   0.44107521  0.22069207  0.95328770
   0.55402598  0.10774112  0.04671149
   0.44334549  0.55149948  0.95209696
   0.55168335  0.44245476  0.04801582
   0.44642725  0.89330441  0.95311930
   0.55816770  0.78164438  0.04800169
   0.77578772  0.21834863  0.95198500
   0.88483104  0.11001117  0.04790218
   0.77668305  0.55503421  0.95069679
   0.88836756  0.44335010  0.04930329
   0.77444036  0.88997882  0.95186264
   0.88765560  0.77701497  0.04932633
unknown system                          
           1
     8.266610    4.775475    0.000000
    -8.267372    4.776795    0.000000
     0.000000    0.000000   30.000000
   V    Mo   W    S 
   3   3   3  18
Direct configuration=     4
   0.33045110  0.33311476 -0.00004543
   0.66645038 -0.00288242  0.00004572
   0.32835181 -0.00498412  0.00000000
   0.00133147  0.66799879 -0.00000013
   0.32811091  0.66514585 -0.00022774
  -0.00152960 -0.00522796  0.00022755
   1.00379919  0.33826241  0.00022742
   0.67079769  0.33746185  0.00000012
   0.67160011  0.67047428 -0.00022741
   0.11586607  0.22524724  0.95079785
   0.22774776  0.11357742  0.04813050
   0.11004362  0.55413452  0.94875637
   0.22394137  0.44069153  0.04991350
   0.11706985  0.89189415  0.95003643
   0.22522793  0.78373692  0.04996348
   0.44028513  0.22011491  0.95245107
   0.55345273  0.10694642  0.04754826
   0.44286514  0.55045408  0.95096264
   0.55077447  0.44209706  0.04918378
   0.44691899  0.89441951  0.95187028
   0.55858443  0.78254139  0.04920246
   0.77542672  0.21743395  0.95081543
   0.88377949  0.10952788  0.04903765
   0.77678577  0.55525886  0.94894087
   0.88859210  0.44345159  0.05105944
   0.77402220  0.89061288  0.95008619
   0.88746760  0.77671071  0.05124359
unknown system                          
           1
     8.261127    4.779254    0.000000
    -8.260937    4.778926    0.000000
     0.000000    0.000000   30.000000
   V    Mo   W    S 
   3   3   3  18
Direct configuration=     5
   0.32742722  0.33385224 -0.00038202
   0.66714311 -0.00584627  0.00037435
   0.32397812 -0.00926248 -0.00000068
  -0.00011055  0.66657484  0.00000379
   0.32112216  0.66104437 -0.00021623
  -0.00536218 -0.01209076  0.00021653
   1.00745801  0.34515517  0.00007810
   0.67648342  0.34326360 -0.00000012
   0.67840804  0.67387319 -0.00007764
   0.11619492  0.22483883  0.94942125
   0.22831448  0.11353702  0.04991786
   0.10976581  0.55454673  0.94588792
   0.22476464  0.44067229  0.05253963
   0.11830186  0.89238429  0.94753156
   0.22572338  0.78497291  0.05246178
   0.43980127  0.21955490  0.95154416
   0.55285263  0.10650851  0.04847667
   0.44260193  0.55002937  0.94962560
   0.55003032  0.44220636  0.05061090
   0.44678863  0.89493711  0.95006956
   0.55812725  0.78277403  0.05059761
   0.77557321  0.21677276  0.94937639
   0.88344833  0.10930799  0.05039279
   0.77779123  0.55633389  0.94628550
   0.88965893  0.44445071  0.05370722
   0.77404962  0.89138998  0.94745064
   0.88787866  0.77643291  0.05410679
unknown system                          
           1
     8.261146    4.779325    0.000000
    -8.260968    4.779020    0.000000
     0.000000    0.000000   30.000000
   V    Mo   W    S 
   3   3   3  18
Direct configuration=     6
   0.32595470  0.33400362 -0.00037228
   0.66731399 -0.00732720  0.00037290
   0.32264759 -0.01060982  0.00000067
  -0.00109195  0.66562919  0.00000545
   0.31891773  0.65983829 -0.00017545
  -0.00667395 -0.01435615  0.00017685
   1.00843423  0.34789046  0.00008618
   0.67863142  0.34536056 -0.00000028
   0.68123378  0.67497812 -0.00008917
   0.11503572  0.22405244  0.94955935
   0.22758697  0.11303084  0.04991803
   0.10961387  0.55511293  0.94541751
   0.22456674  0.44084517  0.05285234
   0.11774081  0.89187965  0.94733342
   0.22522732  0.78441471  0.05265653
   0.44035760  0.21984683  0.95181780
   0.55316352  0.10706165  0.04818403
   0.44329075  0.55121256  0.94986298
   0.55061583  0.44284730  0.05051445
   0.44630526  0.89421443  0.95008962
   0.55738442  0.78167267  0.05043231
   0.77620580  0.21734584  0.94949584
   0.88460370  0.10998023  0.05013275
   0.77821138  0.55692904  0.94587360
   0.89026084  0.44486176  0.05410927
   0.77421275  0.89118871  0.94717290
   0.88846364  0.77631059  0.05457232
unknown system                          
           1
     8.258979    4.781875    0.000000
    -8.258578    4.781184    0.000000
     0.000000    0.000000   30.000000
   V    Mo   W    S 
   3   3   3  18
Direct configuration=     7
   0.32591321  0.33400147 -0.00037379
   0.66731092 -0.00736727  0.00037439
   0.32261332 -0.01064372  0.00000064
  -0.00111228  0.66560909  0.00000531
   0.31886181  0.65981197 -0.00017561
  -0.00669778 -0.01441097  0.00017690
   1.00846093  0.34795868  0.00008521
   0.67868486  0.34541468 -0.00000026
   0.68130150  0.67500210 -0.00008817
   0.11501371  0.22404082  0.94956514
   0.22757540  0.11302416  0.04991599
   0.10961071  0.55512409  0.94540945
   0.22456212  0.44084785  0.05285800
   0.11773130  0.89187012  0.94733046
   0.22521777  0.78440513  0.05265944
   0.44036949  0.21985489  0.95182771
   0.55317117  0.10707365  0.04817426
   0.44330585  0.55123416  0.94987193
   0.55062791  0.44285998  0.05051007
   0.44629829  0.89420271  0.95009162
   0.55737233  0.78164986  0.05042663
   0.77621848  0.21735804  0.94950005
   0.88462569  0.10999548  0.05012400
   0.77821783  0.55693805  0.94586552
   0.89026967  0.44486807  0.05411734
   0.77421573  0.89118420  0.94716701
   0.88847454  0.77630715  0.05458064
unknown system                          
           1
     8.258493    4.779804    0.000000
    -8.258326    4.779517    0.000000
     0.000000    0.000000   30.000000
   V    Mo   W    S 
   3   3   3  18
Direct configuration=     8
   0.32409927  0.33392914 -0.00043213
   0.66726400 -0.00928759  0.00044254
   0.32120133 -0.01213565  0.00000120
  -0.00205484  0.66463771 -0.00000302
   0.31639812  0.65866764 -0.00018097
  -0.00805909 -0.01695569  0.00017676
   1.00959377  0.35101023  0.00004372
   0.68113606  0.34779336  0.00000132
   0.68436477  0.67631827 -0.00004513
   0.11404572  0.22352864  0.94978722
   0.22708326  0.11274184  0.04985466
   0.10947760  0.55559542  0.94504094
   0.22436002  0.44096908  0.05312056
   0.11733125  0.89147806  0.94718072
   0.22481649  0.78398866  0.05281384
   0.44087977  0.22018793  0.95221863
   0.55352130  0.10754951  0.04776592
   0.44397218  0.55217683  0.95022945
   0.55113126  0.44340054  0.05034347
   0.44607992  0.89374711  0.95016516
   0.55689343  0.78074510  0.05018847
   0.77673852  0.21780530  0.94967360
   0.88549630  0.11062561  0.04975522
   0.77850257  0.55734341  0.94549688
   0.89068354  0.44515459  0.05449039
   0.77431608  0.89102992  0.94690813
   0.88894184  0.77616947  0.05496235
unknown system                          
           1
     8.256516    4.772871    0.000000
    -8.256325    4.772551    0.000000
     0.000000    0.000000   30.000000
   V    Mo   W    S 
   3   3   3  18
Direct configuration=     9
   0.32467787  0.33399866 -0.00041780
   0.66730169 -0.00864080  0.00042496
   0.32162339 -0.01167230  0.00000037
  -0.00184999  0.66486419 -0.00000157
   0.31703520  0.65892072 -0.00018278
  -0.00767144 -0.01626631  0.00017808
   1.00929951  0.35019982  0.00004391
   0.68041782  0.34711609  0.00000148
   0.68354393  0.67590391 -0.00004604
   0.11432210  0.22365555  0.94972822
   0.22718140  0.11279133  0.04987420
   0.10951949  0.55545154  0.94515116
   0.22441742  0.44093345  0.05305634
   0.11742086  0.89155961  0.94722259
   0.22490542  0.78408464  0.05276795
   0.44074614  0.22010185  0.95209828
   0.55341980  0.10743499  0.04789507
   0.44377988  0.55193607  0.95011525
   0.55100380  0.44326613  0.05039803
   0.44609178  0.89382222  0.95014275
   0.55700356  0.78098567  0.05025135
   0.77661518  0.21770975  0.94961546
   0.88529498  0.11045138  0.04987524
   0.77844619  0.55723912  0.94559733
   0.89057305  0.44509133  0.05438511
   0.77429740  0.89106320  0.94697432
   0.88879805  0.77621265  0.05485064
unknown system                          
           1
     8.245351    4.762911    0.000000
    -8.245418    4.763050    0.000000
     0.000000    0.000000   30.000000
   V    Mo   W    S 
   3   3   3  18
Direct configuration=    10
   0.32776980  0.33457959 -0.00034839
   0.66768015 -0.00533637  0.00036494
   0.32381052 -0.00936713 -0.00000133
  -0.00150329  0.66537701  0.00001224
   0.31952602  0.65985683 -0.00013588
  -0.00631861 -0.01364127  0.00014035
   1.00784300  0.34685409  0.00007935
   0.67741120  0.34420980  0.00000037
   0.68025298  0.67412488 -0.00008396
   0.11550412  0.22412003  0.94947945
   0.22746820  0.11293370  0.05000173
   0.10961472  0.55482950  0.94551971
   0.22467103  0.44068555  0.05282797
   0.11774837  0.89176559  0.94738008
   0.22516981  0.78441130  0.05257299
   0.44015427  0.21977148  0.95145703
   0.55298381  0.10694113  0.04856034
   0.44300028  0.55106801  0.94952648
   0.55042052  0.44271487  0.05074186
   0.44604892  0.89397888  0.95002776
   0.55744658  0.78205926  0.05045644
   0.77613034  0.21729325  0.94928005
   0.88459353  0.10973805  0.05045507
   0.77826741  0.55682962  0.94595916
   0.89017817  0.44486335  0.05397501
   0.77413111  0.89118580  0.94728339
   0.88821151  0.77636765  0.05446770
unknown system                          
           1
     8.248473    4.770122    0.000000
    -8.249290    4.771561    0.000000
     0.000000    0.000000   30.000000
   V    Mo   W    S 
   3   3   3  18
Direct configuration=    11
   0.33270277  0.33643083 -0.00031178
   0.66914643  0.00005367  0.00035756
   0.32732081 -0.00579851 -0.00000966
  -0.00131972  0.66586981 -0.00000844
   0.32193204  0.66005785 -0.00010800
  -0.00552911 -0.01104299  0.00009461
   1.00595916  0.34263656  0.00007144
   0.67325822  0.34010911 -0.00000728
   0.67616023  0.67169064 -0.00008762
   0.11687236  0.22455047  0.94933961
   0.22754335  0.11293620  0.05009161
   0.10959644  0.55404227  0.94597026
   0.22484901  0.44022028  0.05258248
   0.11786680  0.89174168  0.94761100
   0.22519559  0.78449735  0.05230229
   0.43972549  0.21955610  0.95056907
   0.55262676  0.10658805  0.04947241
   0.44217535  0.55031618  0.94878111
   0.55001880  0.44217119  0.05123962
   0.44591949  0.89390962  0.94998289
   0.55790335  0.78337238  0.05050296
   0.77564211  0.21697635  0.94880601
   0.88391414  0.10890121  0.05115608
   0.77794247  0.55619765  0.94627948
   0.88957824  0.44447122  0.05360005
   0.77375239  0.89132418  0.94766288
   0.88746148  0.77643511  0.05405925
unknown system                          
           1
     8.242165    4.766427    0.000000
    -8.242967    4.767848    0.000000
     0.000000    0.000000   30.000000
   V    Mo   W    S 
   3   3   3  18
Direct configuration=    12
   0.33244558  0.33745352 -0.00033986
   0.67007641  0.00008315  0.00038405
   0.32636530 -0.00677116 -0.00000736
  -0.00145146  0.66588792  0.00001195
   0.31968143  0.65851373 -0.00010123
  -0.00686730 -0.01327758  0.00010973
   1.00645724  0.34420404  0.00009718
   0.67462980  0.34151595 -0.00000558
   0.67779612  0.67187309 -0.00008988
   0.11628398  0.22416011  0.94957777
   0.22730976  0.11288795  0.04991402
   0.10926063  0.55430919  0.94566489
   0.22463846  0.44005531  0.05276965
   0.11763392  0.89154439  0.94756136
   0.22492974  0.78420276  0.05233381
   0.44022388  0.21984325  0.95081414
   0.55288528  0.10708270  0.04926012
   0.44277859  0.55097617  0.94899905
   0.55050986  0.44252856  0.05119674
   0.44591992  0.89367920  0.95014163
   0.55747926  0.78273137  0.05026223
   0.77601863  0.21742061  0.94882269
   0.88452925  0.10946557  0.05094033
   0.77780331  0.55618147  0.94600063
   0.88959610  0.44437774  0.05385332
   0.77355753  0.89118236  0.94746325
   0.88772321  0.77610310  0.05436529
unknown system                          
           1
     8.246815    4.771963    0.000000
    -8.247341    4.772901    0.000000
     0.000000    0.000000   30.000000
   V    Mo   W    S 
   3   3   3  18
Direct configuration=    13
   0.33487232  0.33949453 -0.00034593
   0.67186507  0.00307804  0.00040562
   0.32719131 -0.00600405 -0.00001293
  -0.00140557  0.66625478  0.00001092
   0.31862593  0.65717524 -0.00008473
  -0.00783576 -0.01425117  0.00008459
   1.00590803  0.34359392  0.00007210
   0.67378121  0.34062509 -0.00001331
   0.67738835  0.67090671 -0.00007637
   0.11649928  0.22401045  0.94977298
   0.22716296  0.11289944  0.04975081
   0.10891391  0.55403316  0.94567411
   0.22453503  0.43970399  0.05279844
   0.11754087  0.89143968  0.94764131
   0.22480751  0.78404716  0.05222412
   0.44037294  0.21996228  0.95063572
   0.55291728  0.10728084  0.04948281
   0.44280165  0.55113132  0.94880151
   0.55067441  0.44253837  0.05140077
   0.44589166  0.89344644  0.95031756
   0.55733534  0.78288387  0.04999666
   0.77608659  0.21762155  0.94861403
   0.88467343  0.10944600  0.05111837
   0.77760500  0.55585720  0.94599543
   0.88932014  0.44417339  0.05380517
   0.77321711  0.89104935  0.94753916
   0.88746847  0.77581686  0.05439100
unknown system                          
           1
     8.253535    4.780609    0.000000
    -8.254162    4.781719    0.000000
     0.000000    0.000000   30.000000
   V    Mo   W    S 
   3   3   3  18
Direct configuration=    14
   0.33221211  0.33874862 -0.00039743
   0.67130042  0.00025491  0.00045233
   0.32526746 -0.00801584 -0.00001253
  -0.00175438  0.66576982  0.00000103
   0.31672637  0.65671277 -0.00010237
  -0.00865064 -0.01625175  0.00009312
   1.00707709  0.34639105  0.00004239
   0.67628641  0.34303268 -0.00001296
   0.68015967  0.67240357 -0.00005343
   0.11559237  0.22365266  0.94995370
   0.22696680  0.11281527  0.04967635
   0.10886206  0.55451431  0.94536209
   0.22437717  0.43996124  0.05298316
   0.11735327  0.89133193  0.94747761
   0.22468588  0.78387802  0.05241625
   0.44069128  0.22017278  0.95117750
   0.55320193  0.10755313  0.04892536
   0.44331916  0.55175997  0.94925695
   0.55099310  0.44292836  0.05112433
   0.44589467  0.89332461  0.95038180
   0.55699380  0.78203841  0.04984110
   0.77644651  0.21788333  0.94888368
   0.88522655  0.10994441  0.05067639
   0.77789468  0.55628773  0.94573706
   0.88973398  0.44447947  0.05409646
   0.77342975  0.89091466  0.94731388
   0.88792699  0.77572834  0.05470607
unknown system                          
           1
     8.254340    4.785888    0.000000
    -8.254662    4.786473    0.000000
     0.000000    0.000000   30.000000
   V    Mo   W    S 
   3   3   3  18
Direct configuration=    15
   0.33037504  0.33927626 -0.00045857
   0.67182041 -0.00136286  0.00053534
   0.32321592 -0.01020854 -0.00001355
  -0.00224188  0.66530106  0.00000532
   0.31339768  0.65523684 -0.00008238
  -0.01018674 -0.01957691  0.00008499
   1.00828079  0.34977566  0.00002647
   0.67907723  0.34566243 -0.00001291
   0.68358864  0.67367143 -0.00002405
   0.11446503  0.22298232  0.95034798
   0.22654105  0.11264235  0.04947362
   0.10855046  0.55503912  0.94486434
   0.22407638  0.44010503  0.05325347
   0.11704812  0.89111583  0.94726257
   0.22444503  0.78356867  0.05264210
   0.44115644  0.22053617  0.95178407
   0.55357527  0.10801578  0.04835203
   0.44397482  0.55279926  0.94972596
   0.55145881  0.44339685  0.05089600
   0.44576300  0.89291310  0.95055364
   0.55633487  0.78090614  0.04943179
   0.77693555  0.21832003  0.94905976
   0.88623024  0.11057517  0.05022430
   0.77820215  0.55667079  0.94535435
   0.89013943  0.44480736  0.05447940
   0.77355020  0.89062209  0.94703187
   0.88844049  0.77542303  0.05520200
unknown system                          
           1
     8.260245    4.794022    0.000000
    -8.260529    4.794543    0.000000
     0.000000    0.000000   30.000000
   V    Mo   W    S 
   3   3   3  18
Direct configuration=    16
   0.32943521  0.34003050 -0.00050722
   0.67258199 -0.00198326  0.00060144
   0.32173655 -0.01184293 -0.00002339
  -0.00246453  0.66511319  0.00000039
   0.31095942  0.65415589 -0.00008116
  -0.01131701 -0.02198952  0.00007394
   1.00892906  0.35192652 -0.00000558
   0.68104559  0.34741384 -0.00002700
   0.68581884  0.67442448 -0.00000960
   0.11365039  0.22245516  0.95070021
   0.22622096  0.11250278  0.04929289
   0.10823801  0.55534218  0.94454490
   0.22381805  0.44017256  0.05343814
   0.11683472  0.89095043  0.94712355
   0.22427526  0.78334673  0.05279386
   0.44150949  0.22080576  0.95222317
   0.55384003  0.10836904  0.04795308
   0.44443902  0.55363829  0.95005033
   0.55181256  0.44370715  0.05075170
   0.44563701  0.89256528  0.95072489
   0.55581864  0.78010579  0.04904628
   0.77727417  0.21865239  0.94916671
   0.88703427  0.11101475  0.04990728
   0.77836294  0.55685949  0.94510614
   0.89036788  0.44498553  0.05473534
   0.77360181  0.89036146  0.94688387
   0.88875410  0.77513099  0.05553573
unknown system                          
           1
     8.261990    4.805757    0.000000
    -8.261887    4.805612    0.000000
     0.000000    0.000000   30.000000
   V    Mo   W    S 
   3   3   3  18
Direct configuration=    17
   0.32838436  0.34077988 -0.00054115
   0.67337049 -0.00267554  0.00066496
   0.32005876 -0.01368115 -0.00003205
  -0.00263683  0.66494237  0.00000558
   0.30879747  0.65328138 -0.00007642
  -0.01222842 -0.02412067  0.00008099
   1.00946412  0.35384949 -0.00001960
   0.68314786  0.34927321 -0.00003310
   0.68780167  0.67509235  0.00001372
   0.11282680  0.22189686  0.95103450
   0.22592116  0.11236184  0.04911749
   0.10790408  0.55566336  0.94421233
   0.22354011  0.44026610  0.05361893
   0.11663469  0.89078763  0.94695365
   0.22410932  0.78314236  0.05297422
   0.44185949  0.22104811  0.95269324
   0.55407480  0.10871735  0.04752965
   0.44489297  0.55448864  0.95036800
   0.55214011  0.44399589  0.05059783
   0.44550922  0.89222611  0.95088278
   0.55526304  0.77929912  0.04867240
   0.77759625  0.21894003  0.94925483
   0.88786306  0.11145018  0.04960066
   0.77853899  0.55706651  0.94484489
   0.89062081  0.44518203  0.05500225
   0.77367853  0.89011758  0.94671706
   0.88908156  0.77482343  0.05586226
unknown system                          
           1
     8.274702    4.817945    0.000000
    -8.274363    4.817394    0.000000
     0.000000    0.000000   30.000000
   V    Mo   W    S 
   3   3   3  18
Direct configuration=    18
   0.32562901  0.34248471 -0.00061476
   0.67529224 -0.00449406  0.00078359
   0.31579813 -0.01832781 -0.00006656
  -0.00296888  0.66455912  0.00000106
   0.30447517  0.65166663 -0.00011062
  -0.01391922 -0.02835342  0.00011143
   1.01050725  0.35773939 -0.00009084
   0.68821634  0.35371197 -0.00007561
   0.69183751  0.67654600  0.00004871
   0.11099935  0.22068223  0.95178616
   0.22530799  0.11202005  0.04869495
   0.10710955  0.55633331  0.94361018
   0.22284449  0.44057758  0.05398472
   0.11610330  0.89035598  0.94659947
   0.22368877  0.78263762  0.05337413
   0.44271651  0.22156831  0.95390524
   0.55458382  0.10956334  0.04644622
   0.44585370  0.55634888  0.95111713
   0.55291489  0.44461968  0.05018170
   0.44517641  0.89148065  0.95127681
   0.55402309  0.77753582  0.04783441
   0.77830644  0.21961230  0.94950740
   0.88971471  0.11240373  0.04890459
   0.77896540  0.55761147  0.94434518
   0.89129024  0.44569511  0.05556510
   0.77394680  0.88953387  0.94639987
   0.88980145  0.77410198  0.05648023
unknown system                          
           1
     8.279359    4.833102    0.000000
    -8.278269    4.831260    0.000000
     0.000000    0.000000   30.000000
   V    Mo   W    S 
   3   3   3  18
Direct configuration=    19
   0.32409853  0.34312171 -0.00060285
   0.67622045 -0.00552056  0.00080875
   0.31401529 -0.02027397 -0.00007490
  -0.00306778  0.66441584  0.00002842
   0.30368864  0.65153003 -0.00011444
  -0.01412229 -0.02913460  0.00015785
   1.01066635  0.35852730 -0.00007816
   0.69016444  0.35534711 -0.00008308
   0.69276017  0.67701607  0.00006369
   0.11028650  0.22017875  0.95196924
   0.22515281  0.11187805  0.04855640
   0.10673866  0.55665345  0.94336171
   0.22251954  0.44079617  0.05417483
   0.11575529  0.89007975  0.94638803
   0.22342873  0.78232395  0.05359158
   0.44302050  0.22171034  0.95448201
   0.55470822  0.10984862  0.04592917
   0.44619573  0.55700962  0.95136168
   0.55317544  0.44482764  0.05001350
   0.44501378  0.89122632  0.95139780
   0.55352163  0.77690203  0.04758758
   0.77856438  0.21980530  0.94955574
   0.89040639  0.11274838  0.04869642
   0.77924233  0.55802632  0.94409592
   0.89178132  0.44603788  0.05582830
   0.77413692  0.88933573  0.94620306
   0.89014246  0.77379723  0.05670165
unknown system                          
           1
     8.283632    4.833615    0.000000
    -8.282461    4.831634    0.000000
     0.000000    0.000000   30.000000
   V    Mo   W    S 
   3   3   3  18
Direct configuration=    20
   0.31935690  0.34512607 -0.00060439
   0.67910391 -0.00865811  0.00086650
   0.30828392 -0.02653173 -0.00012448
  -0.00345850  0.66390803  0.00003729
   0.29964368  0.65027190 -0.00019544
  -0.01547711 -0.03300482  0.00025379
   1.01166487  0.36233541 -0.00016142
   0.69673002  0.36093146 -0.00014868
   0.69693433  0.67885370  0.00009455
   0.10808294  0.21877380  0.95270868
   0.22458771  0.11143572  0.04803456
   0.10570254  0.55747786  0.94281068
   0.22150553  0.44146938  0.05466672
   0.11468408  0.88926492  0.94591389
   0.22267254  0.78138419  0.05413589
   0.44405477  0.22233567  0.95633748
   0.55528787  0.11081852  0.04426558
   0.44727207  0.55908881  0.95227351
   0.55413769  0.44555815  0.04937557
   0.44451604  0.89038621  0.95189182
   0.55208741  0.77490039  0.04668748
   0.77942161  0.22058761  0.94987302
   0.89257090  0.11383896  0.04792895
   0.77997672  0.55914225  0.94352744
   0.89308411  0.44696730  0.05651042
   0.77473515  0.88863724  0.94575361
   0.89105276  0.77291557  0.05728688
unknown system                          
           1
     8.286721    4.835084    0.000000
    -8.285177    4.832465    0.000000
     0.000000    0.000000   30.000000
   V    Mo   W    S 
   3   3   3  18
Direct configuration=    21
   0.31945390  0.34454909 -0.00054906
   0.67893134 -0.00856260  0.00079864
   0.30949893 -0.02520508 -0.00011079
  -0.00323937  0.66415639  0.00004815
   0.30098819  0.65088623 -0.00015033
  -0.01483723 -0.03161514  0.00023430
   1.01132697  0.36112295 -0.00011130
   0.69522689  0.35956700 -0.00014902
   0.69581252  0.67850655  0.00003413
   0.10840079  0.21908410  0.95246746
   0.22477268  0.11148041  0.04811487
   0.10583452  0.55737222  0.94296707
   0.22155730  0.44156677  0.05462110
   0.11446908  0.88917082  0.94597187
   0.22262167  0.78123211  0.05406805
   0.44377341  0.22235381  0.95627441
   0.55527347  0.11049473  0.04432018
   0.44704013  0.55856456  0.95217159
   0.55399616  0.44543760  0.04938555
   0.44451376  0.89055218  0.95182073
   0.55241926  0.77529612  0.04690528
   0.77927065  0.22043735  0.94982586
   0.89211164  0.11360183  0.04809192
   0.77999434  0.55929303  0.94365246
   0.89322472  0.44701661  0.05638039
   0.77481462  0.88876815  0.94577886
   0.89096413  0.77308668  0.05713754
unknown system                          
           1
     8.292966    4.837972    0.000000
    -8.290933    4.834515    0.000000
     0.000000    0.000000   30.000000
   V    Mo   W    S 
   3   3   3  18
Direct configuration=    22
   0.31822230  0.34444452 -0.00048341
   0.67952690 -0.00931250  0.00073528
   0.30877993 -0.02597055 -0.00011430
  -0.00316544  0.66419184  0.00005541
   0.30065589  0.65090897 -0.00015999
  -0.01480572 -0.03178506  0.00025966
   1.01141342  0.36145684 -0.00012586
   0.69606788  0.36019753 -0.00015237
   0.69631453  0.67888704  0.00003667
   0.10815023  0.21905557  0.95244008
   0.22480486  0.11145491  0.04807435
   0.10574607  0.55743637  0.94300414
   0.22137076  0.44179118  0.05470467
   0.11417089  0.88897298  0.94593312
   0.22246945  0.78102652  0.05412096
   0.44373992  0.22249360  0.95663840
   0.55539825  0.11041024  0.04398000
   0.44710771  0.55864014  0.95231450
   0.55407281  0.44553058  0.04924080
   0.44444992  0.89050799  0.95188855
   0.55241817  0.77518874  0.04685725
   0.77934351  0.22045779  0.94986857
   0.89222119  0.11364750  0.04803753
   0.78015525  0.55956585  0.94362793
   0.89351199  0.44721760  0.05641042
   0.77501813  0.88873183  0.94568828
   0.89105566  0.77306645  0.05711925
unknown system                          
           1
     8.297865    4.839926    0.000000
    -8.294915    4.834899    0.000000
     0.000000    0.000000   30.000000
   V    Mo   W    S 
   3   3   3  18
Direct configuration=    23
   0.31474308  0.34354132 -0.00028642
   0.68097362 -0.01114338  0.00052498
   0.30766118 -0.02717686 -0.00012346
  -0.00297025  0.66417832  0.00006641
   0.30040119  0.65101184 -0.00010622
  -0.01452652 -0.03144502  0.00029310
   1.01160977  0.36183689 -0.00010598
   0.69758097  0.36131756 -0.00018401
   0.69716388  0.67968322 -0.00004939
   0.10763330  0.21927581  0.95221561
   0.22493259  0.11147901  0.04811630
   0.10561083  0.55768475  0.94304712
   0.22086890  0.44244629  0.05492285
   0.11338937  0.88849694  0.94580854
   0.22213624  0.78049988  0.05427168
   0.44352719  0.22295171  0.95743637
   0.55582099  0.11002901  0.04321089
   0.44712605  0.55857880  0.95271154
   0.55422895  0.44573463  0.04888782
   0.44431910  0.89038095  0.95198660
   0.55258571  0.77502397  0.04682835
   0.77939568  0.22045770  0.94993581
   0.89224932  0.11361509  0.04796839
   0.78054707  0.56025741  0.94359269
   0.89423423  0.44774502  0.05649557
   0.77561036  0.88862924  0.94540879
   0.89136163  0.77312435  0.05712599
unknown system                          
           1
     8.299050    4.839948    0.000000
    -8.296070    4.834868    0.000000
     0.000000    0.000000   30.000000
   V    Mo   W    S 
   3   3   3  18
Direct configuration=    24
   0.31282043  0.34251653 -0.00016551
   0.68157815 -0.01183921  0.00041177
   0.30713145 -0.02755450 -0.00012905
  -0.00280842  0.66441091  0.00008771
   0.30027790  0.65108861 -0.00007435
  -0.01420119 -0.03123307  0.00032366
   1.01163758  0.36190634 -0.00012218
   0.69809937  0.36166177 -0.00018817
   0.69775143  0.68017024 -0.00006763
   0.10734661  0.21946347  0.95203901
   0.22499789  0.11154547  0.04819017
   0.10559067  0.55776731  0.94304047
   0.22063185  0.44267281  0.05507427
   0.11314254  0.88841437  0.94577761
   0.22210860  0.78046213  0.05434450
   0.44330258  0.22321661  0.95775072
   0.55607496  0.10976024  0.04288123
   0.44708458  0.55832814  0.95296099
   0.55422512  0.44582298  0.04870254
   0.44427571  0.89033275  0.95202535