   27   27  100    1
  0.9710400E+02  0.1002848E-08  0.1002848E-08  0.3000000E-08  0.5000000E-15
  1.000000000000000E-004
  CAR 
 unknown system                          
    159     34    120
 
  0.0000000E+00  0.0000000E+00  0.0000000E+00  0.1562500E-01
    1      -17.818101   1.000000
    2      -16.621364   1.000000
    3      -16.600059   1.000000
    4      -16.468498   1.000000
    5      -16.465460   1.000000
    6      -16.449302   1.000000
    7      -16.389914   1.000000
    8      -16.313629   1.000000
    9      -16.116630   1.000000
   10      -16.063693   1.000000
   11      -16.007094   1.000000
   12      -15.971836   1.000000
   13      -15.934310   1.000000
   14      -15.872384   1.000000
   15      -15.612650   1.000000
   16      -15.538595   1.000000
   17      -15.451270   1.000000
   18      -15.421274   1.000000
   19       -9.299035   1.000000
   20       -8.908340   1.000000
   21       -8.818635   1.000000
   22       -8.757479   1.000000
   23       -8.668029   1.000000
   24       -8.637458   1.000000
   25       -8.613184   1.000000
   26       -8.517918   1.000000
   27       -8.498960   1.000000
   28       -8.408040   1.000000
   29       -8.391820   1.000000
   30       -8.300680   1.000000
   31       -8.268666   1.000000
   32       -8.184390   1.000000
   33       -8.148791   1.000000
   34       -8.026999   1.000000
   35       -7.935157   1.000000
   36       -7.887244   1.000000
   37       -7.723032   1.000000
   38       -7.621225   1.000000
   39       -7.515804   1.000000
   40       -7.386215   1.000000
   41       -7.350647   1.000000
   42       -7.233453   1.000000
   43       -7.213269   1.000000
   44       -6.853165   1.000000
   45       -6.815871   1.000000
   46       -6.742630   1.000000
   47       -6.718143   1.000000
   48       -6.656860   1.000000
   49       -6.557439   1.000000
   50       -6.523996   1.000000
   51       -6.461128   1.000000
   52       -6.382598   1.000000
   53       -6.318138   1.000000
   54       -6.260278   1.000000
   55       -6.233169   1.000000
   56       -6.131969   1.000000
   57       -6.055245   1.000000
   58       -5.851437   1.000000
   59       -5.604659   1.000000
   60       -5.599143   1.000000
   61       -5.481697   1.000000
   62       -5.421945   1.000000
   63       -5.360847   1.000000
   64       -5.258876   1.000000
   65       -4.965397   1.000000
   66       -4.917429   1.000000
   67       -4.790322   1.000000
   68       -4.732801   1.000000
   69       -4.646851   1.000000
   70       -4.572623   1.000000
   71       -4.560237   1.000000
   72       -4.491730   1.000000
   73       -4.441178   1.000000
   74       -4.302753   1.000000
   75       -4.148610   1.000000
   76       -4.049904   1.000000
   77       -3.534637   0.999785
   78       -3.496377   0.999423
   79       -3.427329   0.997126
   80       -3.111062   0.700358
   81       -3.029407   0.479280
   82       -2.676817   0.005462
   83       -2.577180   0.000578
   84       -2.497787   0.000069
   85       -2.476604   0.000037
   86       -2.452507   0.000018
   87       -2.260398   0.000000
   88       -2.168577   0.000000
   89       -2.041529   0.000000
   90       -1.985605   0.000000
   91       -1.856339   0.000000
   92       -1.831409   0.000000
   93       -1.711184   0.000000
   94       -1.633691   0.000000
   95       -1.386996   0.000000
   96       -1.254827   0.000000
   97       -1.094767   0.000000
   98       -1.013873   0.000000
   99       -0.916715   0.000000
  100       -0.435641   0.000000
  101       -0.358229   0.000000
  102       -0.319066   0.000000
  103       -0.278876   0.000000
  104       -0.222505   0.000000
  105       -0.125886   0.000000
  106        0.120317   0.000000
  107        0.261732   0.000000
  108        0.305218   0.000000
  109        0.335176   0.000000
  110        0.395694   0.000000
  111        0.414194   0.000000
  112        0.712127   0.000000
  113        0.808738   0.000000
  114        0.869109   0.000000
  115        0.946059   0.000000
  116        0.997273   0.000000
  117        1.020395   0.000000
  118        1.680674   0.000000
  119        1.836394   0.000000
  120        2.187444   0.000000
 
  0.1250000E+00  0.2775558E-16  0.0000000E+00  0.3125000E-01
    1      -17.792222   1.000000
    2      -16.727571   1.000000
    3      -16.624803   1.000000
    4      -16.560979   1.000000
    5      -16.496306   1.000000
    6      -16.370650   1.000000
    7      -16.319528   1.000000
    8      -16.270839   1.000000
    9      -16.144452   1.000000
   10      -16.056648   1.000000
   11      -16.009391   1.000000
   12      -15.954863   1.000000
   13      -15.899956   1.000000
   14      -15.799890   1.000000
   15      -15.628104   1.000000
   16      -15.562894   1.000000
   17      -15.449809   1.000000
   18      -15.433148   1.000000
   19       -9.291674   1.000000
   20       -9.094367   1.000000
   21       -8.911269   1.000000
   22       -8.857645   1.000000
   23       -8.758618   1.000000
   24       -8.697525   1.000000
   25       -8.602181   1.000000
   26       -8.548098   1.000000
   27       -8.478976   1.000000
   28       -8.408833   1.000000
   29       -8.367509   1.000000
   30       -8.231106   1.000000
   31       -8.192892   1.000000
   32       -8.136070   1.000000
   33       -8.016610   1.000000
   34       -7.914107   1.000000
   35       -7.817584   1.000000
   36       -7.768806   1.000000
   37       -7.680631   1.000000
   38       -7.575225   1.000000
   39       -7.529457   1.000000
   40       -7.465461   1.000000
   41       -7.317519   1.000000
   42       -7.218622   1.000000
   43       -7.162954   1.000000
   44       -6.937709   1.000000
   45       -6.896882   1.000000
   46       -6.750393   1.000000
   47       -6.727155   1.000000
   48       -6.659329   1.000000
   49       -6.591994   1.000000
   50       -6.490968   1.000000
   51       -6.436473   1.000000
   52       -6.378478   1.000000
   53       -6.325382   1.000000
   54       -6.284236   1.000000
   55       -6.235265   1.000000
   56       -6.153164   1.000000
   57       -6.044435   1.000000
   58       -5.796273   1.000000
   59       -5.696637   1.000000
   60       -5.526313   1.000000
   61       -5.480452   1.000000
   62       -5.391693   1.000000
   63       -5.259759   1.000000
   64       -5.139666   1.000000
   65       -5.113754   1.000000
   66       -5.038416   1.000000
   67       -4.990716   1.000000
   68       -4.914400   1.000000
   69       -4.724435   1.000000
   70       -4.671873   1.000000
   71       -4.600473   1.000000
   72       -4.330143   1.000000
   73       -4.239659   1.000000
   74       -4.164311   1.000000
   75       -4.027120   1.000000
   76       -3.890324   1.000000
   77       -3.743124   1.000000
   78       -3.626885   0.999985
   79       -3.468967   0.998879
   80       -3.017999   0.447244
   81       -2.894424   0.157103
   82       -2.708103   0.010065
   83       -2.585321   0.000706
   84       -2.555281   0.000331
   85       -2.467469   0.000028
   86       -2.447140   0.000015
   87       -2.271370   0.000000
   88       -2.222643   0.000000
   89       -2.092950   0.000000
   90       -2.050349   0.000000
   91       -1.850051   0.000000
   92       -1.779176   0.000000
   93       -1.633125   0.000000
   94       -1.562506   0.000000
   95       -1.364626   0.000000
   96       -1.234855   0.000000
   97       -1.102222   0.000000
   98       -0.988915   0.000000
   99       -0.889972   0.000000
  100       -0.490557   0.000000
  101       -0.448585   0.000000
  102       -0.401421   0.000000
  103       -0.379801   0.000000
  104       -0.244048   0.000000
  105       -0.107113   0.000000
  106        0.035332   0.000000
  107        0.092402   0.000000
  108        0.257174   0.000000
  109        0.280109   0.000000
  110        0.378486   0.000000
  111        0.477557   0.000000
  112        0.756960   0.000000
  113        0.786365   0.000000
  114        0.930439   0.000000
  115        1.011337   0.000000
  116        1.058489   0.000000
  117        1.121254   0.000000
  118        1.723986   0.000000
  119        1.875390   0.000000
  120        2.222878   0.000000
 
  0.2500000E+00  0.5551115E-16  0.0000000E+00  0.3125000E-01
    1      -17.716004   1.000000
    2      -16.953043   1.000000
    3      -16.667731   1.000000
    4      -16.608615   1.000000
    5      -16.521899   1.000000
    6      -16.321778   1.000000
    7      -16.254911   1.000000
    8      -16.232936   1.000000
    9      -16.131161   1.000000
   10      -16.063820   1.000000
   11      -16.008120   1.000000
   12      -15.880612   1.000000
   13      -15.827126   1.000000
   14      -15.711780   1.000000
   15      -15.632476   1.000000
   16      -15.609480   1.000000
   17      -15.467063   1.000000
   18      -15.459225   1.000000
   19       -9.467180   1.000000
   20       -9.240006   1.000000
   21       -9.017608   1.000000
   22       -8.973754   1.000000
   23       -8.905565   1.000000
   24       -8.837080   1.000000
   25       -8.562102   1.000000
   26       -8.527312   1.000000
   27       -8.426211   1.000000
   28       -8.356210   1.000000
   29       -8.296968   1.000000
   30       -8.229036   1.000000
   31       -8.168988   1.000000
   32       -8.076181   1.000000
   33       -7.876273   1.000000
   34       -7.773035   1.000000
   35       -7.715236   1.000000
   36       -7.635102   1.000000
   37       -7.597668   1.000000
   38       -7.531647   1.000000
   39       -7.436797   1.000000
   40       -7.320288   1.000000
   41       -7.230907   1.000000
   42       -7.144368   1.000000
   43       -7.071681   1.000000
   44       -7.016914   1.000000
   45       -6.963392   1.000000
   46       -6.826932   1.000000
   47       -6.753531   1.000000
   48       -6.663046   1.000000
   49       -6.631552   1.000000
   50       -6.545643   1.000000
   51       -6.466000   1.000000
   52       -6.373908   1.000000
   53       -6.305762   1.000000
   54       -6.264693   1.000000
   55       -6.141798   1.000000
   56       -6.125094   1.000000
   57       -6.004202   1.000000
   58       -5.802195   1.000000
   59       -5.675599   1.000000
   60       -5.580445   1.000000
   61       -5.513742   1.000000
   62       -5.459359   1.000000
   63       -5.406949   1.000000
   64       -5.315567   1.000000
   65       -5.226768   1.000000
   66       -5.154845   1.000000
   67       -5.050744   1.000000
   68       -4.947739   1.000000
   69       -4.708316   1.000000
   70       -4.666596   1.000000
   71       -4.643648   1.000000
   72       -4.273393   1.000000
   73       -4.099855   1.000000
   74       -4.047922   1.000000
   75       -3.942210   1.000000
   76       -3.899990   1.000000
   77       -3.773144   1.000000
   78       -3.617851   0.999980
   79       -3.435936   0.997618
   80       -2.973600   0.327592
   81       -2.817056   0.060151
   82       -2.717875   0.012072
   83       -2.637150   0.002359
   84       -2.557238   0.000349
   85       -2.478340   0.000039
   86       -2.431077   0.000009
   87       -2.344317   0.000000
   88       -2.272197   0.000000
   89       -2.169720   0.000000
   90       -2.125409   0.000000
   91       -1.826713   0.000000
   92       -1.735450   0.000000
   93       -1.522456   0.000000
   94       -1.434221   0.000000
   95       -1.298241   0.000000
   96       -1.185241   0.000000
   97       -1.096683   0.000000
   98       -0.943597   0.000000
   99       -0.852679   0.000000
  100       -0.651511   0.000000
  101       -0.593693   0.000000
  102       -0.558518   0.000000
  103       -0.488243   0.000000
  104       -0.355083   0.000000
  105       -0.226755   0.000000
  106       -0.108705   0.000000
  107       -0.066098   0.000000
  108        0.072083   0.000000
  109        0.162952   0.000000
  110        0.355073   0.000000
  111        0.527436   0.000000
  112        0.712720   0.000000
  113        0.882686   0.000000
  114        1.014639   0.000000
  115        1.132403   0.000000
  116        1.242928   0.000000
  117        1.308077   0.000000
  118        1.845802   0.000000
  119        1.988818   0.000000
  120        2.328138   0.000000
 
  0.3750000E+00  0.0000000E+00  0.0000000E+00  0.3125000E-01
    1      -17.596013   1.000000
    2      -17.177911   1.000000
    3      -16.712678   1.000000
    4      -16.637861   1.000000
    5      -16.496612   1.000000
    6      -16.379390   1.000000
    7      -16.217658   1.000000
    8      -16.172281   1.000000
    9      -16.111219   1.000000
   10      -16.046229   1.000000
   11      -15.954815   1.000000
   12      -15.827130   1.000000
   13      -15.785857   1.000000
   14      -15.729992   1.000000
   15      -15.663535   1.000000
   16      -15.543266   1.000000
   17      -15.494309   1.000000
   18      -15.485755   1.000000
   19       -9.703292   1.000000
   20       -9.284404   1.000000
   21       -9.114224   1.000000
   22       -9.014543   1.000000
   23       -8.947323   1.000000
   24       -8.919410   1.000000
   25       -8.510716   1.000000
   26       -8.490884   1.000000
   27       -8.406468   1.000000
   28       -8.311537   1.000000
   29       -8.266668   1.000000
   30       -8.249809   1.000000
   31       -8.156566   1.000000
   32       -8.005718   1.000000
   33       -7.882804   1.000000
   34       -7.809441   1.000000
   35       -7.701556   1.000000
   36       -7.606629   1.000000
   37       -7.546451   1.000000
   38       -7.436528   1.000000
   39       -7.324763   1.000000
   40       -7.238970   1.000000
   41       -7.170940   1.000000
   42       -7.091162   1.000000
   43       -7.036932   1.000000
   44       -6.915712   1.000000
   45       -6.866700   1.000000
   46       -6.789159   1.000000
   47       -6.687574   1.000000
   48       -6.645605   1.000000
   49       -6.594953   1.000000
   50       -6.570524   1.000000
   51       -6.400916   1.000000
   52       -6.320126   1.000000
   53       -6.242582   1.000000
   54       -6.230456   1.000000
   55       -6.112544   1.000000
   56       -5.967047   1.000000
   57       -5.927781   1.000000
   58       -5.889643   1.000000
   59       -5.865869   1.000000
   60       -5.770801   1.000000
   61       -5.706304   1.000000
   62       -5.677072   1.000000
   63       -5.654399   1.000000
   64       -5.564130   1.000000
   65       -5.189613   1.000000
   66       -5.031998   1.000000
   67       -4.933174   1.000000
   68       -4.868924   1.000000
   69       -4.772501   1.000000
   70       -4.681962   1.000000
   71       -4.629932   1.000000
   72       -4.582022   1.000000
   73       -4.190401   1.000000
   74       -3.994787   1.000000
   75       -3.873503   1.000000
   76       -3.725362   0.999999
   77       -3.594253   0.999960
   78       -3.497640   0.999441
   79       -3.312247   0.974294
   80       -2.996150   0.387010
   81       -2.963924   0.303279
   82       -2.732325   0.015673
   83       -2.607211   0.001193
   84       -2.578775   0.000601
   85       -2.456881   0.000021
   86       -2.437805   0.000011
   87       -2.368588   0.000001
   88       -2.272649   0.000000
   89       -2.222992   0.000000
   90       -2.150203   0.000000
   91       -1.803132   0.000000
   92       -1.721171   0.000000
   93       -1.454467   0.000000
   94       -1.383500   0.000000
   95       -1.228875   0.000000
   96       -1.144767   0.000000
   97       -1.054761   0.000000
   98       -0.935070   0.000000
   99       -0.877157   0.000000
  100       -0.740022   0.000000
  101       -0.677859   0.000000
  102       -0.645321   0.000000
  103       -0.582301   0.000000
  104       -0.488125   0.000000
  105       -0.394891   0.000000
  106       -0.268713   0.000000
  107       -0.175407   0.000000
  108       -0.048058   0.000000
  109        0.064645   0.000000
  110        0.308747   0.000000
  111        0.566831   0.000000
  112        0.680257   0.000000
  113        0.975467   0.000000
  114        1.058225   0.000000
  115        1.253048   0.000000
  116        1.397549   0.000000
  117        1.449576   0.000000
  118        2.030876   0.000000
  119        2.168332   0.000000
  120        2.500155   0.000000
 
  0.5000000E+00  0.1110223E-15  0.0000000E+00  0.1562500E-01
    1      -17.489669   1.000000
    2      -17.321037   1.000000
    3      -16.728704   1.000000
    4      -16.649712   1.000000
    5      -16.457999   1.000000
    6      -16.428795   1.000000
    7      -16.216682   1.000000
    8      -16.161577   1.000000
    9      -16.072842   1.000000
   10      -16.037477   1.000000
   11      -15.920067   1.000000
   12      -15.824516   1.000000
   13      -15.792868   1.000000
   14      -15.718161   1.000000
   15      -15.676475   1.000000
   16      -15.530723   1.000000
   17      -15.528039   1.000000
   18      -15.462273   1.000000
   19       -9.789314   1.000000
   20       -9.310619   1.000000
   21       -9.152495   1.000000
   22       -9.046312   1.000000
   23       -8.985312   1.000000
   24       -8.845131   1.000000
   25       -8.565637   1.000000
   26       -8.471951   1.000000
   27       -8.403418   1.000000
   28       -8.308755   1.000000
   29       -8.257211   1.000000
   30       -8.189056   1.000000
   31       -8.144825   1.000000
   32       -7.967479   1.000000
   33       -7.896512   1.000000
   34       -7.821940   1.000000
   35       -7.741660   1.000000
   36       -7.645698   1.000000
   37       -7.548700   1.000000
   38       -7.379121   1.000000
   39       -7.343962   1.000000
   40       -7.307953   1.000000
   41       -7.106188   1.000000
   42       -7.009722   1.000000
   43       -6.954655   1.000000
   44       -6.850994   1.000000
   45       -6.831757   1.000000
   46       -6.720822   1.000000
   47       -6.669332   1.000000
   48       -6.627473   1.000000
   49       -6.507356   1.000000
   50       -6.440670   1.000000
   51       -6.406748   1.000000
   52       -6.385248   1.000000
   53       -6.291759   1.000000
   54       -6.184415   1.000000
   55       -6.094541   1.000000
   56       -6.058163   1.000000
   57       -5.994436   1.000000
   58       -5.849499   1.000000
   59       -5.808995   1.000000
   60       -5.781822   1.000000
   61       -5.746952   1.000000
   62       -5.727439   1.000000
   63       -5.657745   1.000000
   64       -5.586075   1.000000
   65       -5.540419   1.000000
   66       -4.985349   1.000000
   67       -4.975657   1.000000
   68       -4.850746   1.000000
   69       -4.820429   1.000000
   70       -4.690737   1.000000
   71       -4.615386   1.000000
   72       -4.481002   1.000000
   73       -4.352301   1.000000
   74       -3.963775   1.000000
   75       -3.790834   1.000000
   76       -3.652908   0.999993
   77       -3.534564   0.999784
   78       -3.452219   0.998347
   79       -3.234833   0.919336
   80       -3.048980   0.534443
   81       -2.999369   0.395751
   82       -2.741039   0.018263
   83       -2.672097   0.004961
   84       -2.585408   0.000708
   85       -2.450113   0.000017
   86       -2.416484   0.000006
   87       -2.341679   0.000000
   88       -2.275898   0.000000
   89       -2.230544   0.000000
   90       -2.158666   0.000000
   91       -1.792220   0.000000
   92       -1.719625   0.000000
   93       -1.416410   0.000000
   94       -1.395820   0.000000
   95       -1.211603   0.000000
   96       -1.145874   0.000000
   97       -1.021066   0.000000
   98       -0.948280   0.000000
   99       -0.905812   0.000000
  100       -0.741358   0.000000
  101       -0.687745   0.000000
  102       -0.650452   0.000000
  103       -0.604586   0.000000
  104       -0.570927   0.000000
  105       -0.465504   0.000000
  106       -0.362879   0.000000
  107       -0.208458   0.000000
  108       -0.093588   0.000000
  109        0.037604   0.000000
  110        0.289283   0.000000
  111        0.580286   0.000000
  112        0.670302   0.000000
  113        1.009118   0.000000
  114        1.075387   0.000000
  115        1.299988   0.000000
  116        1.453497   0.000000
  117        1.496905   0.000000
  118        2.258050   0.000000
  119        2.279046   0.000000
  120        2.395524   0.000000
 
  0.0000000E+00  0.1250000E+00  0.0000000E+00  0.3125000E-01
    1      -17.792202   1.000000
    2      -16.716020   1.000000
    3      -16.621558   1.000000
    4      -16.570309   1.000000
    5      -16.512785   1.000000
    6      -16.382590   1.000000
    7      -16.297016   1.000000
    8      -16.249589   1.000000
    9      -16.179494   1.000000
   10      -16.055278   1.000000
   11      -16.003220   1.000000
   12      -15.937062   1.000000
   13      -15.909085   1.000000
   14      -15.804464   1.000000
   15      -15.625769   1.000000
   16      -15.553087   1.000000
   17      -15.472050   1.000000
   18      -15.420167   1.000000
   19       -9.283937   1.000000
   20       -9.102486   1.000000
   21       -8.949295   1.000000
   22       -8.854652   1.000000
   23       -8.767889   1.000000
   24       -8.687889   1.000000
   25       -8.582499   1.000000
   26       -8.507340   1.000000
   27       -8.467281   1.000000
   28       -8.398623   1.000000
   29       -8.357362   1.000000
   30       -8.257575   1.000000
   31       -8.197748   1.000000
   32       -8.112586   1.000000
   33       -8.050593   1.000000
   34       -7.956604   1.000000
   35       -7.836557   1.000000
   36       -7.732829   1.000000
   37       -7.674695   1.000000
   38       -7.607636   1.000000
   39       -7.529870   1.000000
   40       -7.435802   1.000000
   41       -7.278826   1.000000
   42       -7.238596   1.000000
   43       -7.189218   1.000000
   44       -6.914583   1.000000
   45       -6.841165   1.000000
   46       -6.808903   1.000000
   47       -6.759468   1.000000
   48       -6.668011   1.000000
   49       -6.602602   1.000000
   50       -6.471661   1.000000
   51       -6.412147   1.000000
   52       -6.373504   1.000000
   53       -6.333110   1.000000
   54       -6.261129   1.000000
   55       -6.208665   1.000000
   56       -6.171156   1.000000
   57       -6.082016   1.000000
   58       -5.790892   1.000000
   59       -5.683935   1.000000
   60       -5.540454   1.000000
   61       -5.479152   1.000000
   62       -5.364666   1.000000
   63       -5.287468   1.000000
   64       -5.160457   1.000000
   65       -5.125183   1.000000
   66       -5.041782   1.000000
   67       -4.980825   1.000000
   68       -4.865933   1.000000
   69       -4.754940   1.000000
   70       -4.624883   1.000000
   71       -4.567799   1.000000
   72       -4.364586   1.000000
   73       -4.261798   1.000000
   74       -4.221457   1.000000
   75       -4.018145   1.000000
   76       -3.856765   1.000000
   77       -3.717914   0.999999
   78       -3.631973   0.999987
   79       -3.494773   0.999400
   80       -2.978732   0.340798
   81       -2.919556   0.203630
   82       -2.731339   0.015401
   83       -2.611524   0.001320
   84       -2.563158   0.000406
   85       -2.465131   0.000026
   86       -2.400149   0.000003
   87       -2.289726   0.000000
   88       -2.209248   0.000000
   89       -2.098387   0.000000
   90       -1.999265   0.000000
   91       -1.870616   0.000000
   92       -1.761515   0.000000
   93       -1.644839   0.000000
   94       -1.600371   0.000000
   95       -1.369403   0.000000
   96       -1.227611   0.000000
   97       -1.100265   0.000000
   98       -0.978695   0.000000
   99       -0.877435   0.000000
  100       -0.509544   0.000000
  101       -0.447310   0.000000
  102       -0.411595   0.000000
  103       -0.346460   0.000000
  104       -0.206014   0.000000
  105       -0.102431   0.000000
  106       -0.020188   0.000000
  107        0.144254   0.000000
  108        0.226582   0.000000
  109        0.278445   0.000000
  110        0.361307   0.000000
  111        0.452327   0.000000
  112        0.729129   0.000000
  113        0.858711   0.000000
  114        0.960615   0.000000
  115        1.004983   0.000000
  116        1.044864   0.000000
  117        1.088220   0.000000
  118        1.723793   0.000000
  119        1.875544   0.000000
  120        2.222984   0.000000
 
  0.1250000E+00  0.1250000E+00  0.0000000E+00  0.3125000E-01
    1      -17.741400   1.000000
    2      -16.836723   1.000000
    3      -16.766506   1.000000
    4      -16.582182   1.000000
    5      -16.404105   1.000000
    6      -16.397342   1.000000
    7      -16.292324   1.000000
    8      -16.217359   1.000000
    9      -16.160102   1.000000
   10      -16.052858   1.000000
   11      -16.000490   1.000000
   12      -15.947389   1.000000
   13      -15.800959   1.000000
   14      -15.720333   1.000000
   15      -15.642237   1.000000
   16      -15.594523   1.000000
   17      -15.487336   1.000000
   18      -15.432923   1.000000
   19       -9.328604   1.000000
   20       -9.291684   1.000000
   21       -9.107463   1.000000
   22       -8.937914   1.000000
   23       -8.792875   1.000000
   24       -8.759989   1.000000
   25       -8.567351   1.000000
   26       -8.482810   1.000000
   27       -8.436972   1.000000
   28       -8.375943   1.000000
   29       -8.319842   1.000000
   30       -8.213083   1.000000
   31       -8.202880   1.000000
   32       -8.136677   1.000000
   33       -7.951403   1.000000
   34       -7.860790   1.000000
   35       -7.775041   1.000000
   36       -7.685961   1.000000
   37       -7.518886   1.000000
   38       -7.435279   1.000000
   39       -7.399539   1.000000
   40       -7.328290   1.000000
   41       -7.305657   1.000000
   42       -7.228418   1.000000
   43       -7.163429   1.000000
   44       -6.989915   1.000000
   45       -6.922445   1.000000
   46       -6.848042   1.000000
   47       -6.788366   1.000000
   48       -6.677887   1.000000
   49       -6.630456   1.000000
   50       -6.512965   1.000000
   51       -6.441658   1.000000
   52       -6.353017   1.000000
   53       -6.306224   1.000000
   54       -6.231346   1.000000
   55       -6.198061   1.000000
   56       -6.141910   1.000000
   57       -6.027300   1.000000
   58       -5.797188   1.000000
   59       -5.642941   1.000000
   60       -5.602200   1.000000
   61       -5.437140   1.000000
   62       -5.397712   1.000000
   63       -5.322192   1.000000
   64       -5.281317   1.000000
   65       -5.204489   1.000000
   66       -5.072178   1.000000
   67       -5.029409   1.000000
   68       -4.998937   1.000000
   69       -4.944471   1.000000
   70       -4.666071   1.000000
   71       -4.467603   1.000000
   72       -4.287319   1.000000
   73       -4.091005   1.000000
   74       -4.043017   1.000000
   75       -3.980509   1.000000
   76       -3.912050   1.000000
   77       -3.870755   1.000000
   78       -3.646726   0.999992
   79       -3.393795   0.994209
   80       -2.929751   0.224634
   81       -2.860263   0.106018
   82       -2.719986   0.012549
   83       -2.695977   0.007983
   84       -2.576356   0.000566
   85       -2.483029   0.000045
   86       -2.376210   0.000002
   87       -2.287816   0.000000
   88       -2.268202   0.000000
   89       -2.210760   0.000000
   90       -2.065404   0.000000
   91       -1.852931   0.000000
   92       -1.725060   0.000000
   93       -1.587794   0.000000
   94       -1.452138   0.000000
   95       -1.313772   0.000000
   96       -1.187808   0.000000
   97       -1.099950   0.000000
   98       -0.938452   0.000000
   99       -0.848350   0.000000
  100       -0.621634   0.000000
  101       -0.580579   0.000000
  102       -0.477473   0.000000
  103       -0.435990   0.000000
  104       -0.296723   0.000000
  105       -0.175530   0.000000
  106       -0.086839   0.000000
  107        0.014235   0.000000
  108        0.082214   0.000000
  109        0.145004   0.000000
  110        0.350369   0.000000
  111        0.447791   0.000000
  112        0.804743   0.000000
  113        0.830029   0.000000
  114        1.039236   0.000000
  115        1.114501   0.000000
  116        1.170838   0.000000
  117        1.235881   0.000000
  118        1.806663   0.000000
  119        1.951282   0.000000
  120        2.293684   0.000000
 
  0.2500000E+00  0.1250000E+00  0.0000000E+00  0.3125000E-01
    1      -17.642864   1.000000
    2      -17.050838   1.000000
    3      -16.864176   1.000000
    4      -16.546077   1.000000
    5      -16.424462   1.000000
    6      -16.357040   1.000000
    7      -16.252714   1.000000
    8      -16.185041   1.000000
    9      -16.155859   1.000000
   10      -16.043223   1.000000
   11      -15.967370   1.000000
   12      -15.924263   1.000000
   13      -15.745560   1.000000
   14      -15.694023   1.000000
   15      -15.636449   1.000000
   16      -15.577489   1.000000
   17      -15.529533   1.000000
   18      -15.444935   1.000000
   19       -9.583949   1.000000
   20       -9.403151   1.000000
   21       -9.178514   1.000000
   22       -9.000879   1.000000
   23       -8.841290   1.000000
   24       -8.744672   1.000000
   25       -8.519994   1.000000
   26       -8.467065   1.000000
   27       -8.395110   1.000000
   28       -8.320048   1.000000
   29       -8.300077   1.000000
   30       -8.209775   1.000000
   31       -8.182102   1.000000
   32       -8.101483   1.000000
   33       -7.979358   1.000000
   34       -7.887617   1.000000
   35       -7.825698   1.000000
   36       -7.502538   1.000000
   37       -7.475898   1.000000
   38       -7.326615   1.000000
   39       -7.294359   1.000000
   40       -7.264804   1.000000
   41       -7.210368   1.000000
   42       -7.136625   1.000000
   43       -7.072636   1.000000
   44       -7.000720   1.000000
   45       -6.886133   1.000000
   46       -6.792649   1.000000
   47       -6.722795   1.000000