   27   27  100    1
  0.9710400E+02  0.1002848E-08  0.1002848E-08  0.3000000E-08  0.5000000E-15
  1.000000000000000E-004
  CAR 
 unknown system                          
    159     34    120
 
  0.0000000E+00  0.0000000E+00  0.0000000E+00  0.1562500E-01
    1      -17.812748   1.000000
    2      -16.740070   1.000000
    3      -16.651800   1.000000
    4      -16.603823   1.000000
    5      -16.514415   1.000000
    6      -16.462205   1.000000
    7      -16.425324   1.000000
    8      -16.322105   1.000000
    9      -16.169406   1.000000
   10      -16.110814   1.000000
   11      -16.051806   1.000000
   12      -15.925584   1.000000
   13      -15.893692   1.000000
   14      -15.707901   1.000000
   15      -15.516831   1.000000
   16      -15.499552   1.000000
   17      -15.355190   1.000000
   18      -15.322317   1.000000
   19       -9.329151   1.000000
   20       -9.020068   1.000000
   21       -8.956964   1.000000
   22       -8.843160   1.000000
   23       -8.755435   1.000000
   24       -8.696575   1.000000
   25       -8.636679   1.000000
   26       -8.619825   1.000000
   27       -8.475237   1.000000
   28       -8.430616   1.000000
   29       -8.415545   1.000000
   30       -8.291667   1.000000
   31       -8.239542   1.000000
   32       -8.185531   1.000000
   33       -8.168027   1.000000
   34       -7.976444   1.000000
   35       -7.873129   1.000000
   36       -7.810673   1.000000
   37       -7.674873   1.000000
   38       -7.515368   1.000000
   39       -7.459491   1.000000
   40       -7.439407   1.000000
   41       -7.346118   1.000000
   42       -7.199514   1.000000
   43       -7.135425   1.000000
   44       -6.900445   1.000000
   45       -6.845782   1.000000
   46       -6.784030   1.000000
   47       -6.740418   1.000000
   48       -6.697704   1.000000
   49       -6.566720   1.000000
   50       -6.494499   1.000000
   51       -6.457726   1.000000
   52       -6.376513   1.000000
   53       -6.323550   1.000000
   54       -6.274698   1.000000
   55       -6.153992   1.000000
   56       -6.089142   1.000000
   57       -5.995474   1.000000
   58       -5.926691   1.000000
   59       -5.761942   1.000000
   60       -5.591346   1.000000
   61       -5.488648   1.000000
   62       -5.474251   1.000000
   63       -5.200117   1.000000
   64       -5.125658   1.000000
   65       -5.056750   1.000000
   66       -5.027726   1.000000
   67       -4.931081   1.000000
   68       -4.791120   1.000000
   69       -4.756785   1.000000
   70       -4.723862   1.000000
   71       -4.627090   1.000000
   72       -4.584609   1.000000
   73       -4.550232   1.000000
   74       -4.322535   1.000000
   75       -4.168813   1.000000
   76       -4.039627   0.999999
   77       -3.756352   0.997862
   78       -3.632258   0.976123
   79       -3.530075   0.895625
   80       -3.396323   0.622191
   81       -3.269217   0.278422
   82       -2.831568   0.000116
   83       -2.733820   0.000006
   84       -2.608790   0.000000
   85       -2.458475   0.000000
   86       -2.374842   0.000000
   87       -2.286164   0.000000
   88       -2.186622   0.000000
   89       -2.162075   0.000000
   90       -2.064278   0.000000
   91       -1.771873   0.000000
   92       -1.485219   0.000000
   93       -1.401785   0.000000
   94       -1.345025   0.000000
   95       -1.186571   0.000000
   96       -1.119501   0.000000
   97       -1.053937   0.000000
   98       -0.874404   0.000000
   99       -0.762252   0.000000
  100       -0.674093   0.000000
  101       -0.596269   0.000000
  102       -0.504986   0.000000
  103       -0.439262   0.000000
  104       -0.399940   0.000000
  105       -0.282929   0.000000
  106       -0.110244   0.000000
  107       -0.021574   0.000000
  108        0.001654   0.000000
  109        0.139207   0.000000
  110        0.330946   0.000000
  111        0.365037   0.000000
  112        0.474167   0.000000
  113        0.558267   0.000000
  114        0.776372   0.000000
  115        0.844357   0.000000
  116        1.111029   0.000000
  117        1.386161   0.000000
  118        1.643439   0.000000
  119        1.834303   0.000000
  120        2.150527   0.000000
 
  0.1250000E+00  0.2775558E-16  0.0000000E+00  0.3125000E-01
    1      -17.788077   1.000000
    2      -16.791476   1.000000
    3      -16.723637   1.000000
    4      -16.639467   1.000000
    5      -16.519161   1.000000
    6      -16.445913   1.000000
    7      -16.368887   1.000000
    8      -16.308309   1.000000
    9      -16.190730   1.000000
   10      -16.073303   1.000000
   11      -16.004528   1.000000
   12      -15.911966   1.000000
   13      -15.869570   1.000000
   14      -15.721958   1.000000
   15      -15.535263   1.000000
   16      -15.497748   1.000000
   17      -15.355554   1.000000
   18      -15.329139   1.000000
   19       -9.331785   1.000000
   20       -9.151761   1.000000
   21       -9.053442   1.000000
   22       -8.928329   1.000000
   23       -8.803742   1.000000
   24       -8.727062   1.000000
   25       -8.667141   1.000000
   26       -8.549016   1.000000
   27       -8.492588   1.000000
   28       -8.418687   1.000000
   29       -8.338266   1.000000
   30       -8.217632   1.000000
   31       -8.192569   1.000000
   32       -8.133624   1.000000
   33       -8.031805   1.000000
   34       -7.958208   1.000000
   35       -7.810877   1.000000
   36       -7.753584   1.000000
   37       -7.635250   1.000000
   38       -7.551988   1.000000
   39       -7.497136   1.000000
   40       -7.470194   1.000000
   41       -7.314878   1.000000
   42       -7.193713   1.000000
   43       -7.129112   1.000000
   44       -6.992899   1.000000
   45       -6.887764   1.000000
   46       -6.813425   1.000000
   47       -6.672090   1.000000
   48       -6.617904   1.000000
   49       -6.568819   1.000000
   50       -6.520191   1.000000
   51       -6.457979   1.000000
   52       -6.371761   1.000000
   53       -6.320309   1.000000
   54       -6.270250   1.000000
   55       -6.155451   1.000000
   56       -6.090736   1.000000
   57       -6.005109   1.000000
   58       -5.891995   1.000000
   59       -5.752655   1.000000
   60       -5.583388   1.000000
   61       -5.564159   1.000000
   62       -5.469638   1.000000
   63       -5.302910   1.000000
   64       -5.264444   1.000000
   65       -5.054787   1.000000
   66       -4.970569   1.000000
   67       -4.904162   1.000000
   68       -4.884468   1.000000
   69       -4.723398   1.000000
   70       -4.678039   1.000000
   71       -4.617112   1.000000
   72       -4.548549   1.000000
   73       -4.496170   1.000000
   74       -4.265985   1.000000
   75       -4.133593   1.000000
   76       -4.083469   1.000000
   77       -3.820564   0.999535
   78       -3.711597   0.994466
   79       -3.573933   0.941458
   80       -3.330746   0.439413
   81       -3.248824   0.232166
   82       -2.802234   0.000050
   83       -2.699177   0.000002
   84       -2.597855   0.000000
   85       -2.456811   0.000000
   86       -2.364364   0.000000
   87       -2.256573   0.000000
   88       -2.169894   0.000000
   89       -2.141694   0.000000
   90       -2.050766   0.000000
   91       -1.770925   0.000000
   92       -1.503576   0.000000
   93       -1.410835   0.000000
   94       -1.333573   0.000000
   95       -1.190596   0.000000
   96       -1.121531   0.000000
   97       -1.055254   0.000000
   98       -0.887608   0.000000
   99       -0.811387   0.000000
  100       -0.758471   0.000000
  101       -0.618180   0.000000
  102       -0.575667   0.000000
  103       -0.495664   0.000000
  104       -0.442243   0.000000
  105       -0.272952   0.000000
  106       -0.117116   0.000000
  107       -0.034349   0.000000
  108        0.005329   0.000000
  109        0.109583   0.000000
  110        0.286464   0.000000
  111        0.360415   0.000000
  112        0.466522   0.000000
  113        0.712257   0.000000
  114        0.787263   0.000000
  115        0.866516   0.000000
  116        1.118188   0.000000
  117        1.352092   0.000000
  118        1.685246   0.000000
  119        1.874581   0.000000
  120        2.185331   0.000000
 
  0.2500000E+00  0.5551115E-16  0.0000000E+00  0.3125000E-01
    1      -17.715563   1.000000
    2      -16.994787   1.000000
    3      -16.732124   1.000000
    4      -16.682206   1.000000
    5      -16.582063   1.000000
    6      -16.415953   1.000000
    7      -16.317941   1.000000
    8      -16.245545   1.000000
    9      -16.178103   1.000000
   10      -16.052618   1.000000
   11      -15.936918   1.000000
   12      -15.866651   1.000000
   13      -15.813968   1.000000
   14      -15.731171   1.000000
   15      -15.580259   1.000000
   16      -15.495409   1.000000
   17      -15.362892   1.000000
   18      -15.343998   1.000000
   19       -9.496033   1.000000
   20       -9.263583   1.000000
   21       -9.160241   1.000000
   22       -9.039012   1.000000
   23       -8.922667   1.000000
   24       -8.751643   1.000000
   25       -8.607731   1.000000
   26       -8.543403   1.000000
   27       -8.454236   1.000000
   28       -8.381185   1.000000
   29       -8.272806   1.000000
   30       -8.212349   1.000000
   31       -8.121671   1.000000
   32       -8.029802   1.000000
   33       -7.882083   1.000000
   34       -7.825121   1.000000
   35       -7.779592   1.000000
   36       -7.689018   1.000000
   37       -7.578448   1.000000
   38       -7.552699   1.000000
   39       -7.461264   1.000000
   40       -7.436287   1.000000
   41       -7.281587   1.000000
   42       -7.219316   1.000000
   43       -7.087544   1.000000
   44       -7.047352   1.000000
   45       -6.893805   1.000000
   46       -6.823129   1.000000
   47       -6.648842   1.000000
   48       -6.622721   1.000000
   49       -6.553518   1.000000
   50       -6.533228   1.000000
   51       -6.424863   1.000000
   52       -6.353995   1.000000
   53       -6.291423   1.000000
   54       -6.212537   1.000000
   55       -6.155481   1.000000
   56       -6.125616   1.000000
   57       -5.954906   1.000000
   58       -5.888597   1.000000
   59       -5.762609   1.000000
   60       -5.709580   1.000000
   61       -5.613609   1.000000
   62       -5.563812   1.000000
   63       -5.502891   1.000000
   64       -5.385915   1.000000
   65       -5.203028   1.000000
   66       -4.938781   1.000000
   67       -4.834189   1.000000
   68       -4.807830   1.000000
   69       -4.727957   1.000000
   70       -4.635713   1.000000
   71       -4.543614   1.000000
   72       -4.491487   1.000000
   73       -4.419199   1.000000
   74       -4.296618   1.000000
   75       -4.186673   1.000000
   76       -4.045224   1.000000
   77       -3.915857   0.999966
   78       -3.814136   0.999454
   79       -3.588566   0.952600
   80       -3.307256   0.375031
   81       -3.188096   0.122791
   82       -2.745297   0.000009
   83       -2.618652   0.000000
   84       -2.562875   0.000000
   85       -2.450173   0.000000
   86       -2.347815   0.000000
   87       -2.203902   0.000000
   88       -2.135213   0.000000
   89       -2.073451   0.000000
   90       -1.993313   0.000000
   91       -1.751105   0.000000
   92       -1.539335   0.000000
   93       -1.436685   0.000000
   94       -1.329054   0.000000
   95       -1.222062   0.000000
   96       -1.148742   0.000000
   97       -1.076268   0.000000
   98       -0.962071   0.000000
   99       -0.930544   0.000000
  100       -0.850633   0.000000
  101       -0.704679   0.000000
  102       -0.668750   0.000000
  103       -0.566848   0.000000
  104       -0.480992   0.000000
  105       -0.381808   0.000000
  106       -0.177484   0.000000
  107       -0.134434   0.000000
  108        0.031129   0.000000
  109        0.070554   0.000000
  110        0.278520   0.000000
  111        0.383112   0.000000
  112        0.465469   0.000000
  113        0.807084   0.000000
  114        0.871375   0.000000
  115        0.940450   0.000000
  116        1.152693   0.000000
  117        1.320161   0.000000
  118        1.804502   0.000000
  119        1.989347   0.000000
  120        2.288572   0.000000
 
  0.3750000E+00  0.0000000E+00  0.0000000E+00  0.3125000E-01
    1      -17.602087   1.000000
    2      -17.203249   1.000000
    3      -16.750956   1.000000
    4      -16.694729   1.000000
    5      -16.622651   1.000000
    6      -16.426452   1.000000
    7      -16.288057   1.000000
    8      -16.209472   1.000000
    9      -16.115990   1.000000
   10      -15.997143   1.000000
   11      -15.933142   1.000000
   12      -15.855463   1.000000
   13      -15.803522   1.000000
   14      -15.682392   1.000000
   15      -15.601710   1.000000
   16      -15.496082   1.000000
   17      -15.386177   1.000000
   18      -15.351791   1.000000
   19       -9.697388   1.000000
   20       -9.284734   1.000000
   21       -9.256089   1.000000
   22       -9.115237   1.000000
   23       -8.946653   1.000000
   24       -8.784616   1.000000
   25       -8.510925   1.000000
   26       -8.489672   1.000000
   27       -8.442632   1.000000
   28       -8.305009   1.000000
   29       -8.284588   1.000000
   30       -8.253334   1.000000
   31       -8.113532   1.000000
   32       -8.006689   1.000000
   33       -7.878756   1.000000
   34       -7.797819   1.000000
   35       -7.750223   1.000000
   36       -7.732335   1.000000
   37       -7.567649   1.000000
   38       -7.478708   1.000000
   39       -7.372145   1.000000
   40       -7.277576   1.000000
   41       -7.236630   1.000000
   42       -7.178710   1.000000
   43       -7.045074   1.000000
   44       -6.959367   1.000000
   45       -6.873871   1.000000
   46       -6.798913   1.000000
   47       -6.661505   1.000000
   48       -6.618869   1.000000
   49       -6.525982   1.000000
   50       -6.492479   1.000000
   51       -6.435678   1.000000
   52       -6.322354   1.000000
   53       -6.286603   1.000000
   54       -6.202698   1.000000
   55       -6.090718   1.000000
   56       -6.063513   1.000000
   57       -5.995220   1.000000
   58       -5.928089   1.000000
   59       -5.871548   1.000000
   60       -5.814743   1.000000
   61       -5.755026   1.000000
   62       -5.654612   1.000000
   63       -5.614322   1.000000
   64       -5.468900   1.000000
   65       -5.216913   1.000000
   66       -4.908114   1.000000
   67       -4.859861   1.000000
   68       -4.781648   1.000000
   69       -4.717603   1.000000
   70       -4.674538   1.000000
   71       -4.581883   1.000000
   72       -4.451525   1.000000
   73       -4.388617   1.000000
   74       -4.291028   1.000000
   75       -4.168693   1.000000
   76       -4.098129   1.000000
   77       -3.905157   0.999954
   78       -3.782771   0.998832
   79       -3.593749   0.956113
   80       -3.322638   0.416915
   81       -3.140688   0.067279
   82       -2.700874   0.000002
   83       -2.571213   0.000000
   84       -2.516083   0.000000
   85       -2.415679   0.000000
   86       -2.330331   0.000000
   87       -2.168183   0.000000
   88       -2.104929   0.000000
   89       -1.983575   0.000000
   90       -1.909651   0.000000
   91       -1.698626   0.000000
   92       -1.576390   0.000000
   93       -1.473985   0.000000
   94       -1.357145   0.000000
   95       -1.323311   0.000000
   96       -1.192490   0.000000
   97       -1.136836   0.000000
   98       -1.024731   0.000000
   99       -0.976919   0.000000
  100       -0.920291   0.000000
  101       -0.792472   0.000000
  102       -0.716491   0.000000
  103       -0.609846   0.000000
  104       -0.526230   0.000000
  105       -0.480391   0.000000
  106       -0.264132   0.000000
  107       -0.201718   0.000000
  108       -0.016021   0.000000
  109        0.052918   0.000000
  110        0.252788   0.000000
  111        0.408963   0.000000
  112        0.472849   0.000000
  113        0.845236   0.000000
  114        0.935539   0.000000
  115        0.993216   0.000000
  116        1.190320   0.000000
  117        1.371242   0.000000
  118        1.984600   0.000000
  119        2.165113   0.000000
  120        2.455382   0.000000
 
  0.5000000E+00  0.1110223E-15  0.0000000E+00  0.1562500E-01
    1      -17.503758   1.000000
    2      -17.335111   1.000000
    3      -16.761135   1.000000
    4      -16.696563   1.000000
    5      -16.634379   1.000000
    6      -16.433785   1.000000
    7      -16.282154   1.000000
    8      -16.201926   1.000000
    9      -16.059275   1.000000
   10      -15.980954   1.000000
   11      -15.940449   1.000000
   12      -15.869366   1.000000
   13      -15.784598   1.000000
   14      -15.704294   1.000000
   15      -15.565085   1.000000
   16      -15.501347   1.000000
   17      -15.401622   1.000000
   18      -15.353891   1.000000
   19       -9.771283   1.000000
   20       -9.310788   1.000000
   21       -9.280053   1.000000
   22       -9.145295   1.000000
   23       -8.930210   1.000000
   24       -8.793319   1.000000
   25       -8.479724   1.000000
   26       -8.453177   1.000000
   27       -8.444972   1.000000
   28       -8.325231   1.000000
   29       -8.266052   1.000000
   30       -8.208897   1.000000
   31       -8.127839   1.000000
   32       -7.995466   1.000000
   33       -7.937149   1.000000
   34       -7.833414   1.000000
   35       -7.798687   1.000000
   36       -7.740892   1.000000
   37       -7.492603   1.000000
   38       -7.447684   1.000000
   39       -7.388830   1.000000
   40       -7.226184   1.000000
   41       -7.138357   1.000000
   42       -7.086755   1.000000
   43       -7.055485   1.000000
   44       -6.928699   1.000000
   45       -6.914273   1.000000
   46       -6.716529   1.000000
   47       -6.663053   1.000000
   48       -6.547858   1.000000
   49       -6.521338   1.000000
   50       -6.501009   1.000000
   51       -6.430053   1.000000
   52       -6.333817   1.000000
   53       -6.287342   1.000000
   54       -6.229863   1.000000
   55       -6.154646   1.000000
   56       -6.100874   1.000000
   57       -6.016070   1.000000
   58       -5.906555   1.000000
   59       -5.871409   1.000000
   60       -5.802364   1.000000
   61       -5.785849   1.000000
   62       -5.678609   1.000000
   63       -5.579130   1.000000
   64       -5.552941   1.000000
   65       -5.184119   1.000000
   66       -5.137175   1.000000
   67       -4.864705   1.000000
   68       -4.763666   1.000000
   69       -4.697058   1.000000
   70       -4.660515   1.000000
   71       -4.585485   1.000000
   72       -4.423554   1.000000
   73       -4.349355   1.000000
   74       -4.276118   1.000000
   75       -4.194744   1.000000
   76       -4.136817   1.000000
   77       -3.861433   0.999841
   78       -3.754634   0.997779
   79       -3.593527   0.955967
   80       -3.337649   0.458725
   81       -3.124179   0.053360
   82       -2.685864   0.000001
   83       -2.559771   0.000000
   84       -2.501159   0.000000
   85       -2.389202   0.000000
   86       -2.317416   0.000000
   87       -2.151666   0.000000
   88       -2.097349   0.000000
   89       -1.923589   0.000000
   90       -1.884021   0.000000
   91       -1.664399   0.000000
   92       -1.598530   0.000000
   93       -1.472334   0.000000
   94       -1.436851   0.000000
   95       -1.338912   0.000000
   96       -1.224820   0.000000
   97       -1.145277   0.000000
   98       -1.059683   0.000000
   99       -1.028330   0.000000
  100       -0.893405   0.000000
  101       -0.839340   0.000000
  102       -0.730894   0.000000
  103       -0.620960   0.000000
  104       -0.580957   0.000000
  105       -0.479605   0.000000
  106       -0.306456   0.000000
  107       -0.226486   0.000000
  108       -0.044851   0.000000
  109        0.047635   0.000000
  110        0.232359   0.000000
  111        0.417080   0.000000
  112        0.482099   0.000000
  113        0.854929   0.000000
  114        0.971730   0.000000
  115        0.987139   0.000000
  116        1.213957   0.000000
  117        1.406005   0.000000
  118        2.186748   0.000000
  119        2.241115   0.000000
  120        2.379601   0.000000
 
  0.0000000E+00  0.1250000E+00  0.0000000E+00  0.3125000E-01
    1      -17.787639   1.000000
    2      -16.796273   1.000000
    3      -16.729492   1.000000
    4      -16.599844   1.000000
    5      -16.528854   1.000000
    6      -16.462625   1.000000
    7      -16.398268   1.000000
    8      -16.294824   1.000000
    9      -16.177701   1.000000
   10      -16.086988   1.000000
   11      -16.001075   1.000000
   12      -15.921818   1.000000
   13      -15.849942   1.000000
   14      -15.716537   1.000000
   15      -15.538995   1.000000
   16      -15.487821   1.000000
   17      -15.357310   1.000000
   18      -15.338193   1.000000
   19       -9.321184   1.000000
   20       -9.164041   1.000000
   21       -9.053441   1.000000
   22       -8.938040   1.000000
   23       -8.787556   1.000000
   24       -8.702601   1.000000
   25       -8.659797   1.000000
   26       -8.566690   1.000000
   27       -8.507215   1.000000
   28       -8.426839   1.000000
   29       -8.353686   1.000000
   30       -8.278180   1.000000
   31       -8.212795   1.000000
   32       -8.048699   1.000000
   33       -8.007515   1.000000
   34       -7.958432   1.000000
   35       -7.840796   1.000000
   36       -7.759948   1.000000
   37       -7.653042   1.000000
   38       -7.514955   1.000000
   39       -7.493611   1.000000
   40       -7.382244   1.000000
   41       -7.353734   1.000000
   42       -7.213515   1.000000
   43       -7.144393   1.000000
   44       -6.945609   1.000000
   45       -6.901918   1.000000
   46       -6.850591   1.000000
   47       -6.751603   1.000000
   48       -6.640136   1.000000
   49       -6.595539   1.000000
   50       -6.490976   1.000000
   51       -6.401539   1.000000
   52       -6.367721   1.000000
   53       -6.304714   1.000000
   54       -6.230110   1.000000
   55       -6.161399   1.000000
   56       -6.091832   1.000000
   57       -6.002945   1.000000
   58       -5.912702   1.000000
   59       -5.725665   1.000000
   60       -5.590262   1.000000
   61       -5.548064   1.000000
   62       -5.449993   1.000000
   63       -5.334324   1.000000
   64       -5.190544   1.000000
   65       -5.081080   1.000000
   66       -5.040525   1.000000
   67       -4.937668   1.000000
   68       -4.866581   1.000000
   69       -4.750242   1.000000
   70       -4.677650   1.000000
   71       -4.625218   1.000000
   72       -4.534520   1.000000
   73       -4.461949   1.000000
   74       -4.305859   1.000000
   75       -4.143474   1.000000
   76       -3.996130   0.999997
   77       -3.811909   0.999423
   78       -3.699179   0.992912
   79       -3.608763   0.965116
   80       -3.427527   0.702597
   81       -3.129351   0.057451
   82       -2.834613   0.000126
   83       -2.718977   0.000004
   84       -2.601551   0.000000
   85       -2.472954   0.000000
   86       -2.352458   0.000000
   87       -2.262459   0.000000
   88       -2.202246   0.000000
   89       -2.120806   0.000000
   90       -2.035916   0.000000
   91       -1.792255   0.000000
   92       -1.491686   0.000000
   93       -1.402116   0.000000
   94       -1.332400   0.000000
   95       -1.203314   0.000000
   96       -1.116126   0.000000
   97       -1.039652   0.000000
   98       -0.878390   0.000000
   99       -0.785559   0.000000
  100       -0.746077   0.000000
  101       -0.650101   0.000000
  102       -0.570516   0.000000
  103       -0.496219   0.000000
  104       -0.340376   0.000000
  105       -0.292403   0.000000
  106       -0.205777   0.000000
  107       -0.085058   0.000000
  108        0.043365   0.000000
  109        0.161351   0.000000
  110        0.224670   0.000000
  111        0.363232   0.000000
  112        0.463667   0.000000
  113        0.710871   0.000000
  114        0.778371   0.000000
  115        0.867685   0.000000
  116        1.140581   0.000000
  117        1.360528   0.000000
  118        1.688014   0.000000
  119        1.872717   0.000000
  120        2.185635   0.000000
 
  0.1250000E+00  0.1250000E+00  0.0000000E+00  0.3125000E-01
    1      -17.737939   1.000000
    2      -16.929274   1.000000
    3      -16.758967   1.000000
    4      -16.699482   1.000000
    5      -16.468629   1.000000
    6      -16.408902   1.000000
    7      -16.386748   1.000000
    8      -16.269669   1.000000
    9      -16.215191   1.000000
   10      -16.019068   1.000000
   11      -15.977388   1.000000
   12      -15.880904   1.000000
   13      -15.801217   1.000000
   14      -15.735654   1.000000
   15      -15.554351   1.000000
   16      -15.503492   1.000000
   17      -15.367121   1.000000
   18      -15.341428   1.000000
   19       -9.399782   1.000000
   20       -9.256151   1.000000
   21       -9.215986   1.000000
   22       -9.018332   1.000000
   23       -8.802785   1.000000
   24       -8.745039   1.000000
   25       -8.647912   1.000000
   26       -8.543701   1.000000
   27       -8.459980   1.000000
   28       -8.394388   1.000000
   29       -8.284713   1.000000
   30       -8.238298   1.000000
   31       -8.132973   1.000000
   32       -8.043950   1.000000
   33       -7.924237   1.000000
   34       -7.900703   1.000000
   35       -7.805199   1.000000
   36       -7.686393   1.000000
   37       -7.609635   1.000000
   38       -7.496126   1.000000
   39       -7.448883   1.000000
   40       -7.395420   1.000000
   41       -7.335304   1.000000
   42       -7.212484   1.000000
   43       -7.133050   1.000000
   44       -7.036244   1.000000
   45       -6.922019   1.000000
   46       -6.813220   1.000000
   47       -6.700465   1.000000
   48       -6.681262   1.000000
   49       -6.557371   1.000000
   50       -6.470343   1.000000
   51       -6.409811   1.000000
   52       -6.342299   1.000000
   53       -6.290136   1.000000
   54       -6.216252   1.000000
   55       -6.149509   1.000000
   56       -6.124560   1.000000
   57       -5.968562   1.000000
   58       -5.895060   1.000000
   59       -5.707049   1.000000
   60       -5.682944   1.000000
   61       -5.622975   1.000000
   62       -5.527257   1.000000
   63       -5.438955   1.000000
   64       -5.270586   1.000000
   65       -5.158620   1.000000
   66       -5.039178   1.000000
   67       -4.925488   1.000000
   68       -4.829809   1.000000
   69       -4.772574   1.000000
   70       -4.616642   1.000000
   71       -4.553185   1.000000
   72       -4.472176   1.000000
   73       -4.396009   1.000000
   74       -4.271403   1.000000
   75       -4.174023   1.000000
   76       -4.101644   1.000000
   77       -3.882285   0.999911
   78       -3.786395   0.998928
   79       -3.594254   0.956443
   80       -3.347826   0.487363
   81       -3.124041   0.053254
   82       -2.790289   0.000035
   83       -2.666317   0.000001
   84       -2.574286   0.000000
   85       -2.479815   0.000000
   86       -2.340471   0.000000
   87       -2.210676   0.000000
   88       -2.180779   0.000000
   89       -2.071410   0.000000
   90       -1.997232   0.000000
   91       -1.777836   0.000000
   92       -1.530234   0.000000
   93       -1.431838   0.000000
   94       -1.305539   0.000000
   95       -1.221677   0.000000
   96       -1.141703   0.000000
   97       -1.041991   0.000000
   98       -0.927578   0.000000
   99       -0.893978   0.000000
  100       -0.787445   0.000000
  101       -0.683370   0.000000
  102       -0.638095   0.000000
  103       -0.532470   0.000000
  104       -0.407585   0.000000
  105       -0.325594   0.000000
  106       -0.254685   0.000000
  107       -0.116595   0.000000
  108       -0.036714   0.000000
  109        0.123496   0.000000
  110        0.246426   0.000000
  111        0.396385   0.000000
  112        0.476645   0.000000
  113        0.739756   0.000000
  114        0.845749   0.000000
  115        0.970346   0.000000
  116        1.149553   0.000000
  117        1.297484   0.000000
  118        1.767167   0.000000
  119        1.950523   0.000000
  120        2.254326   0.000000
 
  0.2500000E+00  0.1250000E+00  0.0000000E+00  0.3125000E-01
    1      -17.643210   1.000000
    2      -17.108591   1.000000
    3      -16.857296   1.000000
    4      -16.692716   1.000000
    5      -16.481611   1.000000
    6      -16.413850   1.000000
    7      -16.297876   1.000000
    8      -16.240894   1.000000
    9      -16.196181   1.000000
   10      -15.991888   1.000000
   11      -15.944257   1.000000
   12      -15.848741   1.000000
   13      -15.797406   1.000000
   14      -15.681625   1.000000
   15      -15.596051   1.000000
   16      -15.508254   1.000000
   17      -15.389955   1.000000
   18      -15.337868   1.000000
   19       -9.610461   1.000000
   20       -9.363039   1.000000
   21       -9.270753   1.000000
   22       -9.090745   1.000000
   23       -8.817217   1.000000
   24       -8.753564   1.000000
   25       -8.560254   1.000000
   26       -8.492131   1.000000
   27       -8.409468   1.000000
   28       -8.348409   1.000000
   29       -8.287662   1.000000
   30       -8.223591   1.000000
   31       -8.134644   1.000000
   32       -8.036181   1.000000
   33       -7.961695   1.000000
   34       -7.860428   1.000000
   35       -7.766638   1.000000
   36       -7.651010   1.000000
   37       -7.540569   1.000000
   38       -7.489523   1.000000
   39       -7.384307   1.000000
   40       -7.310963   1.000000
   41       -7.219890   1.000000
   42       -7.206508   1.000000
   43       -7.107967   1.000000
   44       -6.991354   1.000000
   45       -6.881654   1.000000
   46       -6.804695   1.000000
   47       -6.696877   1.000000