       N       E                     dE             d eps       ncg     rms          rms(c)
DAV:   1     0.112618990334E+04    0.11262E+04   -0.35978E+04  8160   0.577E+02
DAV:   2    -0.134222071816E+01   -0.11275E+04   -0.10854E+04 11200   0.173E+02
DAV:   3    -0.199808859752E+03   -0.19847E+03   -0.19043E+03 10920   0.822E+01
DAV:   4    -0.208963544056E+03   -0.91547E+01   -0.88777E+01 11880   0.261E+01
DAV:   5    -0.209326144911E+03   -0.36260E+00   -0.36165E+00 11600   0.390E+00    0.275E+01
DAV:   6    -0.237155849989E+03   -0.27830E+02   -0.10974E+02 12640   0.604E+01    0.596E+01
DAV:   7    -0.196423016056E+03    0.40733E+02   -0.17747E+02 13240   0.152E+02    0.199E+01
DAV:   8    -0.189413009488E+03    0.70100E+01   -0.17515E+01 12000   0.127E+01    0.125E+01
DAV:   9    -0.188166054739E+03    0.12470E+01   -0.31286E+00 12920   0.633E+00    0.914E+00
DAV:  10    -0.187005701295E+03    0.11604E+01   -0.20683E+00 13480   0.742E+00    0.275E+00
DAV:  11    -0.186968767309E+03    0.36934E-01   -0.59509E-01 13240   0.249E+00    0.274E+00
DAV:  12    -0.187098133940E+03   -0.12937E+00   -0.87850E-01 12240   0.492E+00    0.482E+00
DAV:  13    -0.186883200109E+03    0.21493E+00   -0.49643E-01 12680   0.396E+00    0.209E+00
DAV:  14    -0.186858175656E+03    0.25024E-01   -0.12408E-01 13200   0.204E+00    0.164E+00
DAV:  15    -0.186839867106E+03    0.18309E-01   -0.66611E-02 12000   0.158E+00    0.876E-01
DAV:  16    -0.186832350170E+03    0.75169E-02   -0.11752E-02 12120   0.469E-01    0.452E-01
DAV:  17    -0.186830256218E+03    0.20940E-02   -0.79001E-03 12720   0.442E-01    0.224E-01
DAV:  18    -0.186830001173E+03    0.25505E-03   -0.22294E-03 11800   0.145E-01    0.167E-01
DAV:  19    -0.186829649024E+03    0.35215E-03   -0.96735E-04 11040   0.115E-01    0.487E-02
DAV:  20    -0.186830377957E+03   -0.72893E-03   -0.66738E-04  9320   0.579E-02    0.503E-02
DAV:  21    -0.186830972784E+03   -0.59483E-03   -0.27227E-04  8040   0.456E-02    0.455E-02
DAV:  22    -0.186832136084E+03   -0.11633E-02   -0.22806E-04  7440   0.641E-02    0.412E-02
DAV:  23    -0.186833370316E+03   -0.12342E-02   -0.15085E-04  7600   0.459E-02    0.119E-02
DAV:  24    -0.186833955919E+03   -0.58560E-03   -0.30798E-05  6520   0.144E-02    0.921E-03
DAV:  25    -0.186834317369E+03   -0.36145E-03   -0.16547E-05  5800   0.137E-02    0.555E-03
DAV:  26    -0.186834544109E+03   -0.22674E-03   -0.87561E-06  6760   0.745E-03    0.173E-03
DAV:  27    -0.186834647588E+03   -0.10348E-03   -0.39018E-06  7120   0.476E-03    0.170E-03
DAV:  28    -0.186834694160E+03   -0.46572E-04   -0.21360E-06  7400   0.378E-03
   1 F= -.18683469E+03 E0= -.18666215E+03  d E =-.186835E+03
       N       E                     dE             d eps       ncg     rms          rms(c)
DAV:   1    -0.187459293352E+03   -0.62465E+00   -0.27084E+02  8160   0.349E+01    0.462E+00
DAV:   2    -0.189360377560E+03   -0.19011E+01   -0.20169E+01 12280   0.153E+01    0.877E+00
DAV:   3    -0.189321684557E+03    0.38693E-01   -0.38995E+00 12440   0.120E+01    0.666E+00
DAV:   4    -0.188732049204E+03    0.58964E+00   -0.62892E-01 12560   0.461E+00    0.185E+00
DAV:   5    -0.188734239033E+03   -0.21898E-02   -0.29391E-01 10520   0.159E+00    0.234E+00
DAV:   6    -0.188690932255E+03    0.43307E-01   -0.34899E-01 11960   0.242E+00    0.233E+00
DAV:   7    -0.188675889013E+03    0.15043E-01   -0.20291E-01 12600   0.265E+00    0.218E+00
DAV:   8    -0.188640211143E+03    0.35678E-01   -0.91813E-02 12560   0.163E+00    0.648E-01
DAV:   9    -0.188634229856E+03    0.59813E-02   -0.11629E-02 10720   0.386E-01    0.213E-01
DAV:  10    -0.188634636609E+03   -0.40675E-03   -0.37431E-03 12560   0.273E-01    0.300E-01
DAV:  11    -0.188634273196E+03    0.36341E-03   -0.32568E-03 13120   0.332E-01    0.250E-01
DAV:  12    -0.188633804491E+03    0.46871E-03   -0.13349E-03 11840   0.181E-01    0.820E-02
DAV:  13    -0.188633847299E+03   -0.42808E-04   -0.20276E-04  7240   0.600E-02
   2 F= -.18863385E+03 E0= -.18849167E+03  d E =-.179915E+01
       N       E                     dE             d eps       ncg     rms          rms(c)
DAV:   1    -0.190545456249E+03   -0.19117E+01   -0.30740E+01  9240   0.141E+01    0.445E+00
DAV:   2    -0.190541950258E+03    0.35060E-02   -0.28284E+00 11440   0.970E+00    0.747E+00
DAV:   3    -0.190020514109E+03    0.52144E+00   -0.13356E+00 12320   0.863E+00    0.411E+00
DAV:   4    -0.189817835601E+03    0.20268E+00   -0.69371E-01 12880   0.402E+00    0.247E+00
DAV:   5    -0.189737548543E+03    0.80287E-01   -0.29871E-01 11360   0.198E+00    0.124E+00
DAV:   6    -0.189721346843E+03    0.16202E-01   -0.67009E-02 11920   0.142E+00    0.869E-01
DAV:   7    -0.189715274230E+03    0.60726E-02   -0.15691E-02 12360   0.718E-01    0.220E-01
DAV:   8    -0.189715183206E+03    0.91024E-04   -0.22889E-03 11040   0.175E-01    0.153E-01
DAV:   9    -0.189715236071E+03   -0.52866E-04   -0.99570E-04 10560   0.127E-01
   3 F= -.18971524E+03 E0= -.18959533E+03  d E =-.108139E+01
       N       E                     dE             d eps       ncg     rms          rms(c)
DAV:   1    -0.191297672015E+03   -0.15825E+01   -0.72354E+01  8160   0.195E+01    0.469E+00
DAV:   2    -0.191178594819E+03    0.11908E+00   -0.55269E+00 13400   0.849E+00    0.530E+00
DAV:   3    -0.191211214838E+03   -0.32620E-01   -0.16460E+00 12080   0.932E+00    0.675E+00
DAV:   4    -0.190876759631E+03    0.33446E+00   -0.17023E+00 11840   0.791E+00    0.361E+00
DAV:   5    -0.190848148053E+03    0.28612E-01   -0.62068E-01 12080   0.541E+00    0.351E+00
DAV:   6    -0.190690880383E+03    0.15727E+00   -0.24112E-01 12240   0.333E+00    0.875E-01
DAV:   7    -0.190684815526E+03    0.60649E-02   -0.41052E-02 11840   0.850E-01    0.486E-01
DAV:   8    -0.190683225204E+03    0.15903E-02   -0.11147E-02 11680   0.619E-01    0.499E-01
DAV:   9    -0.190681113072E+03    0.21121E-02   -0.39180E-03 11520   0.450E-01    0.155E-01
DAV:  10    -0.190681426191E+03   -0.31312E-03   -0.12109E-03 10320   0.140E-01    0.128E-01
DAV:  11    -0.190681233191E+03    0.19300E-03   -0.84604E-04 10440   0.108E-01    0.462E-02
DAV:  12    -0.190681239370E+03   -0.61791E-05   -0.15716E-04  7400   0.453E-02
   4 F= -.19068124E+03 E0= -.19058009E+03  d E =-.966003E+00
       N       E                     dE             d eps       ncg     rms          rms(c)
DAV:   1    -0.192027439252E+03   -0.13462E+01   -0.14703E+02  8160   0.271E+01    0.560E+00
DAV:   2    -0.191823931577E+03    0.20351E+00   -0.92350E+00 12040   0.858E+00    0.444E+00
DAV:   3    -0.192203398795E+03   -0.37947E+00   -0.23338E+00 12200   0.106E+01    0.903E+00
DAV:   4    -0.191550204650E+03    0.65319E+00   -0.22579E+00 12160   0.108E+01    0.344E+00
DAV:   5    -0.191378892161E+03    0.17131E+00   -0.46163E-01 12200   0.331E+00    0.161E+00
DAV:   6    -0.191370735377E+03    0.81568E-02   -0.19245E-01 12640   0.285E+00    0.183E+00
DAV:   7    -0.191345194006E+03    0.25541E-01   -0.10171E-01 11880   0.212E+00    0.678E-01
DAV:   8    -0.191337963196E+03    0.72308E-02   -0.11616E-02 11680   0.563E-01    0.221E-01
DAV:   9    -0.191338648432E+03   -0.68524E-03   -0.32690E-03 12760   0.397E-01    0.319E-01
DAV:  10    -0.191338149431E+03    0.49900E-03   -0.30457E-03 11520   0.338E-01    0.119E-01
DAV:  11    -0.191337968567E+03    0.18086E-03   -0.79043E-04 10560   0.120E-01    0.554E-02
DAV:  12    -0.191337940640E+03    0.27927E-04   -0.13087E-04  7200   0.444E-02
   5 F= -.19133794E+03 E0= -.19124359E+03  d E =-.656701E+00
       N       E                     dE             d eps       ncg     rms          rms(c)
DAV:   1    -0.191429707348E+03   -0.91739E-01   -0.86142E+00  8160   0.621E+00    0.747E-01
DAV:   2    -0.191486196061E+03   -0.56489E-01   -0.32576E-01 12960   0.244E+00    0.209E+00
DAV:   3    -0.191446700477E+03    0.39496E-01   -0.13526E-01 12040   0.238E+00    0.755E-01
DAV:   4    -0.191446027037E+03    0.67344E-03   -0.23059E-02 11640   0.102E+00    0.751E-01
DAV:   5    -0.191440278342E+03    0.57487E-02   -0.11587E-02 11480   0.832E-01    0.282E-01
DAV:   6    -0.191439591597E+03    0.68675E-03   -0.33279E-03 10960   0.287E-01    0.156E-01
DAV:   7    -0.191439296519E+03    0.29508E-03   -0.17083E-03 10360   0.158E-01    0.880E-02
DAV:   8    -0.191439260313E+03    0.36206E-04   -0.50541E-04  9800   0.143E-01
   6 F= -.19143926E+03 E0= -.19134370E+03  d E =-.101320E+00
       N       E                     dE             d eps       ncg     rms          rms(c)
DAV:   1    -0.191468144487E+03   -0.28848E-01   -0.69392E-01  8160   0.177E+00    0.227E-01
DAV:   2    -0.191473715604E+03   -0.55711E-02   -0.27838E-02 13440   0.874E-01    0.677E-01
DAV:   3    -0.191469027871E+03    0.46877E-02   -0.10682E-02 11840   0.714E-01    0.175E-01
DAV:   4    -0.191469381957E+03   -0.35409E-03   -0.20647E-03 10280   0.319E-01    0.260E-01
DAV:   5    -0.191468708521E+03    0.67344E-03   -0.12160E-03  9840   0.265E-01    0.760E-02
DAV:   6    -0.191468704236E+03    0.42843E-05   -0.30208E-04  7280   0.844E-02
   7 F= -.19146870E+03 E0= -.19137304E+03  d E =-.294439E-01
       N       E                     dE             d eps       ncg     rms          rms(c)
DAV:   1    -0.191392938111E+03    0.75770E-01   -0.50344E+00  8160   0.476E+00    0.558E-01
DAV:   2    -0.191424826923E+03   -0.31889E-01   -0.17772E-01 13440   0.205E+00    0.154E+00
DAV:   3    -0.191400017068E+03    0.24810E-01   -0.56346E-02 12440   0.172E+00    0.456E-01
DAV:   4    -0.191400634566E+03   -0.61750E-03   -0.10727E-02 10480   0.721E-01    0.551E-01
DAV:   5    -0.191397534516E+03    0.31001E-02   -0.67455E-03 10960   0.624E-01    0.224E-01
DAV:   6    -0.191397533009E+03    0.15064E-05   -0.28793E-03 11840   0.324E-01    0.225E-01
DAV:   7    -0.191397615524E+03   -0.82515E-04   -0.28719E-03 11680   0.377E-01    0.251E-01
DAV:   8    -0.191396903521E+03    0.71200E-03   -0.11491E-03  9680   0.222E-01    0.314E-02
DAV:   9    -0.191396916853E+03   -0.13333E-04   -0.72648E-05  6280   0.318E-02
   8 F= -.19139692E+03 E0= -.19130168E+03  d E =0.717874E-01
       N       E                     dE             d eps       ncg     rms          rms(c)
DAV:   1    -0.191417998839E+03   -0.21095E-01   -0.12898E+00  8160   0.247E+00    0.378E-01
DAV:   2    -0.191420444041E+03   -0.24452E-02   -0.56887E-02 11360   0.727E-01    0.454E-01
DAV:   3    -0.191421662019E+03   -0.12180E-02   -0.20340E-02 11840   0.910E-01    0.634E-01
DAV:   4    -0.191417635643E+03    0.40264E-02   -0.76564E-03 11320   0.586E-01    0.205E-01
DAV:   5    -0.191417914498E+03   -0.27885E-03   -0.29119E-03 10320   0.414E-01    0.291E-01
DAV:   6    -0.191417007511E+03    0.90699E-03   -0.20003E-03 10040   0.317E-01    0.774E-02
DAV:   7    -0.191416966113E+03    0.41398E-04   -0.42717E-04  8760   0.989E-02
   9 F= -.19141697E+03 E0= -.19132161E+03  d E =-.200493E-01
       N       E                     dE             d eps       ncg     rms          rms(c)
DAV:   1    -0.191489677394E+03   -0.72670E-01   -0.46660E+00  8160   0.464E+00    0.614E-01
DAV:   2    -0.191521625252E+03   -0.31948E-01   -0.17460E-01 13600   0.218E+00    0.172E+00
DAV:   3    -0.191493253321E+03    0.28372E-01   -0.73211E-02 12280   0.186E+00    0.498E-01
DAV:   4    -0.191495241519E+03   -0.19882E-02   -0.17056E-02 12240   0.899E-01    0.723E-01
DAV:   5    -0.191490133298E+03    0.51082E-02   -0.10917E-02 11840   0.778E-01    0.271E-01
DAV:   6    -0.191489645674E+03    0.48762E-03   -0.36867E-03 11200   0.334E-01    0.201E-01
DAV:   7    -0.191489761505E+03   -0.11583E-03   -0.27398E-03 11880   0.375E-01    0.249E-01
DAV:   8    -0.191489092670E+03    0.66883E-03   -0.11775E-03  9400   0.242E-01    0.444E-02
DAV:   9    -0.191489073614E+03    0.19056E-04   -0.84641E-05  5640   0.414E-02
  10 F= -.19148907E+03 E0= -.19139332E+03  d E =-.721075E-01
       N       E                     dE             d eps       ncg     rms          rms(c)
DAV:   1    -0.191549554098E+03   -0.60461E-01   -0.31939E+00  8160   0.380E+00    0.472E-01
DAV:   2    -0.191577556136E+03   -0.28002E-01   -0.12782E-01 13560   0.195E+00    0.159E+00
DAV:   3    -0.191553930531E+03    0.23626E-01   -0.57439E-02 12160   0.159E+00    0.403E-01
DAV:   4    -0.191554612609E+03   -0.68208E-03   -0.90387E-03 11240   0.679E-01    0.495E-01
DAV:   5    -0.191552050307E+03    0.25623E-02   -0.46008E-03 11200   0.510E-01    0.161E-01
DAV:   6    -0.191551925734E+03    0.12457E-03   -0.16018E-03 10640   0.168E-01    0.114E-01
DAV:   7    -0.191551817898E+03    0.10784E-03   -0.85498E-04 10880   0.162E-01    0.119E-01
DAV:   8    -0.191551678082E+03    0.13982E-03   -0.35417E-04  8680   0.139E-01    0.413E-02
DAV:   9    -0.191551663684E+03    0.14398E-04   -0.47732E-05  6080   0.421E-02
  11 F= -.19155166E+03 E0= -.19145664E+03  d E =-.625901E-01
       N       E                     dE             d eps       ncg     rms          rms(c)
DAV:   1    -0.191517514161E+03    0.34164E-01   -0.88148E-01  8160   0.200E+00    0.251E-01
DAV:   2    -0.191525441904E+03   -0.79277E-02   -0.38288E-02 13360   0.105E+00    0.781E-01
DAV:   3    -0.191518778410E+03    0.66635E-02   -0.12587E-02 11720   0.801E-01    0.181E-01
DAV:   4    -0.191519106617E+03   -0.32821E-03   -0.22544E-03 10320   0.325E-01    0.260E-01
DAV:   5    -0.191518415162E+03    0.69145E-03   -0.12646E-03  9600   0.273E-01    0.843E-02
DAV:   6    -0.191518397914E+03    0.17248E-04   -0.38212E-04  8160   0.975E-02
  12 F= -.19151840E+03 E0= -.19142296E+03  d E =0.332658E-01
       N       E                     dE             d eps       ncg     rms          rms(c)
DAV:   1    -0.191463362763E+03    0.55052E-01   -0.27894E+00  8160   0.356E+00    0.433E-01
DAV:   2    -0.191485153164E+03   -0.21790E-01   -0.11238E-01 13560   0.161E+00    0.124E+00
DAV:   3    -0.191467768946E+03    0.17384E-01   -0.34364E-02 11880   0.134E+00    0.331E-01
DAV:   4    -0.191468436942E+03   -0.66800E-03   -0.64807E-03 11400   0.534E-01    0.428E-01
DAV:   5    -0.191466578426E+03    0.18585E-02   -0.34935E-03 11240   0.455E-01    0.143E-01
DAV:   6    -0.191466500574E+03    0.77852E-04   -0.11319E-03 10360   0.174E-01    0.103E-01
DAV:   7    -0.191466642963E+03   -0.14239E-03   -0.10341E-03 10720   0.217E-01    0.172E-01
DAV:   8    -0.191466322582E+03    0.32038E-03   -0.49270E-04  8760   0.167E-01    0.238E-02
DAV:   9    -0.191466333079E+03   -0.10497E-04   -0.39402E-05  6280   0.274E-02
  13 F= -.19146633E+03 E0= -.19137070E+03  d E =0.520648E-01
       N       E                     dE             d eps       ncg     rms          rms(c)
DAV:   1    -0.191552583339E+03   -0.86261E-01   -0.66045E+00  8160   0.545E+00    0.584E-01
DAV:   2    -0.191588678183E+03   -0.36095E-01   -0.21129E-01 13440   0.208E+00    0.168E+00
DAV:   3    -0.191563417562E+03    0.25261E-01   -0.75980E-02 12040   0.182E+00    0.554E-01
DAV:   4    -0.191564064794E+03   -0.64723E-03   -0.13765E-02 11200   0.834E-01    0.626E-01
DAV:   5    -0.191559859606E+03    0.42052E-02   -0.71496E-03 11160   0.671E-01    0.211E-01
DAV:   6    -0.191559808184E+03    0.51422E-04   -0.26883E-03 11720   0.244E-01    0.170E-01
DAV:   7    -0.191559620726E+03    0.18746E-03   -0.17247E-03 11080   0.250E-01    0.180E-01
DAV:   8    -0.191559290784E+03    0.32994E-03   -0.67820E-04  8760   0.195E-01    0.433E-02
DAV:   9    -0.191559282262E+03    0.85214E-05   -0.72784E-05  5920   0.451E-02
  14 F= -.19155928E+03 E0= -.19146504E+03  d E =-.929492E-01
       N       E                     dE             d eps       ncg     rms          rms(c)
DAV:   1    -0.191525464650E+03    0.33826E-01   -0.81181E-01  8160   0.192E+00    0.225E-01
DAV:   2    -0.191529914313E+03   -0.44497E-02   -0.27209E-02 13520   0.797E-01    0.586E-01
DAV:   3    -0.191526331706E+03    0.35826E-02   -0.80664E-03 11240   0.638E-01    0.185E-01
DAV:   4    -0.191526533074E+03   -0.20137E-03   -0.20413E-03 10040   0.305E-01    0.242E-01
DAV:   5    -0.191525957274E+03    0.57580E-03   -0.12565E-03  9520   0.276E-01    0.996E-02
DAV:   6    -0.191525892859E+03    0.64415E-04   -0.43921E-04  8920   0.110E-01
  15 F= -.19152589E+03 E0= -.19143101E+03  d E =0.333894E-01
       N       E                     dE             d eps       ncg     rms          rms(c)
DAV:   1    -0.191603109248E+03   -0.77152E-01   -0.47381E+00  8160   0.467E+00    0.603E-01
DAV:   2    -0.191641345206E+03   -0.38236E-01   -0.19271E-01 13560   0.231E+00    0.189E+00
DAV:   3    -0.191608963665E+03    0.32382E-01   -0.80319E-02 12160   0.191E+00    0.510E-01
DAV:   4    -0.191610331239E+03   -0.13676E-02   -0.15014E-02 11400   0.902E-01    0.669E-01
DAV:   5    -0.191605601415E+03    0.47298E-02   -0.86449E-03 11440   0.719E-01    0.236E-01
DAV:   6    -0.191605326680E+03    0.27474E-03   -0.34013E-03 10560   0.289E-01    0.191E-01
DAV:   7    -0.191605385060E+03   -0.58381E-04   -0.25541E-03 11680   0.359E-01    0.241E-01
DAV:   8    -0.191604756297E+03    0.62876E-03   -0.10789E-03  9720   0.243E-01    0.425E-02
DAV:   9    -0.191604739487E+03    0.16810E-04   -0.76978E-05  5640   0.412E-02
  16 F= -.19160474E+03 E0= -.19151121E+03  d E =-.788466E-01
       N       E                     dE             d eps       ncg     rms          rms(c)
DAV:   1    -0.191662726480E+03   -0.57970E-01   -0.24883E+00  8160   0.335E+00    0.340E-01
DAV:   2    -0.191672966355E+03   -0.10240E-01   -0.70373E-02 12360   0.107E+00    0.874E-01
DAV:   3    -0.191666657839E+03    0.63085E-02   -0.20230E-02 11800   0.974E-01    0.341E-01
DAV:   4    -0.191666174143E+03    0.48370E-03   -0.36312E-03 11360   0.394E-01    0.272E-01
DAV:   5    -0.191665427776E+03    0.74637E-03   -0.19317E-03 10680   0.358E-01    0.155E-01
DAV:   6    -0.191665383075E+03    0.44700E-04   -0.11981E-03 11200   0.208E-01    0.117E-01
DAV:   7    -0.191665214351E+03    0.16872E-03   -0.57851E-04 10240   0.130E-01    0.760E-02
DAV:   8    -0.191665163057E+03    0.51294E-04   -0.15405E-04  6120   0.978E-02
  17 F= -.19166516E+03 E0= -.19157387E+03  d E =-.604236E-01
       N       E                     dE             d eps       ncg     rms          rms(c)
DAV:   1    -0.191734515236E+03   -0.69301E-01   -0.35951E+00  8160   0.404E+00    0.423E-01
DAV:   2    -0.191751066482E+03   -0.16551E-01   -0.10809E-01 12280   0.141E+00    0.114E+00
DAV:   3    -0.191740260000E+03    0.10806E-01   -0.30509E-02 11840   0.124E+00    0.395E-01
DAV:   4    -0.191739761616E+03    0.49838E-03   -0.52871E-03 11480   0.504E-01    0.350E-01
DAV:   5    -0.191738483777E+03    0.12778E-02   -0.29655E-03 11160   0.456E-01    0.187E-01
DAV:   6    -0.191738385727E+03    0.98050E-04   -0.17409E-03 11800   0.246E-01    0.136E-01
DAV:   7    -0.191738255100E+03    0.13063E-03   -0.99978E-04 10240   0.200E-01    0.132E-01
DAV:   8    -0.191738070425E+03    0.18468E-03   -0.36391E-04  8520   0.147E-01    0.308E-02
DAV:   9    -0.191738067548E+03    0.28762E-05   -0.40654E-05  6160   0.337E-02
  18 F= -.19173807E+03 E0= -.19164992E+03  d E =-.729045E-01
       N       E                     dE             d eps       ncg     rms          rms(c)
DAV:   1    -0.191792053759E+03   -0.53983E-01   -0.19894E+00  8160   0.304E+00    0.363E-01
DAV:   2    -0.191801947844E+03   -0.98941E-02   -0.69375E-02 12360   0.117E+00    0.911E-01
DAV:   3    -0.191794964947E+03    0.69829E-02   -0.18503E-02 11880   0.101E+00    0.328E-01
DAV:   4    -0.191794649448E+03    0.31550E-03   -0.40695E-03 11520   0.466E-01    0.316E-01
DAV:   5    -0.191793677965E+03    0.97148E-03   -0.25861E-03 10520   0.428E-01    0.181E-01
DAV:   6    -0.191793496929E+03    0.18104E-03   -0.14605E-03  9920   0.226E-01    0.120E-01
DAV:   7    -0.191793429730E+03    0.67199E-04   -0.85313E-04  9920   0.201E-01
  19 F= -.19179343E+03 E0= -.19170768E+03  d E =-.553622E-01
       N       E                     dE             d eps       ncg     rms          rms(c)
DAV:   1    -0.191937956495E+03   -0.14446E+00   -0.21535E+01  8160   0.996E+00    0.102E+00
DAV:   2    -0.192014835474E+03   -0.76879E-01   -0.65125E-01 11840   0.304E+00    0.225E+00
DAV:   3    -0.191981107064E+03    0.33728E-01   -0.13720E-01 12280   0.283E+00    0.106E+00
DAV:   4    -0.191968458849E+03    0.12648E-01   -0.22911E-02 12320   0.991E-01    0.485E-01
DAV:   5    -0.191967047158E+03    0.14117E-02   -0.12827E-02 12400   0.826E-01    0.520E-01
DAV:   6    -0.191966511325E+03    0.53583E-03   -0.11748E-02 12440   0.861E-01    0.424E-01
DAV:   7    -0.191964077673E+03    0.24337E-02   -0.49360E-03 11440   0.449E-01    0.172E-01
DAV:   8    -0.191963864785E+03    0.21289E-03   -0.12176E-03 10520   0.252E-01    0.101E-01
DAV:   9    -0.191963757150E+03    0.10764E-03   -0.29768E-04  8520   0.116E-01    0.439E-02
DAV:  10    -0.191963717650E+03    0.39500E-04   -0.14568E-04  6120   0.470E-02
  20 F= -.19196372E+03 E0= -.19188442E+03  d E =-.170288E+00
       N       E                     dE             d eps       ncg     rms          rms(c)
DAV:   1    -0.192048922962E+03   -0.85166E-01   -0.71643E+00  8160   0.582E+00    0.708E-01
DAV:   2    -0.192071775204E+03   -0.22852E-01   -0.25965E-01 12000   0.185E+00    0.118E+00
DAV:   3    -0.192064537708E+03    0.72375E-02   -0.46276E-02 12240   0.181E+00    0.824E-01
DAV:   4    -0.192056433134E+03    0.81046E-02   -0.12678E-02 12320   0.854E-01    0.335E-01
DAV:   5    -0.192057250156E+03   -0.81702E-03   -0.80644E-03 10760   0.705E-01    0.500E-01
DAV:   6    -0.192055136907E+03    0.21132E-02   -0.71310E-03 11600   0.631E-01    0.211E-01
DAV:   7    -0.192054675277E+03    0.46163E-03   -0.21036E-03 11080   0.293E-01    0.140E-01
DAV:   8    -0.192054450883E+03    0.22439E-03   -0.53919E-04  9520   0.185E-01    0.549E-02
DAV:   9    -0.192054409789E+03    0.41094E-04   -0.97200E-05  6200   0.661E-02
  21 F= -.19205441E+03 E0= -.19197602E+03  d E =-.906921E-01
       N       E                     dE             d eps       ncg     rms          rms(c)
DAV:   1    -0.192155160555E+03   -0.10071E+00   -0.36550E+01  8160   0.130E+01    0.134E+00
DAV:   2    -0.192253122460E+03   -0.97962E-01   -0.11653E+00 11640   0.336E+00    0.177E+00
DAV:   3    -0.192250187552E+03    0.29349E-02   -0.14881E-01 12280   0.332E+00    0.176E+00
DAV:   4    -0.192212946592E+03    0.37241E-01   -0.44523E-02 12360   0.179E+00    0.486E-01
DAV:   5    -0.192213903434E+03   -0.95684E-03   -0.21995E-02 12040   0.983E-01    0.661E-01
DAV:   6    -0.192212416877E+03    0.14866E-02   -0.22543E-02 12720   0.115E+00    0.554E-01
DAV:   7    -0.192208378209E+03    0.40387E-02   -0.84926E-03 11520   0.628E-01    0.180E-01
DAV:   8    -0.192208137364E+03    0.24085E-03   -0.13489E-03 10480   0.268E-01    0.102E-01
DAV:   9    -0.192208010575E+03    0.12679E-03   -0.43266E-04 10400   0.117E-01    0.475E-02
DAV:  10    -0.192207956200E+03    0.54375E-04   -0.15743E-04  7000   0.485E-02
  22 F= -.19220796E+03 E0= -.19212797E+03  d E =-.153546E+00
       N       E                     dE             d eps       ncg     rms          rms(c)
DAV:   1    -0.192223302482E+03   -0.15292E-01   -0.84984E-01  8160   0.200E+00    0.290E-01
DAV:   2    -0.192225803631E+03   -0.25011E-02   -0.37537E-02 10600   0.728E-01    0.425E-01
DAV:   3    -0.192225059019E+03    0.74461E-03   -0.83322E-03 12400   0.732E-01    0.365E-01
DAV:   4    -0.192223490901E+03    0.15681E-02   -0.25166E-03 11720   0.393E-01    0.125E-01
DAV:   5    -0.192223692061E+03   -0.20116E-03   -0.13494E-03 10920   0.291E-01    0.201E-01
DAV:   6    -0.192223217825E+03    0.47424E-03   -0.10207E-03 10800   0.256E-01    0.590E-02
DAV:   7    -0.192223193692E+03    0.24132E-04   -0.15046E-04  6280   0.924E-02
  23 F= -.19222319E+03 E0= -.19214226E+03  d E =-.152375E-01
       N       E                     dE             d eps       ncg     rms          rms(c)
DAV:   1    -0.192248907768E+03   -0.25690E-01   -0.16911E+00  8160   0.276E+00    0.320E-01
DAV:   2    -0.192255773398E+03   -0.68656E-02   -0.60817E-02 11000   0.980E-01    0.584E-01
DAV:   3    -0.192252319664E+03    0.34537E-02   -0.13411E-02 12520   0.868E-01    0.283E-01
DAV:   4    -0.192251664629E+03    0.65503E-03   -0.27193E-03 11600   0.370E-01    0.196E-01
DAV:   5    -0.192251436125E+03    0.22850E-03   -0.14990E-03 10360   0.333E-01    0.157E-01
DAV:   6    -0.192251291764E+03    0.14436E-03   -0.76038E-04 11120   0.186E-01    0.855E-02
DAV:   7    -0.192251215079E+03    0.76684E-04   -0.29591E-04  8840   0.127E-01
  24 F= -.19225122E+03 E0= -.19216923E+03  d E =-.280214E-01
       N       E                     dE             d eps       ncg     rms          rms(c)
DAV:   1    -0.192269863857E+03   -0.18572E-01   -0.90203E-01  8160   0.205E+00    0.275E-01
DAV:   2    -0.192272290632E+03   -0.24268E-02   -0.36156E-02 11080   0.625E-01    0.364E-01
DAV:   3    -0.192272032535E+03    0.25810E-03   -0.95097E-03 12440   0.700E-01    0.354E-01
DAV:   4    -0.192270491965E+03    0.15406E-02   -0.25501E-03 11400   0.371E-01    0.948E-02
DAV:   5    -0.192270599670E+03   -0.10771E-03   -0.10181E-03 10280   0.215E-01    0.147E-01
DAV:   6    -0.192270425002E+03    0.17467E-03   -0.61836E-04  9960   0.222E-01    0.895E-02
DAV:   7    -0.192270335988E+03    0.89014E-04   -0.19038E-04  7440   0.112E-01
  25 F= -.19227034E+03 E0= -.19218722E+03  d E =-.191209E-01
       N       E                     dE             d eps       ncg     rms          rms(c)
DAV:   1    -0.192293847374E+03   -0.23422E-01   -0.23141E+00  8160   0.322E+00    0.377E-01
DAV:   2    -0.192303437660E+03   -0.95903E-02   -0.85576E-02 10800   0.117E+00    0.701E-01
DAV:   3    -0.192298566341E+03    0.48713E-02   -0.21010E-02 12600   0.103E+00    0.340E-01
DAV:   4    -0.192297603347E+03    0.96299E-03   -0.37218E-03 11600   0.441E-01    0.222E-01
DAV:   5    -0.192297251925E+03    0.35142E-03   -0.19551E-03 11000   0.384E-01    0.177E-01
DAV:   6    -0.192297108180E+03    0.14375E-03   -0.10476E-03 10720   0.230E-01    0.110E-01
DAV:   7    -0.192296928421E+03    0.17976E-03   -0.41658E-04  9560   0.133E-01    0.673E-02
DAV:   8    -0.192296887439E+03    0.40982E-04   -0.10231E-04  6760   0.911E-02
  26 F= -.19229689E+03 E0= -.19221275E+03  d E =-.265515E-01
       N       E                     dE             d eps       ncg     rms          rms(c)
DAV:   1    -0.192308742976E+03   -0.11815E-01   -0.60492E-01  8160   0.170E+00    0.252E-01
DAV:   2    -0.192310360890E+03   -0.16179E-02   -0.27636E-02 10280   0.582E-01    0.334E-01
DAV:   3    -0.192310100638E+03    0.26025E-03   -0.68822E-03 12280   0.633E-01    0.310E-01
DAV:   4    -0.192308826930E+03    0.12737E-02   -0.21399E-03 11080   0.343E-01    0.839E-02
DAV:   5    -0.192308972855E+03   -0.14592E-03   -0.89696E-04 10000   0.217E-01    0.152E-01
DAV:   6    -0.192308702964E+03    0.26989E-03   -0.60629E-04  9560   0.198E-01    0.428E-02
DAV:   7    -0.192308697936E+03    0.50277E-05   -0.83199E-05  6040   0.743E-02
  27 F= -.19230870E+03 E0= -.19222356E+03  d E =-.118105E-01
       N       E                     dE             d eps       ncg     rms          rms(c)
DAV:   1    -0.192317980246E+03   -0.92773E-02   -0.51742E-01  8160   0.152E+00    0.201E-01
DAV:   2    -0.192321106360E+03   -0.31261E-02   -0.23618E-02 10200   0.747E-01    0.437E-01
DAV:   3    -0.192318948519E+03    0.21578E-02   -0.62105E-03 12360   0.581E-01    0.143E-01
DAV:   4    -0.192318853317E+03    0.95203E-04   -0.98513E-04  9280   0.226E-01
  28 F= -.19231885E+03 E0= -.19223356E+03  d E =-.101554E-01
       N       E                     dE             d eps       ncg     rms          rms(c)
DAV:   1    -0.192327049423E+03   -0.81009E-02   -0.48356E-01  8160   0.148E+00    0.209E-01
DAV:   2    -0.192329846071E+03   -0.27966E-02   -0.19665E-02 11760   0.604E-01    0.442E-01
DAV:   3    -0.192327775863E+03    0.20702E-02   -0.54325E-03 12160   0.589E-01    0.170E-01
DAV:   4    -0.192327550364E+03    0.22550E-03   -0.97734E-04  9960   0.202E-01    0.106E-01
DAV:   5    -0.192327494588E+03    0.55776E-04   -0.66496E-04  9960   0.193E-01
  29 F= -.19232749E+03 E0= -.19224161E+03  d E =-.864127E-02
       N       E                     dE             d eps       ncg     rms          rms(c)
DAV:   1    -0.192334608281E+03   -0.70579E-02   -0.45869E-01  8160   0.145E+00    0.223E-01
DAV:   2    -0.192337020220E+03   -0.24119E-02   -0.20923E-02 11000   0.682E-01    0.436E-01
DAV:   3    -0.192335123877E+03    0.18963E-02   -0.58644E-03 11880   0.617E-01    0.187E-01
DAV:   4    -0.192334778110E+03    0.34577E-03   -0.14640E-03 10000   0.245E-01    0.118E-01
DAV:   5    -0.192334684262E+03    0.93849E-04   -0.10437E-03 10600   0.217E-01    0.113E-01
DAV:   6    -0.192334571591E+03    0.11267E-03   -0.50888E-04  9320   0.166E-01    0.588E-02
DAV:   7    -0.192334516803E+03    0.54789E-04   -0.12708E-04  5800   0.657E-02
  30 F= -.19233452E+03 E0= -.19224825E+03  d E =-.702221E-02
       N       E                     dE             d eps       ncg     rms          rms(c)
DAV:   1    -0.192344093689E+03   -0.95221E-02   -0.25236E+00  8160   0.335E+00    0.396E-01
DAV:   2    -0.192357234102E+03   -0.13140E-01   -0.10139E-01 10960   0.133E+00    0.853E-01
DAV:   3    -0.192349630905E+03    0.76032E-02   -0.25894E-02 12680   0.118E+00    0.312E-01
DAV:   4    -0.192348520951E+03    0.11100E-02   -0.24840E-03 11480   0.350E-01    0.173E-01
DAV:   5    -0.192348532529E+03   -0.11578E-04   -0.16689E-03 11440   0.355E-01    0.182E-01
DAV:   6    -0.192348197630E+03    0.33490E-03   -0.92816E-04 11000   0.208E-01    0.615E-02
DAV:   7    -0.192348112596E+03    0.85034E-04   -0.17634E-04  6400   0.532E-02
  31 F= -.19234811E+03 E0= -.19226154E+03  d E =-.135958E-01
       N       E                     dE             d eps       ncg     rms          rms(c)
DAV:   1    -0.192352358171E+03   -0.41605E-02   -0.19473E+00  8160   0.293E+00    0.317E-01
DAV:   2    -0.192358946502E+03   -0.65883E-02   -0.75375E-02 12000   0.889E-01    0.413E-01
DAV:   3    -0.192358263892E+03    0.68261E-03   -0.12064E-02 12080   0.784E-01    0.370E-01
DAV:   4    -0.192356714091E+03    0.15498E-02   -0.31695E-03 11600   0.429E-01    0.143E-01
DAV:   5    -0.192356685439E+03    0.28652E-04   -0.13260E-03 10280   0.279E-01    0.153E-01
DAV:   6    -0.192356612557E+03    0.72882E-04   -0.95862E-04 11000   0.240E-01
  32 F= -.19235661E+03 E0= -.19227033E+03  d E =-.849996E-02
       N       E                     dE             d eps       ncg     rms          rms(c)
DAV:   1    -0.192357733404E+03   -0.10480E-02   -0.88984E-02  8160   0.639E-01    0.928E-02
DAV:   2    -0.192357984068E+03   -0.25066E-03   -0.39534E-03 12240   0.248E-01    0.118E-01
DAV:   3    -0.192357916838E+03    0.67230E-04   -0.64799E-04 10360   0.219E-01
  33 F= -.19235792E+03 E0= -.19227228E+03  d E =-.130428E-02
       N       E                     dE             d eps       ncg     rms          rms(c)
DAV:   1    -0.192359064828E+03   -0.10808E-02   -0.99535E-02  8160   0.673E-01    0.785E-02
DAV:   2    -0.192359245474E+03   -0.18065E-03   -0.27645E-03 12240   0.150E-01    0.736E-02
DAV:   3    -0.192359267066E+03   -0.21592E-04   -0.45671E-04 10040   0.162E-01
  34 F= -.19235927E+03 E0= -.19227403E+03  d E =-.135023E-02
       N       E                     dE             d eps       ncg     rms          rms(c)
DAV:   1    -0.192360057704E+03   -0.81223E-03   -0.36372E-02  8160   0.425E-01    0.793E-02
DAV:   2    -0.192360201408E+03   -0.14370E-03   -0.17651E-03 12480   0.167E-01    0.118E-01
DAV:   3    -0.192360053152E+03    0.14826E-03   -0.66783E-04  9240   0.189E-01    0.823E-02
DAV:   4    -0.192360006109E+03    0.47042E-04   -0.24111E-04  7080   0.120E-01
  35 F= -.19236001E+03 E0= -.19227512E+03  d E =-.739043E-03
       N       E                     dE             d eps       ncg     rms          rms(c)
DAV:   1    -0.192361468233E+03   -0.14151E-02   -0.17692E-01  8160   0.892E-01    0.102E-01
DAV:   2    -0.192361906333E+03   -0.43810E-03   -0.60389E-03 11800   0.222E-01    0.105E-01
DAV:   3    -0.192361934977E+03   -0.28644E-04   -0.80267E-04 11200   0.222E-01
  36 F= -.19236193E+03 E0= -.19227779E+03  d E =-.192887E-02
       N       E                     dE             d eps       ncg     rms          rms(c)
DAV:   1    -0.192361976188E+03   -0.69855E-04   -0.60556E-03  8160   0.218E-01    0.527E-02
DAV:   2    -0.192362056304E+03   -0.80116E-04   -0.47080E-04  9280   0.119E-01
  37 F= -.19236206E+03 E0= -.19227776E+03  d E =-.121327E-03
       N       E                     dE             d eps       ncg     rms          rms(c)
DAV:   1    -0.192362895017E+03   -0.91883E-03   -0.85643E-02  8160   0.630E-01    0.824E-02
DAV:   2    -0.192363249881E+03   -0.35486E-03   -0.28519E-03 12800   0.225E-01    0.148E-01
DAV:   3    -0.192363038337E+03    0.21154E-03   -0.61094E-04 10280   0.216E-01    0.729E-02
DAV:   4    -0.192362995233E+03    0.43104E-04   -0.10101E-04  5960   0.879E-02
  38 F= -.19236300E+03 E0= -.19227925E+03  d E =-.938929E-03
       N       E                     dE             d eps       ncg     rms          rms(c)
DAV:   1    -0.192363816420E+03   -0.77808E-03   -0.60081E-02  8160   0.527E-01    0.735E-02
DAV:   2    -0.192364204503E+03   -0.38808E-03   -0.24824E-03 13280   0.224E-01    0.156E-01
DAV:   3    -0.192363915132E+03    0.28937E-03   -0.58695E-04 10160   0.210E-01    0.568E-02
DAV:   4    -0.192363910186E+03    0.49458E-05   -0.97433E-05  5760   0.788E-02
  39 F= -.19236391E+03 E0= -.19228051E+03  d E =-.914954E-03
       N       E                     dE             d eps       ncg     rms          rms(c)
DAV:   1    -0.192364501317E+03   -0.58618E-03   -0.32583E-02  8160   0.387E-01    0.591E-02
DAV:   2    -0.192364714023E+03   -0.21271E-03   -0.12852E-03 13280   0.181E-01    0.125E-01
DAV:   3    -0.192364525117E+03    0.18891E-03   -0.37173E-04  9000   0.167E-01    0.447E-02
DAV:   4    -0.192364521348E+03    0.37692E-05   -0.81752E-05  5920   0.683E-02
  40 F= -.19236452E+03 E0= -.19228138E+03  d E =-.611161E-03
