<?xml version="1.0" encoding="ISO-8859-1"?>
<modeling>
 <generator>
  <i name="program" type="string">vasp </i>
  <i name="version" type="string">5.4.1  </i>
  <i name="subversion" type="string">05Feb16 (build Jul 05 2020 17:13:04) complex                          parallel </i>
  <i name="platform" type="string">IFC91_ompi </i>
  <i name="date" type="string">2024 04 26 </i>
  <i name="time" type="string">20:39:11 </i>
 </generator>
 <incar>
  <i type="int" name="ISTART">     0</i>
  <i type="string" name="PREC">normal</i>
  <i type="string" name="ALGO"> Normal</i>
  <i type="int" name="ISPIN">     1</i>
  <i type="int" name="ICHARG">     2</i>
  <i type="int" name="IBRION">     1</i>
  <i type="int" name="NSW">   100</i>
  <i type="int" name="ISIF">     3</i>
  <i type="int" name="ISYM">     0</i>
  <i name="SYMPREC">      0.00000001</i>
  <i name="POTIM">      0.50000000</i>
  <i type="logical" name="LREAL"> F  </i>
  <i type="logical" name="LPLANE"> F  </i>
  <i type="int" name="ISMEAR">     0</i>
  <i type="logical" name="LWAVE"> F  </i>
  <i type="logical" name="LCHARG"> F  </i>
  <v type="int" name="KPOINT_BSE">    -1     0     0     0</v>
 </incar>
 <kpoints>
  <generation param="Gamma">
   <v type="int" name="divisions">       8        8        1 </v>
   <v name="usershift">      0.00000000       0.00000000       0.00000000 </v>
   <v name="genvec1">      0.12500000       0.00000000       0.00000000 </v>
   <v name="genvec2">     -0.00000000       0.12500000       0.00000000 </v>
   <v name="genvec3">      0.00000000       0.00000000       1.00000000 </v>
   <v name="shift">      0.00000000       0.00000000       0.00000000 </v>
  </generation>
  <varray name="kpointlist" >
   <v>       0.00000000       0.00000000       0.00000000 </v>
   <v>       0.12500000       0.00000000       0.00000000 </v>
   <v>       0.25000000       0.00000000       0.00000000 </v>
   <v>       0.37500000       0.00000000       0.00000000 </v>
   <v>       0.50000000       0.00000000       0.00000000 </v>
   <v>       0.00000000       0.12500000       0.00000000 </v>
   <v>       0.12500000       0.12500000       0.00000000 </v>
   <v>       0.25000000       0.12500000       0.00000000 </v>
   <v>       0.37500000       0.12500000       0.00000000 </v>
   <v>       0.50000000       0.12500000       0.00000000 </v>
   <v>      -0.37500000       0.12500000       0.00000000 </v>
   <v>      -0.25000000       0.12500000       0.00000000 </v>
   <v>      -0.12500000       0.12500000       0.00000000 </v>
   <v>       0.00000000       0.25000000       0.00000000 </v>
   <v>       0.12500000       0.25000000       0.00000000 </v>
   <v>       0.25000000       0.25000000       0.00000000 </v>
   <v>       0.37500000       0.25000000       0.00000000 </v>
   <v>       0.50000000       0.25000000       0.00000000 </v>
   <v>      -0.37500000       0.25000000       0.00000000 </v>
   <v>      -0.25000000       0.25000000       0.00000000 </v>
   <v>      -0.12500000       0.25000000       0.00000000 </v>
   <v>      -0.00000000       0.37500000       0.00000000 </v>
   <v>       0.12500000       0.37500000       0.00000000 </v>
   <v>       0.25000000       0.37500000       0.00000000 </v>
   <v>       0.37500000       0.37500000       0.00000000 </v>
   <v>       0.50000000       0.37500000       0.00000000 </v>
   <v>      -0.37500000       0.37500000       0.00000000 </v>
   <v>      -0.25000000       0.37500000       0.00000000 </v>
   <v>      -0.12500000       0.37500000       0.00000000 </v>
   <v>       0.00000000       0.50000000       0.00000000 </v>
   <v>       0.12500000       0.50000000       0.00000000 </v>
   <v>       0.25000000       0.50000000       0.00000000 </v>
   <v>       0.37500000       0.50000000       0.00000000 </v>
   <v>       0.50000000       0.50000000       0.00000000 </v>
  </varray>
  <varray name="weights" >
   <v>       0.01562500 </v>
   <v>       0.03125000 </v>
   <v>       0.03125000 </v>
   <v>       0.03125000 </v>
   <v>       0.01562500 </v>
   <v>       0.03125000 </v>
   <v>       0.03125000 </v>
   <v>       0.03125000 </v>
   <v>       0.03125000 </v>
   <v>       0.03125000 </v>
   <v>       0.03125000 </v>
   <v>       0.03125000 </v>
   <v>       0.03125000 </v>
   <v>       0.03125000 </v>
   <v>       0.03125000 </v>
   <v>       0.03125000 </v>
   <v>       0.03125000 </v>
   <v>       0.03125000 </v>
   <v>       0.03125000 </v>
   <v>       0.03125000 </v>
   <v>       0.03125000 </v>
   <v>       0.03125000 </v>
   <v>       0.03125000 </v>
   <v>       0.03125000 </v>
   <v>       0.03125000 </v>
   <v>       0.03125000 </v>
   <v>       0.03125000 </v>
   <v>       0.03125000 </v>
   <v>       0.03125000 </v>
   <v>       0.01562500 </v>
   <v>       0.03125000 </v>
   <v>       0.03125000 </v>
   <v>       0.03125000 </v>
   <v>       0.01562500 </v>
  </varray>
 </kpoints>
 <parameters>
  <separator name="general" >
   <i type="string" name="SYSTEM">unknown system</i>
   <i type="logical" name="LCOMPAT"> F  </i>
  </separator>
  <separator name="electronic" >
   <i type="string" name="PREC">normal</i>
   <i name="ENMAX">    280.00000000</i>
   <i name="ENAUG">    373.43800000</i>
   <i name="EDIFF">      0.00010000</i>
   <i type="int" name="IALGO">    38</i>
   <i type="int" name="IWAVPR">    11</i>
   <i type="int" name="NBANDS">   120</i>
   <i name="NELECT">    159.00000000</i>
   <i type="int" name="TURBO">     0</i>
   <i type="int" name="IRESTART">     0</i>
   <i type="int" name="NREBOOT">     0</i>
   <i type="int" name="NMIN">     0</i>
   <i name="EREF">      0.00000000</i>
   <separator name="electronic smearing" >
    <i type="int" name="ISMEAR">     0</i>
    <i name="SIGMA">      0.20000000</i>
    <i name="KSPACING">      0.50000000</i>
    <i type="logical" name="KGAMMA"> T  </i>
   </separator>
   <separator name="electronic projectors" >
    <i type="logical" name="LREAL"> F  </i>
    <v name="ROPT">      0.00000000      0.00000000      0.00000000      0.00000000</v>
    <i type="int" name="LMAXPAW">  -100</i>
    <i type="int" name="LMAXMIX">     2</i>
    <i type="logical" name="NLSPLINE"> F  </i>
   </separator>
   <separator name="electronic startup" >
    <i type="int" name="ISTART">     0</i>
    <i type="int" name="ICHARG">     2</i>
    <i type="int" name="INIWAV">     1</i>
   </separator>
   <separator name="electronic spin" >
    <i type="int" name="ISPIN">     1</i>
    <i type="logical" name="LNONCOLLINEAR"> F  </i>
    <v name="MAGMOM">      1.00000000      1.00000000      1.00000000      1.00000000      1.00000000      1.00000000      1.00000000      1.00000000      1.00000000      1.00000000      1.00000000      1.00000000      1.00000000      1.00000000      1.00000000      1.00000000      1.00000000      1.00000000      1.00000000      1.00000000
      1.00000000      1.00000000      1.00000000      1.00000000      1.00000000      1.00000000      1.00000000</v>
    <i name="NUPDOWN">     -1.00000000</i>
    <i type="logical" name="LSORBIT"> F  </i>
    <v name="SAXIS">      0.00000000      0.00000000      1.00000000</v>
    <i type="logical" name="LSPIRAL"> F  </i>
    <v name="QSPIRAL">      0.00000000      0.00000000      0.00000000</v>
    <i type="logical" name="LZEROZ"> F  </i>
   </separator>
   <separator name="electronic exchange-correlation" >
    <i type="logical" name="LASPH"> F  </i>
    <i type="logical" name="LMETAGGA"> F  </i>
   </separator>
   <separator name="electronic convergence" >
    <i type="int" name="NELM">    60</i>
    <i type="int" name="NELMDL">    -5</i>
    <i type="int" name="NELMIN">     2</i>
    <i name="ENINI">    280.00000000</i>
    <separator name="electronic convergence detail" >
     <i type="logical" name="LDIAG"> T  </i>
     <i type="logical" name="LSUBROT"> F  </i>
     <i name="WEIMIN">      0.00100000</i>
     <i name="EBREAK">      0.00000021</i>
     <i name="DEPER">      0.30000000</i>
     <i type="int" name="NRMM">     4</i>
     <i name="TIME">      0.40000000</i>
    </separator>
   </separator>
   <separator name="electronic mixer" >
    <i name="AMIX">      0.40000000</i>
    <i name="BMIX">      1.00000000</i>
    <i name="AMIN">      0.10000000</i>
    <i name="AMIX_MAG">      1.60000000</i>
    <i name="BMIX_MAG">      1.00000000</i>
    <separator name="electronic mixer details" >
     <i type="int" name="IMIX">     4</i>
     <i type="logical" name="MIXFIRST"> F  </i>
     <i type="int" name="MAXMIX">   -45</i>
     <i name="WC">    100.00000000</i>
     <i type="int" name="INIMIX">     1</i>
     <i type="int" name="MIXPRE">     1</i>
     <i type="int" name="MREMOVE">     5</i>
    </separator>
   </separator>
   <separator name="electronic dipolcorrection" >
    <i type="logical" name="LDIPOL"> F  </i>
    <i type="logical" name="LMONO"> F  </i>
    <i type="int" name="IDIPOL">     0</i>
    <i name="EPSILON">      1.00000000</i>
    <v name="DIPOL">   -100.00000000   -100.00000000   -100.00000000</v>
    <i name="EFIELD">      0.00000000</i>
   </separator>
  </separator>
  <separator name="grids" >
   <i type="int" name="NGX">    42</i>
   <i type="int" name="NGY">    42</i>
   <i type="int" name="NGZ">   126</i>
   <i type="int" name="NGXF">    84</i>
   <i type="int" name="NGYF">    84</i>
   <i type="int" name="NGZF">   252</i>
   <i type="logical" name="ADDGRID"> F  </i>
  </separator>
  <separator name="ionic" >
   <i type="int" name="NSW">   100</i>
   <i type="int" name="IBRION">     1</i>
   <i type="int" name="ISIF">     3</i>
   <i name="PSTRESS">      0.00000000</i>
   <i name="EDIFFG">      0.00100000</i>
   <i type="int" name="NFREE">     0</i>
   <i name="POTIM">      0.50000000</i>
   <i name="SMASS">     -3.00000000</i>
   <i name="SCALEE">      1.00000000</i>
  </separator>
  <separator name="ionic md" >
   <i name="TEBEG">      0.00010000</i>
   <i name="TEEND">      0.00010000</i>
   <i type="int" name="NBLOCK">     1</i>
   <i type="int" name="KBLOCK">   100</i>
   <i type="int" name="NPACO">   256</i>
   <i name="APACO">     16.00000000</i>
  </separator>
  <separator name="symmetry" >
   <i type="int" name="ISYM">     0</i>
   <i name="SYMPREC">      0.00000001</i>
  </separator>
  <separator name="dos" >
   <i type="logical" name="LORBIT"> F  </i>
   <v name="RWIGS">     -1.00000000     -1.00000000     -1.00000000     -1.00000000</v>
   <i type="int" name="NEDOS">   301</i>
   <i name="EMIN">     10.00000000</i>
   <i name="EMAX">    -10.00000000</i>
   <i name="EFERMI">      0.00000000</i>
  </separator>
  <separator name="writing" >
   <i type="int" name="NWRITE">     2</i>
   <i type="logical" name="LWAVE"> F  </i>
   <i type="logical" name="LCHARG"> F  </i>
   <i type="logical" name="LPARD"> F  </i>
   <i type="logical" name="LVTOT"> F  </i>
   <i type="logical" name="LVHAR"> F  </i>
   <i type="logical" name="LELF"> F  </i>
   <i type="logical" name="LOPTICS"> F  </i>
   <v name="STM">      0.00000000      0.00000000      0.00000000      0.00000000      0.00000000      0.00000000      0.00000000</v>
  </separator>
  <separator name="performance" >
   <i type="int" name="NPAR">    40</i>
   <i type="int" name="NSIM">     4</i>
   <i type="int" name="NBLK">    -1</i>
   <i type="logical" name="LPLANE"> F  </i>
   <i type="logical" name="LSCALAPACK"> T  </i>
   <i type="logical" name="LSCAAWARE"> F  </i>
   <i type="logical" name="LSCALU"> F  </i>
   <i type="logical" name="LASYNC"> F  </i>
   <i type="logical" name="LORBITALREAL"> F  </i>
  </separator>
  <separator name="miscellaneous" >
   <i type="int" name="IDIOT">     3</i>
   <i type="logical" name="LMUSIC"> F  </i>
   <v name="POMASS">     50.94100000     95.94000000    183.85000000     32.06600000</v>
   <v name="DARWINR">      0.00000000      0.00000000      0.00000000      0.00000000</v>
   <v name="DARWINV">      1.00000000      1.00000000      1.00000000      1.00000000</v>
   <i type="logical" name="LCORR"> T  </i>
  </separator>
  <i type="logical" name="GGA_COMPAT"> T  </i>
  <i type="logical" name="LBERRY"> F  </i>
  <i type="int" name="ICORELEVEL">     0</i>
  <i type="logical" name="LDAU"> F  </i>
  <i type="int" name="I_CONSTRAINED_M">     0</i>
  <separator name="electronic exchange-correlation" >
   <i type="string" name="GGA">--</i>
   <i type="int" name="VOSKOWN">     0</i>
   <i type="logical" name="LHFCALC"> F  </i>
   <i type="string" name="PRECFOCK"></i>
   <i type="logical" name="LSYMGRAD"> F  </i>
   <i type="logical" name="LHFONE"> F  </i>
   <i type="logical" name="LRHFCALC"> F  </i>
   <i type="logical" name="LTHOMAS"> F  </i>
   <i type="logical" name="LMODELHF"> F  </i>
   <i name="ENCUT4O">     -1.00000000</i>
   <i type="int" name="EXXOEP">     0</i>
   <i type="int" name="FOURORBIT">     0</i>
   <i name="AEXX">      0.00000000</i>
   <i name="HFALPHA">      0.00000000</i>
   <i name="MCALPHA">      0.00000000</i>
   <i name="ALDAX">      1.00000000</i>
   <i name="AGGAX">      1.00000000</i>
   <i name="ALDAC">      1.00000000</i>
   <i name="AGGAC">      1.00000000</i>
   <i type="int" name="NKREDX">     1</i>
   <i type="int" name="NKREDY">     1</i>
   <i type="int" name="NKREDZ">     1</i>
   <i type="logical" name="SHIFTRED"> F  </i>
   <i type="logical" name="ODDONLY"> F  </i>
   <i type="logical" name="EVENONLY"> F  </i>
   <i type="int" name="LMAXFOCK">     0</i>
   <i type="int" name="NMAXFOCKAE">     0</i>
   <i type="logical" name="LFOCKAEDFT"> F  </i>
   <i name="HFSCREEN">      0.00000000</i>
   <i name="HFSCREENC">      0.00000000</i>
   <i type="int" name="NBANDSGWLOW">     0</i>
  </separator>
  <separator name="vdW DFT" >
   <i type="logical" name="LUSE_VDW"> F  </i>
   <i name="Zab_VDW">     -0.84910000</i>
   <i name="PARAM1">      0.12340000</i>
   <i name="PARAM2">      1.00000000</i>
   <i name="PARAM3">      0.00000000</i>
  </separator>
  <separator name="model GW" >
   <i type="int" name="MODEL_GW">     0</i>
   <i name="MODEL_EPS0">     58.26239943</i>
   <i name="MODEL_ALPHA">      1.00000000</i>
  </separator>
  <separator name="linear response parameters" >
   <i type="logical" name="LEPSILON"> F  </i>
   <i type="logical" name="LRPA"> F  </i>
   <i type="logical" name="LNABLA"> F  </i>
   <i type="logical" name="LVEL"> F  </i>
   <i type="int" name="KINTER">     0</i>
   <i name="CSHIFT">      0.10000000</i>
   <i name="OMEGAMAX">     -1.00000000</i>
   <i name="DEG_THRESHOLD">      0.00200000</i>
  </separator>
  <separator name="orbital magnetization" >
   <i type="logical" name="NUCIND"> F  </i>
   <v name="MAGPOS">      0.00000000      0.00000000      0.00000000</v>
   <i type="logical" name="LNICSALL"> T  </i>
   <i type="logical" name="ORBITALMAG"> F  </i>
   <i type="logical" name="LMAGBLOCH"> F  </i>
   <i type="logical" name="LCHIMAG"> F  </i>
   <i type="logical" name="LGAUGE"> T  </i>
   <i type="int" name="MAGATOM">     0</i>
   <v name="MAGDIPOL">      0.00000000      0.00000000      0.00000000</v>
   <v name="AVECCONST">      0.00000000      0.00000000      0.00000000</v>
  </separator>
  <separator name="response functions" >
   <i type="logical" name="LADDER"> F  </i>
   <i type="logical" name="LFXC"> F  </i>
   <i type="logical" name="LHARTREE"> T  </i>
   <i type="int" name="IBSE">     0</i>
   <v type="int" name="KPOINT">    -1     0     0     0</v>
   <i type="logical" name="LTCTE"> F  </i>
   <i type="logical" name="LTETE"> F  </i>
   <i type="logical" name="LTRIPLET"> F  </i>
   <i type="logical" name="LFXCEPS"> F  </i>
   <i type="logical" name="LFXHEG"> F  </i>
   <i type="int" name="NATURALO">     0</i>
   <i type="logical" name="L2ORDER"> F  </i>
   <i type="logical" name="LUSEW"> F  </i>
   <i name="ENCUTGW">     -2.00000000</i>
   <i name="ENCUTGWSOFT">     -2.00000000</i>
   <i name="ENCUTLF">     -1.00000000</i>
   <i type="int" name="LMAXMP2">    -1</i>
   <i name="SCISSOR">      0.00000000</i>
   <i type="int" name="NOMEGA">     0</i>
   <i type="int" name="NOMEGAR">     0</i>
   <i type="int" name="NBANDSGW">    -1</i>
   <i type="int" name="NBANDSO">    -1</i>
   <i type="int" name="NBANDSV">    -1</i>
   <i type="int" name="NELM">     1</i>
   <i type="int" name="NELMHF">     1</i>
   <i type="int" name="DIM">     3</i>
   <i type="int" name="ANTIRES">     0</i>
   <i name="OMEGAMAX">    -30.00000000</i>
   <i name="OMEGAMIN">    -30.00000000</i>
   <i name="OMEGATL">   -200.00000000</i>
   <i type="int" name="OMEGAGRID">     0</i>
   <i name="CSHIFT">     -0.10000000</i>
   <i type="logical" name="SELFENERGY"> F  </i>
   <i type="logical" name="LSPECTRAL"> F  </i>
   <i type="logical" name="LSPECTRALGW"> F  </i>
   <i type="logical" name="LSINGLES"> F  </i>
   <i type="logical" name="LFERMIGW"> F  </i>
   <i type="logical" name="ODDONLYGW"> F  </i>
   <i type="logical" name="EVENONLYGW"> F  </i>
   <i type="int" name="NKREDLFX">     1</i>
   <i type="int" name="NKREDLFY">     1</i>
   <i type="int" name="NKREDLFZ">     1</i>
   <i type="int" name="MAXMEM">  1800</i>
   <i type="int" name="TELESCOPE">     0</i>
   <i type="int" name="TAUPAR">     1</i>
   <i type="int" name="OMEGAPAR">    -1</i>
   <i name="LAMBDA">      1.00000000</i>
  </separator>
  <separator name="External order field" >
   <i name="OFIELD_KAPPA">      0.00000000</i>
   <v name="OFIELD_K">      0.00000000      0.00000000      0.00000000</v>
   <i name="OFIELD_Q6_NEAR">      0.00000000</i>
   <i name="OFIELD_Q6_FAR">      0.00000000</i>
   <i name="OFIELD_A">      0.00000000</i>
  </separator>
 </parameters>
 <atominfo>
  <atoms>      27 </atoms>
  <types>       4 </types>
  <array name="atoms" >
   <dimension dim="1">ion</dimension>
   <field type="string">element</field>
   <field type="int">atomtype</field>
   <set>
    <rc><c>V </c><c>   1</c></rc>
    <rc><c>V </c><c>   1</c></rc>
    <rc><c>V </c><c>   1</c></rc>
    <rc><c>Mo</c><c>   2</c></rc>
    <rc><c>Mo</c><c>   2</c></rc>
    <rc><c>Mo</c><c>   2</c></rc>
    <rc><c>W </c><c>   3</c></rc>
    <rc><c>W </c><c>   3</c></rc>
    <rc><c>W </c><c>   3</c></rc>
    <rc><c>S </c><c>   4</c></rc>
    <rc><c>S </c><c>   4</c></rc>
    <rc><c>S </c><c>   4</c></rc>
    <rc><c>S </c><c>   4</c></rc>
    <rc><c>S </c><c>   4</c></rc>
    <rc><c>S </c><c>   4</c></rc>
    <rc><c>S </c><c>   4</c></rc>
    <rc><c>S </c><c>   4</c></rc>
    <rc><c>S </c><c>   4</c></rc>
    <rc><c>S </c><c>   4</c></rc>
    <rc><c>S </c><c>   4</c></rc>
    <rc><c>S </c><c>   4</c></rc>
    <rc><c>S </c><c>   4</c></rc>
    <rc><c>S </c><c>   4</c></rc>
    <rc><c>S </c><c>   4</c></rc>
    <rc><c>S </c><c>   4</c></rc>
    <rc><c>S </c><c>   4</c></rc>
    <rc><c>S </c><c>   4</c></rc>
   </set>
  </array>
  <array name="atomtypes" >
   <dimension dim="1">type</dimension>
   <field type="int">atomspertype</field>
   <field type="string">element</field>
   <field>mass</field>
   <field>valence</field>
   <field type="string">pseudopotential</field>
   <set>
    <rc><c>   3</c><c>V </c><c>     50.94100000</c><c>      5.00000000</c><c> PAW_PBE V 08Apr2002                    </c></rc>
    <rc><c>   3</c><c>Mo</c><c>     95.94000000</c><c>      6.00000000</c><c> PAW_PBE Mo 08Apr2002                   </c></rc>
    <rc><c>   3</c><c>W </c><c>    183.85000000</c><c>      6.00000000</c><c> PAW_PBE W 08Apr2002                    </c></rc>
    <rc><c>  18</c><c>S </c><c>     32.06600000</c><c>      6.00000000</c><c>  PAW_PBE S 17Jan2003                   </c></rc>
   </set>
  </array>
 </atominfo>
 <structure name="initialpos" >
  <crystal>
   <varray name="basis" >
    <v>       8.66999996       5.03999989       0.00000000 </v>
    <v>      -8.66999982       5.04000013       0.00000000 </v>
    <v>       0.00000000       0.00000000      30.00000000 </v>
   </varray>
   <i name="volume">   2621.80797419 </i>
   <varray name="rec_basis" >
    <v>       0.05767013       0.09920635       0.00000000 </v>
    <v>      -0.05767013       0.09920635       0.00000000 </v>
    <v>       0.00000000       0.00000000       0.03333333 </v>
   </varray>
  </crystal>
  <varray name="positions" >
   <v>       1.00000000       0.33333334       0.00000000 </v>
   <v>       0.00000000       0.00000000       0.00000000 </v>
   <v>       0.33333334       0.66666669       0.00000000 </v>
   <v>       0.33333334       0.33333334       0.00000000 </v>
   <v>       0.66666669       0.66666669       0.00000000 </v>
   <v>       0.66666669       0.00000000       0.00000000 </v>
   <v>       0.00000000       0.66666669       0.00000000 </v>
   <v>       0.33333334       0.00000000       0.00000000 </v>
   <v>       0.66666669       0.33333334       0.00000000 </v>
   <v>       0.11068511       0.22244981       0.95539999 </v>
   <v>       0.22244981       0.11068511       0.04460000 </v>
   <v>       0.11068511       0.55578315       0.95539999 </v>
   <v>       0.22244981       0.44401845       0.04460000 </v>
   <v>       0.11068511       0.88911647       0.95539999 </v>
   <v>       0.22244981       0.77735180       0.04460000 </v>
   <v>       0.44401845       0.22244981       0.95539999 </v>
   <v>       0.55578315       0.11068511       0.04460000 </v>
   <v>       0.44401845       0.55578315       0.95539999 </v>
   <v>       0.55578315       0.44401845       0.04460000 </v>
   <v>       0.44401845       0.88911647       0.95539999 </v>
   <v>       0.55578315       0.77735180       0.04460000 </v>
   <v>       0.77735180       0.22244981       0.95539999 </v>
   <v>       0.88911647       0.11068511       0.04460000 </v>
   <v>       0.77735180       0.55578315       0.95539999 </v>
   <v>       0.88911647       0.44401845       0.04460000 </v>
   <v>       0.77735180       0.88911647       0.95539999 </v>
   <v>       0.88911647       0.77735180       0.04460000 </v>
  </varray>
 </structure>
 <calculation>
  <scstep>
   <time name="dav">   21.69   21.74</time>
   <time name="total">   21.73   21.79</time>
   <energy>
    <i name="alphaZ">     81.65567618 </i>
    <i name="ewald">  41890.23010355 </i>
    <i name="hartreedc"> -47722.87398579 </i>
    <i name="XCdc">   -242.92731903 </i>
    <i name="pawpsdc">   3467.42045192 </i>
    <i name="pawaedc">  -2871.19716117 </i>
    <i name="eentropy">     -0.53170967 </i>
    <i name="bandstr">   -237.02867692 </i>
    <i name="atom">   6761.44252427 </i>
    <i name="e_fr_energy">   1126.18990334 </i>
    <i name="e_wo_entrp">   1126.72161301 </i>
    <i name="e_0_energy">   1126.45575818 </i>
   </energy>
  </scstep>
  <scstep>
   <time name="dav">   28.09   28.16</time>
   <time name="total">   28.09   28.17</time>
   <energy>
    <i name="e_fr_energy">     -1.34222072 </i>
    <i name="e_wo_entrp">     -1.14247263 </i>
    <i name="e_0_energy">     -1.24234667 </i>
   </energy>
  </scstep>
  <scstep>
   <time name="dav">   27.56   27.62</time>
   <time name="total">   27.56   27.63</time>
   <energy>
    <i name="e_fr_energy">   -199.80885975 </i>
    <i name="e_wo_entrp">   -199.54069309 </i>
    <i name="e_0_energy">   -199.67477642 </i>
   </energy>
  </scstep>
  <scstep>
   <time name="dav">   29.50   29.57</time>
   <time name="total">   29.51   29.58</time>
   <energy>
    <i name="e_fr_energy">   -208.96354406 </i>
    <i name="e_wo_entrp">   -208.65916026 </i>
    <i name="e_0_energy">   -208.81135216 </i>
   </energy>
  </scstep>
  <scstep>
   <time name="dav">   28.84   28.91</time>
   <time name="total">   29.30   29.38</time>
   <energy>
    <i name="e_fr_energy">   -209.32614491 </i>
    <i name="e_wo_entrp">   -209.02448224 </i>
    <i name="e_0_energy">   -209.17531358 </i>
   </energy>
  </scstep>
  <scstep>
   <time name="dav">   30.88   30.95</time>
   <time name="total">   31.38   31.46</time>
   <energy>
    <i name="e_fr_energy">   -237.15584999 </i>
    <i name="e_wo_entrp">   -236.87650247 </i>
    <i name="e_0_energy">   -237.01617623 </i>
   </energy>
  </scstep>
  <scstep>
   <time name="dav">   32.23   32.31</time>
   <time name="total">   32.73   32.82</time>
   <energy>
    <i name="e_fr_energy">   -196.42301606 </i>
    <i name="e_wo_entrp">   -196.10920310 </i>
    <i name="e_0_energy">   -196.26610958 </i>
   </energy>
  </scstep>
  <scstep>
   <time name="dav">   29.66   29.74</time>
   <time name="total">   30.17   30.26</time>
   <energy>
    <i name="e_fr_energy">   -189.41300949 </i>
    <i name="e_wo_entrp">   -189.12021364 </i>
    <i name="e_0_energy">   -189.26661156 </i>
   </energy>
  </scstep>
  <scstep>
   <time name="dav">   31.60   31.67</time>
   <time name="total">   32.11   32.20</time>
   <energy>
    <i name="e_fr_energy">   -188.16605474 </i>
    <i name="e_wo_entrp">   -187.83016373 </i>
    <i name="e_0_energy">   -187.99810924 </i>
   </energy>
  </scstep>
  <scstep>
   <time name="dav">   32.73   32.81</time>
   <time name="total">   33.26   33.35</time>
   <energy>
    <i name="e_fr_energy">   -187.00570129 </i>
    <i name="e_wo_entrp">   -186.65846339 </i>
    <i name="e_0_energy">   -186.83208234 </i>
   </energy>
  </scstep>
  <scstep>
   <time name="dav">   32.25   32.33</time>
   <time name="total">   32.79   32.87</time>
   <energy>
    <i name="e_fr_energy">   -186.96876731 </i>
    <i name="e_wo_entrp">   -186.61844283 </i>
    <i name="e_0_energy">   -186.79360507 </i>
   </energy>
  </scstep>
  <scstep>
   <time name="dav">   30.14   30.21</time>
   <time name="total">   30.67   30.76</time>
   <energy>
    <i name="e_fr_energy">   -187.09813394 </i>
    <i name="e_wo_entrp">   -186.75877394 </i>
    <i name="e_0_energy">   -186.92845394 </i>
   </energy>
  </scstep>
  <scstep>
   <time name="dav">   31.09   31.17</time>
   <time name="total">   31.62   31.71</time>
   <energy>
    <i name="e_fr_energy">   -186.88320011 </i>
    <i name="e_wo_entrp">   -186.54648534 </i>
    <i name="e_0_energy">   -186.71484272 </i>
   </energy>
  </scstep>
  <scstep>
   <time name="dav">   32.13   32.21</time>
   <time name="total">   32.67   32.76</time>
   <energy>
    <i name="e_fr_energy">   -186.85817566 </i>
    <i name="e_wo_entrp">   -186.51321649 </i>
    <i name="e_0_energy">   -186.68569608 </i>
   </energy>
  </scstep>
  <scstep>
   <time name="dav">   29.65   29.72</time>
   <time name="total">   30.18   30.26</time>
   <energy>
    <i name="e_fr_energy">   -186.83986711 </i>
    <i name="e_wo_entrp">   -186.49290275 </i>
    <i name="e_0_energy">   -186.66638493 </i>
   </energy>
  </scstep>
  <scstep>
   <time name="dav">   29.86   29.93</time>
   <time name="total">   30.39   30.47</time>
   <energy>
    <i name="e_fr_energy">   -186.83235017 </i>
    <i name="e_wo_entrp">   -186.48560518 </i>
    <i name="e_0_energy">   -186.65897768 </i>
   </energy>
  </scstep>
  <scstep>
   <time name="dav">   31.03   31.11</time>
   <time name="total">   31.57   31.65</time>
   <energy>
    <i name="e_fr_energy">   -186.83025622 </i>
    <i name="e_wo_entrp">   -186.48545542 </i>
    <i name="e_0_energy">   -186.65785582 </i>
   </energy>
  </scstep>
  <scstep>
   <time name="dav">   29.25   29.32</time>
   <time name="total">   29.79   29.87</time>
   <energy>
    <i name="e_fr_energy">   -186.83000117 </i>
    <i name="e_wo_entrp">   -186.48485919 </i>
    <i name="e_0_energy">   -186.65743018 </i>
   </energy>
  </scstep>
  <scstep>
   <time name="dav">   27.62   27.69</time>
   <time name="total">   28.16   28.23</time>
   <energy>
    <i name="e_fr_energy">   -186.82964902 </i>
    <i name="e_wo_entrp">   -186.48432213 </i>
    <i name="e_0_energy">   -186.65698558 </i>
   </energy>
  </scstep>
  <scstep>
   <time name="dav">   24.04   24.10</time>
   <time name="total">   24.57   24.64</time>
   <energy>
    <i name="e_fr_energy">   -186.83037796 </i>
    <i name="e_wo_entrp">   -186.48520956 </i>
    <i name="e_0_energy">   -186.65779376 </i>
   </energy>
  </scstep>
  <scstep>
   <time name="dav">   21.50   21.55</time>
   <time name="total">   22.03   22.09</time>
   <energy>
    <i name="e_fr_energy">   -186.83097278 </i>
    <i name="e_wo_entrp">   -186.48598186 </i>
    <i name="e_0_energy">   -186.65847732 </i>
   </energy>
  </scstep>
  <scstep>
   <time name="dav">   20.24   20.29</time>
   <time name="total">   20.77   20.83</time>
   <energy>
    <i name="e_fr_energy">   -186.83213608 </i>
    <i name="e_wo_entrp">   -186.48697827 </i>
    <i name="e_0_energy">   -186.65955718 </i>
   </energy>
  </scstep>
  <scstep>
   <time name="dav">   20.54   20.59</time>
   <time name="total">   21.08   21.14</time>
   <energy>
    <i name="e_fr_energy">   -186.83337032 </i>
    <i name="e_wo_entrp">   -186.48832808 </i>
    <i name="e_0_energy">   -186.66084920 </i>
   </energy>
  </scstep>
  <scstep>
   <time name="dav">   18.36   18.40</time>
   <time name="total">   18.89   18.95</time>
   <energy>
    <i name="e_fr_energy">   -186.83395592 </i>
    <i name="e_wo_entrp">   -186.48889820 </i>
    <i name="e_0_energy">   -186.66142706 </i>
   </energy>
  </scstep>
  <scstep>
   <time name="dav">   16.92   16.96</time>
   <time name="total">   17.45   17.50</time>
   <energy>
    <i name="e_fr_energy">   -186.83431737 </i>
    <i name="e_wo_entrp">   -186.48921209 </i>
    <i name="e_0_energy">   -186.66176473 </i>
   </energy>
  </scstep>
  <scstep>
   <time name="dav">   18.86   18.90</time>
   <time name="total">   19.39   19.45</time>
   <energy>
    <i name="e_fr_energy">   -186.83454411 </i>
    <i name="e_wo_entrp">   -186.48945575 </i>
    <i name="e_0_energy">   -186.66199993 </i>
   </energy>
  </scstep>
  <scstep>
   <time name="dav">   19.65   19.70</time>
   <time name="total">   20.19   20.24</time>
   <energy>
    <i name="e_fr_energy">   -186.83464759 </i>
    <i name="e_wo_entrp">   -186.48955930 </i>
    <i name="e_0_energy">   -186.66210345 </i>
   </energy>
  </scstep>
  <scstep>
   <time name="dav">   20.30   20.35</time>
   <time name="total">   20.34   20.39</time>
   <energy>
    <i name="alphaZ">     81.65567618 </i>
    <i name="ewald">  41890.23010355 </i>
    <i name="hartreedc"> -47832.88118251 </i>
    <i name="XCdc">   -231.61041120 </i>
    <i name="pawpsdc">   4192.02001645 </i>
    <i name="pawaedc">  -3610.02409938 </i>
    <i name="eentropy">     -0.34508556 </i>
    <i name="bandstr">  -1437.32223596 </i>
    <i name="atom">   6761.44252427 </i>
    <i name="e_fr_energy">   -186.83469416 </i>
    <i name="e_wo_entrp">   -186.48960860 </i>
    <i name="e_0_energy">   -186.66215138 </i>
   </energy>
  </scstep>
  <structure>
   <crystal>
    <varray name="basis" >
     <v>       8.66999996       5.03999989       0.00000000 </v>
     <v>      -8.66999982       5.04000013       0.00000000 </v>
     <v>       0.00000000       0.00000000      30.00000000 </v>
    </varray>
    <i name="volume">   2621.80797419 </i>
    <varray name="rec_basis" >
     <v>       0.05767013       0.09920635       0.00000000 </v>
     <v>      -0.05767013       0.09920635       0.00000000 </v>
     <v>       0.00000000       0.00000000       0.03333333 </v>
    </varray>
   </crystal>
   <varray name="positions" >
    <v>       1.00000000       0.33333334       0.00000000 </v>
    <v>       0.00000000       0.00000000       0.00000000 </v>
    <v>       0.33333334       0.66666669       0.00000000 </v>
    <v>       0.33333334       0.33333334       0.00000000 </v>
    <v>       0.66666669       0.66666669       0.00000000 </v>
    <v>       0.66666669       0.00000000       0.00000000 </v>
    <v>       0.00000000       0.66666669       0.00000000 </v>
    <v>       0.33333334       0.00000000       0.00000000 </v>
    <v>       0.66666669       0.33333334       0.00000000 </v>
    <v>       0.11068511       0.22244981       0.95539999 </v>
    <v>       0.22244981       0.11068511       0.04460000 </v>
    <v>       0.11068511       0.55578315       0.95539999 </v>
    <v>       0.22244981       0.44401845       0.04460000 </v>
    <v>       0.11068511       0.88911647       0.95539999 </v>
    <v>       0.22244981       0.77735180       0.04460000 </v>
    <v>       0.44401845       0.22244981       0.95539999 </v>
    <v>       0.55578315       0.11068511       0.04460000 </v>
    <v>       0.44401845       0.55578315       0.95539999 </v>
    <v>       0.55578315       0.44401845       0.04460000 </v>
    <v>       0.44401845       0.88911647       0.95539999 </v>
    <v>       0.55578315       0.77735180       0.04460000 </v>
    <v>       0.77735180       0.22244981       0.95539999 </v>
    <v>       0.88911647       0.11068511       0.04460000 </v>
    <v>       0.77735180       0.55578315       0.95539999 </v>
    <v>       0.88911647       0.44401845       0.04460000 </v>
    <v>       0.77735180       0.88911647       0.95539999 </v>
    <v>       0.88911647       0.77735180       0.04460000 </v>
   </varray>
  </structure>
  <varray name="forces" >
   <v>       0.29315933      -0.05672788      -0.01689891 </v>
   <v>      -0.29919033      -0.09069862       0.10642205 </v>
   <v>       0.44581747       0.15970940      -0.09311408 </v>
   <v>      -0.06252397       0.24079188       0.02659111 </v>
   <v>      -0.27903370      -0.12748078       0.10551918 </v>
   <v>       0.27985341      -0.13680461      -0.01139140 </v>
   <v>      -0.19784901      -0.13647317      -0.03099836 </v>
   <v>      -0.00725860       0.27753038      -0.09951006 </v>
   <v>      -0.24226726      -0.15552139      -0.02888526 </v>
   <v>      -0.32454540      -0.66236926      -1.41679863 </v>
   <v>      -0.38390599      -0.72286408       2.14134672 </v>
   <v>       0.74041202       0.01706948      -1.45607466 </v>
   <v>      -0.89114941      -0.00363219       1.46101350 </v>
   <v>      -0.58046625       0.01190309      -2.10302734 </v>
   <v>       0.59871003      -0.00460360       2.07567923 </v>
   <v>       0.29470749      -0.00370525      -2.94535291 </v>
   <v>      -0.26134888       0.03143874       2.90210584 </v>
   <v>      -0.78041517      -0.01147644      -2.14964464 </v>
   <v>       0.04840134       0.02757185       2.91413637 </v>
   <v>       0.36321596      -0.72956078      -2.17411041 </v>
   <v>      -0.50826471      -0.68745538       2.17921545 </v>
   <v>       0.35809074       0.69495823      -2.11802590 </v>
   <v>       0.35634840       0.66945686       1.45463010 </v>
   <v>       0.29642655      -0.01049056      -2.87694177 </v>
   <v>       0.59477895      -0.00561857       2.12067151 </v>
   <v>       0.51678944       0.69998046      -2.15184900 </v>
   <v>      -0.36849246       0.71507221       2.18529227 </v>
  </varray>
  <varray name="stress" >
   <v>       7.20082957       0.08245218      -1.38631940 </v>
   <v>       0.08245209       4.52965997       0.01075525 </v>
   <v>      -1.38631945       0.01075525      30.32971970 </v>
  </varray>
  <energy>
   <i name="e_fr_energy">   -186.83469416 </i>
   <i name="e_wo_entrp">   -186.66215138 </i>
   <i name="e_0_energy">     -0.34508556 </i>
  </energy>
  <time name="totalsc">  800.47  802.63</time>
 </calculation>
 <calculation>
  <scstep>
   <time name="dav">   21.70   21.75</time>
   <time name="total">   22.24   22.30</time>
   <energy>
    <i name="alphaZ">     78.92661576 </i>
    <i name="ewald">  39381.93037407 </i>
    <i name="hartreedc"> -45339.42578357 </i>
    <i name="XCdc">   -239.06652569 </i>
    <i name="pawpsdc">   4192.01869630 </i>
    <i name="pawaedc">  -3610.02276593 </i>
    <i name="eentropy">     -0.28629766 </i>
    <i name="bandstr">  -1412.97613091 </i>
    <i name="atom">   6761.44252427 </i>
    <i name="e_fr_energy">   -187.45929335 </i>
    <i name="e_wo_entrp">   -187.17299569 </i>
    <i name="e_0_energy">   -187.31614452 </i>
   </energy>
  </scstep>
  <scstep>
   <time name="dav">   30.31   30.38</time>
   <time name="total">   30.84   30.92</time>
   <energy>
    <i name="e_fr_energy">   -189.36037756 </i>
    <i name="e_wo_entrp">   -189.04002983 </i>
    <i name="e_0_energy">   -189.20020369 </i>
   </energy>
  </scstep>
  <scstep>
   <time name="dav">   30.42   30.49</time>
   <time name="total">   30.97   31.05</time>
   <energy>
    <i name="e_fr_energy">   -189.32168456 </i>
    <i name="e_wo_entrp">   -189.04241291 </i>
    <i name="e_0_energy">   -189.18204873 </i>
   </energy>
  </scstep>
  <scstep>
   <time name="dav">   30.69   30.76</time>
   <time name="total">   31.23   31.31</time>
   <energy>
    <i name="e_fr_energy">   -188.73204920 </i>
    <i name="e_wo_entrp">   -188.44564831 </i>
    <i name="e_0_energy">   -188.58884876 </i>
   </energy>
  </scstep>
  <scstep>
   <time name="dav">   26.52   26.58</time>
   <time name="total">   27.06   27.13</time>
   <energy>
    <i name="e_fr_energy">   -188.73423903 </i>
    <i name="e_wo_entrp">   -188.44792648 </i>
    <i name="e_0_energy">   -188.59108276 </i>
   </energy>
  </scstep>
  <scstep>
   <time name="dav">   29.49   29.56</time>
   <time name="total">   30.04   30.12</time>
   <energy>
    <i name="e_fr_energy">   -188.69093225 </i>
    <i name="e_wo_entrp">   -188.40181266 </i>
    <i name="e_0_energy">   -188.54637246 </i>
   </energy>
  </scstep>
  <scstep>
   <time name="dav">   30.79   30.86</time>
   <time name="total">   31.33   31.42</time>
   <energy>
    <i name="e_fr_energy">   -188.67588901 </i>
    <i name="e_wo_entrp">   -188.38989121 </i>
    <i name="e_0_energy">   -188.53289011 </i>
   </energy>
  </scstep>
  <scstep>
   <time name="dav">   30.76   30.84</time>
   <time name="total">   31.30   31.39</time>
   <energy>
    <i name="e_fr_energy">   -188.64021114 </i>
    <i name="e_wo_entrp">   -188.35468463 </i>
    <i name="e_0_energy">   -188.49744789 </i>
   </energy>
  </scstep>
  <scstep>
   <time name="dav">   26.96   27.03</time>
   <time name="total">   27.51   27.58</time>
   <energy>
    <i name="e_fr_energy">   -188.63422986 </i>
    <i name="e_wo_entrp">   -188.34934358 </i>
    <i name="e_0_energy">   -188.49178672 </i>
   </energy>
  </scstep>
  <scstep>
   <time name="dav">   30.84   30.91</time>
   <time name="total">   31.38   31.47</time>
   <energy>
    <i name="e_fr_energy">   -188.63463661 </i>
    <i name="e_wo_entrp">   -188.34955040 </i>
    <i name="e_0_energy">   -188.49209351 </i>
   </energy>
  </scstep>
  <scstep>
   <time name="dav">   31.94   32.02</time>
   <time name="total">   32.48   32.57</time>
   <energy>
    <i name="e_fr_energy">   -188.63427320 </i>
    <i name="e_wo_entrp">   -188.34987654 </i>
    <i name="e_0_energy">   -188.49207487 </i>
   </energy>
  </scstep>
  <scstep>
   <time name="dav">   29.29   29.36</time>
   <time name="total">   29.84   29.92</time>
   <energy>
    <i name="e_fr_energy">   -188.63380449 </i>
    <i name="e_wo_entrp">   -188.34960441 </i>
    <i name="e_0_energy">   -188.49170445 </i>
   </energy>
  </scstep>
  <scstep>
   <time name="dav">   19.92   19.97</time>
   <time name="total">   19.96   20.02</time>
   <energy>
    <i name="alphaZ">     78.92661576 </i>
    <i name="ewald">  39381.93037407 </i>
    <i name="hartreedc"> -45350.16982135 </i>
    <i name="XCdc">   -237.98209168 </i>
    <i name="pawpsdc">   3950.22177273 </i>
    <i name="pawaedc">  -3364.72296543 </i>
    <i name="eentropy">     -0.28436069 </i>
    <i name="bandstr">  -1407.99589498 </i>
    <i name="atom">   6761.44252427 </i>
    <i name="e_fr_energy">   -188.63384730 </i>
    <i name="e_wo_entrp">   -188.34948661 </i>
    <i name="e_0_energy">   -188.49166695 </i>
   </energy>
  </scstep>
  <structure>
   <crystal>
    <varray name="basis" >
     <v>       8.85375555       5.10884045       0.00000000 </v>
     <v>      -8.85132533       5.10466038       0.00000000 </v>
     <v>       0.00000000       0.00000000      30.00000000 </v>
    </varray>
    <i name="volume">   2712.46272074 </i>
    <varray name="rec_basis" >
     <v>       0.05645785       0.09789619       0.00000000 </v>
     <v>      -0.05650408       0.09792307       0.00000000 </v>
     <v>       0.00000000       0.00000000       0.03333333 </v>
    </varray>
   </crystal>
   <varray name="positions" >
    <v>       1.00054412       0.33224623      -0.00002717 </v>
    <v>      -0.00126648       0.00039831       0.00017114 </v>
    <v>       0.33533804       0.66619072      -0.00014974 </v>
    <v>       0.33431182       0.33465972       0.00004276 </v>
    <v>       0.66528025       0.66683288       0.00016968 </v>
    <v>       0.66679054      -0.00143334      -0.00001832 </v>
    <v>      -0.00120361       0.66656398      -0.00004985 </v>
    <v>       0.33464140       0.00134845      -0.00016002 </v>
    <v>       0.66524834       0.33326305      -0.00004645 </v>
    <v>       0.10661209       0.22018266       0.95312165 </v>
    <v>       0.21792211       0.10829359       0.04804347 </v>
    <v>       0.11282675       0.55380490       0.95305849 </v>
    <v>       0.21995311       0.44648039       0.04694944 </v>
    <v>       0.10912713       0.89078838       0.95201814 </v>
    <v>       0.22409348       0.77566406       0.04793787 </v>
    <v>       0.44482064       0.22161215       0.95066360 </v>
    <v>       0.55520650       0.11156269       0.04926684 </v>
    <v>       0.44179229       0.55789947       0.95194317 </v>
    <v>       0.55604977       0.44401575       0.04928619 </v>
    <v>       0.44153732       0.88461428       0.95190383 </v>
    <v>       0.55107893       0.77547572       0.04810437 </v>
    <v>       0.78167412       0.22477960       0.95199402 </v>
    <v>       0.89331189       0.11289770       0.04693917 </v>
    <v>       0.77812630       0.55490824       0.95077361 </v>
    <v>       0.89074435       0.44233679       0.04801023 </v>
    <v>       0.78213968       0.89102877       0.95193963 </v>
    <v>       0.89151358       0.78179932       0.04811414 </v>
   </varray>
  </structure>
  <varray name="forces" >
   <v>       0.17860065      -0.05426274      -0.07683821 </v>
   <v>      -0.20175006      -0.14218732       0.02887369 </v>
   <v>       0.35703555       0.18373937      -0.01897867 </v>
   <v>       0.28261019       0.35945712       0.06884313 </v>
   <v>      -0.08314289      -0.14863212       0.02488916 </v>
   <v>       0.12031217      -0.20485070      -0.07325711 </v>
   <v>      -0.24048563      -0.19870298       0.01498480 </v>
   <v>      -0.00463340       0.43785504       0.06778076 </v>
   <v>      -0.33937785      -0.24102152      -0.00286236 </v>
   <v>      -0.01098882      -0.03271304       0.08364293 </v>
   <v>       0.11220235      -0.05468513      -0.10669690 </v>
   <v>      -0.10501391       0.00429083       0.21074003 </v>
   <v>      -0.03806536       0.00164097      -0.08217886 </v>
   <v>       0.07362108       0.00788838       0.12252188 </v>
   <v>      -0.08631192      -0.00877824      -0.25658837 </v>
   <v>       0.10963771       0.00071585      -0.15559973 </v>
   <v>      -0.10741278       0.00186484      -0.00574486 </v>
   <v>      -0.07838647       0.00126574      -0.17834914 </v>
   <v>       0.13130648       0.01705038       0.17597591 </v>
   <v>      -0.09850965      -0.07398581      -0.00839988 </v>
   <v>      -0.03076624      -0.07871400       0.16008730 </v>
   <v>      -0.09746843       0.05418602       0.14068422 </v>
   <v>       0.02577395       0.04172468       0.03389516 </v>
   <v>       0.08993985      -0.00192379      -0.01107710 </v>
   <v>      -0.08802480       0.00157832      -0.12870774 </v>
   <v>       0.03342193       0.07102087      -0.04181325 </v>
   <v>       0.09587629       0.05617898       0.01417321 </v>
  </varray>
  <varray name="stress" >
   <v>     -19.89818556      -0.01767185       0.07420760 </v>
   <v>      -0.01767178     -19.50881989      -0.05077343 </v>
   <v>       0.07420752      -0.05077344      -1.73353587 </v>
  </varray>
  <energy>
   <i name="e_fr_energy">   -188.63384730 </i>
   <i name="e_wo_entrp">   -188.49166695 </i>
   <i name="e_0_energy">     -0.28436069 </i>
  </energy>
  <time name="totalsc">  418.33  419.43</time>
 </calculation>
 <calculation>
  <scstep>
   <time name="dav">   23.85   23.91</time>
   <time name="total">   24.39   24.45</time>
   <energy>
    <i name="alphaZ">     82.34456623 </i>
    <i name="ewald">  41301.66166316 </i>
    <i name="hartreedc"> -47300.37407918 </i>
    <i name="XCdc">   -233.86718984 </i>
    <i name="pawpsdc">   3949.52855910 </i>
    <i name="pawaedc">  -3364.02373988 </i>
    <i name="eentropy">     -0.23675472 </i>
    <i name="bandstr">  -1387.02100539 </i>
    <i name="atom">   6761.44252427 </i>
    <i name="e_fr_energy">   -190.54545625 </i>
    <i name="e_wo_entrp">   -190.30870153 </i>
    <i name="e_0_energy">   -190.42707889 </i>
   </energy>
  </scstep>
  <scstep>
   <time name="dav">   28.42   28.49</time>
   <time name="total">   28.94   29.02</time>
   <energy>
    <i name="e_fr_energy">   -190.54195026 </i>
    <i name="e_wo_entrp">   -190.30242972 </i>
    <i name="e_0_energy">   -190.42218999 </i>
   </energy>
  </scstep>
  <scstep>
   <time name="dav">   30.17   30.24</time>
   <time name="total">   30.70   30.78</time>
   <energy>
    <i name="e_fr_energy">   -190.02051411 </i>
    <i name="e_wo_entrp">   -189.77208600 </i>
    <i name="e_0_energy">   -189.89630005 </i>
   </energy>
  </scstep>
  <scstep>
   <time name="dav">   31.39   31.47</time>
   <time name="total">   31.92   32.01</time>
   <energy>
    <i name="e_fr_energy">   -189.81783560 </i>
    <i name="e_wo_entrp">   -189.58022679 </i>
    <i name="e_0_energy">   -189.69903119 </i>
   </energy>
  </scstep>
  <scstep>
   <time name="dav">   28.19   28.26</time>
   <time name="total">   28.72   28.80</time>
   <energy>
    <i name="e_fr_energy">   -189.73754854 </i>
    <i name="e_wo_entrp">   -189.49546550 </i>
    <i name="e_0_energy">   -189.61650702 </i>
   </energy>
  </scstep>
  <scstep>
   <time name="dav">   29.42   29.49</time>
   <time name="total">   29.95   30.03</time>
   <energy>
    <i name="e_fr_energy">   -189.72134684 </i>
    <i name="e_wo_entrp">   -189.48237840 </i>
    <i name="e_0_energy">   -189.60186262 </i>
   </energy>
  </scstep>
  <scstep>
   <time name="dav">   30.24   30.31</time>
   <time name="total">   30.78   30.87</time>
   <energy>
    <i name="e_fr_energy">   -189.71527423 </i>
    <i name="e_wo_entrp">   -189.47534677 </i>
    <i name="e_0_energy">   -189.59531050 </i>
   </energy>
  </scstep>
  <scstep>
   <time name="dav">   27.52   27.59</time>
   <time name="total">   28.06   28.13</time>
   <energy>
    <i name="e_fr_energy">   -189.71518321 </i>
    <i name="e_wo_entrp">   -189.47568944 </i>
    <i name="e_0_energy">   -189.59543632 </i>
   </energy>
  </scstep>
  <scstep>
   <time name="dav">   26.59   26.65</time>
   <time name="total">   26.63   26.70</time>
   <energy>
    <i name="alphaZ">     82.34456623 </i>
    <i name="ewald">  41301.66166316 </i>
    <i name="hartreedc"> -47272.77139740 </i>
    <i name="XCdc">   -235.25828139 </i>
    <i name="pawpsdc">   4029.44363016 </i>
    <i name="pawaedc">  -3445.05458616 </i>
    <i name="eentropy">     -0.23982098 </i>
    <i name="bandstr">  -1411.28353397 </i>
    <i name="atom">   6761.44252427 </i>
    <i name="e_fr_energy">   -189.71523607 </i>
    <i name="e_wo_entrp">   -189.47541509 </i>
    <i name="e_0_energy">   -189.59532558 </i>
   </energy>
  </scstep>
  <structure>
   <crystal>
    <varray name="basis" >
     <v>       8.66612701       5.00258041       0.00000000 </v>
     <v>      -8.66394039       4.99882020       0.00000000 </v>
     <v>       0.00000000       0.00000000      30.00000000 </v>
    </varray>
    <i name="volume">   2599.87407463 </i>
    <varray name="rec_basis" >
     <v>       0.05768149       0.09997338       0.00000000 </v>
     <v>      -0.05772488       0.09999862       0.00000000 </v>
     <v>       0.00000000       0.00000000       0.03333333 </v>
    </varray>
   </crystal>
   <varray name="positions" >
    <v>       1.00062512       0.33198470      -0.00007066 </v>
    <v>      -0.00169615       0.00035547       0.00018748 </v>
    <v>       0.33598561       0.66615368      -0.00016048 </v>
    <v>       0.33518008       0.33498618       0.00008172 </v>
    <v>       0.66495355       0.66666555       0.00018377 </v>
    <v>       0.66656541      -0.00188929      -0.00005977 </v>
    <v>      -0.00176433       0.66646434      -0.00004137 </v>
    <v>       0.33536464       0.00208078      -0.00012167 </v>
    <v>       0.66452250       0.33318792      -0.00004807 </v>
    <v>       0.10654719       0.22013882       0.95316898 </v>
    <v>       0.21793877       0.10809505       0.04798310 </v>
    <v>       0.11273323       0.55391277       0.95317775 </v>
    <v>       0.21991935       0.44651963       0.04690293 </v>
    <v>       0.10921080       0.89073088       0.95208747 </v>
    <v>       0.22399617       0.77573226       0.04779268 </v>
    <v>       0.44492692       0.22150817       0.95057555 </v>
    <v>       0.55510665       0.11166882       0.04926359 </v>
    <v>       0.44171926       0.55797676       0.95184225 </v>
    <v>       0.55620396       0.44391814       0.04938577 </v>
    <v>       0.44131994       0.88458578       0.95189907 </v>
    <v>       0.55091863       0.77537438       0.04819496 </v>
    <v>       0.78167075       0.22496317       0.95207363 </v>
    <v>       0.89340594       0.11294234       0.04695835 </v>
    <v>       0.77820930       0.55481877       0.95076734 </v>
    <v>       0.89066260       0.44242385       0.04793739 </v>
    <v>       0.78228974       0.89111477       0.95191597 </v>
    <v>       0.89169884       0.78180074       0.04812216 </v>
   </varray>
  </structure>
  <varray name="forces" >
   <v>       0.12696267      -0.05731239      -0.07442610 </v>
   <v>      -0.15395501      -0.16764441       0.00099321 </v>
   <v>       0.33083864       0.20791518       0.00512463 </v>
   <v>       0.39912714       0.38945318       0.05479617 </v>
   <v>      -0.02043152      -0.16408490      -0.00064331 </v>
   <v>       0.05405016      -0.22865996      -0.06913673 </v>
   <v>      -0.25201425      -0.22106509       0.02064030 </v>
   <v>      -0.00932772       0.49870484       0.08402166 </v>
   <v>      -0.37964227      -0.27923032      -0.00285217 </v>
   <v>      -0.03200940      -0.07288300      -0.35232973 </v>
   <v>      -0.00899086      -0.10464960       0.38756730 </v>
   <v>       0.05003792       0.00917108      -0.24300552 </v>
   <v>      -0.10799443       0.00451733       0.35787422 </v>
   <v>      -0.06995145       0.01800729      -0.37045049 </v>
   <v>       0.05726036      -0.00973396       0.22082450 </v>
   <v>       0.02147298       0.00379322      -0.74605151 </v>
   <v>      -0.01696644       0.01381319       0.55582295 </v>
   <v>      -0.14049849      -0.00146822      -0.67836344 </v>
   <v>       0.04920767       0.02299475       0.74907027 </v>
   <v>       0.01747154      -0.14002321      -0.51638365 </v>
   <v>      -0.07517112      -0.14315400       0.66051672 </v>
   <v>       0.01015319       0.11148808      -0.33638723 </v>
   <v>       0.04480598       0.09784979       0.49315432 </v>
   <v>       0.00747052      -0.01020185      -0.56993541 </v>
   <v>       0.05769700      -0.01141516       0.36950125 </v>
   <v>       0.07464462       0.12462733      -0.52981933 </v>
   <v>      -0.03424742       0.10919081       0.52987712 </v>
  </varray>
  <varray name="stress" >
   <v>     -10.18978504      -0.01476519       0.02729222 </v>
   <v>      -0.01476527      -9.96626230      -0.06037026 </v>
   <v>       0.02729224      -0.06037025       6.58114409 </v>
  </varray>
  <energy>
   <i name="e_fr_energy">   -189.71523607 </i>
   <i name="e_wo_entrp">   -189.59532558 </i>
   <i name="e_0_energy">     -0.23982098 </i>
  </energy>
  <time name="totalsc">  301.79  302.59</time>
 </calculation>
 <calculation>
  <scstep>
   <time name="dav">   21.69   21.74</time>
   <time name="total">   22.20   22.26</time>
   <energy>
    <i name="alphaZ">     85.87680990 </i>
    <i name="ewald">  42860.22687760 </i>
    <i name="hartreedc"> -48876.79085136 </i>
    <i name="XCdc">   -232.91826593 </i>
    <i name="pawpsdc">   4035.40880477 </i>
    <i name="pawaedc">  -3451.07914273 </i>
    <i name="eentropy">     -0.19598219 </i>
    <i name="bandstr">  -1373.26844636 </i>
    <i name="atom">   6761.44252427 </i>
    <i name="e_fr_energy">   -191.29767201 </i>
    <i name="e_wo_entrp">   -191.10168983 </i>
    <i name="e_0_energy">   -191.19968092 </i>
   </energy>
  </scstep>
  <scstep>
   <time name="dav">   32.57   32.65</time>
   <time name="total">   33.09   33.17</time>
   <energy>
    <i name="e_fr_energy">   -191.17859482 </i>
    <i name="e_wo_entrp">   -190.97587159 </i>
    <i name="e_0_energy">   -191.07723320 </i>
   </energy>
  </scstep>
  <scstep>
   <time name="dav">   29.69   29.76</time>
   <time name="total">   30.20   30.28</time>
   <energy>
    <i name="e_fr_energy">   -191.21121484 </i>
    <i name="e_wo_entrp">   -190.99566826 </i>
    <i name="e_0_energy">   -191.10344155 </i>
   </energy>
  </scstep>
  <scstep>
   <time name="dav">   29.17   29.24</time>
   <time name="total">   29.69   29.77</time>
   <energy>
    <i name="e_fr_energy">   -190.87675963 </i>
    <i name="e_wo_entrp">   -190.67198252 </i>
    <i name="e_0_energy">   -190.77437108 </i>
   </energy>
  </scstep>
  <scstep>
   <time name="dav">   29.71   29.78</time>
   <time name="total">   30.22   30.30</time>
   <energy>
    <i name="e_fr_energy">   -190.84814805 </i>
    <i name="e_wo_entrp">   -190.65063006 </i>
    <i name="e_0_energy">   -190.74938906 </i>
   </energy>
  </scstep>
  <scstep>
   <time name="dav">   29.98   30.05</time>
   <time name="total">   30.49   30.58</time>
   <energy>
    <i name="e_fr_energy">   -190.69088038 </i>
    <i name="e_wo_entrp">   -190.48720249 </i>
    <i name="e_0_energy">   -190.58904144 </i>
   </energy>
  </scstep>
  <scstep>
   <time name="dav">   29.25   29.32</time>
   <time name="total">   29.76   29.84</time>
   <energy>
    <i name="e_fr_energy">   -190.68481553 </i>
    <i name="e_wo_entrp">   -190.48261119 </i>
    <i name="e_0_energy">   -190.58371336 </i>
   </energy>
  </scstep>
  <scstep>
   <time name="dav">   28.92   28.98</time>
   <time name="total">   29.43   29.51</time>
   <energy>
    <i name="e_fr_energy">   -190.68322520 </i>
    <i name="e_wo_entrp">   -190.48141267 </i>
    <i name="e_0_energy">   -190.58231894 </i>
   </energy>
  </scstep>
  <scstep>
   <time name="dav">   28.60   28.67</time>
   <time name="total">   29.12   29.19</time>
   <energy>
    <i name="e_fr_energy">   -190.68111307 </i>
    <i name="e_wo_entrp">   -190.47882154 </i>
    <i name="e_0_energy">   -190.57996731 </i>
   </energy>
  </scstep>
  <scstep>
   <time name="dav">   26.12   26.18</time>
   <time name="total">   26.63   26.70</time>
   <energy>
    <i name="e_fr_energy">   -190.68142619 </i>
    <i name="e_wo_entrp">   -190.47894155 </i>
    <i name="e_0_energy">   -190.58018387 </i>
   </energy>
  </scstep>
  <scstep>
   <time name="dav">   26.40   26.46</time>
   <time name="total">   26.91   26.98</time>
   <energy>
    <i name="e_fr_energy">   -190.68123319 </i>
    <i name="e_wo_entrp">   -190.47901119 </i>
    <i name="e_0_energy">   -190.58012219 </i>
   </energy>
  </scstep>
  <scstep>
   <time name="dav">   20.30   20.35</time>
   <time name="total">   20.34   20.40</time>
   <energy>
    <i name="alphaZ">     85.87680990 </i>
    <i name="ewald">  42860.22687760 </i>
    <i name="hartreedc"> -48848.33377688 </i>
    <i name="XCdc">   -234.27500816 </i>
    <i name="pawpsdc">   4063.92633776 </i>
    <i name="pawaedc">  -3479.80386844 </i>
    <i name="eentropy">     -0.20228878 </i>
    <i name="bandstr">  -1399.53884664 </i>
    <i name="atom">   6761.44252427 </i>
    <i name="e_fr_energy">   -190.68123937 </i>
    <i name="e_wo_entrp">   -190.47895059 </i>
    <i name="e_0_energy">   -190.58009498 </i>
   </energy>
  </scstep>
  <structure>
   <crystal>
    <varray name="basis" >
     <v>       8.48351048       4.89951505       0.00000000 </v>
     <v>      -8.48185300       4.89666911       0.00000000 </v>
     <v>       0.00000000       0.00000000      30.00000000 </v>
    </varray>
    <i name="volume">   2492.93730389 </i>
    <varray name="rec_basis" >
     <v>       0.05892650       0.10207059       0.00000000 </v>
     <v>      -0.05896075       0.10209054       0.00000000 </v>
     <v>       0.00000000       0.00000000       0.03333333 </v>
    </varray>
   </crystal>
   <varray name="positions" >
    <v>       1.00064240       0.33123232      -0.00022299 </v>
    <v>      -0.00330047      -0.00027278       0.00016558 </v>
    <v>       0.33851145       0.66635898      -0.00012913 </v>
    <v>       0.33931488       0.33589038       0.00018333 </v>
    <v>       0.66390207       0.66557926       0.00016050 </v>
    <v>       0.66516964      -0.00348412      -0.00019966 </v>
    <v>      -0.00413755       0.66595035       0.00000631 </v>
    <v>       0.33860731       0.00540550       0.00006660 </v>
    <v>       0.66124023       0.33277321      -0.00005398 </v>
    <v>       0.10584192       0.21972655       0.95206345 </v>
    <v>       0.21694701       0.10752112       0.04921182 </v>
    <v>       0.11320996       0.55357548       0.95228374 </v>
    <v>       0.21946208       0.44704849       0.04802348 </v>
    <v>       0.10888707       0.89133208       0.95089536 </v>
    <v>       0.22434898       0.77525211       0.04866100 </v>
    <v>       0.44490795       0.22159034       0.94852046 </v>
    <v>       0.55529367       0.11171545       0.05089921 </v>
    <v>       0.44110394       0.55856030       0.95000529 </v>
    <v>       0.55642200       0.44401873       0.05143221 </v>
    <v>       0.44050662       0.88330789       0.95039132 </v>
    <v>       0.54952077       0.77465023       0.04999525 </v>
    <v>       0.78270840       0.22561410       0.95096585 </v>
    <v>       0.89435160       0.11350812       0.04837606 </v>
    <v>       0.77803143       0.55482687       0.94910477 </v>
    <v>       0.89097919       0.44189806       0.04913203 </v>
    <v>       0.78353746       0.89170183       0.95039750 </v>
    <v>       0.89220446       0.78293361       0.04966455 </v>
   </varray>
  </structure>
  <varray name="forces" >
   <v>       0.09260765      -0.03297628      -0.04553022 </v>
   <v>      -0.11248741      -0.24649744      -0.04976554 </v>
   <v>       0.30943968       0.20106562       0.05466184 </v>
   <v>       0.48012908       0.38239769       0.00875464 </v>
   <v>       0.05683188      -0.13594174      -0.02633015 </v>
   <v>       0.06013694      -0.23318679      -0.02979867 </v>
   <v>      -0.28059027      -0.28786650       0.02723942 </v>
   <v>      -0.04578161       0.59627489       0.04802302 </v>
   <v>      -0.44474004      -0.29802782       0.00369552 </v>
   <v>       0.04285714       0.03350759      -0.21620031 </v>
   <v>      -0.04276005       0.00529251       0.25469664 </v>
   <v>       0.02571902       0.01630591      -0.17702205 </v>
   <v>       0.03008007       0.02088624       0.24756288 </v>
   <v>      -0.03916649       0.03980920      -0.15719039 </v>
   <v>       0.00858410       0.01109299       0.03036237 </v>
   <v>      -0.02265683       0.00881621      -0.62758419 </v>
   <v>       0.04794496       0.05794065       0.41276670 </v>
   <v>      -0.01021499       0.00324873      -0.48802478 </v>
   <v>      -0.01886568       0.05309939       0.61577908 </v>
   <v>       0.00768958      -0.06437452      -0.38472437 </v>
   <v>      -0.00219871      -0.05646229       0.46388188 </v>
   <v>      -0.01491068       0.00748054      -0.19139569 </v>
   <v>      -0.00087392       0.00109017       0.36969512 </v>
   <v>      -0.05233579      -0.04811899      -0.40878260 </v>
   <v>       0.00882201      -0.05616671       0.21957186 </v>
   <v>       0.02216859       0.01091472      -0.35900329 </v>
   <v>      -0.10542822       0.01039603       0.40466128 </v>
  </varray>
  <varray name="stress" >
   <v>      -5.76579735       0.07971671      -0.03062928 </v>
   <v>       0.07971685      -5.65722126       0.04622300 </v>
   <v>      -0.03062919       0.04622320       4.59609995 </v>
  </varray>
  <energy>
   <i name="e_fr_energy">   -190.68123937 </i>
   <i name="e_wo_entrp">   -190.58009498 </i>
   <i name="e_0_energy">     -0.20228878 </i>
  </energy>
  <time name="totalsc">  380.35  381.36</time>
 </calculation>
 <calculation>
  <scstep>
   <time name="dav">   21.67   21.73</time>
   <time name="total">   22.18   22.23</time>
   <energy>
    <i name="alphaZ">     90.16750862 </i>
    <i name="ewald">  44658.84523231 </i>
    <i name="hartreedc"> -50701.74483971 </i>
    <i name="XCdc">   -231.88043622 </i>
    <i name="pawpsdc">   4063.90083808 </i>
    <i name="pawaedc">  -3479.77376748 </i>
    <i name="eentropy">     -0.18044189 </i>
    <i name="bandstr">  -1352.80405723 </i>
    <i name="atom">   6761.44252427 </i>
    <i name="e_fr_energy">   -192.02743925 </i>
    <i name="e_wo_entrp">   -191.84699736 </i>
    <i name="e_0_energy">   -191.93721831 </i>
   </energy>
  </scstep>
  <scstep>
   <time name="dav">   29.59   29.66</time>
   <time name="total">   30.09   30.17</time>
   <energy>
    <i name="e_fr_energy">   -191.82393158 </i>
    <i name="e_wo_entrp">   -191.63156436 </i>
    <i name="e_0_energy">   -191.72774797 </i>
   </energy>
  </scstep>
  <scstep>
   <time name="dav">   29.95   30.02</time>
   <time name="total">   30.46   30.54</time>
   <energy>
    <i name="e_fr_energy">   -192.20339879 </i>
    <i name="e_wo_entrp">   -192.00244837 </i>
    <i name="e_0_energy">   -192.10292358 </i>
   </energy>
  </scstep>
  <scstep>
   <time name="dav">   29.80   29.87</time>
   <time name="total">   30.31   30.39</time>
   <energy>
    <i name="e_fr_energy">   -191.55020465 </i>
    <i name="e_wo_entrp">   -191.36289091 </i>
    <i name="e_0_energy">   -191.45654778 </i>
   </energy>
  </scstep>
  <scstep>
   <time name="dav">   29.93   30.00</time>
   <time name="total">   30.44   30.52</time>
   <energy>
    <i name="e_fr_energy">   -191.37889216 </i>
    <i name="e_wo_entrp">   -191.19223846 </i>
    <i name="e_0_energy">   -191.28556531 </i>
   </energy>
  </scstep>
  <scstep>
   <time name="dav">   30.85   30.92</time>
   <time name="total">   31.35   31.43</time>
   <energy>
    <i name="e_fr_energy">   -191.37073538 </i>
    <i name="e_wo_entrp">   -191.17702884 </i>
    <i name="e_0_energy">   -191.27388211 </i>
   </energy>
  </scstep>
  <scstep>
   <time name="dav">   29.30   29.37</time>
   <time name="total">   29.81   29.89</time>
   <energy>
    <i name="e_fr_energy">   -191.34519401 </i>
    <i name="e_wo_entrp">   -191.15801909 </i>
    <i name="e_0_energy">   -191.25160655 </i>
   </energy>
  </scstep>
  <scstep>
   <time name="dav">   28.93   29.00</time>
   <time name="total">   29.44   29.52</time>
   <energy>
    <i name="e_fr_energy">   -191.33796320 </i>
    <i name="e_wo_entrp">   -191.14958149 </i>
    <i name="e_0_energy">   -191.24377234 </i>
   </energy>
  </scstep>
  <scstep>
   <time name="dav">   31.16   31.23</time>
   <time name="total">   31.66   31.74</time>
   <energy>
    <i name="e_fr_energy">   -191.33864843 </i>
    <i name="e_wo_entrp">   -191.14976704 </i>
    <i name="e_0_energy">   -191.24420774 </i>
   </energy>
  </scstep>
  <scstep>
   <time name="dav">   28.55   28.62</time>
   <time name="total">   29.06   29.14</time>
   <energy>
    <i name="e_fr_energy">   -191.33814943 </i>
    <i name="e_wo_entrp">   -191.14951640 </i>
    <i name="e_0_energy">   -191.24383291 </i>
   </energy>
  </scstep>
  <scstep>
   <time name="dav">   26.71   26.78</time>
   <time name="total">   27.22   27.29</time>
   <energy>
    <i name="e_fr_energy">   -191.33796857 </i>
    <i name="e_wo_entrp">   -191.14926356 </i>
    <i name="e_0_energy">   -191.24361606 </i>
   </energy>
  </scstep>
  <scstep>
   <time name="dav">   19.84   19.89</time>
   <time name="total">   19.87   19.93</time>
   <energy>
    <i name="alphaZ">     90.16750862 </i>
    <i name="ewald">  44658.84523231 </i>
    <i name="hartreedc"> -50668.21635778 </i>
    <i name="XCdc">   -233.39518618 </i>
    <i name="pawpsdc">   4083.41354012 </i>
    <i name="pawaedc">  -3499.33985964 </i>
    <i name="eentropy">     -0.18869742 </i>
    <i name="bandstr">  -1384.06664495 </i>
    <i name="atom">   6761.44252427 </i>
    <i name="e_fr_energy">   -191.33794064 </i>
    <i name="e_wo_entrp">   -191.14924322 </i>
    <i name="e_0_energy">   -191.24359193 </i>
   </energy>
  </scstep>
  <structure>
   <crystal>
    <varray name="basis" >
     <v>       8.27938153       4.78669231       0.00000000 </v>
     <v>      -8.27319767       4.77600561       0.00000000 </v>
     <v>       0.00000000       0.00000000      30.00000000 </v>
    </varray>
    <i name="volume">   2374.30873054 </i>
    <varray name="rec_basis" >
     <v>       0.06034606       0.10453398       0.00000000 </v>
     <v>      -0.06048109       0.10461211       0.00000000 </v>
     <v>       0.00000000       0.00000000       0.03333333 </v>
    </varray>
   </crystal>
   <varray name="positions" >
    <v>       1.00078992       0.33018715      -0.00041582 </v>
    <v>      -0.00698180      -0.00245748      -0.00003141 </v>
    <v>       0.34317438       0.66673310       0.00008418 </v>
    <v>       0.34752697       0.33714759       0.00022856 </v>
    <v>       0.66259082       0.66341170       0.00004519 </v>
    <v>       0.66258724      -0.00668002      -0.00033417 </v>
    <v>      -0.00953989       0.66446184       0.00011598 </v>
    <v>       0.34555914       0.01294645       0.00029113 </v>
    <v>       0.65442860       0.33220020      -0.00004281 </v>
    <v>       0.10615377       0.21964913       0.95071402 </v>
    <v>       0.21622160       0.10772935       0.05076826 </v>
    <v>       0.11386802       0.55331709       0.95110887 </v>
    <v>       0.21966154       0.44731846       0.04948721 </v>
    <v>       0.10882348       0.89234796       0.94968316 </v>
    <v>       0.22478892       0.77500720       0.04934485 </v>
    <v>       0.44475362       0.22195980       0.94540456 </v>
    <v>       0.55638100       0.11195678       0.05315106 </v>
    <v>       0.44083067       0.55888151       0.94749085 </v>
    <v>       0.55683100       0.44483315       0.05449241 </v>
    <v>       0.43966719       0.88196041       0.94830832 </v>
    <v>       0.54835235       0.77379684       0.05241799 </v>
    <v>       0.78322952       0.22594262       0.94966989 </v>
    <v>       0.89475213       0.11377174       0.05034803 </v>
    <v>       0.77704103       0.55472745       0.94686177 </v>
    <v>       0.89068205       0.44090513       0.05056247 </v>
    <v>       0.78428207       0.89190088       0.94841491 </v>
    <v>       0.89175911       0.78425841       0.05183043 </v>
   </varray>
  </structure>
  <varray name="forces" >
   <v>       0.09054619       0.06765749      -0.05828109 </v>
   <v>      -0.14004851      -0.36813779      -0.01467721 </v>
   <v>       0.31283287       0.14375442       0.00030870 </v>
   <v>       0.25469160       0.18484576      -0.01910514 </v>
   <v>       0.08221091       0.03054684       0.03878403 </v>
   <v>       0.08329849      -0.17125035       0.02234110 </v>
   <v>      -0.26701796      -0.44360006       0.04936646 </v>
   <v>      -0.03651791       0.51867298      -0.04290112 </v>
   <v>      -0.28552861      -0.08309006       0.07490102 </v>
   <v>       0.13301303       0.12951361       0.09558436 </v>
   <v>      -0.00827896       0.15252006      -0.07418254 </v>
   <v>      -0.05568113       0.04097692       0.10275425 </v>
   <v>       0.20277449       0.04357748      -0.00890226 </v>
   <v>       0.05502467       0.06579066       0.19048045 </v>
   <v>      -0.12784879       0.06516115      -0.32351971 </v>
   <v>      -0.01360327       0.02524029      -0.36194717 </v>
   <v>       0.06609257       0.14887158       0.14459683 </v>
   <v>       0.11716970      -0.00776180      -0.11713885 </v>
   <v>      -0.03640966       0.08584757       0.27487081 </v>
   <v>      -0.05852716       0.01388846      -0.04676463 </v>
   <v>       0.07859665       0.02020920       0.12842648 </v>
   <v>      -0.12500312      -0.12440958       0.12693542 </v>
   <v>      -0.02076759      -0.08955230       0.02627042 </v>
   <v>      -0.04489995      -0.11348327      -0.19630946 </v>
   <v>      -0.10051388      -0.13810323      -0.03099497 </v>
   <v>      -0.05081274      -0.12109219      -0.11517042 </v>
   <v>      -0.10479193      -0.07659382       0.13427425 </v>
  </varray>
  <varray name="stress" >
   <v>      -0.35362310       0.25514214      -0.00476647 </v>
   <v>       0.25514223      -0.19935142       0.33919979 </v>
   <v>      -0.00476635       0.33919986      -0.51999622 </v>
  </varray>
  <energy>
   <i name="e_fr_energy">   -191.33794064 </i>
   <i name="e_wo_entrp">   -191.24359193 </i>
   <i name="e_0_energy">     -0.18869742 </i>
  </energy>
  <time name="totalsc">  384.10  385.12</time>
 </calculation>
 <calculation>
  <scstep>
   <time name="dav">   21.66   21.71</time>
   <time name="total">   22.17   22.22</time>
   <energy>
    <i name="alphaZ">     90.36902993 </i>
    <i name="ewald">  44733.94972730 </i>
    <i name="hartreedc"> -50746.11223393 </i>
    <i name="XCdc">   -233.32418344 </i>
    <i name="pawpsdc">   4083.30741862 </i>
    <i name="pawaedc">  -3499.22870650 </i>
    <i name="eentropy">     -0.18888926 </i>
    <i name="bandstr">  -1381.64439435 </i>
    <i name="atom">   6761.44252427 </i>
    <i name="e_fr_energy">   -191.42970735 </i>
    <i name="e_wo_entrp">   -191.24081809 </i>
    <i name="e_0_energy">   -191.33526272 </i>
   </energy>
  </scstep>
  <scstep>
   <time name="dav">   31.67   31.75</time>
   <time name="total">   32.18   32.26</time>
   <energy>
    <i name="e_fr_energy">   -191.48619606 </i>
    <i name="e_wo_entrp">   -191.28656203 </i>
    <i name="e_0_energy">   -191.38637905 </i>
   </energy>
  </scstep>
  <scstep>
   <time name="dav">   29.64   29.71</time>
   <time name="total">   30.15   30.23</time>
   <energy>
    <i name="e_fr_energy">   -191.44670048 </i>
    <i name="e_wo_entrp">   -191.25742380 </i>
    <i name="e_0_energy">   -191.35206214 </i>
   </energy>
  </scstep>
  <scstep>
   <time name="dav">   28.78   28.85</time>
   <time name="total">   29.28   29.36</time>
   <energy>
    <i name="e_fr_energy">   -191.44602704 </i>
    <i name="e_wo_entrp">   -191.25575341 </i>
    <i name="e_0_energy">   -191.35089022 </i>
   </energy>
  </scstep>
  <scstep>
   <time name="dav">   28.48   28.54</time>
   <time name="total">   28.98   29.05</time>
   <energy>
    <i name="e_fr_energy">   -191.44027834 </i>
    <i name="e_wo_entrp">   -191.24950946 </i>
    <i name="e_0_energy">   -191.34489390 </i>
   </energy>
  </scstep>
  <scstep>
   <time name="dav">   27.42   27.49</time>
   <time name="total">   27.93   28.00</time>
   <energy>
    <i name="e_fr_energy">   -191.43959160 </i>
    <i name="e_wo_entrp">   -191.24852013 </i>
    <i name="e_0_energy">   -191.34405586 </i>
   </energy>
  </scstep>
  <scstep>
   <time name="dav">   26.20   26.27</time>
   <time name="total">   26.71   26.78</time>
   <energy>
    <i name="e_fr_energy">   -191.43929652 </i>
    <i name="e_wo_entrp">   -191.24797980 </i>
    <i name="e_0_energy">   -191.34363816 </i>
   </energy>
  </scstep>
  <scstep>
   <time name="dav">   25.12   25.18</time>
   <time name="total">   25.15   25.22</time>
   <energy>
    <i name="alphaZ">     90.36902993 </i>
    <i name="ewald">  44733.94972730 </i>
    <i name="hartreedc"> -50745.52519395 </i>
    <i name="XCdc">   -233.36938468 </i>
    <i name="pawpsdc">   4083.76195746 </i>
    <i name="pawaedc">  -3499.67680818 </i>
    <i name="eentropy">     -0.19111814 </i>
    <i name="bandstr">  -1382.19999433 </i>
    <i name="atom">   6761.44252427 </i>
    <i name="e_fr_energy">   -191.43926031 </i>
    <i name="e_wo_entrp">   -191.24814217 </i>
    <i name="e_0_energy">   -191.34370124 </i>
   </energy>
  </scstep>
  <structure>
   <crystal>
    <varray name="basis" >
     <v>       8.27177044       4.78830900       0.00000000 </v>
     <v>      -8.25876145       4.76580364       0.00000000 </v>
     <v>       0.00000000       0.00000000      30.00000000 </v>
    </varray>
    <i name="volume">   2369.01406491 </i>
    <varray name="rec_basis" >
     <v>       0.06035174       0.10458479       0.00000000 </v>
     <v>      -0.06063673       0.10474953       0.00000000 </v>
     <v>       0.00000000       0.00000000       0.03333333 </v>
    </varray>
   </crystal>
   <varray name="positions" >
    <v>       1.00142204       0.33024168      -0.00051848 </v>
    <v>      -0.00943106      -0.00402166      -0.00006090 </v>
    <v>       0.34499580       0.66654904       0.00008996 </v>
    <v>       0.34947899       0.33737630       0.00019786 </v>
    <v>       0.66296701       0.66326635       0.00010711 </v>
    <v>       0.66187277      -0.00791245      -0.00030036 </v>
    <v>      -0.01281439       0.66290454       0.00020145 </v>
    <v>       0.34834759       0.01597249       0.00022543 </v>
    <v>       0.65295481       0.33261580       0.00008290 </v>
    <v>       0.10723882       0.21992074       0.95083217 </v>
    <v>       0.21697149       0.10855907       0.05069206 </v>
    <v>       0.11393560       0.55369070       0.95124371 </v>
    <v>       0.22050607       0.44694174       0.04951698 </v>
    <v>       0.10932987       0.89255634       0.94996208 </v>
    <v>       0.22475864       0.77572699       0.04882941 </v>
    <v>       0.44483939       0.22214485       0.94470977 </v>
    <v>       0.55739164       0.11254255       0.05345993 </v>
    <v>       0.44113439       0.55849606       0.94722205 </v>
    <v>       0.55718008       0.44541620       0.05503977 </v>
    <v>       0.43953981       0.88216907       0.94816856 </v>
    <v>       0.54865988       0.77363978       0.05270349 </v>
    <v>       0.78221872       0.22567890       0.94984113 </v>
    <v>       0.89423526       0.11337470       0.05044981 </v>
    <v>       0.77628318       0.55426673       0.94646635 </v>
    <v>       0.88964958       0.44045551       0.05055572 </v>
    <v>       0.78351799       0.89142734       0.94816301 </v>
    <v>       0.89103053       0.78421506       0.05211895 </v>
   </varray>
  </structure>
  <varray name="forces" >
   <v>       0.12844334       0.11704533      -0.10424961 </v>
   <v>      -0.17266348      -0.38993984      -0.02223849 </v>
   <v>       0.37866175       0.12999811      -0.00185610 </v>
   <v>       0.20812317       0.21705362      -0.00624921 </v>
   <v>       0.05796035       0.06676448       0.01123018 </v>
   <v>       0.10552002      -0.19907951       0.00577595 </v>
   <v>      -0.28788240      -0.54630420       0.02463168 </v>
   <v>      -0.00631255       0.55893785      -0.01187601 </v>
   <v>      -0.29418275      -0.04881892       0.00304486 </v>
   <v>       0.10563555       0.07077751       0.12452498 </v>
   <v>       0.00182699       0.09244693      -0.12379214 </v>
   <v>      -0.05892395       0.04679188       0.15530833 </v>
   <v>       0.13203467       0.03720036      -0.02431642 </v>
   <v>       0.05662041       0.03761632       0.24266680 </v>
   <v>      -0.12202865       0.03100891      -0.39795618 </v>
   <v>       0.00166976       0.06109835      -0.25643857 </v>
   <v>       0.04691425       0.11847290       0.09128719 </v>
   <v>       0.07687572       0.01690721      -0.09438182 </v>
   <v>      -0.04833736       0.06537430       0.20714831 </v>
   <v>      -0.03592086       0.00219472      -0.01473874 </v>
   <v>       0.05230083      -0.00532773       0.11688465 </v>
   <v>      -0.09197764      -0.08150982       0.18807028 </v>
   <v>      -0.01236477      -0.06111348       0.00195200 </v>
   <v>      -0.04044949      -0.08928572      -0.17813829 </v>
   <v>      -0.06010935      -0.10812064       0.01189155 </v>
   <v>      -0.04369348      -0.09019108      -0.10499255 </v>
   <v>      -0.07774009      -0.04999784       0.15680735 </v>
  </varray>
  <varray name="stress" >
   <v>       0.20533713       0.05285211      -0.05664219 </v>
   <v>       0.05285215       0.30209373       0.16136643 </v>
   <v>      -0.05664230       0.16136636      -1.14302329 </v>
  </varray>
  <energy>
   <i name="e_fr_energy">   -191.43926031 </i>
   <i name="e_wo_entrp">   -191.34370124 </i>
   <i name="e_0_energy">     -0.19111814 </i>
  </energy>
  <time name="totalsc">  264.49  265.19</time>
 </calculation>
 <calculation>
  <scstep>
   <time name="dav">   21.72   21.77</time>
   <time name="total">   22.22   22.28</time>
   <energy>
    <i name="alphaZ">     90.30295363 </i>
    <i name="ewald">  44704.47784348 </i>
    <i name="hartreedc"> -50715.27427412 </i>
    <i name="XCdc">   -233.41302563 </i>
    <i name="pawpsdc">   4083.80480667 </i>
    <i name="pawaedc">  -3499.72037440 </i>
    <i name="eentropy">     -0.19070594 </i>
    <i name="bandstr">  -1382.89789245 </i>
    <i name="atom">   6761.44252427 </i>
    <i name="e_fr_energy">   -191.46814449 </i>
    <i name="e_wo_entrp">   -191.27743854 </i>
    <i name="e_0_energy">   -191.37279152 </i>
   </energy>
  </scstep>
  <scstep>
   <time name="dav">   32.64   32.72</time>
   <time name="total">   33.15   33.24</time>
   <energy>
    <i name="e_fr_energy">   -191.47371560 </i>
    <i name="e_wo_entrp">   -191.27943765 </i>
    <i name="e_0_energy">   -191.37657663 </i>
   </energy>
  </scstep>
  <scstep>
   <time name="dav">   29.20   29.27</time>
   <time name="total">   29.70   29.78</time>
   <energy>
    <i name="e_fr_energy">   -191.46902787 </i>
    <i name="e_wo_entrp">   -191.27818058 </i>
    <i name="e_0_energy">   -191.37360423 </i>
   </energy>
  </scstep>
  <scstep>
   <time name="dav">   26.01   26.08</time>
   <time name="total">   26.52   26.59</time>
   <energy>
    <i name="e_fr_energy">   -191.46938196 </i>
    <i name="e_wo_entrp">   -191.27818394 </i>
    <i name="e_0_energy">   -191.37378295 </i>
   </energy>
  </scstep>
  <scstep>
   <time name="dav">   25.15   25.21</time>
   <time name="total">   25.65   25.72</time>
   <energy>
    <i name="e_fr_energy">   -191.46870852 </i>
    <i name="e_wo_entrp">   -191.27740476 </i>
    <i name="e_0_energy">   -191.37305664 </i>
   </energy>
  </scstep>
  <scstep>
   <time name="dav">   19.93   19.98</time>
   <time name="total">   19.96   20.02</time>
   <energy>
    <i name="alphaZ">     90.30295363 </i>
    <i name="ewald">  44704.47784348 </i>
    <i name="hartreedc"> -50716.32132213 </i>
    <i name="XCdc">   -233.38070141 </i>
    <i name="pawpsdc">   4084.43822004 </i>
    <i name="pawaedc">  -3500.36046211 </i>
    <i name="eentropy">     -0.19132420 </i>
    <i name="bandstr">  -1381.87643582 </i>
    <i name="atom">   6761.44252427 </i>
    <i name="e_fr_energy">   -191.46870424 </i>
    <i name="e_wo_entrp">   -191.27738003 </i>
    <i name="e_0_energy">   -191.37304213 </i>
   </energy>
  </scstep>
  <structure>
   <crystal>
    <varray name="basis" >
     <v>       8.27463660       4.79050481       0.00000000 </v>
     <v>      -8.26131891       4.76746365       0.00000000 </v>
     <v>       0.00000000       0.00000000      30.00000000 </v>
    </varray>
    <i name="volume">   2370.74751520 </i>
    <varray name="rec_basis" >
     <v>       0.06032861       0.10454068       0.00000000 </v>
     <v>      -0.06062018       0.10470921       0.00000000 </v>
     <v>       0.00000000       0.00000000       0.03333333 </v>
    </varray>
   </crystal>
   <varray name="positions" >
    <v>       1.00173297       0.33032195      -0.00057097 </v>
    <v>      -0.01018458      -0.00446678      -0.00007062 </v>
[...]
      <set comment="kpoint 31">
       <r>  -17.5171    1.0000 </r>
       <r>  -17.2844    1.0000 </r>
       <r>  -16.9028    1.0000 </r>
       <r>  -16.6722    1.0000 </r>
       <r>  -16.5121    1.0000 </r>
       <r>  -16.4164    1.0000 </r>
       <r>  -16.3263    1.0000 </r>
       <r>  -16.2240    1.0000 </r>
       <r>  -16.1020    1.0000 </r>
       <r>  -16.0717    1.0000 </r>
       <r>  -15.8583    1.0000 </r>
       <r>  -15.8018    1.0000 </r>
       <r>  -15.7511    1.0000 </r>
       <r>  -15.6986    1.0000 </r>
       <r>  -15.5772    1.0000 </r>
       <r>  -15.5024    1.0000 </r>
       <r>  -15.4576    1.0000 </r>
       <r>  -15.3294    1.0000 </r>
       <r>   -9.7447    1.0000 </r>
       <r>   -9.4698    1.0000 </r>
       <r>   -9.3257    1.0000 </r>
       <r>   -8.9510    1.0000 </r>
       <r>   -8.8136    1.0000 </r>
       <r>   -8.7758    1.0000 </r>
       <r>   -8.6401    1.0000 </r>
       <r>   -8.4991    1.0000 </r>
       <r>   -8.3998    1.0000 </r>
       <r>   -8.3250    1.0000 </r>
       <r>   -8.2368    1.0000 </r>
       <r>   -8.1613    1.0000 </r>
       <r>   -8.1156    1.0000 </r>
       <r>   -8.0401    1.0000 </r>
       <r>   -7.9816    1.0000 </r>
       <r>   -7.8926    1.0000 </r>
       <r>   -7.7807    1.0000 </r>
       <r>   -7.7217    1.0000 </r>
       <r>   -7.5755    1.0000 </r>
       <r>   -7.4617    1.0000 </r>
       <r>   -7.3761    1.0000 </r>
       <r>   -7.2727    1.0000 </r>
       <r>   -7.1906    1.0000 </r>
       <r>   -7.0756    1.0000 </r>
       <r>   -6.9917    1.0000 </r>
       <r>   -6.9263    1.0000 </r>
       <r>   -6.8024    1.0000 </r>
       <r>   -6.7232    1.0000 </r>
       <r>   -6.6607    1.0000 </r>
       <r>   -6.5930    1.0000 </r>
       <r>   -6.5557    1.0000 </r>
       <r>   -6.5327    1.0000 </r>
       <r>   -6.4216    1.0000 </r>
       <r>   -6.3440    1.0000 </r>
       <r>   -6.2510    1.0000 </r>
       <r>   -6.1934    1.0000 </r>
       <r>   -6.0939    1.0000 </r>
       <r>   -6.0633    1.0000 </r>
       <r>   -5.9870    1.0000 </r>
       <r>   -5.8974    1.0000 </r>
       <r>   -5.8672    1.0000 </r>
       <r>   -5.7643    1.0000 </r>
       <r>   -5.7129    1.0000 </r>
       <r>   -5.6714    1.0000 </r>
       <r>   -5.5374    1.0000 </r>
       <r>   -5.3917    1.0000 </r>
       <r>   -5.3024    1.0000 </r>
       <r>   -5.1496    1.0000 </r>
       <r>   -5.0741    1.0000 </r>
       <r>   -4.9176    1.0000 </r>
       <r>   -4.7146    1.0000 </r>
       <r>   -4.6914    1.0000 </r>
       <r>   -4.5868    1.0000 </r>
       <r>   -4.4304    1.0000 </r>
       <r>   -4.3675    1.0000 </r>
       <r>   -4.2625    1.0000 </r>
       <r>   -4.1820    1.0000 </r>
       <r>   -3.9780    1.0000 </r>
       <r>   -3.8875    0.9999 </r>
       <r>   -3.7111    0.9944 </r>
       <r>   -3.5646    0.9333 </r>
       <r>   -3.2986    0.3521 </r>
       <r>   -2.9052    0.0008 </r>
       <r>   -2.8341    0.0001 </r>
       <r>   -2.6660    0.0000 </r>
       <r>   -2.5890    0.0000 </r>
       <r>   -2.4528    0.0000 </r>
       <r>   -2.3481    0.0000 </r>
       <r>   -2.2413    0.0000 </r>
       <r>   -2.0899    0.0000 </r>
       <r>   -1.9641    0.0000 </r>
       <r>   -1.8843    0.0000 </r>
       <r>   -1.7995    0.0000 </r>
       <r>   -1.6042    0.0000 </r>
       <r>   -1.3969    0.0000 </r>
       <r>   -1.2993    0.0000 </r>
       <r>   -1.2436    0.0000 </r>
       <r>   -1.1930    0.0000 </r>
       <r>   -1.1045    0.0000 </r>
       <r>   -1.0417    0.0000 </r>
       <r>   -0.9173    0.0000 </r>
       <r>   -0.8624    0.0000 </r>
       <r>   -0.8252    0.0000 </r>
       <r>   -0.7535    0.0000 </r>
       <r>   -0.6909    0.0000 </r>
       <r>   -0.5205    0.0000 </r>
       <r>   -0.4297    0.0000 </r>
       <r>   -0.3550    0.0000 </r>
       <r>   -0.2575    0.0000 </r>
       <r>   -0.1388    0.0000 </r>
       <r>    0.0417    0.0000 </r>
       <r>    0.1865    0.0000 </r>
       <r>    0.3781    0.0000 </r>
       <r>    0.4811    0.0000 </r>
       <r>    0.8034    0.0000 </r>
       <r>    0.8970    0.0000 </r>
       <r>    1.1196    0.0000 </r>
       <r>    1.2865    0.0000 </r>
       <r>    1.4204    0.0000 </r>
       <r>    2.1339    0.0000 </r>
       <r>    2.2868    0.0000 </r>
       <r>    2.3847    0.0000 </r>
      </set>
      <set comment="kpoint 32">
       <r>  -17.5447    1.0000 </r>
       <r>  -17.1715    1.0000 </r>
       <r>  -17.0411    1.0000 </r>
       <r>  -16.6729    1.0000 </r>
       <r>  -16.4502    1.0000 </r>
       <r>  -16.3798    1.0000 </r>
       <r>  -16.3037    1.0000 </r>
       <r>  -16.2260    1.0000 </r>
       <r>  -16.1606    1.0000 </r>
       <r>  -16.0550    1.0000 </r>
       <r>  -15.8921    1.0000 </r>
       <r>  -15.8067    1.0000 </r>
       <r>  -15.7592    1.0000 </r>
       <r>  -15.7011    1.0000 </r>
       <r>  -15.5686    1.0000 </r>
       <r>  -15.4928    1.0000 </r>
       <r>  -15.4682    1.0000 </r>
       <r>  -15.3111    1.0000 </r>
       <r>   -9.6703    1.0000 </r>
       <r>   -9.6111    1.0000 </r>
       <r>   -9.3446    1.0000 </r>
       <r>   -8.9577    1.0000 </r>
       <r>   -8.7357    1.0000 </r>
       <r>   -8.6567    1.0000 </r>
       <r>   -8.5986    1.0000 </r>
       <r>   -8.4345    1.0000 </r>
       <r>   -8.3959    1.0000 </r>
       <r>   -8.3346    1.0000 </r>
       <r>   -8.2839    1.0000 </r>
       <r>   -8.2141    1.0000 </r>
       <r>   -8.1375    1.0000 </r>
       <r>   -8.0897    1.0000 </r>
       <r>   -8.0323    1.0000 </r>
       <r>   -7.9772    1.0000 </r>
       <r>   -7.7858    1.0000 </r>
       <r>   -7.7033    1.0000 </r>
       <r>   -7.5018    1.0000 </r>
       <r>   -7.4380    1.0000 </r>
       <r>   -7.3695    1.0000 </r>
       <r>   -7.2681    1.0000 </r>
       <r>   -7.1965    1.0000 </r>
       <r>   -7.1022    1.0000 </r>
       <r>   -6.9619    1.0000 </r>
       <r>   -6.8953    1.0000 </r>
       <r>   -6.8390    1.0000 </r>
       <r>   -6.7546    1.0000 </r>
       <r>   -6.6867    1.0000 </r>
       <r>   -6.6073    1.0000 </r>
       <r>   -6.5302    1.0000 </r>
       <r>   -6.4618    1.0000 </r>
       <r>   -6.4406    1.0000 </r>
       <r>   -6.3679    1.0000 </r>
       <r>   -6.3230    1.0000 </r>
       <r>   -6.1792    1.0000 </r>
       <r>   -6.1315    1.0000 </r>
       <r>   -6.0372    1.0000 </r>
       <r>   -6.0045    1.0000 </r>
       <r>   -5.9049    1.0000 </r>
       <r>   -5.8510    1.0000 </r>
       <r>   -5.7462    1.0000 </r>
       <r>   -5.6733    1.0000 </r>
       <r>   -5.6038    1.0000 </r>
       <r>   -5.4841    1.0000 </r>
       <r>   -5.4262    1.0000 </r>
       <r>   -5.3053    1.0000 </r>
       <r>   -5.1074    1.0000 </r>
       <r>   -5.0383    1.0000 </r>
       <r>   -4.9276    1.0000 </r>
       <r>   -4.8751    1.0000 </r>
       <r>   -4.6978    1.0000 </r>
       <r>   -4.5979    1.0000 </r>
       <r>   -4.4607    1.0000 </r>
       <r>   -4.3336    1.0000 </r>
       <r>   -4.2641    1.0000 </r>
       <r>   -4.1626    1.0000 </r>
       <r>   -3.9688    1.0000 </r>
       <r>   -3.8696    0.9999 </r>
       <r>   -3.6523    0.9830 </r>
       <r>   -3.5724    0.9401 </r>
       <r>   -3.3508    0.4957 </r>
       <r>   -2.8807    0.0004 </r>
       <r>   -2.8172    0.0001 </r>
       <r>   -2.6517    0.0000 </r>
       <r>   -2.5722    0.0000 </r>
       <r>   -2.4569    0.0000 </r>
       <r>   -2.3449    0.0000 </r>
       <r>   -2.2594    0.0000 </r>
       <r>   -2.1002    0.0000 </r>
       <r>   -1.9979    0.0000 </r>
       <r>   -1.8855    0.0000 </r>
       <r>   -1.8051    0.0000 </r>
       <r>   -1.5433    0.0000 </r>
       <r>   -1.4007    0.0000 </r>
       <r>   -1.3177    0.0000 </r>
       <r>   -1.2629    0.0000 </r>
       <r>   -1.2154    0.0000 </r>
       <r>   -1.1338    0.0000 </r>
       <r>   -1.0229    0.0000 </r>
       <r>   -0.9578    0.0000 </r>
       <r>   -0.9087    0.0000 </r>
       <r>   -0.8706    0.0000 </r>
       <r>   -0.7756    0.0000 </r>
       <r>   -0.6435    0.0000 </r>
       <r>   -0.5307    0.0000 </r>
       <r>   -0.4107    0.0000 </r>
       <r>   -0.3224    0.0000 </r>
       <r>   -0.2402    0.0000 </r>
       <r>   -0.0532    0.0000 </r>
       <r>    0.0230    0.0000 </r>
       <r>    0.1129    0.0000 </r>
       <r>    0.4016    0.0000 </r>
       <r>    0.4980    0.0000 </r>
       <r>    0.8147    0.0000 </r>
       <r>    0.8804    0.0000 </r>
       <r>    1.0420    0.0000 </r>
       <r>    1.3374    0.0000 </r>
       <r>    1.4544    0.0000 </r>
       <r>    2.1035    0.0000 </r>
       <r>    2.2545    0.0000 </r>
       <r>    2.5638    0.0000 </r>
      </set>
      <set comment="kpoint 33">
       <r>  -17.5462    1.0000 </r>
       <r>  -17.2242    1.0000 </r>
       <r>  -16.9316    1.0000 </r>
       <r>  -16.6739    1.0000 </r>
       <r>  -16.5387    1.0000 </r>
       <r>  -16.4106    1.0000 </r>
       <r>  -16.3026    1.0000 </r>
       <r>  -16.2526    1.0000 </r>
       <r>  -16.0798    1.0000 </r>
       <r>  -16.0040    1.0000 </r>
       <r>  -15.8965    1.0000 </r>
       <r>  -15.8332    1.0000 </r>
       <r>  -15.7545    1.0000 </r>
       <r>  -15.6996    1.0000 </r>
       <r>  -15.5736    1.0000 </r>
       <r>  -15.5082    1.0000 </r>
       <r>  -15.4800    1.0000 </r>
       <r>  -15.2960    1.0000 </r>
       <r>   -9.7599    1.0000 </r>
       <r>   -9.5047    1.0000 </r>
       <r>   -9.2550    1.0000 </r>
       <r>   -8.9934    1.0000 </r>
       <r>   -8.8395    1.0000 </r>
       <r>   -8.7370    1.0000 </r>
       <r>   -8.5803    1.0000 </r>
       <r>   -8.4547    1.0000 </r>
       <r>   -8.3956    1.0000 </r>
       <r>   -8.3201    1.0000 </r>
       <r>   -8.2586    1.0000 </r>
       <r>   -8.2185    1.0000 </r>
       <r>   -8.1347    1.0000 </r>
       <r>   -8.0847    1.0000 </r>
       <r>   -8.0097    1.0000 </r>
       <r>   -7.9025    1.0000 </r>
       <r>   -7.7945    1.0000 </r>
       <r>   -7.7004    1.0000 </r>
       <r>   -7.5313    1.0000 </r>
       <r>   -7.4112    1.0000 </r>
       <r>   -7.3633    1.0000 </r>
       <r>   -7.2120    1.0000 </r>
       <r>   -7.1538    1.0000 </r>
       <r>   -7.0650    1.0000 </r>
       <r>   -6.9886    1.0000 </r>
       <r>   -6.9116    1.0000 </r>
       <r>   -6.8650    1.0000 </r>
       <r>   -6.7634    1.0000 </r>
       <r>   -6.7132    1.0000 </r>
       <r>   -6.6094    1.0000 </r>
       <r>   -6.5419    1.0000 </r>
       <r>   -6.4673    1.0000 </r>
       <r>   -6.4256    1.0000 </r>
       <r>   -6.3631    1.0000 </r>
       <r>   -6.3290    1.0000 </r>
       <r>   -6.1998    1.0000 </r>
       <r>   -6.1700    1.0000 </r>
       <r>   -6.0510    1.0000 </r>
       <r>   -5.9945    1.0000 </r>
       <r>   -5.9172    1.0000 </r>
       <r>   -5.8696    1.0000 </r>
       <r>   -5.8005    1.0000 </r>
       <r>   -5.7481    1.0000 </r>
       <r>   -5.6201    1.0000 </r>
       <r>   -5.4833    1.0000 </r>
       <r>   -5.3250    1.0000 </r>
       <r>   -5.2438    1.0000 </r>
       <r>   -5.1250    1.0000 </r>
       <r>   -5.0932    1.0000 </r>
       <r>   -4.8867    1.0000 </r>
       <r>   -4.8041    1.0000 </r>
       <r>   -4.6620    1.0000 </r>
       <r>   -4.5596    1.0000 </r>
       <r>   -4.4749    1.0000 </r>
       <r>   -4.3450    1.0000 </r>
       <r>   -4.2904    1.0000 </r>
       <r>   -4.1693    1.0000 </r>
       <r>   -3.9785    1.0000 </r>
       <r>   -3.8442    0.9997 </r>
       <r>   -3.6437    0.9803 </r>
       <r>   -3.5672    0.9357 </r>
       <r>   -3.4121    0.6638 </r>
       <r>   -2.8447    0.0002 </r>
       <r>   -2.8010    0.0000 </r>
       <r>   -2.6604    0.0000 </r>
       <r>   -2.5633    0.0000 </r>
       <r>   -2.4537    0.0000 </r>
       <r>   -2.3809    0.0000 </r>
       <r>   -2.2593    0.0000 </r>
       <r>   -2.1052    0.0000 </r>
       <r>   -2.0201    0.0000 </r>
       <r>   -1.8811    0.0000 </r>
       <r>   -1.7349    0.0000 </r>
       <r>   -1.4884    0.0000 </r>
       <r>   -1.4141    0.0000 </r>
       <r>   -1.3209    0.0000 </r>
       <r>   -1.2845    0.0000 </r>
       <r>   -1.2364    0.0000 </r>
       <r>   -1.1778    0.0000 </r>
       <r>   -1.1173    0.0000 </r>
       <r>   -0.9675    0.0000 </r>
       <r>   -0.9181    0.0000 </r>
       <r>   -0.8780    0.0000 </r>
       <r>   -0.7719    0.0000 </r>
       <r>   -0.6436    0.0000 </r>
       <r>   -0.5227    0.0000 </r>
       <r>   -0.4331    0.0000 </r>
       <r>   -0.3072    0.0000 </r>
       <r>   -0.2103    0.0000 </r>
       <r>   -0.0678    0.0000 </r>
       <r>   -0.0002    0.0000 </r>
       <r>    0.1179    0.0000 </r>
       <r>    0.4734    0.0000 </r>
       <r>    0.4999    0.0000 </r>
       <r>    0.7439    0.0000 </r>
       <r>    0.9285    0.0000 </r>
       <r>    1.0043    0.0000 </r>
       <r>    1.3793    0.0000 </r>
       <r>    1.5206    0.0000 </r>
       <r>    2.1327    0.0000 </r>
       <r>    2.2884    0.0000 </r>
       <r>    2.3898    0.0000 </r>
      </set>
      <set comment="kpoint 34">
       <r>  -17.5401    1.0000 </r>
       <r>  -17.2687    1.0000 </r>
       <r>  -16.7529    1.0000 </r>
       <r>  -16.7185    1.0000 </r>
       <r>  -16.6687    1.0000 </r>
       <r>  -16.4181    1.0000 </r>
       <r>  -16.3103    1.0000 </r>
       <r>  -16.2479    1.0000 </r>
       <r>  -16.0599    1.0000 </r>
       <r>  -15.9571    1.0000 </r>
       <r>  -15.8744    1.0000 </r>
       <r>  -15.8604    1.0000 </r>
       <r>  -15.7453    1.0000 </r>
       <r>  -15.7061    1.0000 </r>
       <r>  -15.5788    1.0000 </r>
       <r>  -15.5221    1.0000 </r>
       <r>  -15.4863    1.0000 </r>
       <r>  -15.2905    1.0000 </r>
       <r>   -9.8004    1.0000 </r>
       <r>   -9.4142    1.0000 </r>
       <r>   -9.1599    1.0000 </r>
       <r>   -9.0522    1.0000 </r>
       <r>   -8.8908    1.0000 </r>
       <r>   -8.8634    1.0000 </r>
       <r>   -8.5927    1.0000 </r>
       <r>   -8.4743    1.0000 </r>
       <r>   -8.3857    1.0000 </r>
       <r>   -8.3052    1.0000 </r>
       <r>   -8.2494    1.0000 </r>
       <r>   -8.1976    1.0000 </r>
       <r>   -8.1361    1.0000 </r>
       <r>   -8.0469    1.0000 </r>
       <r>   -8.0085    1.0000 </r>
       <r>   -7.8306    1.0000 </r>
       <r>   -7.7966    1.0000 </r>
       <r>   -7.7366    1.0000 </r>
       <r>   -7.4607    1.0000 </r>
       <r>   -7.4272    1.0000 </r>
       <r>   -7.3656    1.0000 </r>
       <r>   -7.2744    1.0000 </r>
       <r>   -7.0760    1.0000 </r>
       <r>   -7.0568    1.0000 </r>
       <r>   -6.9614    1.0000 </r>
       <r>   -6.9137    1.0000 </r>
       <r>   -6.8819    1.0000 </r>
       <r>   -6.7424    1.0000 </r>
       <r>   -6.7008    1.0000 </r>
       <r>   -6.6744    1.0000 </r>
       <r>   -6.5428    1.0000 </r>
       <r>   -6.5072    1.0000 </r>
       <r>   -6.4340    1.0000 </r>
       <r>   -6.3425    1.0000 </r>
       <r>   -6.3363    1.0000 </r>
       <r>   -6.2329    1.0000 </r>
       <r>   -6.1238    1.0000 </r>
       <r>   -6.0404    1.0000 </r>
       <r>   -6.0120    1.0000 </r>
       <r>   -5.9619    1.0000 </r>
       <r>   -5.8925    1.0000 </r>
       <r>   -5.8151    1.0000 </r>
       <r>   -5.7868    1.0000 </r>
       <r>   -5.6213    1.0000 </r>
       <r>   -5.4479    1.0000 </r>
       <r>   -5.3697    1.0000 </r>
       <r>   -5.2635    1.0000 </r>
       <r>   -5.1044    1.0000 </r>
       <r>   -5.0348    1.0000 </r>
       <r>   -4.8993    1.0000 </r>
       <r>   -4.7303    1.0000 </r>
       <r>   -4.6445    1.0000 </r>
       <r>   -4.5140    1.0000 </r>
       <r>   -4.4411    1.0000 </r>
       <r>   -4.3887    1.0000 </r>
       <r>   -4.3114    1.0000 </r>
       <r>   -4.1880    1.0000 </r>
       <r>   -3.9865    1.0000 </r>
       <r>   -3.8361    0.9997 </r>
       <r>   -3.6552    0.9839 </r>
       <r>   -3.5594    0.9285 </r>
       <r>   -3.4356    0.7221 </r>
       <r>   -2.8508    0.0002 </r>
       <r>   -2.7580    0.0000 </r>
       <r>   -2.6877    0.0000 </r>
       <r>   -2.5582    0.0000 </r>
       <r>   -2.4510    0.0000 </r>
       <r>   -2.4028    0.0000 </r>
       <r>   -2.2656    0.0000 </r>
       <r>   -2.0874    0.0000 </r>
       <r>   -2.0355    0.0000 </r>
       <r>   -1.8715    0.0000 </r>
       <r>   -1.6825    0.0000 </r>
       <r>   -1.4693    0.0000 </r>
       <r>   -1.4349    0.0000 </r>
       <r>   -1.3240    0.0000 </r>
       <r>   -1.2828    0.0000 </r>
       <r>   -1.2331    0.0000 </r>
       <r>   -1.2021    0.0000 </r>
       <r>   -1.1714    0.0000 </r>
       <r>   -0.9899    0.0000 </r>
       <r>   -0.9182    0.0000 </r>
       <r>   -0.8573    0.0000 </r>
       <r>   -0.7537    0.0000 </r>
       <r>   -0.6894    0.0000 </r>
       <r>   -0.4845    0.0000 </r>
       <r>   -0.4710    0.0000 </r>
       <r>   -0.3041    0.0000 </r>
       <r>   -0.1744    0.0000 </r>
       <r>   -0.1310    0.0000 </r>
       <r>   -0.0185    0.0000 </r>
       <r>    0.1866    0.0000 </r>
       <r>    0.4431    0.0000 </r>
       <r>    0.5522    0.0000 </r>
       <r>    0.6869    0.0000 </r>
       <r>    0.9741    0.0000 </r>
       <r>    0.9900    0.0000 </r>
       <r>    1.3943    0.0000 </r>
       <r>    1.5567    0.0000 </r>
       <r>    2.2041    0.0000 </r>
       <r>    2.2535    0.0000 </r>
       <r>    2.3783    0.0000 </r>
      </set>
     </set>
    </set>
   </array>
  </eigenvalues>
  <separator name="orbital magnetization" >
   <v name="MAGDIPOLOUT">      0.00000000      0.00000000      0.00000000</v>
  </separator>
 </calculation>
 <structure name="finalpos" >
  <crystal>
   <varray name="basis" >
    <v>       8.33392689       4.84440641       0.00000000 </v>
    <v>      -8.32931663       4.83603998       0.00000000 </v>
    <v>       0.00000000       0.00000000      30.00000000 </v>
   </varray>
   <i name="volume">   2419.61395442 </i>
   <varray name="rec_basis" >
    <v>       0.05996047       0.10327247       0.00000000 </v>
    <v>      -0.06006421       0.10332963       0.00000000 </v>
    <v>       0.00000000       0.00000000       0.03333333 </v>
   </varray>
  </crystal>
  <varray name="positions" >
   <v>       1.03776479       0.34593347      -0.00265375 </v>
   <v>      -0.03954036      -0.02086534       0.00176381 </v>
   <v>       0.35487381       0.65875131      -0.00025897 </v>
   <v>       0.35882307       0.34895196      -0.00070768 </v>
   <v>       0.66272195       0.66289590       0.00028846 </v>
   <v>       0.64913519      -0.03108407       0.00072215 </v>
   <v>      -0.03894174       0.65238447       0.00168866 </v>
   <v>       0.36963676       0.03156800      -0.00194261 </v>
   <v>       0.65032608       0.34666629      -0.00003878 </v>
   <v>       0.11090156       0.21259559       0.95184545 </v>
   <v>       0.21476880       0.10638825       0.04469482 </v>
   <v>       0.11536219       0.56023424       0.95332716 </v>
   <v>       0.22908084       0.44949676       0.05136927 </v>
   <v>       0.10868980       0.89242603       0.95566470 </v>
   <v>       0.22183702       0.77820096       0.04104100 </v>
   <v>       0.45034537       0.22883225       0.94234748 </v>
   <v>       0.56451580       0.11857491       0.05274590 </v>
   <v>       0.44314305       0.55754529       0.94487863 </v>
   <v>       0.55689009       0.44912881       0.05689928 </v>
   <v>       0.43836645       0.87992238       0.94759247 </v>
   <v>       0.54635483       0.76929777       0.05534786 </v>
   <v>       0.78520601       0.22606360       0.95928360 </v>
   <v>       0.89093540       0.11447929       0.04893235 </v>
   <v>       0.77050571       0.55395618       0.94419333 </v>
   <v>       0.88889153       0.43835324       0.04948412 </v>
   <v>       0.77455206       0.88619260       0.94666755 </v>
   <v>       0.88306840       0.78132431       0.05482361 </v>
  </varray>
 </structure>
</modeling>
