unknown system                          
           1
     8.853756    5.108840    0.000000
    -8.851325    5.104660    0.000000
     0.000000    0.000000   30.000000
   V    Mo   W    S 
   3   3   3  18
Direct configuration=     1
   1.00000000  0.33333334  0.00000000
   0.00000000  0.00000000  0.00000000
   0.33333334  0.66666669  0.00000000
   0.33333334  0.33333334  0.00000000
   0.66666669  0.66666669  0.00000000
   0.66666669  0.00000000  0.00000000
   0.00000000  0.66666669  0.00000000
   0.33333334  0.00000000  0.00000000
   0.66666669  0.33333334  0.00000000
   0.11068511  0.22244981  0.95539999
   0.22244981  0.11068511  0.04460000
   0.11068511  0.55578315  0.95539999
   0.22244981  0.44401845  0.04460000
   0.11068511  0.88911647  0.95539999
   0.22244981  0.77735180  0.04460000
   0.44401845  0.22244981  0.95539999
   0.55578315  0.11068511  0.04460000
   0.44401845  0.55578315  0.95539999
   0.55578315  0.44401845  0.04460000
   0.44401845  0.88911647  0.95539999
   0.55578315  0.77735180  0.04460000
   0.77735180  0.22244981  0.95539999
   0.88911647  0.11068511  0.04460000
   0.77735180  0.55578315  0.95539999
   0.88911647  0.44401845  0.04460000
   0.77735180  0.88911647  0.95539999
   0.88911647  0.77735180  0.04460000
unknown system                          
           1
     8.666127    5.002580    0.000000
    -8.663940    4.998820    0.000000
     0.000000    0.000000   30.000000
   V    Mo   W    S 
   3   3   3  18
Direct configuration=     2
   1.00054412  0.33224623 -0.00002717
  -0.00126648  0.00039831  0.00017114
   0.33533804  0.66619072 -0.00014974
   0.33431182  0.33465972  0.00004276
   0.66528025  0.66683288  0.00016968
   0.66679054 -0.00143334 -0.00001832
  -0.00120361  0.66656398 -0.00004985
   0.33464140  0.00134845 -0.00016002
   0.66524834  0.33326305 -0.00004645
   0.10661209  0.22018266  0.95312165
   0.21792211  0.10829359  0.04804347
   0.11282675  0.55380490  0.95305849
   0.21995311  0.44648039  0.04694944
   0.10912713  0.89078838  0.95201814
   0.22409348  0.77566406  0.04793787
   0.44482064  0.22161215  0.95066360
   0.55520650  0.11156269  0.04926684
   0.44179229  0.55789947  0.95194317
   0.55604977  0.44401575  0.04928619
   0.44153732  0.88461428  0.95190383
   0.55107893  0.77547572  0.04810437
   0.78167412  0.22477960  0.95199402
   0.89331189  0.11289770  0.04693917
   0.77812630  0.55490824  0.95077361
   0.89074435  0.44233679  0.04801023
   0.78213968  0.89102877  0.95193963
   0.89151358  0.78179932  0.04811414
unknown system                          
           1
     8.483510    4.899515    0.000000
    -8.481853    4.896669    0.000000
     0.000000    0.000000   30.000000
   V    Mo   W    S 
   3   3   3  18
Direct configuration=     3
   1.00062512  0.33198470 -0.00007066
  -0.00169615  0.00035547  0.00018748
   0.33598561  0.66615368 -0.00016048
   0.33518008  0.33498618  0.00008172
   0.66495355  0.66666555  0.00018377
   0.66656541 -0.00188929 -0.00005977
  -0.00176433  0.66646434 -0.00004137
   0.33536464  0.00208078 -0.00012167
   0.66452250  0.33318792 -0.00004807
   0.10654719  0.22013882  0.95316898
   0.21793877  0.10809505  0.04798310
   0.11273323  0.55391277  0.95317775
   0.21991935  0.44651963  0.04690293
   0.10921080  0.89073088  0.95208747
   0.22399617  0.77573226  0.04779268
   0.44492692  0.22150817  0.95057555
   0.55510665  0.11166882  0.04926359
   0.44171926  0.55797676  0.95184225
   0.55620396  0.44391814  0.04938577
   0.44131994  0.88458578  0.95189907
   0.55091863  0.77537438  0.04819496
   0.78167075  0.22496317  0.95207363
   0.89340594  0.11294234  0.04695835
   0.77820930  0.55481877  0.95076734
   0.89066260  0.44242385  0.04793739
   0.78228974  0.89111477  0.95191597
   0.89169884  0.78180074  0.04812216
unknown system                          
           1
     8.279382    4.786692    0.000000
    -8.273198    4.776006    0.000000
     0.000000    0.000000   30.000000
   V    Mo   W    S 
   3   3   3  18
Direct configuration=     4
   1.00064240  0.33123232 -0.00022299
  -0.00330047 -0.00027278  0.00016558
   0.33851145  0.66635898 -0.00012913
   0.33931488  0.33589038  0.00018333
   0.66390207  0.66557926  0.00016050
   0.66516964 -0.00348412 -0.00019966
  -0.00413755  0.66595035  0.00000631
   0.33860731  0.00540550  0.00006660
   0.66124023  0.33277321 -0.00005398
   0.10584192  0.21972655  0.95206345
   0.21694701  0.10752112  0.04921182
   0.11320996  0.55357548  0.95228374
   0.21946208  0.44704849  0.04802348
   0.10888707  0.89133208  0.95089536
   0.22434898  0.77525211  0.04866100
   0.44490795  0.22159034  0.94852046
   0.55529367  0.11171545  0.05089921
   0.44110394  0.55856030  0.95000529
   0.55642200  0.44401873  0.05143221
   0.44050662  0.88330789  0.95039132
   0.54952077  0.77465023  0.04999525
   0.78270840  0.22561410  0.95096585
   0.89435160  0.11350812  0.04837606
   0.77803143  0.55482687  0.94910477
   0.89097919  0.44189806  0.04913203
   0.78353746  0.89170183  0.95039750
   0.89220446  0.78293361  0.04966455
unknown system                          
           1
     8.271770    4.788309    0.000000
    -8.258761    4.765804    0.000000
     0.000000    0.000000   30.000000
   V    Mo   W    S 
   3   3   3  18
Direct configuration=     5
   1.00078992  0.33018715 -0.00041582
  -0.00698180 -0.00245748 -0.00003141
   0.34317438  0.66673310  0.00008418
   0.34752697  0.33714759  0.00022856
   0.66259082  0.66341170  0.00004519
   0.66258724 -0.00668002 -0.00033417
  -0.00953989  0.66446184  0.00011598
   0.34555914  0.01294645  0.00029113
   0.65442860  0.33220020 -0.00004281
   0.10615377  0.21964913  0.95071402
   0.21622160  0.10772935  0.05076826
   0.11386802  0.55331709  0.95110887
   0.21966154  0.44731846  0.04948721
   0.10882348  0.89234796  0.94968316
   0.22478892  0.77500720  0.04934485
   0.44475362  0.22195980  0.94540456
   0.55638100  0.11195678  0.05315106
   0.44083067  0.55888151  0.94749085
   0.55683100  0.44483315  0.05449241
   0.43966719  0.88196041  0.94830832
   0.54835235  0.77379684  0.05241799
   0.78322952  0.22594262  0.94966989
   0.89475213  0.11377174  0.05034803
   0.77704103  0.55472745  0.94686177
   0.89068205  0.44090513  0.05056247
   0.78428207  0.89190088  0.94841491
   0.89175911  0.78425841  0.05183043
unknown system                          
           1
     8.274637    4.790505    0.000000
    -8.261319    4.767464    0.000000
     0.000000    0.000000   30.000000
   V    Mo   W    S 
   3   3   3  18
Direct configuration=     6
   1.00142204  0.33024168 -0.00051848
  -0.00943106 -0.00402166 -0.00006090
   0.34499580  0.66654904  0.00008996
   0.34947899  0.33737630  0.00019786
   0.66296701  0.66326635  0.00010711
   0.66187277 -0.00791245 -0.00030036
  -0.01281439  0.66290454  0.00020145
   0.34834759  0.01597249  0.00022543
   0.65295481  0.33261580  0.00008290
   0.10723882  0.21992074  0.95083217
   0.21697149  0.10855907  0.05069206
   0.11393560  0.55369070  0.95124371
   0.22050607  0.44694174  0.04951698
   0.10932987  0.89255634  0.94996208
   0.22475864  0.77572699  0.04882941
   0.44483939  0.22214485  0.94470977
   0.55739164  0.11254255  0.05345993
   0.44113439  0.55849606  0.94722205
   0.55718008  0.44541620  0.05503977
   0.43953981  0.88216907  0.94816856
   0.54865988  0.77363978  0.05270349
   0.78221872  0.22567890  0.94984113
   0.89423526  0.11337470  0.05044981
   0.77628318  0.55426673  0.94646635
   0.88964958  0.44045551  0.05055572
   0.78351799  0.89142734  0.94816301
   0.89103053  0.78421506  0.05211895
unknown system                          
           1
     8.267571    4.782854    0.000000
    -8.257314    4.765117    0.000000
     0.000000    0.000000   30.000000
   V    Mo   W    S 
   3   3   3  18
Direct configuration=     7
   1.00173297  0.33032195 -0.00057097
  -0.01018458 -0.00446678 -0.00007062
   0.34551212  0.66639779  0.00008700
   0.34994179  0.33752428  0.00019450
   0.66314172  0.66334440  0.00011329
   0.66167537 -0.00830359 -0.00029648
  -0.01391432  0.66230216  0.00021237
   0.34917652  0.01680670  0.00021785
   0.65267077  0.33281948  0.00008257
   0.10744347  0.21993467  0.95091205
   0.21712674  0.10869949  0.05060977
   0.11394851  0.55382518  0.95133815
   0.22068372  0.44687760  0.04948757
   0.10944257  0.89255077  0.95010217
   0.22468750  0.77589133  0.04861458
   0.44494434  0.22223933  0.94461441
   0.55761102  0.11268602  0.05348041
   0.44123665  0.55845128  0.94720143
   0.55723480  0.44555706  0.05511150
   0.43951873  0.88221971  0.94818467
   0.54871025  0.77359094  0.05273670
   0.78199991  0.22563157  0.94995403
   0.89412241  0.11328605  0.05042872
   0.77611440  0.55416298  0.94640063
   0.88942585  0.44034923  0.05054606
   0.78332619  0.89132213  0.94813160
   0.89088505  0.78419274  0.05217591
unknown system                          
           1
     8.256185    4.779750    0.000000
    -8.242300    4.755729    0.000000
     0.000000    0.000000   30.000000
   V    Mo   W    S 
   3   3   3  18
Direct configuration=     8
   1.00063387  0.33020196 -0.00041782
  -0.00791254 -0.00318853 -0.00008485
   0.34478797  0.66720892  0.00009309
   0.34938216  0.33742058  0.00018723
   0.66187348  0.66245379  0.00005658
   0.66159415 -0.00744120 -0.00031938
  -0.01079478  0.66398663  0.00007343
   0.34732092  0.01488224  0.00024264
   0.65286162  0.33199906  0.00000836
   0.10734743  0.22022647  0.95066318
   0.21700343  0.10861684  0.05094528
   0.11406847  0.55349823  0.95105754
   0.22049979  0.44696696  0.04953941
   0.10933878  0.89276540  0.94961185
   0.22511346  0.77563069  0.04927021
   0.44472205  0.22197224  0.94470037
   0.55705200  0.11226118  0.05356854
   0.44101303  0.55852070  0.94725915
   0.55713272  0.44529602  0.05511489
   0.43953159  0.88203104  0.94806689
   0.54850276  0.77351731  0.05268620
   0.78226148  0.22567193  0.94957555
   0.89420347  0.11342155  0.05060003
   0.77651700  0.55435554  0.94660600
   0.88968709  0.44049045  0.05062528
   0.78350422  0.89128889  0.94815614
   0.89096885  0.78415957  0.05211411
unknown system                          
           1
     8.269355    4.788512    0.000000
    -8.254686    4.763130    0.000000
     0.000000    0.000000   30.000000
   V    Mo   W    S 
   3   3   3  18
Direct configuration=     9
   1.00008135  0.32990869 -0.00041378
  -0.00830555 -0.00343686 -0.00009749
   0.34542177  0.66763088  0.00012781
   0.35042239  0.33732508  0.00021192
   0.66163741  0.66193773  0.00015420
   0.66131495 -0.00741942 -0.00031398
  -0.01102557  0.66416845  0.00016936
   0.34800748  0.01571012  0.00026470
   0.65210169  0.33167421  0.00011903
   0.10783832  0.22054161  0.95080682
   0.21751284  0.10904280  0.05090517
   0.11414000  0.55362395  0.95112317
   0.22093079  0.44673920  0.04942662
   0.10963306  0.89298579  0.94966036
   0.22521105  0.77603610  0.04913385
   0.44471264  0.22192270  0.94444602
   0.55726666  0.11244521  0.05365611
   0.44104371  0.55825735  0.94711358
   0.55732260  0.44537408  0.05529448
   0.43940660  0.88212989  0.94797075
   0.54868504  0.77342068  0.05278088
   0.78169999  0.22546451  0.94960999
   0.89391083  0.11314142  0.05053955
   0.77626363  0.55408804  0.94655278
   0.88920765  0.44048731  0.05051866
   0.78308661  0.89099421  0.94823023
   0.89068651  0.78402071  0.05200910
unknown system                          
           1
     8.275886    4.793851    0.000000
    -8.259558    4.765596    0.000000
     0.000000    0.000000   30.000000
   V    Mo   W    S 
   3   3   3  18
Direct configuration=    10
   1.00114031  0.33010289 -0.00057064
  -0.01043235 -0.00464196 -0.00011703
   0.34642032  0.66691978  0.00010302
   0.35123108  0.33765842  0.00018804
   0.66251509  0.66255761  0.00013878
   0.66112401 -0.00841795 -0.00030081
  -0.01410474  0.66244362  0.00019783
   0.34999101  0.01769792  0.00021609
   0.65171522  0.33243578  0.00010573
   0.10802746  0.22031785  0.95097210
   0.21759523  0.10914637  0.05068683
   0.11409944  0.55392720  0.95134964
   0.22113272  0.44667096  0.04942179
   0.10975211  0.89284533  0.95005022
   0.22489234  0.77626754  0.04858589
   0.44498089  0.22220414  0.94427570
   0.55781071  0.11278980  0.05369074
   0.44128086  0.55824230  0.94704941
   0.55740433  0.44568475  0.05543098
   0.43938811  0.88223586  0.94802757
   0.54877710  0.77341310  0.05288947
   0.78144828  0.22544790  0.94989788
   0.89380927  0.11303526  0.05049714
   0.77589949  0.55392360  0.94633279
   0.88891291  0.44023987  0.05054923
   0.78287774  0.89095147  0.94811070
   0.89052552  0.78411506  0.05222078
unknown system                          
           1
     8.272934    4.790302    0.000000
    -8.258249    4.764896    0.000000
     0.000000    0.000000   30.000000
   V    Mo   W    S 
   3   3   3  18
Direct configuration=    11
   1.00157523  0.33010498 -0.00068647
  -0.01212575 -0.00559029 -0.00015135
   0.34757521  0.66662978  0.00009117
   0.35242810  0.33804047  0.00016694
   0.66285713  0.66265447  0.00014565
   0.66076184 -0.00916962 -0.00028521
  -0.01645930  0.66123990  0.00021683
   0.35176508  0.01945588  0.00017364
   0.65110074  0.33284920  0.00012026
   0.10837095  0.22029709  0.95113721
   0.21783560  0.10937366  0.05054140
   0.11413865  0.55419921  0.95153933
   0.22144252  0.44655541  0.04936455
   0.10996149  0.89286280  0.95032697
   0.22474208  0.77657847  0.04815618
   0.44519702  0.22238218  0.94402710
   0.55826729  0.11308466  0.05379176
   0.44145995  0.55815305  0.94694595
   0.55755178  0.44594705  0.05564584
   0.43930668  0.88231319  0.94801236
   0.54885929  0.77334226  0.05302103
   0.78105861  0.22536710  0.95008357
   0.89362339  0.11286483  0.05048431
   0.77555535  0.55370165  0.94615304
   0.88852661  0.44004612  0.05056674
   0.78254384  0.89076550  0.94802982
   0.89029510  0.78416548  0.05238129
unknown system                          
           1
     8.270612    4.785677    0.000000
    -8.258465    4.764676    0.000000
     0.000000    0.000000   30.000000
   V    Mo   W    S 
   3   3   3  18
Direct configuration=    12
   1.00153829  0.33021212 -0.00062414
  -0.01120751 -0.00510997 -0.00014252
   0.34684824  0.66672661  0.00008991
   0.35164112  0.33771175  0.00017036
   0.66286502  0.66272486  0.00012095
   0.66096446 -0.00880110 -0.00029568
  -0.01537213  0.66174642  0.00017821
   0.35088573  0.01865878  0.00019547
   0.65141913  0.33265576  0.00009265
   0.10816232  0.22029266  0.95103428
   0.21765439  0.10922765  0.05063981
   0.11409858  0.55402666  0.95141934
   0.22124305  0.44660755  0.04942550
   0.10982696  0.89282553  0.95017344
   0.22481978  0.77642282  0.04841218
   0.44506519  0.22227719  0.94418098
   0.55800981  0.11290556  0.05372754
   0.44137760  0.55821228  0.94702723
   0.55742657  0.44579235  0.05551566
   0.43935813  0.88228332  0.94803232
   0.54881008  0.77338544  0.05294380
   0.78129387  0.22542863  0.94998796
   0.89374013  0.11296811  0.05048846
   0.77578642  0.55385363  0.94625869
   0.88874553  0.44012399  0.05056440
   0.78278252  0.89090443  0.94806846
   0.89043116  0.78415144  0.05231463
unknown system                          
           1
     8.272072    4.791247    0.000000
    -8.256568    4.764425    0.000000
     0.000000    0.000000   30.000000
   V    Mo   W    S 
   3   3   3  18
Direct configuration=    13
   1.00226266  0.33080611 -0.00047881
  -0.00960064 -0.00453446 -0.00011950
   0.34514214  0.66669678  0.00012118
   0.34995975  0.33668353  0.00023531
   0.66358757  0.66322984  0.00012999
   0.66139041 -0.00840581 -0.00032177
  -0.01386576  0.66248322  0.00019876
   0.34925192  0.01761042  0.00030406
   0.65181427  0.33245586  0.00010922
   0.10772869  0.22020310  0.95080904
   0.21722440  0.10891409  0.05087339
   0.11398854  0.55369093  0.95113197
   0.22089385  0.44661790  0.04961491
   0.10962082  0.89272348  0.94990342
   0.22489734  0.77635877  0.04883236
   0.44477331  0.22211465  0.94431279
   0.55770906  0.11273942  0.05362290
   0.44129667  0.55830081  0.94720430
   0.55713546  0.44555569  0.05523574
   0.43933994  0.88228728  0.94808122
   0.54879240  0.77335971  0.05277857
   0.78171946  0.22560867  0.94985512
   0.89403764  0.11312494  0.05045047
   0.77600935  0.55400897  0.94630097
   0.88900397  0.44015540  0.05052508
   0.78337060  0.89124255  0.94810296
   0.89073060  0.78418259  0.05218625
unknown system                          
           1
     8.268715    4.787898    0.000000
    -8.254116    4.762645    0.000000
     0.000000    0.000000   30.000000
   V    Mo   W    S 
   3   3   3  18
Direct configuration=    14
   1.00344215  0.33106829 -0.00070097
  -0.01192340 -0.00584413 -0.00016295
   0.34668543  0.66609680  0.00009370
   0.35135531  0.33712199  0.00016352
   0.66413625  0.66358197  0.00009063
   0.66081338 -0.00972994 -0.00033277
  -0.01723428  0.66062282  0.00023307
   0.35167058  0.02006520  0.00021701
   0.65099574  0.33316014  0.00005199
   0.10812578  0.22010154  0.95104808
   0.21755978  0.10918097  0.05065360
   0.11396570  0.55412486  0.95145232
   0.22133504  0.44653188  0.04955608
   0.10989471  0.89260316  0.95036971
   0.22452625  0.77674639  0.04811938
   0.44508606  0.22242126  0.94406207
   0.55842161  0.11319978  0.05370062
   0.44152852  0.55821014  0.94713975
   0.55733704  0.44599056  0.05551496
   0.43920853  0.88241483  0.94816165
   0.54888586  0.77328170  0.05292362
   0.78125630  0.22552941  0.95026235
   0.89380338  0.11289646  0.05038418
   0.77550477  0.55368394  0.94606611
   0.88847438  0.43990237  0.05051513
   0.78287471  0.89102598  0.94797962
   0.89048489  0.78422608  0.05243747
unknown system                          
           1
     8.281075    4.797819    0.000000
    -8.263963    4.768210    0.000000
     0.000000    0.000000   30.000000
   V    Mo   W    S 
   3   3   3  18
Direct configuration=    15
   1.00281414  0.33086774 -0.00064329
  -0.01111738 -0.00535475 -0.00017304
   0.34623035  0.66639483  0.00008517
   0.35100323  0.33695811  0.00014179
   0.66385911  0.66334937  0.00006891
   0.66100004 -0.00916728 -0.00034524
  -0.01601823  0.66130484  0.00018163
   0.35090807  0.01928126  0.00021187
   0.65120033  0.33281487  0.00002901
   0.10803504  0.22019482  0.95100624
   0.21749215  0.10912147  0.05073127
   0.11395960  0.55397364  0.95137303
   0.22122463  0.44653572  0.04954651
   0.10982562  0.89266581  0.95022209
   0.22466579  0.77664291  0.04836557
   0.44500105  0.22230434  0.94417652
   0.55817440  0.11302452  0.05369512
   0.44145826  0.55821335  0.94718769
   0.55729767  0.44584369  0.05546289
   0.43926405  0.88240079  0.94814523
   0.54887030  0.77331497  0.05287602
   0.78135296  0.22552947  0.95012259
   0.89384465  0.11293819  0.05041143
   0.77569267  0.55377257  0.94618959
   0.88863475  0.44001980  0.05051899
   0.78298620  0.89105962  0.94805193
   0.89055500  0.78420979  0.05236037
unknown system                          
           1
     8.280774    4.800511    0.000000
    -8.261962    4.767952    0.000000
     0.000000    0.000000   30.000000
   V    Mo   W    S 
   3   3   3  18
Direct configuration=    16
   1.00356758  0.33100471 -0.00074219
  -0.01316123 -0.00654973 -0.00013006
   0.34755727  0.66589469  0.00013286
   0.35225960  0.33757498  0.00024800
   0.66431612  0.66361231  0.00019736
   0.66056661 -0.01023164 -0.00026645
  -0.01887176  0.65979477  0.00033186
   0.35284905  0.02108466  0.00025974
   0.65075958  0.33353495  0.00017950
   0.10835248  0.22005173  0.95113584
   0.21774597  0.10932912  0.05051148
   0.11402340  0.55435337  0.95157928
   0.22154569  0.44648563  0.04948213
   0.11005343  0.89262807  0.95054765
   0.22440054  0.77691243  0.04777513
   0.44524460  0.22255845  0.94380017
   0.55871635  0.11343308  0.05374106
   0.44163987  0.55818684  0.94699892
   0.55746577  0.44617585  0.05560807
   0.43913663  0.88242159  0.94811170
   0.54892242  0.77321812  0.05299376
   0.78102063  0.22548825  0.95035170
   0.89369664  0.11280934  0.05038080
   0.77522396  0.55352451  0.94586340
   0.88823360  0.43979686  0.05051943
   0.78261728  0.89087580  0.94786908
   0.89033238  0.78424569  0.05251966
unknown system                          
           1
     8.283156    4.805315    0.000000
    -8.262090    4.768844    0.000000
     0.000000    0.000000   30.000000
   V    Mo   W    S 
   3   3   3  18
Direct configuration=    17
   1.00450298  0.33122026 -0.00088710
  -0.01467995 -0.00738621 -0.00014407
   0.34845939  0.66535362  0.00010614
   0.35296972  0.33799511  0.00020124
   0.66466249  0.66396191  0.00016232
   0.66030034 -0.01117030 -0.00029059
  -0.02096559  0.65863357  0.00037143
   0.35421840  0.02241540  0.00019284
   0.65041809  0.33413837  0.00013020
   0.10850199  0.21988808  0.95125784
   0.21787241  0.10942880  0.05034155
   0.11401843  0.55462227  0.95176478
   0.22173351  0.44650363  0.04948782
   0.11014163  0.89250578  0.95085345
   0.22414982  0.77703684  0.04733124
   0.44543153  0.22277683  0.94372119
   0.55915234  0.11372163  0.05376221
   0.44177241  0.55818150  0.94694697
   0.55757232  0.44645460  0.05573454
   0.43909701  0.88246358  0.94817467
   0.54895442  0.77319172  0.05309822
   0.78084049  0.22546431  0.95062660
   0.89360674  0.11274594  0.05034146
   0.77491098  0.55339528  0.94572940
   0.88799036  0.43960763  0.05052832
   0.78238922  0.89080653  0.94779738
   0.89019302  0.78425779  0.05265984
unknown system                          
           1
     8.290116    4.812072    0.000000
    -8.267323    4.772602    0.000000
     0.000000    0.000000   30.000000
   V    Mo   W    S 
   3   3   3  18
Direct configuration=    18
   1.00553135  0.33143051 -0.00105616
  -0.01656484 -0.00842283 -0.00014540
   0.34957556  0.66467768  0.00008148
   0.35389036  0.33861704  0.00016221
   0.66501569  0.66431754  0.00014143
   0.65999717 -0.01228364 -0.00030135
  -0.02344352  0.65728119  0.00043833
   0.35585053  0.02393580  0.00012222
   0.65006881  0.33490964  0.00009846
   0.10869709  0.21967591  0.95140492
   0.21803235  0.10955481  0.05011511
   0.11402965  0.55496836  0.95199643
   0.22198019  0.44653714  0.04948356
   0.11025904  0.89237891  0.95122636
   0.22384672  0.77717131  0.04677316
   0.44567417  0.22305563  0.94359776
   0.55969355  0.11408869  0.05378848
   0.44194360  0.55818493  0.94685540
   0.55772930  0.44681150  0.05589036
   0.43905089  0.88249784  0.94823308
   0.54899623  0.77315348  0.05322993
   0.78061000  0.22543355  0.95094737
   0.89348935  0.11267528  0.05030353
   0.77449646  0.55323062  0.94554786
   0.88768556  0.43937134  0.05054327
   0.78208360  0.89069265  0.94769247
   0.88999558  0.78426958  0.05282961
unknown system                          
           1
     8.297188    4.824537    0.000000
    -8.269395    4.776385    0.000000
     0.000000    0.000000   30.000000
   V    Mo   W    S 
   3   3   3  18
Direct configuration=    19
   1.00653608  0.33170090 -0.00116340
  -0.01794571 -0.00919853 -0.00010205
   0.35029732  0.66407504  0.00009089
   0.35443127  0.33913837  0.00019327
   0.66525275  0.66462478  0.00017761
   0.65976991 -0.01323364 -0.00026817
  -0.02513369  0.65634742  0.00054432
   0.35692659  0.02489083  0.00011986
   0.64989845  0.33559441  0.00013956
   0.10882544  0.21945175  0.95146556
   0.21811978  0.10963518  0.04993429
   0.11406376  0.55524631  0.95214363
   0.22215776  0.44659694  0.04950848
   0.11033653  0.89228241  0.95148885
   0.22361132  0.77723062  0.04634499
   0.44583396  0.22329663  0.94344507
   0.56011557  0.11438840  0.05377572
   0.44206275  0.55820177  0.94673505
   0.55783203  0.44709122  0.05597043
   0.43900303  0.88247634  0.94825336
   0.54901983  0.77312602  0.05332635
   0.78048248  0.22543074  0.95119591
   0.89341667  0.11264832  0.05027127
   0.77414329  0.55311614  0.94535588
   0.88745466  0.43915987  0.05054368
   0.78187500  0.89061836  0.94755858
   0.88982763  0.78427784  0.05295091
unknown system                          
           1
     8.312237    4.835790    0.000000
    -8.283914    4.786703    0.000000
     0.000000    0.000000   30.000000
   V    Mo   W    S 
   3   3   3  18
Direct configuration=    20
   1.01004847  0.33252733 -0.00158783
  -0.02279857 -0.01191773  0.00002661
   0.35232892  0.66192104  0.00006668
   0.35625962  0.34086353  0.00017572
   0.66611198  0.66560414  0.00017209
   0.65930253 -0.01640316 -0.00023057
  -0.03040624  0.65361991  0.00082625
   0.36039703  0.02801158 -0.00001950
   0.64920591  0.33799009  0.00011503
   0.10921489  0.21856989  0.95171471
   0.21831965  0.10985330  0.04925938
   0.11409261  0.55616836  0.95268546
   0.22275575  0.44678492  0.04962887
   0.11052236  0.89196717  0.95246739
   0.22274165  0.77737500  0.04489714
   0.44642350  0.22416110  0.94314086
   0.56154993  0.11539461  0.05369870
   0.44254550  0.55818700  0.94638082
   0.55819214  0.44809452  0.05625745
   0.43897261  0.88249803  0.94839818
   0.54920054  0.77309991  0.05367846
   0.78005935  0.22540695  0.95216271
   0.89315056  0.11254203  0.05013703
   0.77296822  0.55278928  0.94488338
   0.88668350  0.43843873  0.05051951
   0.78118265  0.89035432  0.94720835
   0.88918937  0.78431257  0.05333704
unknown system                          
           1
     8.319306    4.846469    0.000000
    -8.290433    4.796367    0.000000
     0.000000    0.000000   30.000000
   V    Mo   W    S 
   3   3   3  18
Direct configuration=    21
   1.01286159  0.33347195 -0.00183673
  -0.02536618 -0.01347043  0.00018338
   0.35314390  0.66051493  0.00006593
   0.35699845  0.34229472  0.00014605
   0.66602457  0.66584852  0.00015057
   0.65883807 -0.01862543 -0.00016266
  -0.03254826  0.65256761  0.00100426
   0.36187643  0.02913613 -0.00011526
   0.64917691  0.33969570  0.00008838
   0.10943680  0.21779077  0.95175150
   0.21814678  0.10981575  0.04883089
   0.11420039  0.55675684  0.95296321
   0.22312508  0.44699241  0.04978252
   0.11052955  0.89186445  0.95302944
   0.22226992  0.77726870  0.04407342
   0.44676059  0.22479933  0.94294897
   0.56248358  0.11604777  0.05359230
   0.44285348  0.55819862  0.94614462
   0.55838552  0.44884651  0.05644441
   0.43903397  0.88233785  0.94847885
   0.54917180  0.77296758  0.05388578
   0.77998662  0.22548467  0.95286896
   0.89297720  0.11263092  0.05007970
   0.77228972  0.55272658  0.94462373
   0.88620124  0.43790532  0.05048133
   0.78069547  0.89004676  0.94689067
   0.88866127  0.78429991  0.05360568
unknown system                          
           1
     8.325432    4.846253    0.000000
    -8.301759    4.805118    0.000000
     0.000000    0.000000   30.000000
   V    Mo   W    S 
   3   3   3  18
Direct configuration=    22
   1.01948508  0.33569502 -0.00242447
  -0.03134489 -0.01701971  0.00053360
   0.35483197  0.65749627  0.00004698
   0.35874030  0.34521520  0.00005666
   0.66606774  0.66647033  0.00009694
   0.65779516 -0.02361175 -0.00006687
  -0.03764564  0.65012870  0.00139720
   0.36552348  0.03213460 -0.00034712
   0.64877608  0.34342379 -0.00001209
   0.10992895  0.21608496  0.95191677
   0.21787435  0.10976515  0.04774435
   0.11439409  0.55803006  0.95361361
   0.22400550  0.44742608  0.05012228
   0.11050066  0.89162952  0.95434114
   0.22130412  0.77712134  0.04221713
   0.44751956  0.22616603  0.94271001
   0.56440659  0.11746592  0.05323279
   0.44352666  0.55815570  0.94564451
   0.55872475  0.45038837  0.05676550
   0.43920579  0.88203291  0.94872023
   0.54909882  0.77261552  0.05433525
   0.77983848  0.22560948  0.95460414
   0.89254953  0.11275567  0.04984000
   0.77093215  0.55268663  0.94417420
   0.88521654  0.43690343  0.05029988
   0.77957434  0.88934556  0.94634486
   0.88738428  0.78409966  0.05409241
unknown system                          
           1
     8.323441    4.845611    0.000000
    -8.301327    4.807149    0.000000
     0.000000    0.000000   30.000000
   V    Mo   W    S 
   3   3   3  18
Direct configuration=    23
   1.02065740  0.33638563 -0.00242224
  -0.03126736 -0.01711845  0.00063253
   0.35423678  0.65766247  0.00005719
   0.35834597  0.34524005  0.00001068
   0.66564927  0.66610621  0.00008345
   0.65750931 -0.02370089 -0.00003585
  -0.03678098  0.65089478  0.00136873
   0.36511473  0.03173614 -0.00040658
   0.64910606  0.34351482 -0.00005371
   0.11003354  0.21571413  0.95182615
   0.21747323  0.10949689  0.04758595
   0.11446111  0.55809747  0.95355120
   0.22409429  0.44743020  0.05025936
   0.11029273  0.89175355  0.95437779
   0.22148521  0.77701703  0.04224467
   0.44755594  0.22634919  0.94274704
   0.56453586  0.11757533  0.05312961
   0.44356817  0.55805649  0.94555819
   0.55853339  0.45049286  0.05677519
   0.43925456  0.88181570  0.94869298
   0.54886244  0.77231212  0.05441317
   0.78016767  0.22564786  0.95493672
   0.89246315  0.11290314  0.04976575
   0.77105904  0.55294938  0.94421986
   0.88529884  0.43688396  0.05025079
   0.77941978  0.88907174  0.94630626
   0.88708434  0.78392666  0.05412500
unknown system                          
           1
     8.328300    4.848408    0.000000
    -8.307779    4.812682    0.000000
     0.000000    0.000000   30.000000
   V    Mo   W    S 
   3   3   3  18
Direct configuration=    24
   1.02286207  0.33737175 -0.00250025
  -0.03235168 -0.01778649  0.00075335
   0.35422406  0.65726944  0.00003773
   0.35842072  0.34580343 -0.00005045
   0.66540836  0.66595508  0.00007545
   0.65695814 -0.02487097  0.00001398
  -0.03729644  0.65082086  0.00144944
   0.36564974  0.03208793 -0.00050375
   0.64911129  0.34429329 -0.00005018
   0.11013880  0.21521461  0.95181484
   0.21713073  0.10926608  0.04728399
   0.11452655  0.55831862  0.95359248
   0.22430568  0.44749264  0.05040179
   0.11014247  0.89179702  0.95459546
   0.22152421  0.77703912  0.04199154
   0.44771546  0.22663161  0.94275395
   0.56481907  0.11784762  0.05297537
   0.44360757  0.55798006  0.94548249
   0.55842099  0.45066636  0.05676721
   0.43928207  0.88166026  0.94871317