   27   27  100    1
  0.9710400E+02  0.1002848E-08  0.1002848E-08  0.3000000E-08  0.5000000E-15
  1.000000000000000E-004
  CAR 
 unknown system                          
    159     34    120
 
  0.0000000E+00  0.0000000E+00  0.0000000E+00  0.1562500E-01
    1      -17.854623   1.000000
    2      -16.803721   1.000000
    3      -16.702370   1.000000
    4      -16.692451   1.000000
    5      -16.526563   1.000000
    6      -16.492486   1.000000
    7      -16.464510   1.000000
    8      -16.218548   1.000000
    9      -16.134754   1.000000
   10      -16.085465   1.000000
   11      -16.066092   1.000000
   12      -15.965735   1.000000
   13      -15.872847   1.000000
   14      -15.718896   1.000000
   15      -15.578468   1.000000
   16      -15.362989   1.000000
   17      -15.336595   1.000000
   18      -15.172475   1.000000
   19       -9.630870   1.000000
   20       -9.063778   1.000000
   21       -9.020040   1.000000
   22       -8.856601   1.000000
   23       -8.766847   1.000000
   24       -8.676935   1.000000
   25       -8.609930   1.000000
   26       -8.601556   1.000000
   27       -8.540433   1.000000
   28       -8.514027   1.000000
   29       -8.426262   1.000000
   30       -8.419130   1.000000
   31       -8.184362   1.000000
   32       -8.095180   1.000000
   33       -8.007153   1.000000
   34       -7.965147   1.000000
   35       -7.805241   1.000000
   36       -7.757456   1.000000
   37       -7.689083   1.000000
   38       -7.608352   1.000000
   39       -7.500912   1.000000
   40       -7.452660   1.000000
   41       -7.330890   1.000000
   42       -7.259940   1.000000
   43       -7.093622   1.000000
   44       -6.883482   1.000000
   45       -6.856070   1.000000
   46       -6.813549   1.000000
   47       -6.741235   1.000000
   48       -6.642448   1.000000
   49       -6.548540   1.000000
   50       -6.453491   1.000000
   51       -6.403728   1.000000
   52       -6.329700   1.000000
   53       -6.285800   1.000000
   54       -6.265227   1.000000
   55       -6.234295   1.000000
   56       -6.164602   1.000000
   57       -6.041267   1.000000
   58       -6.037209   1.000000
   59       -5.816665   1.000000
   60       -5.533249   1.000000
   61       -5.381519   1.000000
   62       -5.292182   1.000000
   63       -5.235844   1.000000
   64       -5.196613   1.000000
   65       -5.058758   1.000000
   66       -5.004910   1.000000
   67       -4.965940   1.000000
   68       -4.826300   1.000000
   69       -4.790330   1.000000
   70       -4.666107   1.000000
   71       -4.627948   1.000000
   72       -4.583242   1.000000
   73       -4.516950   1.000000
   74       -4.418190   1.000000
   75       -4.065419   1.000000
   76       -3.968968   0.999997
   77       -3.830618   0.999798
   78       -3.556038   0.944776
   79       -3.466140   0.831600
   80       -3.432194   0.764383
   81       -3.179762   0.143553
   82       -2.982078   0.006902
   83       -2.910639   0.001501
   84       -2.753762   0.000023
   85       -2.581215   0.000000
   86       -2.459211   0.000000
   87       -2.398045   0.000000
   88       -2.344022   0.000000
   89       -2.329652   0.000000
   90       -2.221214   0.000000
   91       -1.764898   0.000000
   92       -1.664413   0.000000
   93       -1.256485   0.000000
   94       -1.186158   0.000000
   95       -1.026944   0.000000
   96       -0.989285   0.000000
   97       -0.923378   0.000000
   98       -0.812534   0.000000
   99       -0.801420   0.000000
  100       -0.682932   0.000000
  101       -0.582459   0.000000
  102       -0.481719   0.000000
  103       -0.466776   0.000000
  104       -0.332899   0.000000
  105       -0.156251   0.000000
  106       -0.101668   0.000000
  107       -0.060344   0.000000
  108        0.190792   0.000000
  109        0.205104   0.000000
  110        0.282260   0.000000
  111        0.305774   0.000000
  112        0.531354   0.000000
  113        0.559346   0.000000
  114        0.873739   0.000000
  115        0.948111   0.000000
  116        0.955619   0.000000
  117        1.015061   0.000000
  118        1.627123   0.000000
  119        1.833453   0.000000
  120        2.153000   0.000000
 
  0.1250000E+00  0.2775558E-16  0.0000000E+00  0.3125000E-01
    1      -17.832094   1.000000
    2      -16.821063   1.000000
    3      -16.797086   1.000000
    4      -16.688055   1.000000
    5      -16.550096   1.000000
    6      -16.476063   1.000000
    7      -16.431896   1.000000
    8      -16.252616   1.000000
    9      -16.135912   1.000000
   10      -16.054335   1.000000
   11      -15.998677   1.000000
   12      -15.948383   1.000000
   13      -15.859037   1.000000
   14      -15.713695   1.000000
   15      -15.586001   1.000000
   16      -15.376157   1.000000
   17      -15.342472   1.000000
   18      -15.175134   1.000000
   19       -9.628168   1.000000
   20       -9.184895   1.000000
   21       -9.104000   1.000000
   22       -8.927732   1.000000
   23       -8.801966   1.000000
   24       -8.711964   1.000000
   25       -8.655632   1.000000
   26       -8.568702   1.000000
   27       -8.534345   1.000000
   28       -8.496591   1.000000
   29       -8.395901   1.000000
   30       -8.274879   1.000000
   31       -8.136136   1.000000
   32       -8.049569   1.000000
   33       -7.975598   1.000000
   34       -7.890160   1.000000
   35       -7.821370   1.000000
   36       -7.724234   1.000000
   37       -7.625507   1.000000
   38       -7.571577   1.000000
   39       -7.530293   1.000000
   40       -7.463569   1.000000
   41       -7.300839   1.000000
   42       -7.231620   1.000000
   43       -7.153637   1.000000
   44       -6.935984   1.000000
   45       -6.883891   1.000000
   46       -6.782018   1.000000
   47       -6.721495   1.000000
   48       -6.670760   1.000000
   49       -6.518344   1.000000
   50       -6.427471   1.000000
   51       -6.417194   1.000000
   52       -6.381313   1.000000
   53       -6.305776   1.000000
   54       -6.265282   1.000000
   55       -6.220754   1.000000
   56       -6.128803   1.000000
   57       -6.046277   1.000000
   58       -6.000858   1.000000
   59       -5.782677   1.000000
   60       -5.514912   1.000000
   61       -5.406809   1.000000
   62       -5.391579   1.000000
   63       -5.306746   1.000000
   64       -5.229769   1.000000
   65       -5.081428   1.000000
   66       -5.006701   1.000000
   67       -4.929794   1.000000
   68       -4.860300   1.000000
   69       -4.785069   1.000000
   70       -4.704699   1.000000
   71       -4.647064   1.000000
   72       -4.574968   1.000000
   73       -4.466959   1.000000
   74       -4.289709   1.000000
   75       -4.061962   1.000000
   76       -3.920743   0.999985
   77       -3.852926   0.999890
   78       -3.672134   0.992178
   79       -3.595766   0.969748
   80       -3.390311   0.664333
   81       -3.081203   0.039084
   82       -2.976283   0.006152
   83       -2.861282   0.000456
   84       -2.742743   0.000016
   85       -2.580856   0.000000
   86       -2.444346   0.000000
   87       -2.379831   0.000000
   88       -2.344669   0.000000
   89       -2.315108   0.000000
   90       -2.198248   0.000000
   91       -1.768802   0.000000
   92       -1.660457   0.000000
   93       -1.259201   0.000000
   94       -1.194986   0.000000
   95       -1.024282   0.000000
   96       -0.993220   0.000000
   97       -0.923833   0.000000
   98       -0.824207   0.000000
   99       -0.809911   0.000000
  100       -0.735443   0.000000
  101       -0.625834   0.000000
  102       -0.556315   0.000000
  103       -0.509219   0.000000
  104       -0.375821   0.000000
  105       -0.225405   0.000000
  106       -0.117118   0.000000
  107       -0.071656   0.000000
  108        0.163729   0.000000
  109        0.197390   0.000000
  110        0.265887   0.000000
  111        0.325737   0.000000
  112        0.496355   0.000000
  113        0.577552   0.000000
  114        0.862515   0.000000
  115        0.972498   0.000000
  116        1.017819   0.000000
  117        1.079109   0.000000
  118        1.669539   0.000000
  119        1.873979   0.000000
  120        2.187323   0.000000
 
  0.2500000E+00  0.5551115E-16  0.0000000E+00  0.3125000E-01
    1      -17.767607   1.000000
    2      -17.000004   1.000000
    3      -16.790704   1.000000
    4      -16.726831   1.000000
    5      -16.594058   1.000000
    6      -16.478126   1.000000
    7      -16.398548   1.000000
    8      -16.212993   1.000000
    9      -16.136959   1.000000
   10      -16.014668   1.000000
   11      -15.962306   1.000000
   12      -15.891237   1.000000
   13      -15.792811   1.000000
   14      -15.699239   1.000000
   15      -15.599861   1.000000
   16      -15.406403   1.000000
   17      -15.356053   1.000000
   18      -15.183987   1.000000
   19       -9.665579   1.000000
   20       -9.373260   1.000000
   21       -9.234122   1.000000
   22       -9.047100   1.000000
   23       -8.890237   1.000000
   24       -8.758088   1.000000
   25       -8.607198   1.000000
   26       -8.568722   1.000000
   27       -8.492942   1.000000
   28       -8.409374   1.000000
   29       -8.330938   1.000000
   30       -8.208773   1.000000
   31       -8.112695   1.000000
   32       -8.015019   1.000000
   33       -7.931468   1.000000
   34       -7.843291   1.000000
   35       -7.722028   1.000000
   36       -7.662104   1.000000
   37       -7.580500   1.000000
   38       -7.542208   1.000000
   39       -7.483663   1.000000
   40       -7.343320   1.000000
   41       -7.298217   1.000000
   42       -7.216152   1.000000
   43       -7.096922   1.000000
   44       -7.012989   1.000000
   45       -6.869490   1.000000
   46       -6.790410   1.000000
   47       -6.710665   1.000000
   48       -6.671807   1.000000
   49       -6.536844   1.000000
   50       -6.462237   1.000000
   51       -6.399254   1.000000
   52       -6.379853   1.000000
   53       -6.333023   1.000000
   54       -6.248601   1.000000
   55       -6.160296   1.000000
   56       -6.107227   1.000000
   57       -5.977531   1.000000
   58       -5.943818   1.000000
   59       -5.755367   1.000000
   60       -5.664967   1.000000
   61       -5.598588   1.000000
   62       -5.465755   1.000000
   63       -5.402755   1.000000
   64       -5.308221   1.000000
   65       -5.178027   1.000000
   66       -4.978593   1.000000
   67       -4.923311   1.000000
   68       -4.858760   1.000000
   69       -4.746981   1.000000
   70       -4.733414   1.000000
   71       -4.604303   1.000000
   72       -4.522068   1.000000
   73       -4.327385   1.000000
   74       -4.273292   1.000000
   75       -4.096601   1.000000
   76       -3.944017   0.999993
   77       -3.864232   0.999920
   78       -3.797765   0.999526
   79       -3.640692   0.985910
   80       -3.372176   0.616416
   81       -2.983150   0.007049
   82       -2.950644   0.003631
   83       -2.782023   0.000053
   84       -2.688898   0.000003
   85       -2.575834   0.000000
   86       -2.437413   0.000000
   87       -2.375467   0.000000
   88       -2.295858   0.000000
   89       -2.269253   0.000000
   90       -2.125916   0.000000
   91       -1.769148   0.000000
   92       -1.655974   0.000000
   93       -1.285698   0.000000
   94       -1.212985   0.000000
   95       -1.052060   0.000000
   96       -0.992810   0.000000
   97       -0.938930   0.000000
   98       -0.911637   0.000000
   99       -0.847801   0.000000
  100       -0.813036   0.000000
  101       -0.710843   0.000000
  102       -0.669967   0.000000
  103       -0.583324   0.000000
  104       -0.470738   0.000000
  105       -0.318892   0.000000
  106       -0.201871   0.000000
  107       -0.081571   0.000000
  108        0.035907   0.000000
  109        0.069120   0.000000
  110        0.309702   0.000000
  111        0.354031   0.000000
  112        0.477286   0.000000
  113        0.571794   0.000000
  114        0.885605   0.000000
  115        1.040235   0.000000
  116        1.121130   0.000000
  117        1.225427   0.000000
  118        1.787834   0.000000
  119        1.990405   0.000000
  120        2.287884   0.000000
 
  0.3750000E+00  0.0000000E+00  0.0000000E+00  0.3125000E-01
    1      -17.675903   1.000000
    2      -17.177238   1.000000
    3      -16.781018   1.000000
    4      -16.760393   1.000000
    5      -16.632121   1.000000
    6      -16.490039   1.000000
    7      -16.385910   1.000000
    8      -16.164679   1.000000
    9      -16.100837   1.000000
   10      -16.005234   1.000000
   11      -15.907711   1.000000
   12      -15.883499   1.000000
   13      -15.758322   1.000000
   14      -15.661894   1.000000
   15      -15.611199   1.000000
   16      -15.422992   1.000000
   17      -15.369233   1.000000
   18      -15.197142   1.000000
   19       -9.785551   1.000000
   20       -9.421100   1.000000
   21       -9.332221   1.000000
   22       -9.119761   1.000000
   23       -8.970775   1.000000
   24       -8.780474   1.000000
   25       -8.575890   1.000000
   26       -8.514460   1.000000
   27       -8.411417   1.000000
   28       -8.329231   1.000000
   29       -8.304021   1.000000
   30       -8.236466   1.000000
   31       -8.128572   1.000000
   32       -8.019963   1.000000
   33       -7.943638   1.000000
   34       -7.878568   1.000000
   35       -7.739916   1.000000
   36       -7.684617   1.000000
   37       -7.556104   1.000000
   38       -7.452997   1.000000
   39       -7.337073   1.000000
   40       -7.263616   1.000000
   41       -7.225694   1.000000
   42       -7.133125   1.000000
   43       -7.046443   1.000000
   44       -6.932092   1.000000
   45       -6.848978   1.000000
   46       -6.808010   1.000000
   47       -6.695391   1.000000
   48       -6.642060   1.000000
   49       -6.541650   1.000000
   50       -6.471953   1.000000
   51       -6.397732   1.000000
   52       -6.349967   1.000000
   53       -6.337278   1.000000
   54       -6.182980   1.000000
   55       -6.113715   1.000000
   56       -6.056206   1.000000
   57       -5.967779   1.000000
   58       -5.925040   1.000000
   59       -5.878088   1.000000
   60       -5.784709   1.000000
   61       -5.741607   1.000000
   62       -5.584283   1.000000
   63       -5.523036   1.000000
   64       -5.356360   1.000000
   65       -5.194706   1.000000
   66       -4.991807   1.000000
   67       -4.896106   1.000000
   68       -4.840490   1.000000
   69       -4.757700   1.000000
   70       -4.727663   1.000000
   71       -4.597377   1.000000
   72       -4.547538   1.000000
   73       -4.424096   1.000000
   74       -4.201661   1.000000
   75       -4.061606   1.000000
   76       -4.005308   0.999999
   77       -3.865215   0.999922
   78       -3.771562   0.999096
   79       -3.571651   0.956050
   80       -3.391218   0.666668
   81       -2.946812   0.003347
   82       -2.911504   0.001531
   83       -2.741540   0.000016
   84       -2.625461   0.000000
   85       -2.548045   0.000000
   86       -2.449891   0.000000
   87       -2.362663   0.000000
   88       -2.250932   0.000000
   89       -2.206991   0.000000
   90       -2.030902   0.000000
   91       -1.758062   0.000000
   92       -1.652585   0.000000
   93       -1.371236   0.000000
   94       -1.223795   0.000000
   95       -1.095803   0.000000
   96       -1.045600   0.000000
   97       -0.984041   0.000000
   98       -0.960007   0.000000
   99       -0.923426   0.000000
  100       -0.875110   0.000000
  101       -0.770648   0.000000
  102       -0.735728   0.000000
  103       -0.616463   0.000000
  104       -0.541025   0.000000
  105       -0.338696   0.000000
  106       -0.308019   0.000000
  107       -0.136057   0.000000
  108       -0.107319   0.000000
  109       -0.029684   0.000000
  110        0.299049   0.000000
  111        0.390821   0.000000
  112        0.483899   0.000000
  113        0.553161   0.000000
  114        0.920672   0.000000
  115        1.093218   0.000000
  116        1.239408   0.000000
  117        1.338881   0.000000
  118        1.962610   0.000000
  119        2.170076   0.000000
  120        2.404479   0.000000
 
  0.5000000E+00  0.1110223E-15  0.0000000E+00  0.1562500E-01
    1      -17.617466   1.000000
    2      -17.266446   1.000000
    3      -16.777890   1.000000
    4      -16.771299   1.000000
    5      -16.646798   1.000000
    6      -16.495633   1.000000
    7      -16.381754   1.000000
    8      -16.164091   1.000000
    9      -16.049663   1.000000
   10      -16.006354   1.000000
   11      -15.904148   1.000000
   12      -15.879989   1.000000
   13      -15.714755   1.000000
   14      -15.700950   1.000000
   15      -15.596733   1.000000
   16      -15.424168   1.000000
   17      -15.371278   1.000000
   18      -15.204576   1.000000
   19       -9.845458   1.000000
   20       -9.428848   1.000000
   21       -9.360540   1.000000
   22       -9.141721   1.000000
   23       -8.995117   1.000000
   24       -8.788510   1.000000
   25       -8.570553   1.000000
   26       -8.489794   1.000000
   27       -8.387356   1.000000
   28       -8.326330   1.000000
   29       -8.268873   1.000000
   30       -8.182050   1.000000
   31       -8.121204   1.000000
   32       -8.028716   1.000000
   33       -7.998840   1.000000
   34       -7.946604   1.000000
   35       -7.770038   1.000000
   36       -7.727548   1.000000
   37       -7.521092   1.000000
   38       -7.396919   1.000000
   39       -7.329751   1.000000
   40       -7.253188   1.000000
   41       -7.124311   1.000000
   42       -7.053188   1.000000
   43       -7.008429   1.000000
   44       -6.927953   1.000000
   45       -6.851493   1.000000
   46       -6.720223   1.000000
   47       -6.662397   1.000000
   48       -6.612076   1.000000
   49       -6.559131   1.000000
   50       -6.518021   1.000000
   51       -6.437004   1.000000
   52       -6.366064   1.000000
   53       -6.303778   1.000000
   54       -6.214410   1.000000
   55       -6.132581   1.000000
   56       -6.047778   1.000000
   57       -5.957154   1.000000
   58       -5.911443   1.000000
   59       -5.867596   1.000000
   60       -5.839485   1.000000
   61       -5.745219   1.000000
   62       -5.578287   1.000000
   63       -5.529486   1.000000
   64       -5.352371   1.000000
   65       -5.306862   1.000000
   66       -5.103354   1.000000
   67       -4.900803   1.000000
   68       -4.865386   1.000000
   69       -4.765177   1.000000
   70       -4.713912   1.000000
   71       -4.590393   1.000000
   72       -4.534621   1.000000
   73       -4.413761   1.000000
   74       -4.183727   1.000000
   75       -4.109786   1.000000
   76       -3.978098   0.999998
   77       -3.829887   0.999794
   78       -3.754473   0.998647
   79       -3.540521   0.931421
   80       -3.407980   0.708583
   81       -2.926639   0.002156
   82       -2.906620   0.001368
   83       -2.729532   0.000011
   84       -2.608778   0.000000
   85       -2.529606   0.000000
   86       -2.446896   0.000000
   87       -2.354873   0.000000
   88       -2.235674   0.000000
   89       -2.176347   0.000000
   90       -1.986712   0.000000
   91       -1.751516   0.000000
   92       -1.647007   0.000000
   93       -1.431062   0.000000
   94       -1.217970   0.000000
   95       -1.125462   0.000000
   96       -1.068164   0.000000
   97       -1.023065   0.000000
   98       -0.994575   0.000000
   99       -0.940427   0.000000
  100       -0.906003   0.000000
  101       -0.778269   0.000000
  102       -0.729534   0.000000
  103       -0.648412   0.000000
  104       -0.563158   0.000000
  105       -0.373759   0.000000
  106       -0.295738   0.000000
  107       -0.216515   0.000000
  108       -0.133196   0.000000
  109       -0.066092   0.000000
  110        0.291425   0.000000
  111        0.399125   0.000000
  112        0.491296   0.000000
  113        0.547307   0.000000
  114        0.933897   0.000000
  115        1.111744   0.000000
  116        1.288429   0.000000
  117        1.379919   0.000000
  118        2.125500   0.000000
  119        2.260813   0.000000
  120        2.389003   0.000000
 
  0.0000000E+00  0.1250000E+00  0.0000000E+00  0.3125000E-01
    1      -17.830026   1.000000
    2      -16.856593   1.000000
    3      -16.799434   1.000000
    4      -16.625720   1.000000
    5      -16.579387   1.000000
    6      -16.460936   1.000000
    7      -16.409738   1.000000
    8      -16.285447   1.000000
    9      -16.165199   1.000000
   10      -16.061586   1.000000
   11      -15.989737   1.000000
   12      -15.930887   1.000000
   13      -15.855040   1.000000
   14      -15.704718   1.000000
   15      -15.584950   1.000000
   16      -15.377568   1.000000
   17      -15.341552   1.000000
   18      -15.179349   1.000000
   19       -9.620883   1.000000
   20       -9.222812   1.000000
   21       -9.101672   1.000000
   22       -8.933451   1.000000
   23       -8.766382   1.000000
   24       -8.741733   1.000000
   25       -8.624764   1.000000
   26       -8.577724   1.000000
   27       -8.533302   1.000000
   28       -8.415975   1.000000
   29       -8.388979   1.000000
   30       -8.295981   1.000000
   31       -8.249426   1.000000
   32       -8.033474   1.000000
   33       -7.969452   1.000000
   34       -7.877950   1.000000
   35       -7.794674   1.000000
   36       -7.751380   1.000000
   37       -7.718267   1.000000
   38       -7.497929   1.000000
   39       -7.445411   1.000000
   40       -7.384209   1.000000
   41       -7.358246   1.000000
   42       -7.343892   1.000000
   43       -7.097137   1.000000
   44       -6.931188   1.000000
   45       -6.848088   1.000000
   46       -6.837693   1.000000
   47       -6.753590   1.000000
   48       -6.659050   1.000000
   49       -6.563453   1.000000
   50       -6.448722   1.000000
   51       -6.416785   1.000000
   52       -6.353069   1.000000
   53       -6.269562   1.000000
   54       -6.260736   1.000000
   55       -6.184704   1.000000
   56       -6.153810   1.000000
   57       -6.057859   1.000000
   58       -5.953352   1.000000
   59       -5.775131   1.000000
   60       -5.525794   1.000000
   61       -5.422672   1.000000
   62       -5.358703   1.000000
   63       -5.305309   1.000000
   64       -5.194438   1.000000
   65       -5.179455   1.000000
   66       -4.973535   1.000000
   67       -4.966489   1.000000
   68       -4.873270   1.000000
   69       -4.795949   1.000000
   70       -4.672016   1.000000
   71       -4.593772   1.000000
   72       -4.547548   1.000000
   73       -4.475781   1.000000
   74       -4.373415   1.000000
   75       -4.038880   1.000000
   76       -3.885349   0.999957
   77       -3.878334   0.999947
   78       -3.678985   0.993160
   79       -3.600475   0.971959
   80       -3.319369   0.469185
   81       -3.135972   0.084700
   82       -3.017388   0.013461
   83       -2.873275   0.000615
   84       -2.723576   0.000009
   85       -2.593016   0.000000
   86       -2.435358   0.000000
   87       -2.395034   0.000000
   88       -2.334501   0.000000
   89       -2.314930   0.000000
   90       -2.181729   0.000000
   91       -1.781987   0.000000
   92       -1.656111   0.000000
   93       -1.269661   0.000000
   94       -1.174029   0.000000
   95       -1.035457   0.000000
   96       -0.990960   0.000000
   97       -0.924024   0.000000
   98       -0.812395   0.000000
   99       -0.781285   0.000000
  100       -0.721809   0.000000
  101       -0.602083   0.000000
  102       -0.549381   0.000000
  103       -0.494815   0.000000
  104       -0.351719   0.000000
  105       -0.264157   0.000000
  106       -0.175532   0.000000
  107       -0.125880   0.000000
  108        0.184656   0.000000
  109        0.218215   0.000000
  110        0.283476   0.000000
  111        0.305750   0.000000
  112        0.481705   0.000000
  113        0.585136   0.000000
  114        0.888211   0.000000
  115        0.964481   0.000000
  116        1.003005   0.000000
  117        1.097768   0.000000
  118        1.670748   0.000000
  119        1.872844   0.000000
  120        2.188077   0.000000
 
  0.1250000E+00  0.1250000E+00  0.0000000E+00  0.3125000E-01
    1      -17.784129   1.000000
    2      -16.975595   1.000000
    3      -16.796515   1.000000
    4      -16.709519   1.000000
    5      -16.555143   1.000000
    6      -16.459636   1.000000
    7      -16.382442   1.000000
    8      -16.275283   1.000000
    9      -16.160371   1.000000
   10      -16.034912   1.000000
   11      -15.975426   1.000000
   12      -15.889571   1.000000
   13      -15.803751   1.000000
   14      -15.681157   1.000000
   15      -15.594406   1.000000
   16      -15.406540   1.000000
   17      -15.345977   1.000000
   18      -15.188262   1.000000
   19       -9.637510   1.000000
   20       -9.339257   1.000000
   21       -9.249667   1.000000
   22       -9.041744   1.000000
   23       -8.791666   1.000000
   24       -8.728986   1.000000
   25       -8.650941   1.000000
   26       -8.541877   1.000000
   27       -8.478920   1.000000
   28       -8.418564   1.000000
   29       -8.346138   1.000000
   30       -8.271800   1.000000
   31       -8.132498   1.000000
   32       -8.029162   1.000000
   33       -7.978965   1.000000
   34       -7.871927   1.000000
   35       -7.723913   1.000000
   36       -7.649641   1.000000
   37       -7.611416   1.000000
   38       -7.555130   1.000000
   39       -7.446323   1.000000
   40       -7.333774   1.000000
   41       -7.311872   1.000000
   42       -7.231563   1.000000
   43       -7.134866   1.000000
   44       -7.029672   1.000000
   45       -6.842594   1.000000
   46       -6.819728   1.000000
   47       -6.766024   1.000000
   48       -6.647283   1.000000
   49       -6.532337   1.000000
   50       -6.483041   1.000000
   51       -6.413102   1.000000
   52       -6.392877   1.000000
   53       -6.291064   1.000000
   54       -6.247829   1.000000
   55       -6.167796   1.000000
   56       -6.110306   1.000000
   57       -5.979335   1.000000
   58       -5.910774   1.000000
   59       -5.758857   1.000000
   60       -5.620325   1.000000
   61       -5.509673   1.000000
   62       -5.429690   1.000000
   63       -5.347790   1.000000
   64       -5.296872   1.000000
   65       -5.205392   1.000000
   66       -5.066267   1.000000
   67       -4.915930   1.000000
   68       -4.854394   1.000000
   69       -4.763401   1.000000
   70       -4.695185   1.000000
   71       -4.610399   1.000000
   72       -4.510387   1.000000
   73       -4.343479   1.000000
   74       -4.293689   1.000000
   75       -4.097991   1.000000
   76       -4.010957   0.999999
   77       -3.817237   0.999712
   78       -3.750018   0.998500
   79       -3.644047   0.986739
   80       -3.281960   0.366234
   81       -3.076291   0.036236
   82       -3.018864   0.013825
   83       -2.812939   0.000127
   84       -2.690326   0.000003
   85       -2.599363   0.000000
   86       -2.456621   0.000000
   87       -2.374351   0.000000
   88       -2.296425   0.000000
   89       -2.265762   0.000000
   90       -2.136828   0.000000
   91       -1.792006   0.000000
   92       -1.651335   0.000000
   93       -1.285523   0.000000
   94       -1.174804   0.000000
   95       -1.060513   0.000000
   96       -0.993502   0.000000
   97       -0.918693   0.000000
   98       -0.827182   0.000000
   99       -0.812269   0.000000
  100       -0.771628   0.000000
  101       -0.671458   0.000000
  102       -0.620121   0.000000
  103       -0.553664   0.000000
  104       -0.441438   0.000000
  105       -0.377824   0.000000
  106       -0.222567   0.000000
  107       -0.121948   0.000000
  108        0.090564   0.000000
  109        0.183123   0.000000
  110        0.256500   0.000000
  111        0.294392   0.000000
  112        0.486191   0.000000
  113        0.604445   0.000000
  114        0.894506   0.000000
  115        1.029760   0.000000
  116        1.075544   0.000000
  117        1.195818   0.000000
  118        1.752289   0.000000
  119        1.950758   0.000000
  120        2.256550   0.000000
 
  0.2500000E+00  0.1250000E+00  0.0000000E+00  0.3125000E-01
    1      -17.702146   1.000000
    2      -17.121898   1.000000
    3      -16.839440   1.000000
    4      -16.769034   1.000000
    5      -16.538791   1.000000
    6      -16.473650   1.000000
    7      -16.368118   1.000000
    8      -16.214247   1.000000
    9      -16.126228   1.000000
   10      -16.024703   1.000000
   11      -15.938094   1.000000
   12      -15.883995   1.000000
   13      -15.766155   1.000000
   14      -15.635541   1.000000
   15      -15.599773   1.000000
   16      -15.433375   1.000000
   17      -15.357322   1.000000
   18      -15.199080   1.000000
   19       -9.732561   1.000000
   20       -9.425628   1.000000
   21       -9.362299   1.000000
   22       -9.165558   1.000000
   23       -8.805592   1.000000
   24       -8.745483   1.000000
   25       -8.566118   1.000000
   26       -8.503457   1.000000
   27       -8.450343   1.000000
   28       -8.359096   1.000000
   29       -8.324404   1.000000
   30       -8.260025   1.000000
   31       -8.123728   1.000000
   32       -8.029293   1.000000
   33       -7.995251   1.000000
   34       -7.827323   1.000000
   35       -7.771915   1.000000
   36       -7.728010   1.000000
   37       -7.580117   1.000000
   38       -7.405057   1.000000
   39       -7.353118   1.000000
   40       -7.274066   1.000000
   41       -7.185042   1.000000
   42       -7.180888   1.000000
   43       -7.122965   1.000000
   44       -6.975268   1.000000
   45       -6.838952   1.000000
   46       -6.789255   1.000000
   47       -6.733585   1.000000