<?xml version="1.0" encoding="ISO-8859-1"?>
<modeling>
 <generator>
  <i name="program" type="string">vasp </i>
  <i name="version" type="string">5.4.1  </i>
  <i name="subversion" type="string">05Feb16 (build Jul 05 2020 17:13:04) complex                          parallel </i>
  <i name="platform" type="string">IFC91_ompi </i>
  <i name="date" type="string">2024 04 19 </i>
  <i name="time" type="string">20:26:37 </i>
 </generator>
 <incar>
  <i type="int" name="ISTART">     0</i>
  <i type="string" name="PREC">normal</i>
  <i type="string" name="ALGO"> Normal</i>
  <i type="int" name="ISPIN">     1</i>
  <i type="int" name="ICHARG">     2</i>
  <i type="int" name="IBRION">     1</i>
  <i type="int" name="NSW">   100</i>
  <i type="int" name="ISIF">     3</i>
  <i type="int" name="ISYM">     0</i>
  <i name="SYMPREC">      0.00000001</i>
  <i name="POTIM">      0.50000000</i>
  <i type="logical" name="LREAL"> F  </i>
  <i type="logical" name="LPLANE"> F  </i>
  <i type="int" name="ISMEAR">     0</i>
  <i type="logical" name="LWAVE"> F  </i>
  <i type="logical" name="LCHARG"> F  </i>
  <v type="int" name="KPOINT_BSE">    -1     0     0     0</v>
 </incar>
 <kpoints>
  <generation param="Gamma">
   <v type="int" name="divisions">       8        8        1 </v>
   <v name="usershift">      0.00000000       0.00000000       0.00000000 </v>
   <v name="genvec1">      0.12500000       0.00000000       0.00000000 </v>
   <v name="genvec2">     -0.00000000       0.12500000       0.00000000 </v>
   <v name="genvec3">      0.00000000       0.00000000       1.00000000 </v>
   <v name="shift">      0.00000000       0.00000000       0.00000000 </v>
  </generation>
  <varray name="kpointlist" >
   <v>       0.00000000       0.00000000       0.00000000 </v>
   <v>       0.12500000       0.00000000       0.00000000 </v>
   <v>       0.25000000       0.00000000       0.00000000 </v>
   <v>       0.37500000       0.00000000       0.00000000 </v>
   <v>       0.50000000       0.00000000       0.00000000 </v>
   <v>       0.00000000       0.12500000       0.00000000 </v>
   <v>       0.12500000       0.12500000       0.00000000 </v>
   <v>       0.25000000       0.12500000       0.00000000 </v>
   <v>       0.37500000       0.12500000       0.00000000 </v>
   <v>       0.50000000       0.12500000       0.00000000 </v>
   <v>      -0.37500000       0.12500000       0.00000000 </v>
   <v>      -0.25000000       0.12500000       0.00000000 </v>
   <v>      -0.12500000       0.12500000       0.00000000 </v>
   <v>       0.00000000       0.25000000       0.00000000 </v>
   <v>       0.12500000       0.25000000       0.00000000 </v>
   <v>       0.25000000       0.25000000       0.00000000 </v>
   <v>       0.37500000       0.25000000       0.00000000 </v>
   <v>       0.50000000       0.25000000       0.00000000 </v>
   <v>      -0.37500000       0.25000000       0.00000000 </v>
   <v>      -0.25000000       0.25000000       0.00000000 </v>
   <v>      -0.12500000       0.25000000       0.00000000 </v>
   <v>      -0.00000000       0.37500000       0.00000000 </v>
   <v>       0.12500000       0.37500000       0.00000000 </v>
   <v>       0.25000000       0.37500000       0.00000000 </v>
   <v>       0.37500000       0.37500000       0.00000000 </v>
   <v>       0.50000000       0.37500000       0.00000000 </v>
   <v>      -0.37500000       0.37500000       0.00000000 </v>
   <v>      -0.25000000       0.37500000       0.00000000 </v>
   <v>      -0.12500000       0.37500000       0.00000000 </v>
   <v>       0.00000000       0.50000000       0.00000000 </v>
   <v>       0.12500000       0.50000000       0.00000000 </v>
   <v>       0.25000000       0.50000000       0.00000000 </v>
   <v>       0.37500000       0.50000000       0.00000000 </v>
   <v>       0.50000000       0.50000000       0.00000000 </v>
  </varray>
  <varray name="weights" >
   <v>       0.01562500 </v>
   <v>       0.03125000 </v>
   <v>       0.03125000 </v>
   <v>       0.03125000 </v>
   <v>       0.01562500 </v>
   <v>       0.03125000 </v>
   <v>       0.03125000 </v>
   <v>       0.03125000 </v>
   <v>       0.03125000 </v>
   <v>       0.03125000 </v>
   <v>       0.03125000 </v>
   <v>       0.03125000 </v>
   <v>       0.03125000 </v>
   <v>       0.03125000 </v>
   <v>       0.03125000 </v>
   <v>       0.03125000 </v>
   <v>       0.03125000 </v>
   <v>       0.03125000 </v>
   <v>       0.03125000 </v>
   <v>       0.03125000 </v>
   <v>       0.03125000 </v>
   <v>       0.03125000 </v>
   <v>       0.03125000 </v>
   <v>       0.03125000 </v>
   <v>       0.03125000 </v>
   <v>       0.03125000 </v>
   <v>       0.03125000 </v>
   <v>       0.03125000 </v>
   <v>       0.03125000 </v>
   <v>       0.01562500 </v>
   <v>       0.03125000 </v>
   <v>       0.03125000 </v>
   <v>       0.03125000 </v>
   <v>       0.01562500 </v>
  </varray>
 </kpoints>
 <parameters>
  <separator name="general" >
   <i type="string" name="SYSTEM">unknown system</i>
   <i type="logical" name="LCOMPAT"> F  </i>
  </separator>
  <separator name="electronic" >
   <i type="string" name="PREC">normal</i>
   <i name="ENMAX">    280.00000000</i>
   <i name="ENAUG">    373.43800000</i>
   <i name="EDIFF">      0.00010000</i>
   <i type="int" name="IALGO">    38</i>
   <i type="int" name="IWAVPR">    11</i>
   <i type="int" name="NBANDS">   120</i>
   <i name="NELECT">    159.00000000</i>
   <i type="int" name="TURBO">     0</i>
   <i type="int" name="IRESTART">     0</i>
   <i type="int" name="NREBOOT">     0</i>
   <i type="int" name="NMIN">     0</i>
   <i name="EREF">      0.00000000</i>
   <separator name="electronic smearing" >
    <i type="int" name="ISMEAR">     0</i>
    <i name="SIGMA">      0.20000000</i>
    <i name="KSPACING">      0.50000000</i>
    <i type="logical" name="KGAMMA"> T  </i>
   </separator>
   <separator name="electronic projectors" >
    <i type="logical" name="LREAL"> F  </i>
    <v name="ROPT">      0.00000000      0.00000000      0.00000000      0.00000000</v>
    <i type="int" name="LMAXPAW">  -100</i>
    <i type="int" name="LMAXMIX">     2</i>
    <i type="logical" name="NLSPLINE"> F  </i>
   </separator>
   <separator name="electronic startup" >
    <i type="int" name="ISTART">     0</i>
    <i type="int" name="ICHARG">     2</i>
    <i type="int" name="INIWAV">     1</i>
   </separator>
   <separator name="electronic spin" >
    <i type="int" name="ISPIN">     1</i>
    <i type="logical" name="LNONCOLLINEAR"> F  </i>
    <v name="MAGMOM">      1.00000000      1.00000000      1.00000000      1.00000000      1.00000000      1.00000000      1.00000000      1.00000000      1.00000000      1.00000000      1.00000000      1.00000000      1.00000000      1.00000000      1.00000000      1.00000000      1.00000000      1.00000000      1.00000000      1.00000000
      1.00000000      1.00000000      1.00000000      1.00000000      1.00000000      1.00000000      1.00000000</v>
    <i name="NUPDOWN">     -1.00000000</i>
    <i type="logical" name="LSORBIT"> F  </i>
    <v name="SAXIS">      0.00000000      0.00000000      1.00000000</v>
    <i type="logical" name="LSPIRAL"> F  </i>
    <v name="QSPIRAL">      0.00000000      0.00000000      0.00000000</v>
    <i type="logical" name="LZEROZ"> F  </i>
   </separator>
   <separator name="electronic exchange-correlation" >
    <i type="logical" name="LASPH"> F  </i>
    <i type="logical" name="LMETAGGA"> F  </i>
   </separator>
   <separator name="electronic convergence" >
    <i type="int" name="NELM">    60</i>
    <i type="int" name="NELMDL">    -5</i>
    <i type="int" name="NELMIN">     2</i>
    <i name="ENINI">    280.00000000</i>
    <separator name="electronic convergence detail" >
     <i type="logical" name="LDIAG"> T  </i>
     <i type="logical" name="LSUBROT"> F  </i>
     <i name="WEIMIN">      0.00100000</i>
     <i name="EBREAK">      0.00000021</i>
     <i name="DEPER">      0.30000000</i>
     <i type="int" name="NRMM">     4</i>
     <i name="TIME">      0.40000000</i>
    </separator>
   </separator>
   <separator name="electronic mixer" >
    <i name="AMIX">      0.40000000</i>
    <i name="BMIX">      1.00000000</i>
    <i name="AMIN">      0.10000000</i>
    <i name="AMIX_MAG">      1.60000000</i>
    <i name="BMIX_MAG">      1.00000000</i>
    <separator name="electronic mixer details" >
     <i type="int" name="IMIX">     4</i>
     <i type="logical" name="MIXFIRST"> F  </i>
     <i type="int" name="MAXMIX">   -45</i>
     <i name="WC">    100.00000000</i>
     <i type="int" name="INIMIX">     1</i>
     <i type="int" name="MIXPRE">     1</i>
     <i type="int" name="MREMOVE">     5</i>
    </separator>
   </separator>
   <separator name="electronic dipolcorrection" >
    <i type="logical" name="LDIPOL"> F  </i>
    <i type="logical" name="LMONO"> F  </i>
    <i type="int" name="IDIPOL">     0</i>
    <i name="EPSILON">      1.00000000</i>
    <v name="DIPOL">   -100.00000000   -100.00000000   -100.00000000</v>
    <i name="EFIELD">      0.00000000</i>
   </separator>
  </separator>
  <separator name="grids" >
   <i type="int" name="NGX">    42</i>
   <i type="int" name="NGY">    42</i>
   <i type="int" name="NGZ">   126</i>
   <i type="int" name="NGXF">    84</i>
   <i type="int" name="NGYF">    84</i>
   <i type="int" name="NGZF">   252</i>
   <i type="logical" name="ADDGRID"> F  </i>
  </separator>
  <separator name="ionic" >
   <i type="int" name="NSW">   100</i>
   <i type="int" name="IBRION">     1</i>
   <i type="int" name="ISIF">     3</i>
   <i name="PSTRESS">      0.00000000</i>
   <i name="EDIFFG">      0.00100000</i>
   <i type="int" name="NFREE">     0</i>
   <i name="POTIM">      0.50000000</i>
   <i name="SMASS">     -3.00000000</i>
   <i name="SCALEE">      1.00000000</i>
  </separator>
  <separator name="ionic md" >
   <i name="TEBEG">      0.00010000</i>
   <i name="TEEND">      0.00010000</i>
   <i type="int" name="NBLOCK">     1</i>
   <i type="int" name="KBLOCK">   100</i>
   <i type="int" name="NPACO">   256</i>
   <i name="APACO">     16.00000000</i>
  </separator>
  <separator name="symmetry" >
   <i type="int" name="ISYM">     0</i>
   <i name="SYMPREC">      0.00000001</i>
  </separator>
  <separator name="dos" >
   <i type="logical" name="LORBIT"> F  </i>
   <v name="RWIGS">     -1.00000000     -1.00000000     -1.00000000     -1.00000000</v>
   <i type="int" name="NEDOS">   301</i>
   <i name="EMIN">     10.00000000</i>
   <i name="EMAX">    -10.00000000</i>
   <i name="EFERMI">      0.00000000</i>
  </separator>
  <separator name="writing" >
   <i type="int" name="NWRITE">     2</i>
   <i type="logical" name="LWAVE"> F  </i>
   <i type="logical" name="LCHARG"> F  </i>
   <i type="logical" name="LPARD"> F  </i>
   <i type="logical" name="LVTOT"> F  </i>
   <i type="logical" name="LVHAR"> F  </i>
   <i type="logical" name="LELF"> F  </i>
   <i type="logical" name="LOPTICS"> F  </i>
   <v name="STM">      0.00000000      0.00000000      0.00000000      0.00000000      0.00000000      0.00000000      0.00000000</v>
  </separator>
  <separator name="performance" >
   <i type="int" name="NPAR">    40</i>
   <i type="int" name="NSIM">     4</i>
   <i type="int" name="NBLK">    -1</i>
   <i type="logical" name="LPLANE"> F  </i>
   <i type="logical" name="LSCALAPACK"> T  </i>
   <i type="logical" name="LSCAAWARE"> F  </i>
   <i type="logical" name="LSCALU"> F  </i>
   <i type="logical" name="LASYNC"> F  </i>
   <i type="logical" name="LORBITALREAL"> F  </i>
  </separator>
  <separator name="miscellaneous" >
   <i type="int" name="IDIOT">     3</i>
   <i type="logical" name="LMUSIC"> F  </i>
   <v name="POMASS">     50.94100000     95.94000000    183.85000000     32.06600000</v>
   <v name="DARWINR">      0.00000000      0.00000000      0.00000000      0.00000000</v>
   <v name="DARWINV">      1.00000000      1.00000000      1.00000000      1.00000000</v>
   <i type="logical" name="LCORR"> T  </i>
  </separator>
  <i type="logical" name="GGA_COMPAT"> T  </i>
  <i type="logical" name="LBERRY"> F  </i>
  <i type="int" name="ICORELEVEL">     0</i>
  <i type="logical" name="LDAU"> F  </i>
  <i type="int" name="I_CONSTRAINED_M">     0</i>
  <separator name="electronic exchange-correlation" >
   <i type="string" name="GGA">--</i>
   <i type="int" name="VOSKOWN">     0</i>
   <i type="logical" name="LHFCALC"> F  </i>
   <i type="string" name="PRECFOCK"></i>
   <i type="logical" name="LSYMGRAD"> F  </i>
   <i type="logical" name="LHFONE"> F  </i>
   <i type="logical" name="LRHFCALC"> F  </i>
   <i type="logical" name="LTHOMAS"> F  </i>
   <i type="logical" name="LMODELHF"> F  </i>
   <i name="ENCUT4O">     -1.00000000</i>
   <i type="int" name="EXXOEP">     0</i>
   <i type="int" name="FOURORBIT">     0</i>
   <i name="AEXX">      0.00000000</i>
   <i name="HFALPHA">      0.00000000</i>
   <i name="MCALPHA">      0.00000000</i>
   <i name="ALDAX">      1.00000000</i>
   <i name="AGGAX">      1.00000000</i>
   <i name="ALDAC">      1.00000000</i>
   <i name="AGGAC">      1.00000000</i>
   <i type="int" name="NKREDX">     1</i>
   <i type="int" name="NKREDY">     1</i>
   <i type="int" name="NKREDZ">     1</i>
   <i type="logical" name="SHIFTRED"> F  </i>
   <i type="logical" name="ODDONLY"> F  </i>
   <i type="logical" name="EVENONLY"> F  </i>
   <i type="int" name="LMAXFOCK">     0</i>
   <i type="int" name="NMAXFOCKAE">     0</i>
   <i type="logical" name="LFOCKAEDFT"> F  </i>
   <i name="HFSCREEN">      0.00000000</i>
   <i name="HFSCREENC">      0.00000000</i>
   <i type="int" name="NBANDSGWLOW">     0</i>
  </separator>
  <separator name="vdW DFT" >
   <i type="logical" name="LUSE_VDW"> F  </i>
   <i name="Zab_VDW">     -0.84910000</i>
   <i name="PARAM1">      0.12340000</i>
   <i name="PARAM2">      1.00000000</i>
   <i name="PARAM3">      0.00000000</i>
  </separator>
  <separator name="model GW" >
   <i type="int" name="MODEL_GW">     0</i>
   <i name="MODEL_EPS0">     58.26239943</i>
   <i name="MODEL_ALPHA">      1.00000000</i>
  </separator>
  <separator name="linear response parameters" >
   <i type="logical" name="LEPSILON"> F  </i>
   <i type="logical" name="LRPA"> F  </i>
   <i type="logical" name="LNABLA"> F  </i>
   <i type="logical" name="LVEL"> F  </i>
   <i type="int" name="KINTER">     0</i>
   <i name="CSHIFT">      0.10000000</i>
   <i name="OMEGAMAX">     -1.00000000</i>
   <i name="DEG_THRESHOLD">      0.00200000</i>
  </separator>
  <separator name="orbital magnetization" >
   <i type="logical" name="NUCIND"> F  </i>
   <v name="MAGPOS">      0.00000000      0.00000000      0.00000000</v>
   <i type="logical" name="LNICSALL"> T  </i>
   <i type="logical" name="ORBITALMAG"> F  </i>
   <i type="logical" name="LMAGBLOCH"> F  </i>
   <i type="logical" name="LCHIMAG"> F  </i>
   <i type="logical" name="LGAUGE"> T  </i>
   <i type="int" name="MAGATOM">     0</i>
   <v name="MAGDIPOL">      0.00000000      0.00000000      0.00000000</v>
   <v name="AVECCONST">      0.00000000      0.00000000      0.00000000</v>
  </separator>
  <separator name="response functions" >
   <i type="logical" name="LADDER"> F  </i>
   <i type="logical" name="LFXC"> F  </i>
   <i type="logical" name="LHARTREE"> T  </i>
   <i type="int" name="IBSE">     0</i>
   <v type="int" name="KPOINT">    -1     0     0     0</v>
   <i type="logical" name="LTCTE"> F  </i>
   <i type="logical" name="LTETE"> F  </i>
   <i type="logical" name="LTRIPLET"> F  </i>
   <i type="logical" name="LFXCEPS"> F  </i>
   <i type="logical" name="LFXHEG"> F  </i>
   <i type="int" name="NATURALO">     0</i>
   <i type="logical" name="L2ORDER"> F  </i>
   <i type="logical" name="LUSEW"> F  </i>
   <i name="ENCUTGW">     -2.00000000</i>
   <i name="ENCUTGWSOFT">     -2.00000000</i>
   <i name="ENCUTLF">     -1.00000000</i>
   <i type="int" name="LMAXMP2">    -1</i>
   <i name="SCISSOR">      0.00000000</i>
   <i type="int" name="NOMEGA">     0</i>
   <i type="int" name="NOMEGAR">     0</i>
   <i type="int" name="NBANDSGW">    -1</i>
   <i type="int" name="NBANDSO">    -1</i>
   <i type="int" name="NBANDSV">    -1</i>
   <i type="int" name="NELM">     1</i>
   <i type="int" name="NELMHF">     1</i>
   <i type="int" name="DIM">     3</i>
   <i type="int" name="ANTIRES">     0</i>
   <i name="OMEGAMAX">    -30.00000000</i>
   <i name="OMEGAMIN">    -30.00000000</i>
   <i name="OMEGATL">   -200.00000000</i>
   <i type="int" name="OMEGAGRID">     0</i>
   <i name="CSHIFT">     -0.10000000</i>
   <i type="logical" name="SELFENERGY"> F  </i>
   <i type="logical" name="LSPECTRAL"> F  </i>
   <i type="logical" name="LSPECTRALGW"> F  </i>
   <i type="logical" name="LSINGLES"> F  </i>
   <i type="logical" name="LFERMIGW"> F  </i>
   <i type="logical" name="ODDONLYGW"> F  </i>
   <i type="logical" name="EVENONLYGW"> F  </i>
   <i type="int" name="NKREDLFX">     1</i>
   <i type="int" name="NKREDLFY">     1</i>
   <i type="int" name="NKREDLFZ">     1</i>
   <i type="int" name="MAXMEM">  1800</i>
   <i type="int" name="TELESCOPE">     0</i>
   <i type="int" name="TAUPAR">     1</i>
   <i type="int" name="OMEGAPAR">    -1</i>
   <i name="LAMBDA">      1.00000000</i>
  </separator>
  <separator name="External order field" >
   <i name="OFIELD_KAPPA">      0.00000000</i>
   <v name="OFIELD_K">      0.00000000      0.00000000      0.00000000</v>
   <i name="OFIELD_Q6_NEAR">      0.00000000</i>
   <i name="OFIELD_Q6_FAR">      0.00000000</i>
   <i name="OFIELD_A">      0.00000000</i>
  </separator>
 </parameters>
 <atominfo>
  <atoms>      27 </atoms>
  <types>       4 </types>
  <array name="atoms" >
   <dimension dim="1">ion</dimension>
   <field type="string">element</field>
   <field type="int">atomtype</field>
   <set>
    <rc><c>V </c><c>   1</c></rc>
    <rc><c>V </c><c>   1</c></rc>
    <rc><c>V </c><c>   1</c></rc>
    <rc><c>Mo</c><c>   2</c></rc>
    <rc><c>Mo</c><c>   2</c></rc>
    <rc><c>Mo</c><c>   2</c></rc>
    <rc><c>W </c><c>   3</c></rc>
    <rc><c>W </c><c>   3</c></rc>
    <rc><c>W </c><c>   3</c></rc>
    <rc><c>S </c><c>   4</c></rc>
    <rc><c>S </c><c>   4</c></rc>
    <rc><c>S </c><c>   4</c></rc>
    <rc><c>S </c><c>   4</c></rc>
    <rc><c>S </c><c>   4</c></rc>
    <rc><c>S </c><c>   4</c></rc>
    <rc><c>S </c><c>   4</c></rc>
    <rc><c>S </c><c>   4</c></rc>
    <rc><c>S </c><c>   4</c></rc>
    <rc><c>S </c><c>   4</c></rc>
    <rc><c>S </c><c>   4</c></rc>
    <rc><c>S </c><c>   4</c></rc>
    <rc><c>S </c><c>   4</c></rc>
    <rc><c>S </c><c>   4</c></rc>
    <rc><c>S </c><c>   4</c></rc>
    <rc><c>S </c><c>   4</c></rc>
    <rc><c>S </c><c>   4</c></rc>
    <rc><c>S </c><c>   4</c></rc>
   </set>
  </array>
  <array name="atomtypes" >
   <dimension dim="1">type</dimension>
   <field type="int">atomspertype</field>
   <field type="string">element</field>
   <field>mass</field>
   <field>valence</field>
   <field type="string">pseudopotential</field>
   <set>
    <rc><c>   3</c><c>V </c><c>     50.94100000</c><c>      5.00000000</c><c> PAW_PBE V 08Apr2002                    </c></rc>
    <rc><c>   3</c><c>Mo</c><c>     95.94000000</c><c>      6.00000000</c><c> PAW_PBE Mo 08Apr2002                   </c></rc>
    <rc><c>   3</c><c>W </c><c>    183.85000000</c><c>      6.00000000</c><c> PAW_PBE W 08Apr2002                    </c></rc>
    <rc><c>  18</c><c>S </c><c>     32.06600000</c><c>      6.00000000</c><c>  PAW_PBE S 17Jan2003                   </c></rc>
   </set>
  </array>
 </atominfo>
 <structure name="initialpos" >
  <crystal>
   <varray name="basis" >
    <v>       8.66999996       5.03999989       0.00000000 </v>
    <v>      -8.66999982       5.04000013       0.00000000 </v>
    <v>       0.00000000       0.00000000      30.00000000 </v>
   </varray>
   <i name="volume">   2621.80797419 </i>
   <varray name="rec_basis" >
    <v>       0.05767013       0.09920635       0.00000000 </v>
    <v>      -0.05767013       0.09920635       0.00000000 </v>
    <v>       0.00000000       0.00000000       0.03333333 </v>
   </varray>
  </crystal>
  <varray name="positions" >
   <v>       0.33333334       0.66666669       0.00000000 </v>
   <v>       0.00000000       0.00000000       0.00000000 </v>
   <v>       0.66666669       0.33333334       0.00000000 </v>
   <v>       1.00000000       0.33333334       0.00000000 </v>
   <v>       0.66666669       0.66666669       0.00000000 </v>
   <v>       0.33333334       0.33333334       0.00000000 </v>
   <v>       0.00000000       0.66666669       0.00000000 </v>
   <v>       0.33333334       0.00000000       0.00000000 </v>
   <v>       0.66666669       0.00000000       0.00000000 </v>
   <v>       0.11068511       0.22244981       0.95539999 </v>
   <v>       0.22244981       0.11068511       0.04460000 </v>
   <v>       0.11068511       0.55578315       0.95539999 </v>
   <v>       0.22244981       0.44401845       0.04460000 </v>
   <v>       0.11068511       0.88911647       0.95539999 </v>
   <v>       0.22244981       0.77735180       0.04460000 </v>
   <v>       0.44401845       0.22244981       0.95539999 </v>
   <v>       0.55578315       0.11068511       0.04460000 </v>
   <v>       0.44401845       0.55578315       0.95539999 </v>
   <v>       0.55578315       0.44401845       0.04460000 </v>
   <v>       0.44401845       0.88911647       0.95539999 </v>
   <v>       0.55578315       0.77735180       0.04460000 </v>
   <v>       0.77735180       0.22244981       0.95539999 </v>
   <v>       0.88911647       0.11068511       0.04460000 </v>
   <v>       0.77735180       0.55578315       0.95539999 </v>
   <v>       0.88911647       0.44401845       0.04460000 </v>
   <v>       0.77735180       0.88911647       0.95539999 </v>
   <v>       0.88911647       0.77735180       0.04460000 </v>
  </varray>
 </structure>
 <calculation>
  <scstep>
   <time name="dav">   21.63   21.68</time>
   <time name="total">   21.67   21.73</time>
   <energy>
    <i name="alphaZ">     81.65567618 </i>
    <i name="ewald">  41888.36874788 </i>
    <i name="hartreedc"> -47720.98535188 </i>
    <i name="XCdc">   -242.93567424 </i>
    <i name="pawpsdc">   3467.42045192 </i>
    <i name="pawaedc">  -2871.19716117 </i>
    <i name="eentropy">     -0.51254069 </i>
    <i name="bandstr">   -236.43928733 </i>
    <i name="atom">   6761.44252427 </i>
    <i name="e_fr_energy">   1126.81738493 </i>
    <i name="e_wo_entrp">   1127.32992562 </i>
    <i name="e_0_energy">   1127.07365528 </i>
   </energy>
  </scstep>
  <scstep>
   <time name="dav">   28.01   28.08</time>
   <time name="total">   28.01   28.09</time>
   <energy>
    <i name="e_fr_energy">     -0.98656115 </i>
    <i name="e_wo_entrp">     -0.80408503 </i>
    <i name="e_0_energy">     -0.89532309 </i>
   </energy>
  </scstep>
  <scstep>
   <time name="dav">   27.36   27.43</time>
   <time name="total">   27.36   27.43</time>
   <energy>
    <i name="e_fr_energy">   -199.81294030 </i>
    <i name="e_wo_entrp">   -199.56945240 </i>
    <i name="e_0_energy">   -199.69119635 </i>
   </energy>
  </scstep>
  <scstep>
   <time name="dav">   29.76   29.83</time>
   <time name="total">   29.76   29.84</time>
   <energy>
    <i name="e_fr_energy">   -209.00098731 </i>
    <i name="e_wo_entrp">   -208.73780403 </i>
    <i name="e_0_energy">   -208.86939567 </i>
   </energy>
  </scstep>
  <scstep>
   <time name="dav">   29.15   29.22</time>
   <time name="total">   29.61   29.69</time>
   <energy>
    <i name="e_fr_energy">   -209.34699858 </i>
    <i name="e_wo_entrp">   -209.08716493 </i>
    <i name="e_0_energy">   -209.21708175 </i>
   </energy>
  </scstep>
  <scstep>
   <time name="dav">   30.97   31.04</time>
   <time name="total">   31.47   31.55</time>
   <energy>
    <i name="e_fr_energy">   -236.54642082 </i>
    <i name="e_wo_entrp">   -236.27547511 </i>
    <i name="e_0_energy">   -236.41094796 </i>
   </energy>
  </scstep>
  <scstep>
   <time name="dav">   30.53   30.60</time>
   <time name="total">   31.03   31.12</time>
   <energy>
    <i name="e_fr_energy">   -196.08874523 </i>
    <i name="e_wo_entrp">   -195.83246005 </i>
    <i name="e_0_energy">   -195.96060264 </i>
   </energy>
  </scstep>
  <scstep>
   <time name="dav">   29.99   30.07</time>
   <time name="total">   30.51   30.59</time>
   <energy>
    <i name="e_fr_energy">   -189.21910901 </i>
    <i name="e_wo_entrp">   -188.93292730 </i>
    <i name="e_0_energy">   -189.07601816 </i>
   </energy>
  </scstep>
  <scstep>
   <time name="dav">   32.53   32.61</time>
   <time name="total">   33.04   33.13</time>
   <energy>
    <i name="e_fr_energy">   -188.01380460 </i>
    <i name="e_wo_entrp">   -187.70379964 </i>
    <i name="e_0_energy">   -187.85880212 </i>
   </energy>
  </scstep>
  <scstep>
   <time name="dav">   32.06   32.14</time>
   <time name="total">   32.61   32.91</time>
   <energy>
    <i name="e_fr_energy">   -187.02180391 </i>
    <i name="e_wo_entrp">   -186.67005113 </i>
    <i name="e_0_energy">   -186.84592752 </i>
   </energy>
  </scstep>
  <scstep>
   <time name="dav">   32.27   32.35</time>
   <time name="total">   32.80   32.89</time>
   <energy>
    <i name="e_fr_energy">   -187.21924866 </i>
    <i name="e_wo_entrp">   -186.89024925 </i>
    <i name="e_0_energy">   -187.05474895 </i>
   </energy>
  </scstep>
  <scstep>
   <time name="dav">   30.14   30.21</time>
   <time name="total">   30.67   30.76</time>
   <energy>
    <i name="e_fr_energy">   -187.06046475 </i>
    <i name="e_wo_entrp">   -186.72960402 </i>
    <i name="e_0_energy">   -186.89503438 </i>
   </energy>
  </scstep>
  <scstep>
   <time name="dav">   30.72   30.80</time>
   <time name="total">   31.25   31.34</time>
   <energy>
    <i name="e_fr_energy">   -186.94105399 </i>
    <i name="e_wo_entrp">   -186.59586604 </i>
    <i name="e_0_energy">   -186.76846002 </i>
   </energy>
  </scstep>
  <scstep>
   <time name="dav">   32.12   32.19</time>
   <time name="total">   32.65   32.73</time>
   <energy>
    <i name="e_fr_energy">   -186.93452901 </i>
    <i name="e_wo_entrp">   -186.58812541 </i>
    <i name="e_0_energy">   -186.76132721 </i>
   </energy>
  </scstep>
  <scstep>
   <time name="dav">   32.86   32.94</time>
   <time name="total">   33.40   33.49</time>
   <energy>
    <i name="e_fr_energy">   -186.92813595 </i>
    <i name="e_wo_entrp">   -186.58211293 </i>
    <i name="e_0_energy">   -186.75512444 </i>
   </energy>
  </scstep>
  <scstep>
   <time name="dav">   32.33   32.41</time>
   <time name="total">   32.86   32.95</time>
   <energy>
    <i name="e_fr_energy">   -186.92391597 </i>
    <i name="e_wo_entrp">   -186.57928252 </i>
    <i name="e_0_energy">   -186.75159925 </i>
   </energy>
  </scstep>
  <scstep>
   <time name="dav">   29.97   30.04</time>
   <time name="total">   30.50   30.58</time>
   <energy>
    <i name="e_fr_energy">   -186.92367330 </i>
    <i name="e_wo_entrp">   -186.57943200 </i>
    <i name="e_0_energy">   -186.75155265 </i>
   </energy>
  </scstep>
  <scstep>
   <time name="dav">   30.52   30.59</time>
   <time name="total">   31.05   31.13</time>
   <energy>
    <i name="e_fr_energy">   -186.92314218 </i>
    <i name="e_wo_entrp">   -186.57824502 </i>
    <i name="e_0_energy">   -186.75069360 </i>
   </energy>
  </scstep>
  <scstep>
   <time name="dav">   27.59   27.65</time>
   <time name="total">   28.12   28.20</time>
   <energy>
    <i name="e_fr_energy">   -186.92354742 </i>
    <i name="e_wo_entrp">   -186.57892132 </i>
    <i name="e_0_energy">   -186.75123437 </i>
   </energy>
  </scstep>
  <scstep>
   <time name="dav">   24.56   24.62</time>
   <time name="total">   25.09   25.16</time>
   <energy>
    <i name="e_fr_energy">   -186.92409429 </i>
    <i name="e_wo_entrp">   -186.57979965 </i>
    <i name="e_0_energy">   -186.75194697 </i>
   </energy>
  </scstep>
  <scstep>
   <time name="dav">   23.70   23.75</time>
   <time name="total">   24.23   24.30</time>
   <energy>
    <i name="e_fr_energy">   -186.92524737 </i>
    <i name="e_wo_entrp">   -186.58078835 </i>
    <i name="e_0_energy">   -186.75301786 </i>
   </energy>
  </scstep>
  <scstep>
   <time name="dav">   19.77   19.81</time>
   <time name="total">   20.30   20.36</time>
   <energy>
    <i name="e_fr_energy">   -186.92615862 </i>
    <i name="e_wo_entrp">   -186.58167257 </i>
    <i name="e_0_energy">   -186.75391560 </i>
   </energy>
  </scstep>
  <scstep>
   <time name="dav">   20.39   20.43</time>
   <time name="total">   20.92   20.98</time>
   <energy>
    <i name="e_fr_energy">   -186.92684875 </i>
    <i name="e_wo_entrp">   -186.58238363 </i>
    <i name="e_0_energy">   -186.75461619 </i>
   </energy>
  </scstep>
  <scstep>
   <time name="dav">   19.70   19.74</time>
   <time name="total">   20.23   20.29</time>
   <energy>
    <i name="e_fr_energy">   -186.92752507 </i>
    <i name="e_wo_entrp">   -186.58309927 </i>
    <i name="e_0_energy">   -186.75531217 </i>
   </energy>
  </scstep>
  <scstep>
   <time name="dav">   17.95   17.99</time>
   <time name="total">   18.48   18.53</time>
   <energy>
    <i name="e_fr_energy">   -186.92789097 </i>
    <i name="e_wo_entrp">   -186.58343840 </i>
    <i name="e_0_energy">   -186.75566468 </i>
   </energy>
  </scstep>
  <scstep>
   <time name="dav">   18.92   18.97</time>
   <time name="total">   19.46   19.51</time>
   <energy>
    <i name="e_fr_energy">   -186.92811385 </i>
    <i name="e_wo_entrp">   -186.58366169 </i>
    <i name="e_0_energy">   -186.75588777 </i>
   </energy>
  </scstep>
  <scstep>
   <time name="dav">   19.82   19.87</time>
   <time name="total">   19.86   19.91</time>
   <energy>
    <i name="alphaZ">     81.65567618 </i>
    <i name="ewald">  41888.36874788 </i>
    <i name="hartreedc"> -47831.62898862 </i>
    <i name="XCdc">   -231.60174616 </i>
    <i name="pawpsdc">   4192.25143105 </i>
    <i name="pawaedc">  -3610.29025260 </i>
    <i name="eentropy">     -0.34444952 </i>
    <i name="bandstr">  -1436.78113833 </i>
    <i name="atom">   6761.44252427 </i>
    <i name="e_fr_energy">   -186.92819585 </i>
    <i name="e_wo_entrp">   -186.58374632 </i>
    <i name="e_0_energy">   -186.75597108 </i>
   </energy>
  </scstep>
  <structure>
   <crystal>
    <varray name="basis" >
     <v>       8.66999996       5.03999989       0.00000000 </v>
     <v>      -8.66999982       5.04000013       0.00000000 </v>
     <v>       0.00000000       0.00000000      30.00000000 </v>
    </varray>
    <i name="volume">   2621.80797419 </i>
    <varray name="rec_basis" >
     <v>       0.05767013       0.09920635       0.00000000 </v>
     <v>      -0.05767013       0.09920635       0.00000000 </v>
     <v>       0.00000000       0.00000000       0.03333333 </v>
    </varray>
   </crystal>
   <varray name="positions" >
    <v>       0.33333334       0.66666669       0.00000000 </v>
    <v>       0.00000000       0.00000000       0.00000000 </v>
    <v>       0.66666669       0.33333334       0.00000000 </v>
    <v>       1.00000000       0.33333334       0.00000000 </v>
    <v>       0.66666669       0.66666669       0.00000000 </v>
    <v>       0.33333334       0.33333334       0.00000000 </v>
    <v>       0.00000000       0.66666669       0.00000000 </v>
    <v>       0.33333334       0.00000000       0.00000000 </v>
    <v>       0.66666669       0.00000000       0.00000000 </v>
    <v>       0.11068511       0.22244981       0.95539999 </v>
    <v>       0.22244981       0.11068511       0.04460000 </v>
    <v>       0.11068511       0.55578315       0.95539999 </v>
    <v>       0.22244981       0.44401845       0.04460000 </v>
    <v>       0.11068511       0.88911647       0.95539999 </v>
    <v>       0.22244981       0.77735180       0.04460000 </v>
    <v>       0.44401845       0.22244981       0.95539999 </v>
    <v>       0.55578315       0.11068511       0.04460000 </v>
    <v>       0.44401845       0.55578315       0.95539999 </v>
    <v>       0.55578315       0.44401845       0.04460000 </v>
    <v>       0.44401845       0.88911647       0.95539999 </v>
    <v>       0.55578315       0.77735180       0.04460000 </v>
    <v>       0.77735180       0.22244981       0.95539999 </v>
    <v>       0.88911647       0.11068511       0.04460000 </v>
    <v>       0.77735180       0.55578315       0.95539999 </v>
    <v>       0.88911647       0.44401845       0.04460000 </v>
    <v>       0.77735180       0.88911647       0.95539999 </v>
    <v>       0.88911647       0.77735180       0.04460000 </v>
   </varray>
  </structure>
  <varray name="forces" >
   <v>       0.44005077      -0.23723897      -0.00196852 </v>
   <v>      -0.21576436       0.12838164       0.00389155 </v>
   <v>      -0.22283004       0.11821641      -0.00203039 </v>
   <v>       0.26609739       0.13749887      -0.04060106 </v>
   <v>      -0.00117522      -0.28979873       0.03932803 </v>
   <v>      -0.26349487       0.13820645       0.00198531 </v>
   <v>      -0.00329226      -0.32326806       0.02883765 </v>
   <v>      -0.28825909       0.15227135       0.00136546 </v>
   <v>       0.29323555       0.15653853      -0.03092248 </v>
   <v>       0.53026674      -0.71451649      -2.16245177 </v>
   <v>      -0.36871553      -0.72818107       2.16351198 </v>
   <v>       0.37513227       0.72950220      -2.16401168 </v>
   <v>      -0.53624152       0.71477169       2.19731957 </v>
   <v>      -0.62819193       0.00568632      -2.12878954 </v>
   <v>       0.62925173       0.00683197       2.10002943 </v>
   <v>       0.63624007       0.57066569      -2.16170200 </v>
   <v>      -0.48366924       0.59762917       2.17513449 </v>
   <v>      -0.76689790       0.00396124      -2.15494890 </v>
   <v>       0.76546912       0.00439692       2.12239914 </v>
   <v>       0.47530540      -0.60120466      -2.14406379 </v>
   <v>      -0.63317085      -0.57469534       2.15763048 </v>
   <v>      -0.68794999      -0.15332014      -2.08803637 </v>
   <v>       0.68671913      -0.14811370       2.14900843 </v>
   <v>       0.62734014      -0.57311409      -2.18508225 </v>
   <v>      -0.62589379      -0.56792937       2.16144526 </v>
   <v>       0.37247819       0.72051688      -2.17523270 </v>
   <v>      -0.37203991       0.72630531       2.13795467 </v>
  </varray>
  <varray name="stress" >
   <v>       7.32399507       0.00823606      -1.52767162 </v>
   <v>       0.00823633       4.43889582       0.03501987 </v>
   <v>      -1.52767157       0.03501976      30.25520570 </v>
  </varray>
  <energy>
   <i name="e_fr_energy">   -186.92819585 </i>
   <i name="e_wo_entrp">   -186.75597108 </i>
   <i name="e_0_energy">     -0.34444952 </i>
  </energy>
  <time name="totalsc">  788.73  791.07</time>
 </calculation>
 <calculation>
  <scstep>
   <time name="dav">   21.67   21.72</time>
   <time name="total">   22.21   22.26</time>
   <energy>
    <i name="alphaZ">     78.91945428 </i>
    <i name="ewald">  39381.16077729 </i>
    <i name="hartreedc"> -45339.00939846 </i>
    <i name="XCdc">   -239.04117157 </i>
    <i name="pawpsdc">   4192.23461786 </i>
    <i name="pawaedc">  -3610.27381599 </i>
    <i name="eentropy">     -0.28539915 </i>
    <i name="bandstr">  -1412.63516378 </i>
    <i name="atom">   6761.44252427 </i>
    <i name="e_fr_energy">   -187.48757525 </i>
    <i name="e_wo_entrp">   -187.20217609 </i>
    <i name="e_0_energy">   -187.34487567 </i>
   </energy>
  </scstep>
  <scstep>
   <time name="dav">   31.56   31.64</time>
   <time name="total">   32.10   32.18</time>
   <energy>
    <i name="e_fr_energy">   -189.40405964 </i>
    <i name="e_wo_entrp">   -189.08154274 </i>
    <i name="e_0_energy">   -189.24280119 </i>
   </energy>
  </scstep>
  <scstep>
   <time name="dav">   30.14   30.21</time>
   <time name="total">   30.69   30.77</time>
   <energy>
    <i name="e_fr_energy">   -189.39524589 </i>
    <i name="e_wo_entrp">   -189.10548317 </i>
    <i name="e_0_energy">   -189.25036453 </i>
   </energy>
  </scstep>
  <scstep>
   <time name="dav">   29.83   29.90</time>
   <time name="total">   30.37   30.45</time>
   <energy>
    <i name="e_fr_energy">   -188.76363087 </i>
    <i name="e_wo_entrp">   -188.48068047 </i>
    <i name="e_0_energy">   -188.62215567 </i>
   </energy>
  </scstep>
  <scstep>
   <time name="dav">   25.67   25.73</time>
   <time name="total">   26.21   26.28</time>
   <energy>
    <i name="e_fr_energy">   -188.77306535 </i>
    <i name="e_wo_entrp">   -188.48376210 </i>
    <i name="e_0_energy">   -188.62841373 </i>
   </energy>
  </scstep>
  <scstep>
   <time name="dav">   29.88   29.96</time>
   <time name="total">   30.43   30.51</time>
   <energy>
    <i name="e_fr_energy">   -188.71587210 </i>
    <i name="e_wo_entrp">   -188.43003597 </i>
    <i name="e_0_energy">   -188.57295404 </i>
   </energy>
  </scstep>
  <scstep>
   <time name="dav">   30.10   30.17</time>
   <time name="total">   30.64   30.72</time>
   <energy>
    <i name="e_fr_energy">   -188.72211589 </i>
    <i name="e_wo_entrp">   -188.43673236 </i>
    <i name="e_0_energy">   -188.57942412 </i>
   </energy>
  </scstep>
  <scstep>
   <time name="dav">   31.20   31.28</time>
   <time name="total">   31.74   31.83</time>
   <energy>
    <i name="e_fr_energy">   -188.67778674 </i>
    <i name="e_wo_entrp">   -188.39342814 </i>
    <i name="e_0_energy">   -188.53560744 </i>
   </energy>
  </scstep>
  <scstep>
   <time name="dav">   26.57   26.63</time>
   <time name="total">   27.11   27.18</time>
   <energy>
    <i name="e_fr_energy">   -188.67576915 </i>
    <i name="e_wo_entrp">   -188.39135828 </i>
    <i name="e_0_energy">   -188.53356371 </i>
   </energy>
  </scstep>
  <scstep>
   <time name="dav">   32.76   32.84</time>
   <time name="total">   33.30   33.39</time>
   <energy>
    <i name="e_fr_energy">   -188.67714459 </i>
    <i name="e_wo_entrp">   -188.39292621 </i>
    <i name="e_0_energy">   -188.53503540 </i>
   </energy>
  </scstep>
  <scstep>
   <time name="dav">   30.85   30.92</time>
   <time name="total">   31.39   31.47</time>
   <energy>
    <i name="e_fr_energy">   -188.67531264 </i>
    <i name="e_wo_entrp">   -188.39135127 </i>
    <i name="e_0_energy">   -188.53333196 </i>
   </energy>
  </scstep>
  <scstep>
   <time name="dav">   28.74   28.81</time>
   <time name="total">   29.28   29.36</time>
   <energy>
    <i name="e_fr_energy">   -188.67543220 </i>
    <i name="e_wo_entrp">   -188.39175038 </i>
    <i name="e_0_energy">   -188.53359129 </i>
   </energy>
  </scstep>
  <scstep>
   <time name="dav">   21.50   21.55</time>
   <time name="total">   21.54   21.60</time>
   <energy>
    <i name="alphaZ">     78.91945428 </i>
    <i name="ewald">  39381.16077729 </i>
    <i name="hartreedc"> -45349.61599265 </i>
    <i name="XCdc">   -237.96477294 </i>
    <i name="pawpsdc">   3950.55792463 </i>
    <i name="pawaedc">  -3365.08423021 </i>
    <i name="eentropy">     -0.28391176 </i>
    <i name="bandstr">  -1407.80713745 </i>
    <i name="atom">   6761.44252427 </i>
    <i name="e_fr_energy">   -188.67536453 </i>
    <i name="e_wo_entrp">   -188.39145277 </i>
    <i name="e_0_energy">   -188.53340865 </i>
   </energy>
  </scstep>
  <structure>
   <crystal>
    <varray name="basis" >
     <v>       8.85578412       5.10562155       0.00000000 </v>
     <v>      -8.85554124       5.10520422       0.00000000 </v>
     <v>       0.00000000       0.00000000      30.00000000 </v>
    </varray>
    <i name="volume">   2712.70886099 </i>
    <varray name="rec_basis" >
     <v>       0.05645874       0.09793393       0.00000000 </v>
     <v>      -0.05646336       0.09793662       0.00000000 </v>
     <v>       0.00000000       0.00000000       0.03333333 </v>
    </varray>
   </crystal>
   <varray name="positions" >
    <v>       0.33342221       0.66430697      -0.00000317 </v>
    <v>       0.00001414       0.00121472       0.00000626 </v>
    <v>       0.66661252       0.33451907      -0.00000327 </v>
    <v>       1.00139839       0.33325108      -0.00006529 </v>
    <v>       0.66527645       0.66528299       0.00006324 </v>
    <v>       0.33326171       0.33472788       0.00000319 </v>
    <v>      -0.00155631       0.66512869       0.00004637 </v>
    <v>       0.33326013       0.00153075       0.00000220 </v>
    <v>       0.66823170      -0.00006664      -0.00004973 </v>
    <v>       0.10874074       0.21755486       0.95192258 </v>
    <v>       0.21793893       0.10822588       0.04807912 </v>
    <v>       0.11522017       0.55823086       0.95192007 </v>
    <v>       0.22437878       0.44893124       0.04813348 </v>
    <v>       0.10896459       0.89089141       0.95197671 </v>
    <v>       0.22423319       0.77563382       0.04797703 </v>
    <v>       0.44851977       0.22341088       0.95192378 </v>
    <v>       0.55729775       0.11489100       0.04809781 </v>
    <v>       0.44190378       0.55793574       0.95193464 </v>
    <v>       0.55793385       0.44190984       0.04801300 </v>
    <v>       0.44246348       0.88491674       0.95195215 </v>
    <v>       0.55127109       0.77636290       0.04806966 </v>
    <v>       0.77470402       0.22363001       0.95204224 </v>
    <v>       0.89031816       0.10806568       0.04805579 </v>
    <v>       0.77635425       0.55129488       0.95188618 </v>
    <v>       0.88465703       0.44304169       0.04807579 </v>
    <v>       0.78183647       0.89152855       0.95190202 </v>
    <v>       0.89155747       0.78186295       0.04803802 </v>
   </varray>
  </structure>
  <varray name="forces" >
   <v>       0.39023880      -0.22567180      -0.00127159 </v>
   <v>      -0.19435762       0.11406043      -0.00769550 </v>
   <v>      -0.19876015       0.11264461       0.00901093 </v>
   <v>       0.21655344       0.12363319      -0.08213203 </v>
   <v>       0.00511311      -0.23735604       0.08025627 </v>
   <v>      -0.21554192       0.11761371       0.00202061 </v>
   <v>      -0.00682327      -0.26241803       0.09907413 </v>
   <v>      -0.21464138       0.12988208       0.00243543 </v>
   <v>       0.22157034       0.12469985      -0.10181641 </v>
   <v>       0.03225767      -0.05493981      -0.09507980 </v>
   <v>       0.10026690      -0.05276622      -0.01098960 </v>
   <v>      -0.11169258       0.06599223       0.02597386 </v>
   <v>      -0.02650782       0.07160452       0.16917668 </v>
   <v>       0.07107074      -0.00515055       0.11001616 </v>
   <v>      -0.08563263       0.00314357      -0.20696421 </v>
   <v>       0.07568036      -0.04877652       0.00838491 </v>
   <v>       0.04735519      -0.04363251      -0.13429455 </v>
   <v>      -0.05720485      -0.00293581      -0.18609715 </v>
   <v>       0.04459569      -0.00936767       0.10700793 </v>
   <v>      -0.05240098       0.05492139       0.22485601 </v>
   <v>      -0.09249674       0.05078937      -0.01482309 </v>
   <v>       0.03073405      -0.11448680       0.09086484 </v>
   <v>      -0.00395759      -0.10191318       0.08726333 </v>
   <v>       0.08433541       0.03688744      -0.07026632 </v>
   <v>      -0.07615126       0.04910075      -0.02144220 </v>
   <v>      -0.10151390       0.05319906       0.02334966 </v>
   <v>       0.11791099       0.05124275      -0.10681827 </v>
  </varray>
  <varray name="stress" >
   <v>     -19.82638103      -0.00201750       0.04354248 </v>
   <v>      -0.00201745     -19.42415619       0.02816623 </v>
   <v>       0.04354254       0.02816638      -1.69122185 </v>
  </varray>
  <energy>
   <i name="e_fr_energy">   -188.67536453 </i>
   <i name="e_wo_entrp">   -188.53340865 </i>
   <i name="e_0_energy">     -0.28391176 </i>
  </energy>
  <time name="totalsc">  419.32  420.44</time>
 </calculation>
 <calculation>
  <scstep>
   <time name="dav">   23.14   23.20</time>
   <time name="total">   23.67   23.73</time>
   <energy>
    <i name="alphaZ">     82.33271552 </i>
    <i name="ewald">  41297.71419882 </i>
    <i name="hartreedc"> -47296.54303373 </i>
    <i name="XCdc">   -233.85704346 </i>
    <i name="pawpsdc">   3949.76799149 </i>
    <i name="pawaedc">  -3364.28771799 </i>
    <i name="eentropy">     -0.23494997 </i>
    <i name="bandstr">  -1386.90851913 </i>
    <i name="atom">   6761.44252427 </i>
    <i name="e_fr_energy">   -190.57383418 </i>
    <i name="e_wo_entrp">   -190.33888421 </i>
    <i name="e_0_energy">   -190.45635919 </i>
   </energy>
  </scstep>
  <scstep>
   <time name="dav">   28.17   28.24</time>
   <time name="total">   28.68   28.76</time>
   <energy>
    <i name="e_fr_energy">   -190.67517158 </i>
    <i name="e_wo_entrp">   -190.42858534 </i>
    <i name="e_0_energy">   -190.55187846 </i>
   </energy>
  </scstep>
  <scstep>
   <time name="dav">   30.04   30.11</time>
   <time name="total">   30.56   30.64</time>
   <energy>
    <i name="e_fr_energy">   -190.02907397 </i>
    <i name="e_wo_entrp">   -189.78453207 </i>
    <i name="e_0_energy">   -189.90680302 </i>
   </energy>
  </scstep>
  <scstep>
   <time name="dav">   30.03   30.10</time>
   <time name="total">   30.57   30.65</time>
   <energy>
    <i name="e_fr_energy">   -189.84650635 </i>
    <i name="e_wo_entrp">   -189.60437214 </i>
    <i name="e_0_energy">   -189.72543925 </i>
   </energy>
  </scstep>
  <scstep>
   <time name="dav">   29.47   29.54</time>
   <time name="total">   30.00   30.08</time>
   <energy>
    <i name="e_fr_energy">   -189.76770774 </i>
    <i name="e_wo_entrp">   -189.52642433 </i>
    <i name="e_0_energy">   -189.64706604 </i>
   </energy>
  </scstep>
  <scstep>
   <time name="dav">   29.39   29.46</time>
   <time name="total">   29.92   30.00</time>
   <energy>
    <i name="e_fr_energy">   -189.74947094 </i>
    <i name="e_wo_entrp">   -189.50969153 </i>
    <i name="e_0_energy">   -189.62958123 </i>
   </energy>
  </scstep>
  <scstep>
   <time name="dav">   28.43   28.50</time>
   <time name="total">   28.96   29.04</time>
   <energy>
    <i name="e_fr_energy">   -189.74393980 </i>
    <i name="e_wo_entrp">   -189.50460208 </i>
    <i name="e_0_energy">   -189.62427094 </i>
   </energy>
  </scstep>
  <scstep>
   <time name="dav">   30.21   30.28</time>
   <time name="total">   30.73   30.81</time>
   <energy>
    <i name="e_fr_energy">   -189.74396684 </i>
    <i name="e_wo_entrp">   -189.50467395 </i>
    <i name="e_0_energy">   -189.62432039 </i>
   </energy>
  </scstep>
  <scstep>
   <time name="dav">   26.72   26.79</time>
   <time name="total">   27.25   27.33</time>
   <energy>
    <i name="e_fr_energy">   -189.74411188 </i>
    <i name="e_wo_entrp">   -189.50463848 </i>
    <i name="e_0_energy">   -189.62437518 </i>
   </energy>
  </scstep>
  <scstep>
   <time name="dav">   26.39   26.46</time>
   <time name="total">   26.93   27.01</time>
   <energy>
    <i name="e_fr_energy">   -189.74460496 </i>
    <i name="e_wo_entrp">   -189.50515292 </i>
    <i name="e_0_energy">   -189.62487894 </i>
   </energy>
  </scstep>
  <scstep>
   <time name="dav">   23.75   23.81</time>
   <time name="total">   24.28   24.35</time>
   <energy>
    <i name="e_fr_energy">   -189.74396920 </i>
    <i name="e_wo_entrp">   -189.50463814 </i>
    <i name="e_0_energy">   -189.62430367 </i>
   </energy>
  </scstep>
  <scstep>
   <time name="dav">   16.87   16.91</time>
   <time name="total">   16.90   16.95</time>
   <energy>
    <i name="alphaZ">     82.33271552 </i>
    <i name="ewald">  41297.71419882 </i>
    <i name="hartreedc"> -47270.28625813 </i>
    <i name="XCdc">   -235.24313990 </i>
    <i name="pawpsdc">   4038.74194981 </i>
    <i name="pawaedc">  -3454.45673501 </i>
    <i name="eentropy">     -0.23936661 </i>
    <i name="bandstr">  -1409.74988178 </i>
    <i name="atom">   6761.44252427 </i>
    <i name="e_fr_energy">   -189.74399301 </i>
    <i name="e_wo_entrp">   -189.50462639 </i>
    <i name="e_0_energy">   -189.62430970 </i>
   </energy>
  </scstep>
  <structure>
   <crystal>
    <varray name="basis" >
     <v>       8.66836250       4.99974671       0.00000000 </v>
     <v>      -8.66814674       4.99937617       0.00000000 </v>
     <v>       0.00000000       0.00000000      30.00000000 </v>
    </varray>
    <i name="volume">   2600.24829238 </i>
    <varray name="rec_basis" >
     <v>       0.05767960       0.10000753       0.00000000 </v>
     <v>      -0.05768388       0.10001002       0.00000000 </v>
     <v>       0.00000000       0.00000000       0.03333333 </v>
    </varray>
   </crystal>
   <varray name="positions" >
    <v>       0.33342105       0.66355572      -0.00000389 </v>
    <v>       0.00001750       0.00159166       0.00000189 </v>
    <v>       0.66660928       0.33489788       0.00000185 </v>
    <v>       1.00181259       0.33324906      -0.00011189 </v>
    <v>       0.66488569       0.66488240       0.00010878 </v>
    <v>       0.33325063       0.33513110       0.00000434 </v>
    <v>      -0.00200031       0.66469779       0.00010259 </v>
    <v>       0.33327037       0.00195355       0.00000358 </v>
    <v>       0.66865251      -0.00007171      -0.00010749 </v>
    <v>       0.10868015       0.21743227       0.95186863 </v>
    <v>       0.21794732       0.10804155       0.04807288 </v>
    <v>       0.11522284       0.55844821       0.95193480 </v>
    <v>       0.22447267       0.44907609       0.04822947 </v>
    <v>       0.10902431       0.89081452       0.95203913 </v>
    <v>       0.22415613       0.77572136       0.04785960 </v>
    <v>       0.44851119       0.22325683       0.95192854 </v>
    <v>       0.55727052       0.11477275       0.04802161 </v>
    <v>       0.44184391       0.55798583       0.95182905 </v>
    <v>       0.55796109       0.44185136       0.04807372 </v>
    <v>       0.44250467       0.88505865       0.95207972 </v>
    <v>       0.55126687       0.77653646       0.04806125 </v>
    <v>       0.77454271       0.22340962       0.95209380 </v>
    <v>       0.89014447       0.10789959       0.04810531 </v>
    <v>       0.77649678       0.55127532       0.95184632 </v>
    <v>       0.88466570       0.44319673       0.04806363 </v>
    <v>       0.78182759       0.89171480       0.95191527 </v>
    <v>       0.89175621       0.78183505       0.04797741 </v>
   </varray>
  </structure>
  <varray name="forces" >
   <v>       0.37979315      -0.22204329       0.00048429 </v>
   <v>      -0.19159491       0.11203900      -0.00682407 </v>
   <v>      -0.19555376       0.10952884       0.00629516 </v>
   <v>       0.20363049       0.10851862      -0.06475220 </v>
   <v>       0.01075335      -0.22357641       0.06408184 </v>
   <v>      -0.19629055       0.10663721       0.00056570 </v>
   <v>      -0.01140888      -0.23943538       0.08554801 </v>
   <v>      -0.19491175       0.11832427       0.00125491 </v>
   <v>       0.19633698       0.11633533      -0.08677303 </v>
   <v>       0.07995208      -0.10670252      -0.59142877 </v>
   <v>      -0.03412382      -0.10070493       0.49313967 </v>
   <v>      -0.00100018       0.12841789      -0.47078547 </v>
   <v>      -0.06241761       0.12908706       0.67091097 </v>
   <v>      -0.07035461      -0.01798016      -0.38705620 </v>
   <v>       0.06142692       0.00669293       0.27822948 </v>
   <v>       0.05388523       0.09179208      -0.49327917 </v>
   <v>      -0.01352374       0.08649483       0.36394740 </v>
   <v>      -0.12312260      -0.00158451      -0.68697222 </v>
   <v>       0.11459542      -0.02184313       0.60165749 </v>
   <v>       0.01977616      -0.07185247      -0.26160979 </v>
   <v>      -0.09402587      -0.07318386       0.48054431 </v>
   <v>      -0.08388062      -0.03588573      -0.39609736 </v>
   <v>       0.10191998      -0.02237154       0.59293124 </v>
   <v>       0.07114654      -0.09415326      -0.57632796 </v>
   <v>      -0.05106870      -0.09355033       0.47653615 </v>
   <v>       0.03768761       0.10123700      -0.47652024 </v>
   <v>      -0.00762630       0.10976242       0.38229988 </v>
  </varray>
  <varray name="stress" >
   <v>     -10.11877033      -0.00538506       0.02599132 </v>
   <v>      -0.00538525      -9.81053124       0.02295825 </v>
   <v>       0.02599130       0.02295840       6.48262152 </v>
  </varray>
  <energy>
   <i name="e_fr_energy">   -189.74399301 </i>
   <i name="e_wo_entrp">   -189.62430970 </i>
   <i name="e_0_energy">     -0.23936661 </i>
  </energy>
  <time name="totalsc">  370.73  371.73</time>
 </calculation>
 <calculation>
  <scstep>
   <time name="dav">   21.60   21.66</time>
   <time name="total">   22.13   22.18</time>
   <energy>
    <i name="alphaZ">     85.80113615 </i>
    <i name="ewald">  42823.87499372 </i>
    <i name="hartreedc"> -48840.86856583 </i>
    <i name="XCdc">   -232.95965352 </i>
    <i name="pawpsdc">   4038.71457438 </i>
    <i name="pawaedc">  -3454.42645886 </i>
    <i name="eentropy">     -0.19349489 </i>
    <i name="bandstr">  -1372.62153456 </i>
    <i name="atom">   6761.44252427 </i>
    <i name="e_fr_energy">   -191.23647914 </i>
    <i name="e_wo_entrp">   -191.04298426 </i>
    <i name="e_0_energy">   -191.13973170 </i>
   </energy>
  </scstep>
  <scstep>
   <time name="dav">   32.84   32.92</time>
   <time name="total">   33.35   33.44</time>
   <energy>
    <i name="e_fr_energy">   -191.35114073 </i>
    <i name="e_wo_entrp">   -191.13867205 </i>
    <i name="e_0_energy">   -191.24490639 </i>
   </energy>
  </scstep>
  <scstep>
   <time name="dav">   29.52   29.59</time>
   <time name="total">   30.03   30.12</time>
   <energy>
    <i name="e_fr_energy">   -191.00124879 </i>
    <i name="e_wo_entrp">   -190.79398443 </i>
    <i name="e_0_energy">   -190.89761661 </i>
   </energy>
  </scstep>
  <scstep>
   <time name="dav">   30.05   30.12</time>
   <time name="total">   30.57   30.66</time>
   <energy>
    <i name="e_fr_energy">   -190.75939471 </i>
    <i name="e_wo_entrp">   -190.55775089 </i>
    <i name="e_0_energy">   -190.65857280 </i>
   </energy>
  </scstep>
  <scstep>
   <time name="dav">   29.84   29.91</time>
   <time name="total">   30.36   30.44</time>
   <energy>
    <i name="e_fr_energy">   -190.66671192 </i>
    <i name="e_wo_entrp">   -190.46474762 </i>
    <i name="e_0_energy">   -190.56572977 </i>
   </energy>
  </scstep>
  <scstep>
   <time name="dav">   28.97   29.04</time>
   <time name="total">   29.49   29.57</time>
   <energy>
    <i name="e_fr_energy">   -190.65699940 </i>
    <i name="e_wo_entrp">   -190.45557649 </i>
    <i name="e_0_energy">   -190.55628795 </i>
   </energy>
  </scstep>
  <scstep>
   <time name="dav">   28.25   28.32</time>
   <time name="total">   28.77   28.84</time>
   <energy>
    <i name="e_fr_energy">   -190.64367282 </i>
    <i name="e_wo_entrp">   -190.44342853 </i>
    <i name="e_0_energy">   -190.54355068 </i>
   </energy>
  </scstep>
  <scstep>
   <time name="dav">   29.85   29.92</time>
   <time name="total">   30.37   30.45</time>
   <energy>
    <i name="e_fr_energy">   -190.63876788 </i>
    <i name="e_wo_entrp">   -190.43812026 </i>
    <i name="e_0_energy">   -190.53844407 </i>
   </energy>
  </scstep>
  <scstep>
   <time name="dav">   27.12   27.19</time>
   <time name="total">   27.64   27.71</time>
   <energy>
    <i name="e_fr_energy">   -190.63932785 </i>
    <i name="e_wo_entrp">   -190.43884813 </i>
    <i name="e_0_energy">   -190.53908799 </i>
   </energy>
  </scstep>
  <scstep>
   <time name="dav">   26.82   26.89</time>
   <time name="total">   27.34   27.41</time>
   <energy>
    <i name="e_fr_energy">   -190.63915903 </i>
    <i name="e_wo_entrp">   -190.43873025 </i>
    <i name="e_0_energy">   -190.53894464 </i>
   </energy>
  </scstep>
  <scstep>
   <time name="dav">   21.25   21.30</time>
   <time name="total">   21.28   21.34</time>
   <energy>
    <i name="alphaZ">     85.80113615 </i>
    <i name="ewald">  42823.87499372 </i>
    <i name="hartreedc"> -48812.46988803 </i>
    <i name="XCdc">   -234.28594895 </i>
    <i name="pawpsdc">   4062.44954749 </i>
    <i name="pawaedc">  -3478.32648634 </i>
    <i name="eentropy">     -0.20042729 </i>
    <i name="bandstr">  -1398.92453129 </i>
    <i name="atom">   6761.44252427 </i>
    <i name="e_fr_energy">   -190.63908026 </i>
    <i name="e_wo_entrp">   -190.43865298 </i>
    <i name="e_0_energy">   -190.53886662 </i>
   </energy>
  </scstep>
  <structure>
   <crystal>
    <varray name="basis" >
     <v>       8.48709570       4.89981560       0.00000000 </v>
     <v>      -8.48713473       4.89988637       0.00000000 </v>
     <v>       0.00000000       0.00000000      30.00000000 </v>
    </varray>
    <i name="volume">   2495.13599178 </i>
    <varray name="rec_basis" >
     <v>       0.05891326       0.10204415       0.00000000 </v>
     <v>      -0.05891241       0.10204368       0.00000000 </v>
     <v>       0.00000000       0.00000000       0.03333333 </v>
    </varray>
   </crystal>
   <varray name="positions" >
    <v>       0.33339650       0.66081317      -0.00000139 </v>
    <v>       0.00002594       0.00297849      -0.00001151 </v>
    <v>       0.66658556       0.33627991       0.00001258 </v>
    <v>       1.00317338       0.33317372      -0.00023129 </v>
    <v>       0.66356506       0.66346763       0.00022782 </v>
    <v>       0.33320958       0.33645482       0.00000427 </v>
    <v>      -0.00349231       0.66330156       0.00026838 </v>
    <v>       0.33330684       0.00334344       0.00000517 </v>
    <v>       0.67003506      -0.00003696      -0.00027453 </v>
    <v>       0.10823945       0.21627533       0.95021976 </v>
    <v>       0.21687826       0.10760738       0.04952465 </v>
    <v>       0.11634070       0.55925375       0.95053565 </v>
    <v>       0.22514853       0.45030729       0.05004767 </v>
    <v>       0.10842075       0.89112834       0.95081325 </v>
    <v>       0.22464150       0.77533768       0.04884979 </v>
    <v>       0.44960232       0.22402101       0.95047858 </v>
    <v>       0.55800200       0.11577787       0.04920059 </v>
    <v>       0.44129677       0.55851990       0.94997830 </v>
    <v>       0.55830849       0.44116747       0.04974234 </v>
    <v>       0.44191235       0.88411483       0.95112290 </v>
    <v>       0.55015510       0.77610945       0.04947945 </v>
    <v>       0.77404555       0.22385031       0.95085780 </v>
    <v>       0.89072488       0.10743685       0.04976523 </v>
    <v>       0.77581654       0.55011832       0.95022047 </v>
    <v>       0.88357326       0.44240138       0.04947574 </v>
    <v>       0.78292008       0.89213271       0.95050158 </v>
    <v>       0.89238232       0.78287880       0.04918665 </v>
   </varray>
  </structure>
  <varray name="forces" >
   <v>       0.35986096      -0.20907990       0.00210106 </v>
   <v>      -0.18307794       0.12562791      -0.00359083 </v>
   <v>      -0.20471897       0.09548970       0.00141192 </v>
   <v>       0.20222661       0.08914036      -0.01156977 </v>
   <v>       0.02891658      -0.22228003       0.01326254 </v>
   <v>      -0.16018048       0.09051821      -0.00243028 </v>
   <v>      -0.02131831      -0.24465960       0.03555713 </v>
   <v>      -0.22361746       0.13413082      -0.00160733 </v>
   <v>       0.19228698       0.12801565      -0.03322416 </v>
   <v>       0.03697430       0.00526081      -0.44906917 </v>
   <v>      -0.07489671       0.00514768       0.35079589 </v>
   <v>       0.02047221       0.03323868      -0.31950831 </v>
   <v>      -0.00559912       0.03074559       0.50179982 </v>
   <v>      -0.04338640      -0.02910984      -0.22199762 </v>
   <v>       0.03854127      -0.00278025       0.13143906 </v>
   <v>      -0.04029829       0.06318090      -0.34775879 </v>
   <v>      -0.00129572       0.06511575       0.21760605 </v>
   <v>      -0.01466680      -0.01037810      -0.50735965 </v>
   <v>       0.00207445      -0.03187138       0.45299078 </v>
   <v>       0.02796154      -0.04155882      -0.12928626 </v>
   <v>      -0.01718938      -0.03095794       0.32103422 </v>
   <v>      -0.01344644       0.03185668      -0.25411714 </v>
   <v>       0.03346738       0.02805664       0.40132501 </v>
   <v>      -0.00080099      -0.05331974      -0.39862582 </v>
   <v>       0.03060286      -0.06364861       0.32135419 </v>
   <v>       0.07151467       0.00625632      -0.32206502 </v>
   <v>      -0.04040681       0.00786252       0.25153248 </v>
  </varray>
  <varray name="stress" >
   <v>      -5.74222311      -0.00696207      -0.07565258 </v>
   <v>      -0.00696190      -5.77449814      -0.00062403 </v>
   <v>      -0.07565271      -0.00062414       4.40812630 </v>
  </varray>
  <energy>
   <i name="e_fr_energy">   -190.63908026 </i>
   <i name="e_wo_entrp">   -190.53886662 </i>
   <i name="e_0_energy">     -0.20042729 </i>
  </energy>
  <time name="totalsc">  353.81  354.75</time>
 </calculation>
 <calculation>
  <scstep>
   <time name="dav">   21.61   21.66</time>
   <time name="total">   22.12   22.18</time>
   <energy>
    <i name="alphaZ">     90.20418863 </i>
    <i name="ewald">  44678.95446740 </i>
    <i name="hartreedc"> -50723.72505783 </i>
    <i name="XCdc">   -231.77994595 </i>
    <i name="pawpsdc">   4062.64851859 </i>
    <i name="pawaedc">  -3478.52215346 </i>
    <i name="eentropy">     -0.17395943 </i>
    <i name="bandstr">  -1350.98773063 </i>
    <i name="atom">   6761.44252427 </i>
    <i name="e_fr_energy">   -191.93914840 </i>
    <i name="e_wo_entrp">   -191.76518897 </i>
    <i name="e_0_energy">   -191.85216869 </i>
   </energy>
  </scstep>
  <scstep>
   <time name="dav">   32.85   32.93</time>
   <time name="total">   33.35   33.44</time>
   <energy>
    <i name="e_fr_energy">   -192.05411070 </i>
    <i name="e_wo_entrp">   -191.86345966 </i>
    <i name="e_0_energy">   -191.95878518 </i>
   </energy>
  </scstep>
  <scstep>
   <time name="dav">   28.98   29.05</time>
   <time name="total">   29.49   29.56</time>
   <energy>
    <i name="e_fr_energy">   -191.73279970 </i>
    <i name="e_wo_entrp">   -191.54119179 </i>
    <i name="e_0_energy">   -191.63699575 </i>
   </energy>
  </scstep>
  <scstep>
   <time name="dav">   29.93   30.00</time>
   <time name="total">   30.44   30.52</time>
   <energy>
    <i name="e_fr_energy">   -191.36304850 </i>
    <i name="e_wo_entrp">   -191.17994180 </i>
    <i name="e_0_energy">   -191.27149515 </i>
   </energy>
  </scstep>
  <scstep>
   <time name="dav">   30.66   30.73</time>
   <time name="total">   31.17   31.25</time>
   <energy>
    <i name="e_fr_energy">   -191.20543677 </i>
    <i name="e_wo_entrp">   -191.02528465 </i>
    <i name="e_0_energy">   -191.11536071 </i>
   </energy>
  </scstep>
  <scstep>
   <time name="dav">   30.65   30.73</time>
   <time name="total">   31.16   31.24</time>
   <energy>
    <i name="e_fr_energy">   -191.20271259 </i>
    <i name="e_wo_entrp">   -191.01846277 </i>
    <i name="e_0_energy">   -191.11058768 </i>
   </energy>
  </scstep>
  <scstep>
   <time name="dav">   30.31   30.39</time>
   <time name="total">   30.82   30.90</time>
   <energy>
    <i name="e_fr_energy">   -191.16948472 </i>
    <i name="e_wo_entrp">   -190.98725026 </i>
    <i name="e_0_energy">   -191.07836749 </i>
   </energy>
  </scstep>
  <scstep>
   <time name="dav">   27.71   27.78</time>
   <time name="total">   28.22   28.29</time>
   <energy>
    <i name="e_fr_energy">   -191.16424633 </i>
    <i name="e_wo_entrp">   -190.98227599 </i>
    <i name="e_0_energy">   -191.07326116 </i>
   </energy>
  </scstep>
  <scstep>
   <time name="dav">   28.21   28.28</time>
   <time name="total">   28.72   28.79</time>
   <energy>
    <i name="e_fr_energy">   -191.16500663 </i>
    <i name="e_wo_entrp">   -190.98323850 </i>
    <i name="e_0_energy">   -191.07412257 </i>
   </energy>
  </scstep>
  <scstep>
   <time name="dav">   26.29   26.35</time>
   <time name="total">   26.79   26.86</time>
   <energy>
    <i name="e_fr_energy">   -191.16474009 </i>
    <i name="e_wo_entrp">   -190.98298953 </i>
    <i name="e_0_energy">   -191.07386481 </i>
   </energy>
  </scstep>
  <scstep>
   <time name="dav">   20.51   20.56</time>
   <time name="total">   20.54   20.60</time>
   <energy>
    <i name="alphaZ">     90.20418863 </i>
    <i name="ewald">  44678.95446740 </i>
    <i name="hartreedc"> -50689.19473627 </i>
    <i name="XCdc">   -233.35866884 </i>
    <i name="pawpsdc">   4080.73231751 </i>
    <i name="pawaedc">  -3496.63328173 </i>
    <i name="eentropy">     -0.18176051 </i>
    <i name="bandstr">  -1383.12970626 </i>
    <i name="atom">   6761.44252427 </i>
    <i name="e_fr_energy">   -191.16465580 </i>
    <i name="e_wo_entrp">   -190.98289529 </i>
    <i name="e_0_energy">   -191.07377554 </i>
   </energy>
  </scstep>
  <structure>
   <crystal>
    <varray name="basis" >
     <v>       8.27767723       4.77795320       0.00000000 </v>
     <v>      -8.27823730       4.77892655       0.00000000 </v>
     <v>       0.00000000       0.00000000      30.00000000 </v>
    </varray>
    <i name="volume">   2373.34325813 </i>
    <varray name="rec_basis" >
     <v>       0.06040753       0.10464020       0.00000000 </v>
     <v>      -0.06039522       0.10463312       0.00000000 </v>
     <v>       0.00000000       0.00000000       0.03333333 </v>
    </varray>
   </crystal>
   <varray name="positions" >
    <v>       0.33337045       0.65561837       0.00000800 </v>
    <v>       0.00024092       0.00582853      -0.00002695 </v>
    <v>       0.66633264       0.33893635       0.00001825 </v>
    <v>       1.00570057       0.33283959      -0.00028983 </v>
    <v>       0.66103963       0.66054374       0.00029313 </v>
    <v>       0.33317757       0.33872745      -0.00000539 </v>
    <v>      -0.00660793       0.66048802       0.00042621 </v>
    <v>       0.33337017       0.00649267      -0.00000096 </v>
    <v>       0.67292279       0.00016878      -0.00042334 </v>
    <v>       0.10834992       0.21560819       0.94782399 </v>
    <v>       0.21589424       0.10807537       0.05153011 </v>
    <v>       0.11741455       0.55969938       0.94865945 </v>
    <v>       0.22571088       0.45118408       0.05267712 </v>
    <v>       0.10746148       0.89132614       0.94932422 </v>
    <v>       0.22518290       0.77478041       0.04995003 </v>
    <v>       0.45061779       0.22550362       0.94848616 </v>
    <v>       0.55910703       0.11713274       0.05066275 </v>
    <v>       0.44086258       0.55873406       0.94732144 </v>
    <v>       0.55813734       0.44050680       0.05215574 </v>
    <v>       0.44128534       0.88285699       0.95003803 </v>
    <v>       0.54913078       0.77548832       0.05136494 </v>
    <v>       0.77419715       0.22472360       0.94926144 </v>
    <v>       0.89171009       0.10744664       0.05200391 </v>
    <v>       0.77474000       0.54895649       0.94799994 </v>
    <v>       0.88249196       0.44095628       0.05136278 </v>
    <v>       0.78401836       0.89179748       0.94861016 </v>
    <v>       0.89235526       0.78379435       0.05076857 </v>
   </varray>
  </structure>
  <varray name="forces" >
   <v>       0.28156541      -0.16201433      -0.00473180 </v>
   <v>      -0.13382135       0.17806995      -0.02481472 </v>
   <v>      -0.22087074       0.02442347       0.02972850 </v>
   <v>       0.15780795       0.04957053       0.00360168 </v>
   <v>       0.03423634      -0.15277385      -0.00741945 </v>
   <v>      -0.00460074      -0.00540687       0.00275323 </v>
   <v>      -0.01668059      -0.19751744       0.02604238 </v>
   <v>      -0.28381549       0.16081209       0.00376100 </v>
   <v>       0.16806860       0.10560398      -0.02849012 </v>
   <v>      -0.01373240       0.09820423      -0.12649664 </v>
   <v>      -0.08467310       0.08313399       0.08885481 </v>
   <v>       0.01724782      -0.04987805      -0.01603357 </v>
   <v>       0.05720729      -0.04384491       0.16298859 </v>
   <v>      -0.02157328      -0.03761853       0.05988674 </v>
   <v>       0.00060501      -0.01002162      -0.18006886 </v>
   <v>      -0.11186153       0.03129063      -0.09953534 </v>
   <v>       0.01953717       0.03752533      -0.05078004 </v>
   <v>       0.06351046      -0.02652535      -0.15656532 </v>
   <v>      -0.09178019      -0.03699991       0.12753458 </v>
   <v>       0.01246233       0.00412250       0.17422195 </v>
   <v>       0.05114988       0.01224731       0.02083592 </v>
   <v>       0.06203785       0.08112780       0.05270138 </v>
   <v>      -0.00914686       0.05172675       0.10863926 </v>
   <v>      -0.04978693      -0.01249533      -0.12274955 </v>
   <v>       0.08434441      -0.03308456       0.02015274 </v>
   <v>       0.07399012      -0.05719688      -0.01328052 </v>
   <v>      -0.04142744      -0.09248095      -0.05073685 </v>
  </varray>
  <varray name="stress" >
   <v>      -0.35829851       0.00674791      -0.04912661 </v>
   <v>       0.00674793      -0.28885039      -0.06818387 </v>
   <v>      -0.04912669      -0.06818393      -0.66578991 </v>
  </varray>
  <energy>
   <i name="e_fr_energy">   -191.16465580 </i>
   <i name="e_wo_entrp">   -191.07377554 </i>
   <i name="e_0_energy">     -0.18176051 </i>
  </energy>
  <time name="totalsc">  354.77  355.71</time>
 </calculation>
 <calculation>
  <scstep>
   <time name="dav">   21.63   21.69</time>
   <time name="total">   22.14   22.20</time>
   <energy>
    <i name="alphaZ">     90.46076114 </i>
    <i name="ewald">  44780.37773420 </i>
    <i name="hartreedc"> -50794.06059433 </i>
    <i name="XCdc">   -233.24369915 </i>
    <i name="pawpsdc">   4080.80201554 </i>
    <i name="pawaedc">  -3496.69922436 </i>
    <i name="eentropy">     -0.18674827 </i>
    <i name="bandstr">  -1380.09764269 </i>
    <i name="atom">   6761.44252427 </i>
    <i name="e_fr_energy">   -191.20487365 </i>
    <i name="e_wo_entrp">   -191.01812538 </i>
    <i name="e_0_energy">   -191.11149951 </i>
   </energy>
  </scstep>
  <scstep>
   <time name="dav">   32.06   32.14</time>
   <time name="total">   32.56   32.65</time>
   <energy>
    <i name="e_fr_energy">   -191.21692261 </i>
    <i name="e_wo_entrp">   -191.02955515 </i>
    <i name="e_0_energy">   -191.12323888 </i>
   </energy>
  </scstep>
  <scstep>
   <time name="dav">   30.37   30.44</time>
   <time name="total">   30.87   30.95</time>
   <energy>
    <i name="e_fr_energy">   -191.21345061 </i>
    <i name="e_wo_entrp">   -191.02713930 </i>
    <i name="e_0_energy">   -191.12029495 </i>
   </energy>
  </scstep>
  <scstep>
   <time name="dav">   28.01   28.07</time>
   <time name="total">   28.52   28.59</time>
   <energy>
    <i name="e_fr_energy">   -191.20944816 </i>
    <i name="e_wo_entrp">   -191.02234255 </i>
    <i name="e_0_energy">   -191.11589535 </i>
   </energy>
  </scstep>
  <scstep>
   <time name="dav">   25.66   25.72</time>
   <time name="total">   26.17   26.24</time>
   <energy>
    <i name="e_fr_energy">   -191.20802178 </i>
    <i name="e_wo_entrp">   -191.02119973 </i>
    <i name="e_0_energy">   -191.11461076 </i>
   </energy>
  </scstep>
  <scstep>
   <time name="dav">   29.69   29.76</time>
   <time name="total">   30.20   30.28</time>
   <energy>
    <i name="e_fr_energy">   -191.20825788 </i>
    <i name="e_wo_entrp">   -191.02115677 </i>
    <i name="e_0_energy">   -191.11470732 </i>
   </energy>
  </scstep>
  <scstep>
   <time name="dav">   26.15   26.21</time>
   <time name="total">   26.65   26.72</time>
   <energy>
    <i name="e_fr_energy">   -191.20762955 </i>
    <i name="e_wo_entrp">   -191.02062908 </i>
    <i name="e_0_energy">   -191.11412931 </i>
   </energy>
  </scstep>
  <scstep>
   <time name="dav">   17.52   17.57</time>
   <time name="total">   17.56   17.61</time>
   <energy>
    <i name="alphaZ">     90.46076114 </i>
    <i name="ewald">  44780.37773420 </i>
    <i name="hartreedc"> -50792.92299623 </i>
    <i name="XCdc">   -233.31556441 </i>
    <i name="pawpsdc">   4080.33806759 </i>
    <i name="pawaedc">  -3496.21963292 </i>
    <i name="eentropy">     -0.18698881 </i>
    <i name="bandstr">  -1381.18156921 </i>
    <i name="atom">   6761.44252427 </i>
    <i name="e_fr_energy">   -191.20766438 </i>
    <i name="e_wo_entrp">   -191.02067557 </i>
    <i name="e_0_energy">   -191.11416998 </i>
   </energy>
  </scstep>
  <structure>
   <crystal>
    <varray name="basis" >
     <v>       8.26521713       4.77177012       0.00000000 </v>
     <v>      -8.26561523       4.77246307       0.00000000 </v>
     <v>       0.00000000       0.00000000      30.00000000 </v>
    </varray>
    <i name="volume">   2366.61177991 </i>
    <varray name="rec_basis" >
     <v>       0.06049741       0.10477783       0.00000000 </v>
     <v>      -0.06048863       0.10477279       0.00000000 </v>
     <v>       0.00000000       0.00000000       0.03333333 </v>
    </varray>
   </crystal>
   <varray name="positions" >
    <v>       0.33337215       0.65370467       0.00000030 </v>
    <v>       0.00078591       0.00729018      -0.00006971 </v>
    <v>       0.66577415       0.33983982       0.00006900 </v>
    <v>       1.00653885       0.33260652      -0.00028600 </v>
    <v>       0.66024227       0.65952193       0.00028304 </v>
    <v>       0.33313324       0.33879181      -0.00000104 </v>
    <v>      -0.00782054       0.65938872       0.00047630 </v>
    <v>       0.33335621       0.00833258       0.00000524 </v>
    <v>       0.67410322       0.00022169      -0.00047729 </v>
    <v>       0.10883073       0.21614091       0.94751241 </v>
    <v>       0.21603122       0.10879336       0.05176430 </v>
    <v>       0.11725051       0.55939955       0.94855367 </v>
    <v>       0.22567772       0.45081461       0.05305935 </v>
    <v>       0.10715423       0.89120434       0.94936083 </v>
    <v>       0.22515693       0.77470003       0.04969500 </v>
    <v>       0.45048728       0.22607629       0.94823428 </v>
    <v>       0.55941301       0.11733226       0.05064049 </v>
    <v>       0.44089703       0.55840963       0.94694907 </v>
    <v>       0.55765576       0.44056340       0.05246975 </v>
    <v>       0.44131684       0.88278448       0.95028381 </v>
    <v>       0.54930639       0.77536626       0.05147928 </v>
    <v>       0.77482341       0.22500463       0.94928262 </v>
    <v>       0.89200140       0.10774907       0.05228050 </v>
    <v>       0.77447305       0.54899124       0.94770015 </v>
    <v>       0.88252601       0.44045953       0.05147602 </v>
    <v>       0.78399084       0.89125474       0.94850842 </v>
    <v>       0.89173664       0.78347220       0.05075013 </v>
   </varray>
  </structure>
  <varray name="forces" >
   <v>       0.30279376      -0.17272163       0.00132526 </v>
   <v>      -0.14094630       0.20475669      -0.02170776 </v>
   <v>      -0.25492771       0.02155047       0.01949848 </v>
   <v>       0.15206898       0.05626091       0.01414822 </v>
   <v>       0.03891582      -0.16355094      -0.01222813 </v>
   <v>       0.02521229      -0.00970839      -0.00123862 </v>
   <v>      -0.00752127      -0.25546201       0.03889748 </v>
   <v>      -0.33577024       0.20564320      -0.00099669 </v>
   <v>       0.20488634       0.11806980      -0.03846508 </v>
   <v>      -0.00277508       0.06350086      -0.10324372 </v>
   <v>      -0.06990887       0.04227815       0.10425079 </v>
   <v>       0.01440773      -0.02290854       0.00953679 </v>
   <v>       0.04225553      -0.02334079       0.11564648 </v>
   <v>      -0.02051420      -0.02116273       0.07931011 </v>
   <v>      -0.00041302       0.00651171      -0.22379283 </v>
   <v>      -0.06714403       0.03915865      -0.10112624 </v>
   <v>       0.00552468       0.03160727      -0.07614091 </v>
   <v>       0.04184736      -0.02641887      -0.11381968 </v>
   <v>      -0.05449523      -0.02775504       0.09873239 </v>
   <v>      -0.00358176      -0.00346936       0.21744543 </v>
   <v>       0.02548516       0.00072945      -0.00905736 </v>
   <v>       0.02879643       0.05810127       0.09751190 </v>
   <v>       0.00780354       0.03537988       0.08165442 </v>
   <v>      -0.02366114      -0.02551147      -0.08431090 </v>
   <v>       0.05557789      -0.05009601      -0.01379734 </v>
   <v>       0.07362850      -0.02574200       0.01199850 </v>
   <v>      -0.03754516      -0.05570055      -0.09003100 </v>
  </varray>
  <varray name="stress" >
   <v>       0.19060111      -0.00305805      -0.06949429 </v>
   <v>      -0.00305818       0.16930189      -0.08243797 </v>
   <v>      -0.06949432      -0.08243815      -1.18259981 </v>
  </varray>
  <energy>
   <i name="e_fr_energy">   -191.20766438 </i>
   <i name="e_wo_entrp">   -191.11416998 </i>
   <i name="e_0_energy">     -0.18698881 </i>
  </energy>
  <time name="totalsc">  257.63  258.30</time>
 </calculation>
 <calculation>
  <scstep>
   <time name="dav">   21.62   21.67</time>
   <time name="total">   22.13   22.18</time>
   <energy>
    <i name="alphaZ">     90.36487868 </i>
    <i name="ewald">  44744.05627388 </i>
    <i name="hartreedc"> -50755.32301861 </i>
    <i name="XCdc">   -233.35421141 </i>
    <i name="pawpsdc">   4080.42147068 </i>
    <i name="pawaedc">  -3496.30352309 </i>
    <i name="eentropy">     -0.18921221 </i>
    <i name="bandstr">  -1382.33510373 </i>
    <i name="atom">   6761.44252427 </i>
    <i name="e_fr_energy">   -191.21992154 </i>
    <i name="e_wo_entrp">   -191.03070933 </i>
    <i name="e_0_energy">   -191.12531544 </i>
   </energy>
  </scstep>
  <scstep>
   <time name="dav">   28.90   28.97</time>
   <time name="total">   29.41   29.49</time>
   <energy>
    <i name="e_fr_energy">   -191.22072349 </i>
    <i name="e_wo_entrp">   -191.03146701 </i>
    <i name="e_0_energy">   -191.12609525 </i>
   </energy>
  </scstep>
  <scstep>
   <time name="dav">   30.40   30.47</time>
   <time name="total">   30.90   30.98</time>
   <energy>
    <i name="e_fr_energy">   -191.22066864 </i>
    <i name="e_wo_entrp">   -191.03180924 </i>
    <i name="e_0_energy">   -191.12623894 </i>
   </energy>
  </scstep>
  <scstep>
   <time name="dav">   24.82   24.88</time>
   <time name="total">   25.33   25.39</time>
   <energy>
    <i name="e_fr_energy">   -191.22009131 </i>
    <i name="e_wo_entrp">   -191.03090270 </i>
    <i name="e_0_energy">   -191.12549700 </i>
   </energy>
  </scstep>
  <scstep>
   <time name="dav">   23.11   23.17</time>
   <time name="total">   23.15   23.21</time>
   <energy>
    <i name="alphaZ">     90.36487868 </i>
    <i name="ewald">  44744.05627388 </i>
    <i name="hartreedc"> -50756.54172298 </i>
    <i name="XCdc">   -233.31829710 </i>
    <i name="pawpsdc">   4081.69923634 </i>
    <i name="pawaedc">  -3497.59453497 </i>
    <i name="eentropy">     -0.18914298 </i>
    <i name="bandstr">  -1381.13923207 </i>
    <i name="atom">   6761.44252427 </i>
    <i name="e_fr_energy">   -191.22001693 </i>
    <i name="e_wo_entrp">   -191.03087395 </i>
    <i name="e_0_energy">   -191.12544544 </i>
   </energy>
  </scstep>
  <structure>
   <crystal>
    <varray name="basis" >
     <v>       8.26969708       4.77421908       0.00000000 </v>
     <v>      -8.27011827       4.77495201       0.00000000 </v>
     <v>       0.00000000       0.00000000      30.00000000 </v>
    </varray>
    <i name="volume">   2369.12289447 </i>
    <varray name="rec_basis" >
     <v>       0.06046481       0.10472380       0.00000000 </v>
     <v>      -0.06045553       0.10471846       0.00000000 </v>
     <v>       0.00000000       0.00000000       0.03333333 </v>
    </varray>
   </crystal>
   <varray name="positions" >
    <v>       0.33337674       0.65322018       0.00000116 </v>
    <v>       0.00099657       0.00772284      -0.00008098 </v>
    <v>       0.66556049       0.34007323       0.00007888 </v>
    <v>       1.00673097       0.33256162      -0.00027626 </v>
    <v>       0.66005438       0.65926474       0.00027453 </v>
    <v>       0.33314468       0.33869696      -0.00000174 </v>
    <v>      -0.00820720       0.65900846       0.00049456 </v>
[...]
      <set comment="kpoint 31">
       <r>  -17.4887    1.0000 </r>
       <r>  -17.2872    1.0000 </r>
       <r>  -16.9348    1.0000 </r>
       <r>  -16.6195    1.0000 </r>
       <r>  -16.4998    1.0000 </r>
       <r>  -16.4330    1.0000 </r>
       <r>  -16.2662    1.0000 </r>
       <r>  -16.1001    1.0000 </r>
       <r>  -16.0834    1.0000 </r>
       <r>  -16.0098    1.0000 </r>
       <r>  -15.9364    1.0000 </r>
       <r>  -15.9060    1.0000 </r>
       <r>  -15.8175    1.0000 </r>
       <r>  -15.7859    1.0000 </r>
       <r>  -15.6847    1.0000 </r>
       <r>  -15.5003    1.0000 </r>
       <r>  -15.4697    1.0000 </r>
       <r>  -15.3135    1.0000 </r>
       <r>   -9.7136    1.0000 </r>
       <r>   -9.4459    1.0000 </r>
       <r>   -9.2501    1.0000 </r>
       <r>   -8.9640    1.0000 </r>
       <r>   -8.7641    1.0000 </r>
       <r>   -8.7447    1.0000 </r>
       <r>   -8.5382    1.0000 </r>
       <r>   -8.4693    1.0000 </r>
       <r>   -8.4354    1.0000 </r>
       <r>   -8.3595    1.0000 </r>
       <r>   -8.3090    1.0000 </r>
       <r>   -8.2646    1.0000 </r>
       <r>   -8.1871    1.0000 </r>
       <r>   -8.1288    1.0000 </r>
       <r>   -7.9670    1.0000 </r>
       <r>   -7.8682    1.0000 </r>
       <r>   -7.8190    1.0000 </r>
       <r>   -7.6787    1.0000 </r>
       <r>   -7.5740    1.0000 </r>
       <r>   -7.4120    1.0000 </r>
       <r>   -7.3342    1.0000 </r>
       <r>   -7.2998    1.0000 </r>
       <r>   -7.1598    1.0000 </r>
       <r>   -7.1007    1.0000 </r>
       <r>   -7.0090    1.0000 </r>
       <r>   -6.9655    1.0000 </r>
       <r>   -6.8903    1.0000 </r>
       <r>   -6.8232    1.0000 </r>
       <r>   -6.7253    1.0000 </r>
       <r>   -6.6225    1.0000 </r>
       <r>   -6.5053    1.0000 </r>
       <r>   -6.4411    1.0000 </r>
       <r>   -6.3905    1.0000 </r>
       <r>   -6.3271    1.0000 </r>
       <r>   -6.2708    1.0000 </r>
       <r>   -6.2169    1.0000 </r>
       <r>   -6.1569    1.0000 </r>
       <r>   -6.0365    1.0000 </r>
       <r>   -5.9932    1.0000 </r>
       <r>   -5.9290    1.0000 </r>
       <r>   -5.8477    1.0000 </r>
       <r>   -5.7551    1.0000 </r>
       <r>   -5.6771    1.0000 </r>
       <r>   -5.6184    1.0000 </r>
       <r>   -5.5813    1.0000 </r>
       <r>   -5.3835    1.0000 </r>
       <r>   -5.2803    1.0000 </r>
       <r>   -5.1671    1.0000 </r>
       <r>   -5.0301    1.0000 </r>
       <r>   -4.9191    1.0000 </r>
       <r>   -4.8394    1.0000 </r>
       <r>   -4.6666    1.0000 </r>
       <r>   -4.4940    1.0000 </r>
       <r>   -4.4135    1.0000 </r>
       <r>   -4.2960    1.0000 </r>
       <r>   -4.2076    1.0000 </r>
       <r>   -4.1109    1.0000 </r>
       <r>   -3.8681    0.9998 </r>
       <r>   -3.7848    0.9986 </r>
       <r>   -3.6836    0.9883 </r>
       <r>   -3.5593    0.9174 </r>
       <r>   -3.4683    0.7715 </r>
       <r>   -2.9165    0.0008 </r>
       <r>   -2.7527    0.0000 </r>
       <r>   -2.6377    0.0000 </r>
       <r>   -2.5216    0.0000 </r>
       <r>   -2.3629    0.0000 </r>
       <r>   -2.2650    0.0000 </r>
       <r>   -2.0751    0.0000 </r>
       <r>   -1.9413    0.0000 </r>
       <r>   -1.8665    0.0000 </r>
       <r>   -1.7775    0.0000 </r>
       <r>   -1.6133    0.0000 </r>
       <r>   -1.5567    0.0000 </r>
       <r>   -1.4934    0.0000 </r>
       <r>   -1.4105    0.0000 </r>
       <r>   -1.3208    0.0000 </r>
       <r>   -1.2175    0.0000 </r>
       <r>   -1.1239    0.0000 </r>
       <r>   -1.0539    0.0000 </r>
       <r>   -1.0392    0.0000 </r>
       <r>   -0.9795    0.0000 </r>
       <r>   -0.9490    0.0000 </r>
       <r>   -0.8548    0.0000 </r>
       <r>   -0.8204    0.0000 </r>
       <r>   -0.6832    0.0000 </r>
       <r>   -0.4872    0.0000 </r>
       <r>   -0.3386    0.0000 </r>
       <r>   -0.1816    0.0000 </r>
       <r>   -0.0389    0.0000 </r>
       <r>    0.0775    0.0000 </r>
       <r>    0.2705    0.0000 </r>
       <r>    0.5086    0.0000 </r>
       <r>    0.6647    0.0000 </r>
       <r>    0.7971    0.0000 </r>
       <r>    0.9887    0.0000 </r>
       <r>    1.1410    0.0000 </r>
       <r>    1.2599    0.0000 </r>
       <r>    1.4103    0.0000 </r>
       <r>    2.1380    0.0000 </r>
       <r>    2.2960    0.0000 </r>
       <r>    2.4010    0.0000 </r>
      </set>
      <set comment="kpoint 32">
       <r>  -17.5107    1.0000 </r>
       <r>  -17.1667    1.0000 </r>
       <r>  -17.0896    1.0000 </r>
       <r>  -16.6165    1.0000 </r>
       <r>  -16.4488    1.0000 </r>
       <r>  -16.3467    1.0000 </r>
       <r>  -16.2752    1.0000 </r>
       <r>  -16.1690    1.0000 </r>
       <r>  -16.0638    1.0000 </r>
       <r>  -16.0352    1.0000 </r>
       <r>  -15.9381    1.0000 </r>
       <r>  -15.9105    1.0000 </r>
       <r>  -15.8293    1.0000 </r>
       <r>  -15.7719    1.0000 </r>
       <r>  -15.6999    1.0000 </r>
       <r>  -15.4864    1.0000 </r>
       <r>  -15.4789    1.0000 </r>
       <r>  -15.2986    1.0000 </r>
       <r>   -9.6273    1.0000 </r>
       <r>   -9.5754    1.0000 </r>
       <r>   -9.3388    1.0000 </r>
       <r>   -8.8664    1.0000 </r>
       <r>   -8.7305    1.0000 </r>
       <r>   -8.5761    1.0000 </r>
       <r>   -8.5093    1.0000 </r>
       <r>   -8.4990    1.0000 </r>
       <r>   -8.3926    1.0000 </r>
       <r>   -8.3808    1.0000 </r>
       <r>   -8.3198    1.0000 </r>
       <r>   -8.2552    1.0000 </r>
       <r>   -8.2501    1.0000 </r>
       <r>   -8.1715    1.0000 </r>
       <r>   -8.1126    1.0000 </r>
       <r>   -7.8678    1.0000 </r>
       <r>   -7.8291    1.0000 </r>
       <r>   -7.6328    1.0000 </r>
       <r>   -7.4968    1.0000 </r>
       <r>   -7.4088    1.0000 </r>
       <r>   -7.3968    1.0000 </r>
       <r>   -7.2900    1.0000 </r>
       <r>   -7.2020    1.0000 </r>
       <r>   -7.1316    1.0000 </r>
       <r>   -7.0292    1.0000 </r>
       <r>   -6.9560    1.0000 </r>
       <r>   -6.8653    1.0000 </r>
       <r>   -6.8407    1.0000 </r>
       <r>   -6.7455    1.0000 </r>
       <r>   -6.6171    1.0000 </r>
       <r>   -6.4796    1.0000 </r>
       <r>   -6.4579    1.0000 </r>
       <r>   -6.3520    1.0000 </r>
       <r>   -6.3496    1.0000 </r>
       <r>   -6.2506    1.0000 </r>
       <r>   -6.2167    1.0000 </r>
       <r>   -6.1573    1.0000 </r>
       <r>   -6.0482    1.0000 </r>
       <r>   -5.9327    1.0000 </r>
       <r>   -5.8420    1.0000 </r>
       <r>   -5.8352    1.0000 </r>
       <r>   -5.7478    1.0000 </r>
       <r>   -5.6153    1.0000 </r>
       <r>   -5.5895    1.0000 </r>
       <r>   -5.5754    1.0000 </r>
       <r>   -5.4309    1.0000 </r>
       <r>   -5.3918    1.0000 </r>
       <r>   -5.1292    1.0000 </r>
       <r>   -5.1170    1.0000 </r>
       <r>   -4.9552    1.0000 </r>
       <r>   -4.9077    1.0000 </r>
       <r>   -4.5391    1.0000 </r>
       <r>   -4.4620    1.0000 </r>
       <r>   -4.4309    1.0000 </r>
       <r>   -4.3118    1.0000 </r>
       <r>   -4.2917    1.0000 </r>
       <r>   -4.0939    1.0000 </r>
       <r>   -3.8622    0.9998 </r>
       <r>   -3.7837    0.9985 </r>
       <r>   -3.6372    0.9737 </r>
       <r>   -3.5453    0.9012 </r>
       <r>   -3.4932    0.8212 </r>
       <r>   -2.9267    0.0010 </r>
       <r>   -2.7175    0.0000 </r>
       <r>   -2.6724    0.0000 </r>
       <r>   -2.4790    0.0000 </r>
       <r>   -2.3841    0.0000 </r>
       <r>   -2.2651    0.0000 </r>
       <r>   -2.0329    0.0000 </r>
       <r>   -1.9761    0.0000 </r>
       <r>   -1.8801    0.0000 </r>
       <r>   -1.8107    0.0000 </r>
       <r>   -1.5893    0.0000 </r>
       <r>   -1.5689    0.0000 </r>
       <r>   -1.4595    0.0000 </r>
       <r>   -1.4497    0.0000 </r>
       <r>   -1.3134    0.0000 </r>
       <r>   -1.2202    0.0000 </r>
       <r>   -1.0962    0.0000 </r>
       <r>   -1.0553    0.0000 </r>
       <r>   -1.0308    0.0000 </r>
       <r>   -0.9703    0.0000 </r>
       <r>   -0.9413    0.0000 </r>
       <r>   -0.8931    0.0000 </r>
       <r>   -0.8321    0.0000 </r>
       <r>   -0.6612    0.0000 </r>
       <r>   -0.5331    0.0000 </r>
       <r>   -0.2864    0.0000 </r>
       <r>   -0.1875    0.0000 </r>
       <r>    0.0321    0.0000 </r>
       <r>    0.0680    0.0000 </r>
       <r>    0.2407    0.0000 </r>
       <r>    0.4854    0.0000 </r>
       <r>    0.6950    0.0000 </r>
       <r>    0.7464    0.0000 </r>
       <r>    1.0278    0.0000 </r>
       <r>    1.2074    0.0000 </r>
       <r>    1.2565    0.0000 </r>
       <r>    1.2765    0.0000 </r>
       <r>    2.1070    0.0000 </r>
       <r>    2.2637    0.0000 </r>
       <r>    2.5768    0.0000 </r>
      </set>
      <set comment="kpoint 33">
       <r>  -17.4887    1.0000 </r>
       <r>  -17.2872    1.0000 </r>
       <r>  -16.9344    1.0000 </r>
       <r>  -16.6203    1.0000 </r>
       <r>  -16.5017    1.0000 </r>
       <r>  -16.4289    1.0000 </r>
       <r>  -16.2675    1.0000 </r>
       <r>  -16.1021    1.0000 </r>
       <r>  -16.0822    1.0000 </r>
       <r>  -16.0102    1.0000 </r>
       <r>  -15.9308    1.0000 </r>
       <r>  -15.9072    1.0000 </r>
       <r>  -15.8216    1.0000 </r>
       <r>  -15.7873    1.0000 </r>
       <r>  -15.6826    1.0000 </r>
       <r>  -15.5011    1.0000 </r>
       <r>  -15.4726    1.0000 </r>
       <r>  -15.3100    1.0000 </r>
       <r>   -9.7152    1.0000 </r>
       <r>   -9.4463    1.0000 </r>
       <r>   -9.2479    1.0000 </r>
       <r>   -8.9681    1.0000 </r>
       <r>   -8.7697    1.0000 </r>
       <r>   -8.7405    1.0000 </r>
       <r>   -8.5358    1.0000 </r>
       <r>   -8.4623    1.0000 </r>
       <r>   -8.4321    1.0000 </r>
       <r>   -8.3609    1.0000 </r>
       <r>   -8.3100    1.0000 </r>
       <r>   -8.2688    1.0000 </r>
       <r>   -8.1912    1.0000 </r>
       <r>   -8.1339    1.0000 </r>
       <r>   -7.9595    1.0000 </r>
       <r>   -7.8710    1.0000 </r>
       <r>   -7.8160    1.0000 </r>
       <r>   -7.6830    1.0000 </r>
       <r>   -7.5680    1.0000 </r>
       <r>   -7.4041    1.0000 </r>
       <r>   -7.3385    1.0000 </r>
       <r>   -7.2942    1.0000 </r>
       <r>   -7.1630    1.0000 </r>
       <r>   -7.0982    1.0000 </r>
       <r>   -7.0053    1.0000 </r>
       <r>   -6.9679    1.0000 </r>
       <r>   -6.8890    1.0000 </r>
       <r>   -6.8264    1.0000 </r>
       <r>   -6.7289    1.0000 </r>
       <r>   -6.6240    1.0000 </r>
       <r>   -6.5040    1.0000 </r>
       <r>   -6.4390    1.0000 </r>
       <r>   -6.3911    1.0000 </r>
       <r>   -6.3239    1.0000 </r>
       <r>   -6.2711    1.0000 </r>
       <r>   -6.2205    1.0000 </r>
       <r>   -6.1624    1.0000 </r>
       <r>   -6.0361    1.0000 </r>
       <r>   -5.9937    1.0000 </r>
       <r>   -5.9305    1.0000 </r>
       <r>   -5.8498    1.0000 </r>
       <r>   -5.7564    1.0000 </r>
       <r>   -5.6804    1.0000 </r>
       <r>   -5.6157    1.0000 </r>
       <r>   -5.5832    1.0000 </r>
       <r>   -5.3923    1.0000 </r>
       <r>   -5.2742    1.0000 </r>
       <r>   -5.1658    1.0000 </r>
       <r>   -5.0211    1.0000 </r>
       <r>   -4.9261    1.0000 </r>
       <r>   -4.8383    1.0000 </r>
       <r>   -4.6659    1.0000 </r>
       <r>   -4.4891    1.0000 </r>
       <r>   -4.4111    1.0000 </r>
       <r>   -4.2881    1.0000 </r>
       <r>   -4.2178    1.0000 </r>
       <r>   -4.1099    1.0000 </r>
       <r>   -3.8750    0.9999 </r>
       <r>   -3.7806    0.9984 </r>
       <r>   -3.6858    0.9888 </r>
       <r>   -3.5691    0.9274 </r>
       <r>   -3.4605    0.7546 </r>
       <r>   -2.9330    0.0012 </r>
       <r>   -2.7398    0.0000 </r>
       <r>   -2.6325    0.0000 </r>
       <r>   -2.5095    0.0000 </r>
       <r>   -2.3715    0.0000 </r>
       <r>   -2.2581    0.0000 </r>
       <r>   -2.0666    0.0000 </r>
       <r>   -1.9544    0.0000 </r>
       <r>   -1.8616    0.0000 </r>
       <r>   -1.7673    0.0000 </r>
       <r>   -1.6193    0.0000 </r>
       <r>   -1.5578    0.0000 </r>
       <r>   -1.4853    0.0000 </r>
       <r>   -1.4184    0.0000 </r>
       <r>   -1.3273    0.0000 </r>
       <r>   -1.2254    0.0000 </r>
       <r>   -1.1273    0.0000 </r>
       <r>   -1.0546    0.0000 </r>
       <r>   -1.0279    0.0000 </r>
       <r>   -0.9833    0.0000 </r>
       <r>   -0.9541    0.0000 </r>
       <r>   -0.8598    0.0000 </r>
       <r>   -0.8172    0.0000 </r>
       <r>   -0.6853    0.0000 </r>
       <r>   -0.4852    0.0000 </r>
       <r>   -0.3328    0.0000 </r>
       <r>   -0.1827    0.0000 </r>
       <r>   -0.0297    0.0000 </r>
       <r>    0.0771    0.0000 </r>
       <r>    0.2776    0.0000 </r>
       <r>    0.5094    0.0000 </r>
       <r>    0.6674    0.0000 </r>
       <r>    0.7929    0.0000 </r>
       <r>    0.9897    0.0000 </r>
       <r>    1.1356    0.0000 </r>
       <r>    1.2515    0.0000 </r>
       <r>    1.4075    0.0000 </r>
       <r>    2.1376    0.0000 </r>
       <r>    2.2963    0.0000 </r>
       <r>    2.4011    0.0000 </r>
      </set>
      <set comment="kpoint 34">
       <r>  -17.4464    1.0000 </r>
       <r>  -17.3731    1.0000 </r>
       <r>  -16.7477    1.0000 </r>
       <r>  -16.7076    1.0000 </r>
       <r>  -16.5959    1.0000 </r>
       <r>  -16.4415    1.0000 </r>
       <r>  -16.2527    1.0000 </r>
       <r>  -16.1265    1.0000 </r>
       <r>  -16.0359    1.0000 </r>
       <r>  -15.9984    1.0000 </r>
       <r>  -15.9345    1.0000 </r>
       <r>  -15.8931    1.0000 </r>
       <r>  -15.8187    1.0000 </r>
       <r>  -15.7899    1.0000 </r>
       <r>  -15.6701    1.0000 </r>
       <r>  -15.5078    1.0000 </r>
       <r>  -15.4744    1.0000 </r>
       <r>  -15.3227    1.0000 </r>
       <r>   -9.7549    1.0000 </r>
       <r>   -9.2962    1.0000 </r>
       <r>   -9.1766    1.0000 </r>
       <r>   -9.0572    1.0000 </r>
       <r>   -8.9441    1.0000 </r>
       <r>   -8.7619    1.0000 </r>
       <r>   -8.5545    1.0000 </r>
       <r>   -8.4783    1.0000 </r>
       <r>   -8.4450    1.0000 </r>
       <r>   -8.3607    1.0000 </r>
       <r>   -8.2831    1.0000 </r>
       <r>   -8.2564    1.0000 </r>
       <r>   -8.2158    1.0000 </r>
       <r>   -8.0248    1.0000 </r>
       <r>   -7.9242    1.0000 </r>
       <r>   -7.8810    1.0000 </r>
       <r>   -7.7358    1.0000 </r>
       <r>   -7.6398    1.0000 </r>
       <r>   -7.5961    1.0000 </r>
       <r>   -7.5444    1.0000 </r>
       <r>   -7.3590    1.0000 </r>
       <r>   -7.2251    1.0000 </r>
       <r>   -7.1250    1.0000 </r>
       <r>   -7.0661    1.0000 </r>
       <r>   -7.0348    1.0000 </r>
       <r>   -6.9209    1.0000 </r>
       <r>   -6.9139    1.0000 </r>
       <r>   -6.7792    1.0000 </r>
       <r>   -6.6778    1.0000 </r>
       <r>   -6.6225    1.0000 </r>
       <r>   -6.5469    1.0000 </r>
       <r>   -6.4671    1.0000 </r>
       <r>   -6.4252    1.0000 </r>
       <r>   -6.3134    1.0000 </r>
       <r>   -6.2896    1.0000 </r>
       <r>   -6.2440    1.0000 </r>
       <r>   -6.1684    1.0000 </r>
       <r>   -6.0833    1.0000 </r>
       <r>   -6.0465    1.0000 </r>
       <r>   -5.9265    1.0000 </r>
       <r>   -5.8770    1.0000 </r>
       <r>   -5.7829    1.0000 </r>
       <r>   -5.6850    1.0000 </r>
       <r>   -5.5897    1.0000 </r>
       <r>   -5.5651    1.0000 </r>
       <r>   -5.4202    1.0000 </r>
       <r>   -5.2718    1.0000 </r>
       <r>   -5.1440    1.0000 </r>
       <r>   -4.8929    1.0000 </r>
       <r>   -4.8667    1.0000 </r>
       <r>   -4.8246    1.0000 </r>
       <r>   -4.7052    1.0000 </r>
       <r>   -4.5766    1.0000 </r>
       <r>   -4.4424    1.0000 </r>
       <r>   -4.2100    1.0000 </r>
       <r>   -4.1777    1.0000 </r>
       <r>   -4.1169    1.0000 </r>
       <r>   -3.8967    0.9999 </r>
       <r>   -3.8088    0.9992 </r>
       <r>   -3.6831    0.9882 </r>
       <r>   -3.6035    0.9554 </r>
       <r>   -3.4423    0.7122 </r>
       <r>   -2.9344    0.0012 </r>
       <r>   -2.7516    0.0000 </r>
       <r>   -2.5980    0.0000 </r>
       <r>   -2.5471    0.0000 </r>
       <r>   -2.3658    0.0000 </r>
       <r>   -2.2485    0.0000 </r>
       <r>   -2.0908    0.0000 </r>
       <r>   -1.9376    0.0000 </r>
       <r>   -1.8427    0.0000 </r>
       <r>   -1.7313    0.0000 </r>
       <r>   -1.6331    0.0000 </r>
       <r>   -1.5633    0.0000 </r>
       <r>   -1.4738    0.0000 </r>
       <r>   -1.4509    0.0000 </r>
       <r>   -1.2979    0.0000 </r>
       <r>   -1.2358    0.0000 </r>
       <r>   -1.1622    0.0000 </r>
       <r>   -1.0512    0.0000 </r>
       <r>   -1.0301    0.0000 </r>
       <r>   -0.9973    0.0000 </r>
       <r>   -0.9475    0.0000 </r>
       <r>   -0.8541    0.0000 </r>
       <r>   -0.7792    0.0000 </r>
       <r>   -0.7158    0.0000 </r>
       <r>   -0.4385    0.0000 </r>
       <r>   -0.3742    0.0000 </r>
       <r>   -0.1946    0.0000 </r>
       <r>   -0.0662    0.0000 </r>
       <r>    0.0740    0.0000 </r>
       <r>    0.3016    0.0000 </r>
       <r>    0.5291    0.0000 </r>
       <r>    0.6567    0.0000 </r>
       <r>    0.8439    0.0000 </r>
       <r>    0.9319    0.0000 </r>
       <r>    1.0990    0.0000 </r>
       <r>    1.2865    0.0000 </r>
       <r>    1.4714    0.0000 </r>
       <r>    2.2084    0.0000 </r>
       <r>    2.2665    0.0000 </r>
       <r>    2.3819    0.0000 </r>
      </set>
     </set>
    </set>
   </array>
  </eigenvalues>
  <separator name="orbital magnetization" >
   <v name="MAGDIPOLOUT">      0.00000000      0.00000000      0.00000000</v>
  </separator>
 </calculation>
 <structure name="finalpos" >
  <crystal>
   <varray name="basis" >
    <v>       8.33562381       4.81114763       0.00000000 </v>
    <v>      -8.33753306       4.81445409       0.00000000 </v>
    <v>       0.00000000       0.00000000      30.00000000 </v>
   </varray>
   <i name="volume">   2407.33741505 </i>
   <varray name="rec_basis" >
    <v>       0.05999725       0.10390151       0.00000000 </v>
    <v>      -0.05995604       0.10387772       0.00000000 </v>
    <v>       0.00000000       0.00000000       0.03333333 </v>
   </varray>
  </crystal>
  <varray name="positions" >
   <v>       0.33466570       0.63648212       0.00008051 </v>
   <v>       0.01705886       0.03522387       0.00011938 </v>
   <v>       0.64922011       0.35132378      -0.00025828 </v>
   <v>       1.01521811       0.32707390       0.00051913 </v>
   <v>       0.65183947       0.64584273      -0.00056379 </v>
   <v>       0.33310841       0.33930122      -0.00003328 </v>
   <v>      -0.03108979       0.63130988      -0.00005291 </v>
   <v>       0.33292600       0.03648733      -0.00002803 </v>
   <v>       0.69639838      -0.00671674       0.00024286 </v>
   <v>       0.11500716       0.22359379       0.94506450 </v>
   <v>       0.21565889       0.11699961       0.05494471 </v>
   <v>       0.11643894       0.55636790       0.94940744 </v>
   <v>       0.22406511       0.44913558       0.05521620 </v>
   <v>       0.10720010       0.89042469       0.95289358 </v>
   <v>       0.22237834       0.77595904       0.04207178 </v>
   <v>       0.45063969       0.23424730       0.94497997 </v>
   <v>       0.55944228       0.11622364       0.04689453 </v>
   <v>       0.44264491       0.55817952       0.94471591 </v>
   <v>       0.55157080       0.44194473       0.05484361 </v>
   <v>       0.44415591       0.88704744       0.95780212 </v>
   <v>       0.55036187       0.77287284       0.05107587 </v>
   <v>       0.77206439       0.22295039       0.95505670 </v>
   <v>       0.89653723       0.10914238       0.05545747 </v>
   <v>       0.76992223       0.54561229       0.94444672 </v>
   <v>       0.87144590       0.42754152       0.05119576 </v>
   <v>       0.79507729       0.88914676       0.94864132 </v>
   <v>       0.89425816       0.78449693       0.04526612 </v>
  </varray>
 </structure>
</modeling>
