   27   27  100    1
  0.9710400E+02  0.1002848E-08  0.1002848E-08  0.3000000E-08  0.5000000E-15
  1.000000000000000E-004
  CAR 
 unknown system                          
    159     34    120
 
  0.0000000E+00  0.0000000E+00  0.0000000E+00  0.1562500E-01
    1      -17.790817   1.000000
    2      -16.654570   1.000000
    3      -16.622808   1.000000
    4      -16.565264   1.000000
    5      -16.486196   1.000000
    6      -16.462754   1.000000
    7      -16.420892   1.000000
    8      -16.258017   1.000000
    9      -16.163217   1.000000
   10      -16.095865   1.000000
   11      -16.073681   1.000000
   12      -15.914333   1.000000
   13      -15.901077   1.000000
   14      -15.802010   1.000000
   15      -15.598910   1.000000
   16      -15.542831   1.000000
   17      -15.364394   1.000000
   18      -15.335377   1.000000
   19       -9.282854   1.000000
   20       -8.961169   1.000000
   21       -8.862089   1.000000
   22       -8.848753   1.000000
   23       -8.732905   1.000000
   24       -8.681314   1.000000
   25       -8.588261   1.000000
   26       -8.548135   1.000000
   27       -8.514212   1.000000
   28       -8.433690   1.000000
   29       -8.420223   1.000000
   30       -8.366082   1.000000
   31       -8.267512   1.000000
   32       -8.228714   1.000000
   33       -8.137516   1.000000
   34       -8.000430   1.000000
   35       -7.849504   1.000000
   36       -7.784473   1.000000
   37       -7.735972   1.000000
   38       -7.539801   1.000000
   39       -7.494163   1.000000
   40       -7.435496   1.000000
   41       -7.407481   1.000000
   42       -7.196226   1.000000
   43       -7.089947   1.000000
   44       -6.961471   1.000000
   45       -6.834206   1.000000
   46       -6.795563   1.000000
   47       -6.690071   1.000000
   48       -6.662413   1.000000
   49       -6.587548   1.000000
   50       -6.507259   1.000000
   51       -6.490366   1.000000
   52       -6.457834   1.000000
   53       -6.320627   1.000000
   54       -6.226478   1.000000
   55       -6.205613   1.000000
   56       -6.089086   1.000000
   57       -5.944692   1.000000
   58       -5.860355   1.000000
   59       -5.735859   1.000000
   60       -5.584523   1.000000
   61       -5.448660   1.000000
   62       -5.338486   1.000000
   63       -5.310377   1.000000
   64       -5.243230   1.000000
   65       -5.035529   1.000000
   66       -4.984850   1.000000
   67       -4.950718   1.000000
   68       -4.853505   1.000000
   69       -4.843846   1.000000
   70       -4.636736   1.000000
   71       -4.602254   1.000000
   72       -4.519123   1.000000
   73       -4.441151   1.000000
   74       -4.432652   1.000000
   75       -4.245507   1.000000
   76       -3.948874   0.999992
   77       -3.745766   0.998015
   78       -3.623178   0.977978
   79       -3.521001   0.901680
   80       -3.406479   0.684880
   81       -3.342884   0.512645
   82       -2.823281   0.000135
   83       -2.745318   0.000014
   84       -2.640199   0.000000
   85       -2.498195   0.000000
   86       -2.467052   0.000000
   87       -2.391115   0.000000
   88       -2.370998   0.000000
   89       -2.166116   0.000000
   90       -2.075710   0.000000
   91       -1.688292   0.000000
   92       -1.582877   0.000000
   93       -1.475416   0.000000
   94       -1.384939   0.000000
   95       -1.297918   0.000000
   96       -1.185166   0.000000
   97       -1.056712   0.000000
   98       -0.910331   0.000000
   99       -0.687218   0.000000
  100       -0.651735   0.000000
  101       -0.592365   0.000000
  102       -0.522052   0.000000
  103       -0.485238   0.000000
  104       -0.323983   0.000000
  105       -0.243847   0.000000
  106       -0.010633   0.000000
  107        0.019725   0.000000
  108        0.088410   0.000000
  109        0.190024   0.000000
  110        0.221315   0.000000
  111        0.318934   0.000000
  112        0.509950   0.000000
  113        0.586374   0.000000
  114        0.851040   0.000000
  115        0.933952   0.000000
  116        0.990619   0.000000
  117        1.059709   0.000000
  118        1.651038   0.000000
  119        1.836728   0.000000
  120        2.154001   0.000000
 
  0.1250000E+00  0.2775558E-16  0.0000000E+00  0.3125000E-01
    1      -17.765921   1.000000
    2      -16.729541   1.000000
    3      -16.658269   1.000000
    4      -16.610514   1.000000
    5      -16.536221   1.000000
    6      -16.436866   1.000000
    7      -16.343696   1.000000
    8      -16.238050   1.000000
    9      -16.158633   1.000000
   10      -16.112828   1.000000
   11      -16.016515   1.000000
   12      -15.899837   1.000000
   13      -15.869009   1.000000
   14      -15.783243   1.000000
   15      -15.613436   1.000000
   16      -15.555204   1.000000
   17      -15.375235   1.000000
   18      -15.338117   1.000000
   19       -9.276157   1.000000
   20       -9.091188   1.000000
   21       -8.973250   1.000000
   22       -8.950961   1.000000
   23       -8.760811   1.000000
   24       -8.719281   1.000000
   25       -8.654087   1.000000
   26       -8.557149   1.000000
   27       -8.482595   1.000000
   28       -8.447442   1.000000
   29       -8.383290   1.000000
   30       -8.241168   1.000000
   31       -8.191576   1.000000
   32       -8.161438   1.000000
   33       -8.034160   1.000000
   34       -7.857155   1.000000
   35       -7.814842   1.000000
   36       -7.765767   1.000000
   37       -7.702579   1.000000
   38       -7.586596   1.000000
   39       -7.496788   1.000000
   40       -7.412590   1.000000
   41       -7.348012   1.000000
   42       -7.210653   1.000000
   43       -7.109579   1.000000
   44       -7.001172   1.000000
   45       -6.888198   1.000000
   46       -6.800835   1.000000
   47       -6.723714   1.000000
   48       -6.668437   1.000000
   49       -6.624201   1.000000
   50       -6.538012   1.000000
   51       -6.461484   1.000000
   52       -6.376851   1.000000
   53       -6.314703   1.000000
   54       -6.233072   1.000000
   55       -6.176895   1.000000
   56       -6.106862   1.000000
   57       -5.960080   1.000000
   58       -5.820635   1.000000
   59       -5.702334   1.000000
   60       -5.566539   1.000000
   61       -5.443572   1.000000
   62       -5.405421   1.000000
   63       -5.320844   1.000000
   64       -5.255408   1.000000
   65       -5.123993   1.000000
   66       -5.092925   1.000000
   67       -5.003976   1.000000
   68       -4.916135   1.000000
   69       -4.817181   1.000000
   70       -4.682666   1.000000
   71       -4.572490   1.000000
   72       -4.452658   1.000000
   73       -4.355982   1.000000
   74       -4.256293   1.000000
   75       -4.212972   1.000000
   76       -3.959784   0.999994
   77       -3.805833   0.999526
   78       -3.717021   0.996289
   79       -3.608216   0.971797
   80       -3.432625   0.747381
   81       -3.179928   0.131235
   82       -2.814151   0.000105
   83       -2.753645   0.000018
   84       -2.628594   0.000000
   85       -2.539626   0.000000
   86       -2.456139   0.000000
   87       -2.388452   0.000000
   88       -2.336387   0.000000
   89       -2.158505   0.000000
   90       -2.096338   0.000000
   91       -1.659738   0.000000
   92       -1.556298   0.000000
   93       -1.479707   0.000000
   94       -1.383158   0.000000
   95       -1.280006   0.000000
   96       -1.170147   0.000000
   97       -1.063645   0.000000
   98       -0.900224   0.000000
   99       -0.732523   0.000000
  100       -0.695098   0.000000
  101       -0.654203   0.000000
  102       -0.591584   0.000000
  103       -0.519630   0.000000
  104       -0.385510   0.000000
  105       -0.233051   0.000000
  106       -0.139231   0.000000
  107       -0.001824   0.000000
  108        0.064111   0.000000
  109        0.127303   0.000000
  110        0.228400   0.000000
  111        0.346056   0.000000
  112        0.507749   0.000000
  113        0.622974   0.000000
  114        0.886388   0.000000
  115        0.952780   0.000000
  116        1.049415   0.000000
  117        1.123783   0.000000
  118        1.694949   0.000000
  119        1.875592   0.000000
  120        2.189262   0.000000
 
  0.2500000E+00  0.5551115E-16  0.0000000E+00  0.3125000E-01
    1      -17.693035   1.000000
    2      -16.937615   1.000000
    3      -16.708224   1.000000
    4      -16.643904   1.000000
    5      -16.562474   1.000000
    6      -16.406129   1.000000
    7      -16.307291   1.000000
    8      -16.180629   1.000000
    9      -16.138575   1.000000
   10      -16.080255   1.000000
   11      -15.987926   1.000000
   12      -15.867417   1.000000
   13      -15.805744   1.000000
   14      -15.728392   1.000000
   15      -15.627372   1.000000
   16      -15.584352   1.000000
   17      -15.405129   1.000000
   18      -15.347676   1.000000
   19       -9.448236   1.000000
   20       -9.219362   1.000000
   21       -9.094413   1.000000
   22       -9.006096   1.000000
   23       -8.904435   1.000000
   24       -8.828052   1.000000
   25       -8.618059   1.000000
   26       -8.515140   1.000000
   27       -8.449312   1.000000
   28       -8.387246   1.000000
   29       -8.321276   1.000000
   30       -8.194788   1.000000
   31       -8.126263   1.000000
   32       -8.080292   1.000000
   33       -7.909783   1.000000
   34       -7.850126   1.000000
   35       -7.730651   1.000000
   36       -7.653802   1.000000
   37       -7.613627   1.000000
   38       -7.511564   1.000000
   39       -7.428533   1.000000
   40       -7.340917   1.000000
   41       -7.299295   1.000000
   42       -7.201073   1.000000
   43       -7.103950   1.000000
   44       -7.049298   1.000000
   45       -6.917391   1.000000
   46       -6.812378   1.000000
   47       -6.746514   1.000000
   48       -6.700818   1.000000
   49       -6.672583   1.000000
   50       -6.561032   1.000000
   51       -6.431560   1.000000
   52       -6.332606   1.000000
   53       -6.263487   1.000000
   54       -6.202033   1.000000
   55       -6.143393   1.000000
   56       -6.062446   1.000000
   57       -5.954376   1.000000
   58       -5.850351   1.000000
   59       -5.658644   1.000000
   60       -5.642056   1.000000
   61       -5.560211   1.000000
   62       -5.536582   1.000000
   63       -5.433684   1.000000
   64       -5.344970   1.000000
   65       -5.256759   1.000000
   66       -5.128230   1.000000
   67       -5.024585   1.000000
   68       -4.886988   1.000000
   69       -4.762929   1.000000
   70       -4.688836   1.000000
   71       -4.506872   1.000000
   72       -4.406481   1.000000
   73       -4.305440   1.000000
   74       -4.153933   1.000000
   75       -4.091126   1.000000
   76       -4.069878   1.000000
   77       -3.890808   0.999953
   78       -3.729475   0.997157
   79       -3.651132   0.986494
   80       -3.413101   0.701323
   81       -3.059549   0.024317
   82       -2.827910   0.000153
   83       -2.748576   0.000015
   84       -2.636780   0.000000
   85       -2.572577   0.000000
   86       -2.437799   0.000000
   87       -2.377446   0.000000
   88       -2.273104   0.000000
   89       -2.143262   0.000000
   90       -2.094475   0.000000
   91       -1.634335   0.000000
   92       -1.529960   0.000000
   93       -1.454671   0.000000
   94       -1.364072   0.000000
   95       -1.239183   0.000000
   96       -1.144351   0.000000
   97       -1.092355   0.000000
   98       -0.899227   0.000000
   99       -0.858009   0.000000
  100       -0.805344   0.000000
  101       -0.785183   0.000000
  102       -0.692933   0.000000
  103       -0.570150   0.000000
  104       -0.465258   0.000000
  105       -0.418094   0.000000
  106       -0.190339   0.000000
  107       -0.104375   0.000000
  108       -0.013779   0.000000
  109        0.059474   0.000000
  110        0.156915   0.000000
  111        0.319099   0.000000
  112        0.502926   0.000000
  113        0.733048   0.000000
  114        0.976399   0.000000
  115        1.021421   0.000000
  116        1.130622   0.000000
  117        1.299676   0.000000
  118        1.817710   0.000000
  119        1.986842   0.000000
  120        2.293897   0.000000
 
  0.3750000E+00  0.0000000E+00  0.0000000E+00  0.3125000E-01
    1      -17.580953   1.000000
    2      -17.149258   1.000000
    3      -16.752047   1.000000
    4      -16.668349   1.000000
    5      -16.547107   1.000000
    6      -16.438960   1.000000
    7      -16.269880   1.000000
    8      -16.173731   1.000000
    9      -16.070867   1.000000
   10      -16.020915   1.000000
   11      -15.957236   1.000000
   12      -15.849771   1.000000
   13      -15.815288   1.000000
   14      -15.720543   1.000000
   15      -15.606980   1.000000
   16      -15.553667   1.000000
   17      -15.444068   1.000000
   18      -15.362729   1.000000
   19       -9.668518   1.000000
   20       -9.298259   1.000000
   21       -9.119704   1.000000
   22       -9.029568   1.000000
   23       -8.963989   1.000000
   24       -8.906309   1.000000
   25       -8.572147   1.000000
   26       -8.458769   1.000000
   27       -8.416531   1.000000
   28       -8.343687   1.000000
   29       -8.250211   1.000000
   30       -8.197404   1.000000
   31       -8.137015   1.000000
   32       -8.055018   1.000000
   33       -7.956851   1.000000
   34       -7.847158   1.000000
   35       -7.731996   1.000000
   36       -7.593747   1.000000
   37       -7.541192   1.000000
   38       -7.455138   1.000000
   39       -7.420537   1.000000
   40       -7.307673   1.000000
   41       -7.218730   1.000000
   42       -7.089942   1.000000
   43       -7.045474   1.000000
   44       -6.976982   1.000000
   45       -6.872877   1.000000
   46       -6.781535   1.000000
   47       -6.734679   1.000000
   48       -6.680648   1.000000
   49       -6.597397   1.000000
   50       -6.553205   1.000000
   51       -6.420707   1.000000
   52       -6.297330   1.000000
   53       -6.234563   1.000000
   54       -6.168072   1.000000
   55       -6.100669   1.000000
   56       -6.035714   1.000000
   57       -5.981566   1.000000
   58       -5.920358   1.000000
   59       -5.856943   1.000000
   60       -5.762128   1.000000
   61       -5.680627   1.000000
   62       -5.638393   1.000000
   63       -5.537619   1.000000
   64       -5.455694   1.000000
   65       -5.244762   1.000000
   66       -5.051570   1.000000
   67       -4.942508   1.000000
   68       -4.845976   1.000000
   69       -4.809925   1.000000
   70       -4.734096   1.000000
   71       -4.648210   1.000000
   72       -4.401818   1.000000
   73       -4.270655   1.000000
   74       -4.224252   1.000000
   75       -4.032897   1.000000
   76       -3.975257   0.999997
   77       -3.836074   0.999783
   78       -3.695350   0.994199
   79       -3.584135   0.958860
   80       -3.418243   0.713816
   81       -3.033907   0.015656
   82       -2.858087   0.000341
   83       -2.760544   0.000022
   84       -2.637103   0.000000
   85       -2.577048   0.000000
   86       -2.413612   0.000000
   87       -2.354834   0.000000
   88       -2.229431   0.000000
   89       -2.108071   0.000000
   90       -2.056592   0.000000
   91       -1.619452   0.000000
   92       -1.534319   0.000000
   93       -1.450093   0.000000
   94       -1.308178   0.000000
   95       -1.230025   0.000000
   96       -1.166835   0.000000
   97       -1.109329   0.000000
   98       -0.997354   0.000000
   99       -0.965591   0.000000
  100       -0.873992   0.000000
  101       -0.819696   0.000000
  102       -0.757964   0.000000
  103       -0.632121   0.000000
  104       -0.588885   0.000000
  105       -0.492770   0.000000
  106       -0.319661   0.000000
  107       -0.159408   0.000000
  108       -0.077564   0.000000
  109       -0.015408   0.000000
  110        0.053535   0.000000
  111        0.317135   0.000000
  112        0.525846   0.000000
  113        0.788784   0.000000
  114        1.030389   0.000000
  115        1.114756   0.000000
  116        1.223750   0.000000
  117        1.447617   0.000000
  118        2.001778   0.000000
  119        2.160084   0.000000
  120        2.464902   0.000000
 
  0.5000000E+00  0.1110223E-15  0.0000000E+00  0.1562500E-01
    1      -17.491599   1.000000
    2      -17.273814   1.000000
    3      -16.767448   1.000000
    4      -16.678887   1.000000
    5      -16.527644   1.000000
    6      -16.465701   1.000000
    7      -16.257741   1.000000
    8      -16.175140   1.000000
    9      -16.039890   1.000000
   10      -15.981470   1.000000
   11      -15.923294   1.000000
   12      -15.860849   1.000000
   13      -15.845757   1.000000
   14      -15.728348   1.000000
   15      -15.601814   1.000000
   16      -15.515543   1.000000
   17      -15.462291   1.000000
   18      -15.372576   1.000000
   19       -9.749001   1.000000
   20       -9.335372   1.000000
   21       -9.126070   1.000000
   22       -9.075066   1.000000
   23       -8.951877   1.000000
   24       -8.891360   1.000000
   25       -8.548845   1.000000
   26       -8.501367   1.000000
   27       -8.399404   1.000000
   28       -8.303154   1.000000
   29       -8.243487   1.000000
   30       -8.155788   1.000000
   31       -8.142250   1.000000
   32       -8.020460   1.000000
   33       -7.996299   1.000000
   34       -7.860682   1.000000
   35       -7.746482   1.000000
   36       -7.635742   1.000000
   37       -7.538221   1.000000
   38       -7.502406   1.000000
   39       -7.391446   1.000000
   40       -7.314509   1.000000
   41       -7.164941   1.000000
   42       -7.024675   1.000000
   43       -6.964949   1.000000
   44       -6.871711   1.000000
   45       -6.782456   1.000000
   46       -6.720232   1.000000
   47       -6.691755   1.000000
   48       -6.662326   1.000000
   49       -6.624018   1.000000
   50       -6.551655   1.000000
   51       -6.481541   1.000000
   52       -6.384702   1.000000
   53       -6.235646   1.000000
   54       -6.149860   1.000000
   55       -6.149012   1.000000
   56       -6.083658   1.000000
   57       -5.969889   1.000000
   58       -5.867623   1.000000
   59       -5.777842   1.000000
   60       -5.732107   1.000000
   61       -5.694452   1.000000
   62       -5.672737   1.000000
   63       -5.613842   1.000000
   64       -5.480607   1.000000
   65       -5.457485   1.000000
   66       -5.015883   1.000000
   67       -4.979280   1.000000
   68       -4.867000   1.000000
   69       -4.845110   1.000000
   70       -4.730272   1.000000
   71       -4.593933   1.000000
   72       -4.383103   1.000000
   73       -4.330941   1.000000
   74       -4.241206   1.000000
   75       -3.980312   0.999997
   76       -3.937123   0.999989
   77       -3.802376   0.999482
   78       -3.671490   0.990746
   79       -3.558685   0.940341
   80       -3.407504   0.687451
   81       -3.054162   0.022223
   82       -2.866853   0.000427
   83       -2.768570   0.000028
   84       -2.633144   0.000000
   85       -2.574694   0.000000
   86       -2.400467   0.000000
   87       -2.348386   0.000000
   88       -2.210583   0.000000
   89       -2.087792   0.000000
   90       -2.033898   0.000000
   91       -1.610846   0.000000
   92       -1.539635   0.000000
   93       -1.451618   0.000000
   94       -1.298006   0.000000
   95       -1.232158   0.000000
   96       -1.200103   0.000000
   97       -1.113727   0.000000
   98       -1.040109   0.000000
   99       -1.012708   0.000000
  100       -0.880476   0.000000
  101       -0.806314   0.000000
  102       -0.770481   0.000000
  103       -0.693102   0.000000
  104       -0.626133   0.000000
  105       -0.513626   0.000000
  106       -0.377606   0.000000
  107       -0.193353   0.000000
  108       -0.102334   0.000000
  109       -0.040672   0.000000
  110        0.020822   0.000000
  111        0.316018   0.000000
  112        0.535801   0.000000
  113        0.808822   0.000000
  114        1.047729   0.000000
  115        1.147733   0.000000
  116        1.264125   0.000000
  117        1.501737   0.000000
  118        2.221290   0.000000
  119        2.252303   0.000000
  120        2.379886   0.000000
 
  0.0000000E+00  0.1250000E+00  0.0000000E+00  0.3125000E-01
    1      -17.765812   1.000000
    2      -16.767905   1.000000
    3      -16.646100   1.000000
    4      -16.563623   1.000000
    5      -16.544836   1.000000
    6      -16.425498   1.000000
    7      -16.345186   1.000000
    8      -16.274924   1.000000
    9      -16.147684   1.000000
   10      -16.079506   1.000000
   11      -16.026680   1.000000
   12      -15.917150   1.000000
   13      -15.880518   1.000000
   14      -15.780532   1.000000
   15      -15.613591   1.000000
   16      -15.547750   1.000000
   17      -15.375008   1.000000
   18      -15.339588   1.000000
   19       -9.293067   1.000000
   20       -9.089318   1.000000
   21       -8.990607   1.000000
   22       -8.913475   1.000000
   23       -8.782111   1.000000
   24       -8.667099   1.000000
   25       -8.613525   1.000000
   26       -8.573309   1.000000
   27       -8.514312   1.000000
   28       -8.458034   1.000000
   29       -8.353291   1.000000
   30       -8.285748   1.000000
   31       -8.210905   1.000000
   32       -8.128021   1.000000
   33       -8.051203   1.000000
   34       -7.875008   1.000000
   35       -7.800920   1.000000
   36       -7.744927   1.000000
   37       -7.670228   1.000000
   38       -7.626497   1.000000
   39       -7.528744   1.000000
   40       -7.444301   1.000000
   41       -7.325929   1.000000
   42       -7.178622   1.000000
   43       -7.101307   1.000000
   44       -7.031485   1.000000
   45       -6.877006   1.000000
   46       -6.779079   1.000000
   47       -6.718154   1.000000
   48       -6.644874   1.000000
   49       -6.610372   1.000000
   50       -6.515452   1.000000
   51       -6.469944   1.000000
   52       -6.379474   1.000000
   53       -6.342153   1.000000
   54       -6.264954   1.000000
   55       -6.196869   1.000000
   56       -6.110734   1.000000
   57       -5.953918   1.000000
   58       -5.862410   1.000000
   59       -5.676974   1.000000
   60       -5.594333   1.000000
   61       -5.405174   1.000000
   62       -5.379933   1.000000
   63       -5.289220   1.000000
   64       -5.249824   1.000000
   65       -5.202962   1.000000
   66       -5.100333   1.000000
   67       -5.022587   1.000000
   68       -4.864923   1.000000
   69       -4.780224   1.000000
   70       -4.686005   1.000000
   71       -4.618870   1.000000
   72       -4.454063   1.000000
   73       -4.365935   1.000000
   74       -4.263270   1.000000
   75       -4.165460   1.000000
   76       -3.940525   0.999990
   77       -3.813594   0.999610
   78       -3.751784   0.998267
   79       -3.626911   0.979329
   80       -3.359948   0.560549
   81       -3.232997   0.228040
   82       -2.830283   0.000163
   83       -2.781409   0.000041
   84       -2.594116   0.000000
   85       -2.482784   0.000000
   86       -2.438011   0.000000
   87       -2.401212   0.000000
   88       -2.359249   0.000000
   89       -2.151946   0.000000
   90       -2.063968   0.000000
   91       -1.696069   0.000000
   92       -1.586755   0.000000
   93       -1.481395   0.000000
   94       -1.375432   0.000000
   95       -1.286508   0.000000
   96       -1.166519   0.000000
   97       -1.059206   0.000000
   98       -0.895578   0.000000
   99       -0.767483   0.000000
  100       -0.721631   0.000000
  101       -0.611467   0.000000
  102       -0.563548   0.000000
  103       -0.525536   0.000000
  104       -0.381323   0.000000
  105       -0.287609   0.000000
  106       -0.114075   0.000000
  107        0.000792   0.000000
  108        0.087143   0.000000
  109        0.142746   0.000000
  110        0.258342   0.000000
  111        0.370895   0.000000
  112        0.508982   0.000000
  113        0.614684   0.000000
  114        0.887532   0.000000
  115        0.946763   0.000000
  116        1.029462   0.000000
  117        1.078945   0.000000
  118        1.693496   0.000000
  119        1.876568   0.000000
  120        2.188798   0.000000
 
  0.1250000E+00  0.1250000E+00  0.0000000E+00  0.3125000E-01
    1      -17.717200   1.000000
    2      -16.855402   1.000000
    3      -16.790276   1.000000
    4      -16.590542   1.000000
    5      -16.474364   1.000000
    6      -16.432747   1.000000
    7      -16.317947   1.000000
    8      -16.254629   1.000000
    9      -16.136106   1.000000
   10      -16.035977   1.000000
   11      -15.997539   1.000000
   12      -15.914475   1.000000
   13      -15.809930   1.000000
   14      -15.751734   1.000000
   15      -15.634112   1.000000
   16      -15.577658   1.000000
   17      -15.386013   1.000000
   18      -15.345573   1.000000
   19       -9.351085   1.000000
   20       -9.231084   1.000000
   21       -9.109164   1.000000
   22       -9.034274   1.000000
   23       -8.805324   1.000000
   24       -8.678069   1.000000
   25       -8.628129   1.000000
   26       -8.546170   1.000000
   27       -8.493701   1.000000
   28       -8.413027   1.000000
   29       -8.327894   1.000000
   30       -8.248065   1.000000
   31       -8.131254   1.000000
   32       -8.075162   1.000000
   33       -7.992726   1.000000
   34       -7.828237   1.000000
   35       -7.783325   1.000000
   36       -7.715765   1.000000
   37       -7.582164   1.000000
   38       -7.544849   1.000000
   39       -7.431144   1.000000
   40       -7.336102   1.000000
   41       -7.279059   1.000000
   42       -7.243396   1.000000
   43       -7.125318   1.000000
   44       -7.070349   1.000000
   45       -6.892789   1.000000
   46       -6.806784   1.000000
   47       -6.751103   1.000000
   48       -6.703363   1.000000
   49       -6.624487   1.000000
   50       -6.548502   1.000000
   51       -6.445542   1.000000
   52       -6.327461   1.000000
   53       -6.313051   1.000000
   54       -6.254464   1.000000
   55       -6.138703   1.000000
   56       -6.097372   1.000000
   57       -5.955308   1.000000
   58       -5.865305   1.000000
   59       -5.686605   1.000000
   60       -5.592642   1.000000
   61       -5.526865   1.000000
   62       -5.434462   1.000000
   63       -5.337820   1.000000
   64       -5.299670   1.000000
   65       -5.209612   1.000000
   66       -5.150109   1.000000
   67       -5.082933   1.000000
   68       -5.003584   1.000000
   69       -4.742594   1.000000
   70       -4.646297   1.000000
   71       -4.533340   1.000000
   72       -4.346284   1.000000
   73       -4.286450   1.000000
   74       -4.218671   1.000000
   75       -4.133844   1.000000
   76       -4.006932   0.999999
   77       -3.896821   0.999961
   78       -3.788138   0.999264
   79       -3.618494   0.976180
   80       -3.395415   0.656583
   81       -3.101132   0.046699
   82       -2.823016   0.000134
   83       -2.785029   0.000046
   84       -2.601578   0.000000
   85       -2.515691   0.000000
   86       -2.417575   0.000000
   87       -2.373527   0.000000
   88       -2.328541   0.000000
   89       -2.131816   0.000000
   90       -2.076522   0.000000
   91       -1.685830   0.000000
   92       -1.552950   0.000000
   93       -1.481739   0.000000
   94       -1.368471   0.000000
   95       -1.247888   0.000000
   96       -1.160490   0.000000
   97       -1.073584   0.000000
   98       -0.908371   0.000000
   99       -0.836401   0.000000
  100       -0.794440   0.000000
  101       -0.707538   0.000000
  102       -0.626900   0.000000
  103       -0.604365   0.000000
  104       -0.441151   0.000000
  105       -0.359594   0.000000
  106       -0.169439   0.000000
  107       -0.128470   0.000000
  108        0.003477   0.000000
  109        0.129502   0.000000
  110        0.206212   0.000000
  111        0.389366   0.000000
  112        0.482896   0.000000
  113        0.685526   0.000000
  114        0.961065   0.000000
  115        0.992881   0.000000
  116        1.070156   0.000000
  117        1.233919   0.000000
  118        1.775654   0.000000
  119        1.953545   0.000000
  120        2.258459   0.000000
 
  0.2500000E+00  0.1250000E+00  0.0000000E+00  0.3125000E-01
    1      -17.623710   1.000000
    2      -17.029992   1.000000
    3      -16.899957   1.000000
    4      -16.570180   1.000000
    5      -16.488509   1.000000
    6      -16.420034   1.000000
    7      -16.284183   1.000000
    8      -16.206919   1.000000
    9      -16.130625   1.000000
   10      -15.984867   1.000000
   11      -15.975712   1.000000
   12      -15.883554   1.000000
   13      -15.793190   1.000000
   14      -15.720723   1.000000
   15      -15.630653   1.000000
   16      -15.585311   1.000000
   17      -15.408382   1.000000
   18      -15.356014   1.000000
   19       -9.549882   1.000000
   20       -9.372446   1.000000
   21       -9.230100   1.000000
   22       -9.020212   1.000000
   23       -8.849137   1.000000
   24       -8.707061   1.000000
   25       -8.584376   1.000000
   26       -8.456541   1.000000
   27       -8.395282   1.000000
   28       -8.355292   1.000000
   29       -8.335560   1.000000
   30       -8.245479   1.000000
   31       -8.134275   1.000000
   32       -8.072458   1.000000
   33       -7.968511   1.000000
   34       -7.906274   1.000000
   35       -7.816170   1.000000
   36       -7.655291   1.000000
   37       -7.453847   1.000000
   38       -7.400976   1.000000
   39       -7.349342   1.000000
   40       -7.303875   1.000000
   41       -7.221209   1.000000
   42       -7.169835   1.000000
   43       -7.096709   1.000000
   44       -6.995382   1.000000
   45       -6.902181   1.000000
   46       -6.811096   1.000000
   47       -6.750833   1.000000