       N       E                     dE             d eps       ncg     rms          rms(c)
DAV:   1     0.112577342981E+04    0.11258E+04   -0.35983E+04  8160   0.577E+02
DAV:   2    -0.195821474352E+01   -0.11277E+04   -0.10874E+04 11200   0.173E+02
DAV:   3    -0.199645993552E+03   -0.19769E+03   -0.18982E+03 10880   0.820E+01
DAV:   4    -0.209011038185E+03   -0.93650E+01   -0.90880E+01 12320   0.263E+01
DAV:   5    -0.209312113272E+03   -0.30108E+00   -0.30021E+00 11440   0.338E+00    0.275E+01
DAV:   6    -0.237175358185E+03   -0.27863E+02   -0.10612E+02 12560   0.604E+01    0.594E+01
DAV:   7    -0.196493538262E+03    0.40682E+02   -0.17636E+02 13320   0.152E+02    0.201E+01
DAV:   8    -0.189442078942E+03    0.70515E+01   -0.17478E+01 11800   0.127E+01    0.125E+01
DAV:   9    -0.188236303477E+03    0.12058E+01   -0.35811E+00 12360   0.614E+00    0.931E+00
DAV:  10    -0.187081059200E+03    0.11552E+01   -0.20109E+00 13400   0.736E+00    0.318E+00
DAV:  11    -0.187032957050E+03    0.48102E-01   -0.72279E-01 13560   0.322E+00    0.345E+00
DAV:  12    -0.187174142624E+03   -0.14119E+00   -0.11434E+00 12840   0.556E+00    0.483E+00
DAV:  13    -0.186930141488E+03    0.24400E+00   -0.48741E-01 13400   0.356E+00    0.218E+00
DAV:  14    -0.186880659908E+03    0.49482E-01   -0.11189E-01 13560   0.163E+00    0.665E-01
DAV:  15    -0.186879421394E+03    0.12385E-02   -0.29674E-02 12520   0.927E-01    0.930E-01
DAV:  16    -0.186875050565E+03    0.43708E-02   -0.13923E-02 13560   0.661E-01    0.589E-01
DAV:  17    -0.186871465703E+03    0.35849E-02   -0.97459E-03 12720   0.524E-01    0.217E-01
DAV:  18    -0.186871297391E+03    0.16831E-03   -0.20718E-03 11680   0.147E-01    0.156E-01
DAV:  19    -0.186870937437E+03    0.35995E-03   -0.91584E-04 11320   0.104E-01    0.506E-02
DAV:  20    -0.186871660107E+03   -0.72267E-03   -0.70428E-04  9120   0.610E-02    0.544E-02
DAV:  21    -0.186872211512E+03   -0.55140E-03   -0.22632E-04  8280   0.450E-02    0.332E-02
DAV:  22    -0.186873410607E+03   -0.11991E-02   -0.20237E-04  7640   0.445E-02    0.328E-02
DAV:  23    -0.186874638936E+03   -0.12283E-02   -0.13023E-04  7600   0.402E-02    0.108E-02
DAV:  24    -0.186875229234E+03   -0.59030E-03   -0.25894E-05  6680   0.130E-02    0.863E-03
DAV:  25    -0.186875608155E+03   -0.37892E-03   -0.15035E-05  5640   0.123E-02    0.479E-03
DAV:  26    -0.186875832647E+03   -0.22449E-03   -0.88349E-06  6800   0.707E-03    0.216E-03
DAV:  27    -0.186875930462E+03   -0.97815E-04   -0.37181E-06  7160   0.419E-03
   1 F= -.18687593E+03 E0= -.18670432E+03  d E =-.186876E+03
       N       E                     dE             d eps       ncg     rms          rms(c)
DAV:   1    -0.187499217364E+03   -0.62338E+00   -0.27012E+02  8160   0.349E+01    0.461E+00
DAV:   2    -0.189360536963E+03   -0.18613E+01   -0.20034E+01 12240   0.151E+01    0.864E+00
DAV:   3    -0.189378909757E+03   -0.18373E-01   -0.42587E+00 12400   0.121E+01    0.660E+00
DAV:   4    -0.188755544745E+03    0.62337E+00   -0.59402E-01 12440   0.458E+00    0.167E+00
DAV:   5    -0.188798755233E+03   -0.43210E-01   -0.34344E-01 11600   0.265E+00    0.359E+00
DAV:   6    -0.188762694122E+03    0.36061E-01   -0.52523E-01 12800   0.407E+00    0.309E+00
DAV:   7    -0.188689902863E+03    0.72791E-01   -0.20233E-01 12760   0.203E+00    0.108E+00
DAV:   8    -0.188674767717E+03    0.15135E-01   -0.55083E-02 11680   0.954E-01    0.890E-01
DAV:   9    -0.188669846266E+03    0.49215E-02   -0.16632E-02 12200   0.746E-01    0.507E-01
DAV:  10    -0.188668290901E+03    0.15554E-02   -0.50868E-03 13360   0.356E-01    0.247E-01
DAV:  11    -0.188667652234E+03    0.63867E-03   -0.28756E-03 12760   0.209E-01    0.132E-01
DAV:  12    -0.188667632738E+03    0.19497E-04   -0.98549E-04 11560   0.938E-02
   2 F= -.18866763E+03 E0= -.18852785E+03  d E =-.179170E+01
       N       E                     dE             d eps       ncg     rms          rms(c)
DAV:   1    -0.190584432953E+03   -0.19168E+01   -0.30813E+01  9200   0.141E+01    0.445E+00
DAV:   2    -0.190564608411E+03    0.19825E-01   -0.28024E+00 11080   0.964E+00    0.738E+00
DAV:   3    -0.190059728850E+03    0.50488E+00   -0.13016E+00 12280   0.865E+00    0.416E+00
DAV:   4    -0.189854015654E+03    0.20571E+00   -0.68785E-01 12720   0.413E+00    0.248E+00
DAV:   5    -0.189787979511E+03    0.66036E-01   -0.30948E-01 11040   0.234E+00    0.194E+00
DAV:   6    -0.189758174538E+03    0.29805E-01   -0.10374E-01 12640   0.192E+00    0.868E-01
DAV:   7    -0.189750332598E+03    0.78419E-02   -0.15438E-02 12520   0.605E-01    0.193E-01
DAV:   8    -0.189750337861E+03   -0.52630E-05   -0.26123E-03 11120   0.163E-01    0.139E-01
DAV:   9    -0.189750948172E+03   -0.61031E-03   -0.14177E-03 10560   0.241E-01    0.257E-01
DAV:  10    -0.189750746616E+03    0.20156E-03   -0.15006E-03 10560   0.268E-01    0.155E-01
DAV:  11    -0.189750455442E+03    0.29117E-03   -0.51184E-04  8720   0.114E-01    0.291E-02
DAV:  12    -0.189750471857E+03   -0.16415E-04   -0.84448E-05  6680   0.328E-02
   3 F= -.18975047E+03 E0= -.18963307E+03  d E =-.108284E+01
       N       E                     dE             d eps       ncg     rms          rms(c)
DAV:   1    -0.191287360279E+03   -0.15369E+01   -0.70373E+01  8160   0.192E+01    0.459E+00
DAV:   2    -0.191179342033E+03    0.10802E+00   -0.53557E+00 13400   0.835E+00    0.518E+00
DAV:   3    -0.191227800389E+03   -0.48458E-01   -0.15663E+00 11680   0.918E+00    0.684E+00
DAV:   4    -0.190904192438E+03    0.32361E+00   -0.15579E+00 12520   0.784E+00    0.412E+00
DAV:   5    -0.190890885576E+03    0.13307E-01   -0.87111E-01 11200   0.587E+00    0.359E+00
DAV:   6    -0.190708654364E+03    0.18223E+00   -0.20534E-01 11280   0.295E+00    0.604E-01
DAV:   7    -0.190707040875E+03    0.16135E-02   -0.36939E-02 11360   0.693E-01    0.451E-01
DAV:   8    -0.190703653410E+03    0.33875E-02   -0.72654E-03 10200   0.354E-01    0.166E-01
DAV:   9    -0.190704271358E+03   -0.61795E-03   -0.19652E-03 12320   0.294E-01    0.265E-01
DAV:  10    -0.190703991346E+03    0.28001E-03   -0.15897E-03 10960   0.274E-01    0.122E-01
DAV:  11    -0.190703851160E+03    0.14019E-03   -0.59560E-04 10200   0.107E-01    0.451E-02
DAV:  12    -0.190703858851E+03   -0.76906E-05   -0.13523E-04  7280   0.441E-02
   4 F= -.19070386E+03 E0= -.19060529E+03  d E =-.953387E+00
       N       E                     dE             d eps       ncg     rms          rms(c)
DAV:   1    -0.192124306539E+03   -0.14205E+01   -0.15158E+02  8160   0.276E+01    0.586E+00
DAV:   2    -0.191967670490E+03    0.15664E+00   -0.99428E+00 12200   0.959E+00    0.556E+00
DAV:   3    -0.192424188040E+03   -0.45652E+00   -0.33671E+00 12240   0.127E+01    0.948E+00
DAV:   4    -0.191545424027E+03    0.87876E+00   -0.22182E+00 12280   0.107E+01    0.305E+00
DAV:   5    -0.191517404646E+03    0.28019E-01   -0.55773E-01 11800   0.496E+00    0.422E+00
DAV:   6    -0.191375479988E+03    0.14192E+00   -0.61098E-01 12200   0.522E+00    0.161E+00
DAV:   7    -0.191350320399E+03    0.25160E-01   -0.72071E-02 11920   0.146E+00    0.694E-01
DAV:   8    -0.191348871303E+03    0.14491E-02   -0.25162E-02 12080   0.112E+00    0.762E-01
DAV:   9    -0.191343168873E+03    0.57024E-02   -0.10121E-02 11440   0.757E-01    0.233E-01
DAV:  10    -0.191343291309E+03   -0.12244E-03   -0.28238E-03 11640   0.227E-01    0.116E-01
DAV:  11    -0.191343164166E+03    0.12714E-03   -0.86595E-04 10720   0.108E-01    0.657E-02
DAV:  12    -0.191343125108E+03    0.39058E-04   -0.14273E-04  7200   0.484E-02
   5 F= -.19134313E+03 E0= -.19124969E+03  d E =-.639266E+00
       N       E                     dE             d eps       ncg     rms          rms(c)
DAV:   1    -0.191395178123E+03   -0.52014E-01   -0.47215E+00  8160   0.460E+00    0.639E-01
DAV:   2    -0.191456177809E+03   -0.61000E-01   -0.25261E-01 12480   0.267E+00    0.233E+00
DAV:   3    -0.191406372140E+03    0.49806E-01   -0.12247E-01 11960   0.234E+00    0.563E-01
DAV:   4    -0.191406601032E+03   -0.22889E-03   -0.16354E-02 11480   0.866E-01    0.603E-01
DAV:   5    -0.191402850181E+03    0.37509E-02   -0.74584E-03 11440   0.634E-01    0.195E-01
DAV:   6    -0.191402869207E+03   -0.19026E-04   -0.23407E-03 11440   0.297E-01    0.225E-01
DAV:   7    -0.191402894166E+03   -0.24959E-04   -0.25909E-03 11680   0.383E-01    0.220E-01
DAV:   8    -0.191402336069E+03    0.55810E-03   -0.93680E-04 10040   0.208E-01    0.311E-02
DAV:   9    -0.191402349601E+03   -0.13533E-04   -0.91274E-05  6080   0.376E-02
   6 F= -.19140235E+03 E0= -.19130652E+03  d E =-.592245E-01
       N       E                     dE             d eps       ncg     rms          rms(c)
DAV:   1    -0.191464358640E+03   -0.62023E-01   -0.80989E+00  8160   0.601E+00    0.801E-01
DAV:   2    -0.191561150930E+03   -0.96792E-01   -0.35826E-01 13080   0.327E+00    0.313E+00
DAV:   3    -0.191477391789E+03    0.83759E-01   -0.22945E-01 12080   0.304E+00    0.749E-01
DAV:   4    -0.191476903013E+03    0.48878E-03   -0.26806E-02 11640   0.111E+00    0.756E-01
DAV:   5    -0.191471136193E+03    0.57668E-02   -0.12315E-02 11640   0.792E-01    0.267E-01
DAV:   6    -0.191471255983E+03   -0.11979E-03   -0.45534E-03 11440   0.443E-01    0.334E-01
DAV:   7    -0.191470692198E+03    0.56379E-03   -0.41474E-03 11280   0.485E-01    0.219E-01
DAV:   8    -0.191470104638E+03    0.58756E-03   -0.11109E-03  9920   0.214E-01    0.392E-02
DAV:   9    -0.191470097080E+03    0.75580E-05   -0.12734E-04  6720   0.462E-02
   7 F= -.19147010E+03 E0= -.19137229E+03  d E =-.677475E-01
       N       E                     dE             d eps       ncg     rms          rms(c)
DAV:   1    -0.191503735025E+03   -0.33630E-01   -0.21600E+00  8160   0.314E+00    0.449E-01
DAV:   2    -0.191532546167E+03   -0.28811E-01   -0.11056E-01 12760   0.191E+00    0.167E+00
DAV:   3    -0.191506930319E+03    0.25616E-01   -0.59196E-02 12160   0.162E+00    0.378E-01
DAV:   4    -0.191507376430E+03   -0.44611E-03   -0.83307E-03 11520   0.625E-01    0.447E-01
DAV:   5    -0.191505392041E+03    0.19844E-02   -0.44388E-03 11320   0.468E-01    0.161E-01
DAV:   6    -0.191505488260E+03   -0.96219E-04   -0.17318E-03  9880   0.279E-01    0.205E-01
DAV:   7    -0.191505198624E+03    0.28964E-03   -0.14094E-03  9840   0.279E-01    0.110E-01
DAV:   8    -0.191505040810E+03    0.15781E-03   -0.30449E-04  7520   0.109E-01    0.234E-02
DAV:   9    -0.191505037472E+03    0.33377E-05   -0.54229E-05  6960   0.302E-02
   8 F= -.19150504E+03 E0= -.19140682E+03  d E =-.349404E-01
       N       E                     dE             d eps       ncg     rms          rms(c)
DAV:   1    -0.191557672304E+03   -0.52631E-01   -0.59238E+00  8160   0.519E+00    0.646E-01
DAV:   2    -0.191610929582E+03   -0.53257E-01   -0.23710E-01 13040   0.249E+00    0.226E+00
DAV:   3    -0.191567527005E+03    0.43403E-01   -0.12143E-01 12280   0.224E+00    0.589E-01
DAV:   4    -0.191568433942E+03   -0.90694E-03   -0.18231E-02 11480   0.913E-01    0.687E-01
DAV:   5    -0.191563660984E+03    0.47730E-02   -0.10249E-02 11240   0.729E-01    0.247E-01
DAV:   6    -0.191563641643E+03    0.19341E-04   -0.33938E-03 11520   0.382E-01    0.268E-01
DAV:   7    -0.191563413157E+03    0.22849E-03   -0.30433E-03 11200   0.427E-01    0.207E-01
DAV:   8    -0.191562830944E+03    0.58221E-03   -0.93335E-04  9640   0.213E-01    0.335E-02
DAV:   9    -0.191562828954E+03    0.19902E-05   -0.10086E-04  6760   0.405E-02
   9 F= -.19156283E+03 E0= -.19146584E+03  d E =-.577915E-01
       N       E                     dE             d eps       ncg     rms          rms(c)
DAV:   1    -0.191555900053E+03    0.69309E-02   -0.11092E-01  8160   0.709E-01    0.881E-02
DAV:   2    -0.191556767536E+03   -0.86748E-03   -0.42024E-03 12560   0.306E-01    0.277E-01
DAV:   3    -0.191556013856E+03    0.75368E-03   -0.17746E-03  9720   0.294E-01    0.796E-02
DAV:   4    -0.191555993334E+03    0.20521E-04   -0.22336E-04  5960   0.894E-02
  10 F= -.19155599E+03 E0= -.19145864E+03  d E =0.683562E-02
       N       E                     dE             d eps       ncg     rms          rms(c)
DAV:   1    -0.191558770543E+03   -0.27567E-02   -0.20032E-02  8160   0.321E-01    0.693E-02
DAV:   2    -0.191559052070E+03   -0.28153E-03   -0.15204E-03 10560   0.208E-01    0.181E-01
DAV:   3    -0.191558713307E+03    0.33876E-03   -0.78750E-04  9240   0.206E-01    0.603E-02
DAV:   4    -0.191558729544E+03   -0.16237E-04   -0.20025E-04  6480   0.994E-02
  11 F= -.19155873E+03 E0= -.19146176E+03  d E =-.273621E-02
       N       E                     dE             d eps       ncg     rms          rms(c)
DAV:   1    -0.191579993206E+03   -0.21280E-01   -0.74751E-01  8160   0.189E+00    0.268E-01
DAV:   2    -0.191582813607E+03   -0.28204E-02   -0.28712E-02 13440   0.700E-01    0.530E-01
DAV:   3    -0.191580839529E+03    0.19741E-02   -0.10310E-02 11600   0.679E-01    0.313E-01
DAV:   4    -0.191580450825E+03    0.38870E-03   -0.39897E-03 11560   0.411E-01    0.280E-01
DAV:   5    -0.191579748356E+03    0.70247E-03   -0.21661E-03  9720   0.346E-01    0.138E-01
DAV:   6    -0.191579559795E+03    0.18856E-03   -0.86182E-04  9800   0.168E-01    0.713E-02
DAV:   7    -0.191579560062E+03   -0.26698E-06   -0.35994E-04  8120   0.133E-01
  12 F= -.19157956E+03 E0= -.19148295E+03  d E =-.208305E-01
       N       E                     dE             d eps       ncg     rms          rms(c)
DAV:   1    -0.191605787904E+03   -0.26228E-01   -0.12600E+00  8160   0.240E+00    0.279E-01
DAV:   2    -0.191612543004E+03   -0.67551E-02   -0.42660E-02 12760   0.850E-01    0.708E-01
DAV:   3    -0.191607914136E+03    0.46289E-02   -0.14613E-02 12280   0.853E-01    0.287E-01
DAV:   4    -0.191607552831E+03    0.36131E-03   -0.28267E-03 10920   0.316E-01    0.231E-01
DAV:   5    -0.191607235040E+03    0.31779E-03   -0.20438E-03  9840   0.317E-01    0.175E-01
DAV:   6    -0.191606992489E+03    0.24255E-03   -0.89822E-04  9440   0.181E-01    0.732E-02
DAV:   7    -0.191606988014E+03    0.44750E-05   -0.31709E-04  8440   0.115E-01
  13 F= -.19160699E+03 E0= -.19151240E+03  d E =-.274280E-01
       N       E                     dE             d eps       ncg     rms          rms(c)
DAV:   1    -0.191637807779E+03   -0.30815E-01   -0.15950E+00  8160   0.270E+00    0.279E-01
DAV:   2    -0.191642126598E+03   -0.43188E-02   -0.47374E-02 11800   0.699E-01    0.439E-01
DAV:   3    -0.191641701654E+03    0.42494E-03   -0.11279E-02 12320   0.705E-01    0.418E-01
DAV:   4    -0.191640224547E+03    0.14771E-02   -0.36680E-03 11840   0.394E-01    0.177E-01
DAV:   5    -0.191640059571E+03    0.16498E-03   -0.14333E-03  9960   0.267E-01    0.170E-01
DAV:   6    -0.191639921418E+03    0.13815E-03   -0.11534E-03 10440   0.237E-01    0.110E-01
DAV:   7    -0.191639849427E+03    0.71990E-04   -0.42569E-04  8320   0.146E-01
  14 F= -.19163985E+03 E0= -.19154765E+03  d E =-.328614E-01
       N       E                     dE             d eps       ncg     rms          rms(c)
DAV:   1    -0.191593619069E+03    0.46302E-01   -0.28537E+00  8160   0.361E+00    0.374E-01
DAV:   2    -0.191599813575E+03   -0.61945E-02   -0.83505E-02 12240   0.861E-01    0.426E-01
DAV:   3    -0.191600444025E+03   -0.63045E-03   -0.13867E-02 12240   0.821E-01    0.570E-01
DAV:   4    -0.191597984292E+03    0.24597E-02   -0.91159E-03 11880   0.617E-01    0.320E-01
DAV:   5    -0.191597221629E+03    0.76266E-03   -0.32245E-03 11000   0.405E-01    0.212E-01
DAV:   6    -0.191596945901E+03    0.27573E-03   -0.18130E-03 11000   0.287E-01    0.122E-01
DAV:   7    -0.191596809948E+03    0.13595E-03   -0.72237E-04 11040   0.163E-01    0.952E-02
DAV:   8    -0.191596721175E+03    0.88772E-04   -0.25638E-04  7920   0.120E-01
  15 F= -.19159672E+03 E0= -.19150153E+03  d E =0.431283E-01
       N       E                     dE             d eps       ncg     rms          rms(c)
DAV:   1    -0.191553433471E+03    0.43376E-01   -0.35984E+00  8160   0.406E+00    0.415E-01
DAV:   2    -0.191560863590E+03   -0.74301E-02   -0.10510E-01 12200   0.902E-01    0.380E-01
DAV:   3    -0.191561789908E+03   -0.92632E-03   -0.13478E-02 12440   0.779E-01    0.559E-01
DAV:   4    -0.191558984914E+03    0.28050E-02   -0.74945E-03 12200   0.682E-01    0.273E-01
DAV:   5    -0.191558204693E+03    0.78022E-03   -0.25799E-03 11360   0.324E-01    0.184E-01
DAV:   6    -0.191558640316E+03   -0.43562E-03   -0.27407E-03 11280   0.377E-01    0.268E-01
DAV:   7    -0.191558051779E+03    0.58854E-03   -0.17622E-03  9840   0.284E-01    0.148E-01
DAV:   8    -0.191557855761E+03    0.19602E-03   -0.43885E-04  8000   0.146E-01    0.328E-02
DAV:   9    -0.191557854747E+03    0.10134E-05   -0.47698E-05  6720   0.349E-02
  16 F= -.19155785E+03 E0= -.19146115E+03  d E =0.388664E-01
       N       E                     dE             d eps       ncg     rms          rms(c)
DAV:   1    -0.191569172816E+03   -0.11317E-01   -0.10240E+00  8160   0.218E+00    0.281E-01
DAV:   2    -0.191579741158E+03   -0.10568E-01   -0.43811E-02 13600   0.106E+00    0.100E+00
DAV:   3    -0.191570765682E+03    0.89755E-02   -0.19882E-02 11840   0.963E-01    0.230E-01
DAV:   4    -0.191571178763E+03   -0.41308E-03   -0.28636E-03 10840   0.365E-01    0.304E-01
DAV:   5    -0.191570265680E+03    0.91308E-03   -0.20241E-03  9600   0.342E-01    0.107E-01
DAV:   6    -0.191570277055E+03   -0.11375E-04   -0.61705E-04 10200   0.138E-01
  17 F= -.19157028E+03 E0= -.19147512E+03  d E =-.124223E-01
       N       E                     dE             d eps       ncg     rms          rms(c)
DAV:   1    -0.191596926817E+03   -0.26661E-01   -0.18045E+00  8160   0.291E+00    0.368E-01
DAV:   2    -0.191608014659E+03   -0.11088E-01   -0.70947E-02 13280   0.116E+00    0.101E+00
DAV:   3    -0.191600084050E+03    0.79306E-02   -0.26905E-02 12000   0.108E+00    0.381E-01
DAV:   4    -0.191599402094E+03    0.68196E-03   -0.55070E-03 11200   0.455E-01    0.320E-01
DAV:   5    -0.191598562656E+03    0.83944E-03   -0.34329E-03 10720   0.433E-01    0.208E-01
DAV:   6    -0.191598192922E+03    0.36973E-03   -0.14909E-03  9640   0.241E-01    0.990E-02
DAV:   7    -0.191598156992E+03    0.35931E-04   -0.61771E-04 10560   0.156E-01
  18 F= -.19159816E+03 E0= -.19150384E+03  d E =-.278799E-01
       N       E                     dE             d eps       ncg     rms          rms(c)
DAV:   1    -0.191647871062E+03   -0.49678E-01   -0.30901E+01  8160   0.120E+01    0.147E+00
DAV:   2    -0.191945105581E+03   -0.29723E+00   -0.12510E+00 12680   0.552E+00    0.605E+00
DAV:   3    -0.191713690524E+03    0.23142E+00   -0.79111E-01 12080   0.527E+00    0.136E+00
DAV:   4    -0.191718730653E+03   -0.50401E-02   -0.92556E-02 11080   0.231E+00    0.163E+00
DAV:   5    -0.191686704957E+03    0.32026E-01   -0.46740E-02 11160   0.179E+00    0.479E-01
DAV:   6    -0.191686761552E+03   -0.56595E-04   -0.14007E-02 12720   0.629E-01    0.453E-01
DAV:   7    -0.191685439821E+03    0.13217E-02   -0.95273E-03 12400   0.783E-01    0.401E-01
DAV:   8    -0.191683325031E+03    0.21148E-02   -0.31195E-03 11600   0.459E-01    0.715E-02
DAV:   9    -0.191683294594E+03    0.30437E-04   -0.50596E-04 10680   0.924E-02
  19 F= -.19168329E+03 E0= -.19159771E+03  d E =-.851376E-01
       N       E                     dE             d eps       ncg     rms          rms(c)
DAV:   1    -0.191679392002E+03    0.39330E-02   -0.19730E+00  8160   0.301E+00    0.354E-01
DAV:   2    -0.191691747592E+03   -0.12356E-01   -0.59937E-02 13160   0.123E+00    0.103E+00
DAV:   3    -0.191681201254E+03    0.10546E-01   -0.20225E-02 12440   0.112E+00    0.286E-01
DAV:   4    -0.191681380034E+03   -0.17878E-03   -0.38236E-03 11400   0.395E-01    0.329E-01
DAV:   5    -0.191680491817E+03    0.88822E-03   -0.31439E-03 10760   0.426E-01    0.177E-01
DAV:   6    -0.191680280947E+03    0.21087E-03   -0.11516E-03  9600   0.207E-01    0.985E-02
DAV:   7    -0.191680244274E+03    0.36674E-04   -0.48335E-04 10080   0.177E-01
  20 F= -.19168024E+03 E0= -.19159299E+03  d E =0.305032E-02
       N       E                     dE             d eps       ncg     rms          rms(c)
DAV:   1    -0.191701575402E+03   -0.21294E-01   -0.20397E+00  8160   0.305E+00    0.336E-01
DAV:   2    -0.191712883058E+03   -0.11308E-01   -0.69121E-02 12800   0.113E+00    0.968E-01
DAV:   3    -0.191705390757E+03    0.74923E-02   -0.21241E-02 11960   0.101E+00    0.320E-01
DAV:   4    -0.191705031074E+03    0.35968E-03   -0.34150E-03 11200   0.397E-01    0.286E-01
DAV:   5    -0.191704252099E+03    0.77898E-03   -0.22060E-03 10520   0.385E-01    0.146E-01
DAV:   6    -0.191704175458E+03    0.76641E-04   -0.10092E-03 10520   0.181E-01    0.876E-02
DAV:   7    -0.191704029713E+03    0.14575E-03   -0.37815E-04  7880   0.103E-01    0.393E-02
DAV:   8    -0.191704020375E+03    0.93373E-05   -0.76402E-05  7960   0.739E-02
  21 F= -.19170402E+03 E0= -.19161889E+03  d E =-.237761E-01
       N       E                     dE             d eps       ncg     rms          rms(c)
DAV:   1    -0.191717283547E+03   -0.13254E-01   -0.60060E-01  8160   0.165E+00    0.164E-01
DAV:   2    -0.191718320511E+03   -0.10370E-02   -0.15716E-02 12080   0.373E-01    0.167E-01
DAV:   3    -0.191718608455E+03   -0.28794E-03   -0.25267E-03 11960   0.368E-01    0.242E-01
DAV:   4    -0.191718034050E+03    0.57441E-03   -0.12587E-03  9880   0.274E-01    0.980E-02
DAV:   5    -0.191718084875E+03   -0.50826E-04   -0.57576E-04  8280   0.169E-01
  22 F= -.19171808E+03 E0= -.19163471E+03  d E =-.140645E-01
       N       E                     dE             d eps       ncg     rms          rms(c)
DAV:   1    -0.191674416678E+03    0.43617E-01   -0.77939E+00  8160   0.601E+00    0.607E-01
DAV:   2    -0.191688495894E+03   -0.14079E-01   -0.20350E-01 12560   0.135E+00    0.673E-01
DAV:   3    -0.191691333223E+03   -0.28373E-02   -0.38233E-02 12360   0.135E+00    0.943E-01
DAV:   4    -0.191684156546E+03    0.71767E-02   -0.20526E-02 12240   0.104E+00    0.456E-01
DAV:   5    -0.191683188680E+03    0.96787E-03   -0.75403E-03 11120   0.652E-01    0.439E-01
DAV:   6    -0.191681978664E+03    0.12100E-02   -0.57802E-03 11640   0.588E-01    0.242E-01
DAV:   7    -0.191681229967E+03    0.74870E-03   -0.16414E-03 11720   0.248E-01    0.660E-02
DAV:   8    -0.191681187420E+03    0.42547E-04   -0.26678E-04  8160   0.108E-01
  23 F= -.19168119E+03 E0= -.19159545E+03  d E =0.368975E-01
       N       E                     dE             d eps       ncg     rms          rms(c)
DAV:   1    -0.191675694010E+03    0.55360E-02   -0.15970E+00  8160   0.274E+00    0.302E-01
DAV:   2    -0.191678862302E+03   -0.31683E-02   -0.42380E-02 12800   0.668E-01    0.415E-01
DAV:   3    -0.191678900424E+03   -0.38123E-04   -0.82406E-03 12160   0.710E-01    0.434E-01
DAV:   4    -0.191677372219E+03    0.15282E-02   -0.34567E-03 12000   0.436E-01    0.219E-01
DAV:   5    -0.191677184287E+03    0.18793E-03   -0.19624E-03 10040   0.343E-01    0.205E-01
DAV:   6    -0.191676938300E+03    0.24599E-03   -0.12975E-03  9600   0.269E-01    0.107E-01
DAV:   7    -0.191676808690E+03    0.12961E-03   -0.41350E-04  9120   0.139E-01    0.723E-02
DAV:   8    -0.191676748793E+03    0.59897E-04   -0.11316E-04  7120   0.973E-02
  24 F= -.19167675E+03 E0= -.19159218E+03  d E =0.443863E-02
       N       E                     dE             d eps       ncg     rms          rms(c)
DAV:   1    -0.191692015938E+03   -0.15207E-01   -0.13411E+00  8160   0.250E+00    0.301E-01
DAV:   2    -0.191699773046E+03   -0.77571E-02   -0.47270E-02 13200   0.962E-01    0.810E-01
DAV:   3    -0.191694357092E+03    0.54160E-02   -0.13096E-02 11960   0.873E-01    0.276E-01
DAV:   4    -0.191694223759E+03    0.13333E-03   -0.26004E-03 11160   0.368E-01    0.272E-01
DAV:   5    -0.191693512216E+03    0.71154E-03   -0.18798E-03 10080   0.363E-01    0.130E-01
DAV:   6    -0.191693434010E+03    0.78205E-04   -0.72629E-04 10320   0.161E-01
  25 F= -.19169343E+03 E0= -.19161105E+03  d E =-.166852E-01
       N       E                     dE             d eps       ncg     rms          rms(c)
DAV:   1    -0.191691533916E+03    0.19783E-02   -0.14034E-01  8160   0.818E-01    0.105E-01
DAV:   2    -0.191692312059E+03   -0.77814E-03   -0.50169E-03 12840   0.341E-01    0.237E-01
DAV:   3    -0.191691650614E+03    0.66145E-03   -0.12752E-03 10080   0.292E-01    0.662E-02
DAV:   4    -0.191691639692E+03    0.10921E-04   -0.19346E-04  6120   0.988E-02
  26 F= -.19169164E+03 E0= -.19160893E+03  d E =0.179432E-02
       N       E                     dE             d eps       ncg     rms          rms(c)
DAV:   1    -0.191704103798E+03   -0.12453E-01   -0.96025E-01  8160   0.209E+00    0.219E-01
DAV:   2    -0.191706929183E+03   -0.28254E-02   -0.26666E-02 13200   0.593E-01    0.410E-01
DAV:   3    -0.191705904583E+03    0.10246E-02   -0.55041E-03 11280   0.549E-01    0.273E-01
DAV:   4    -0.191705427203E+03    0.47738E-03   -0.17306E-03  9960   0.299E-01    0.174E-01
DAV:   5    -0.191705158628E+03    0.26858E-03   -0.86396E-04 10000   0.242E-01    0.105E-01
DAV:   6    -0.191705110898E+03    0.47729E-04   -0.49707E-04  9200   0.157E-01
  27 F= -.19170511E+03 E0= -.19162358E+03  d E =-.134712E-01
       N       E                     dE             d eps       ncg     rms          rms(c)
DAV:   1    -0.191679537461E+03    0.25621E-01   -0.32952E+00  8160   0.386E+00    0.382E-01
DAV:   2    -0.191686898994E+03   -0.73615E-02   -0.82060E-02 12360   0.948E-01    0.569E-01
DAV:   3    -0.191685600726E+03    0.12983E-02   -0.14039E-02 12240   0.935E-01    0.505E-01
DAV:   4    -0.191683662053E+03    0.19387E-02   -0.52050E-03 11520   0.530E-01    0.303E-01
DAV:   5    -0.191683239836E+03    0.42222E-03   -0.31767E-03 10520   0.439E-01    0.241E-01
DAV:   6    -0.191682883788E+03    0.35605E-03   -0.18816E-03 11120   0.286E-01    0.132E-01
DAV:   7    -0.191682794957E+03    0.88831E-04   -0.79526E-04 10360   0.215E-01
  28 F= -.19168279E+03 E0= -.19159890E+03  d E =0.223159E-01
       N       E                     dE             d eps       ncg     rms          rms(c)
DAV:   1    -0.191682085517E+03    0.79827E-03   -0.60570E-02  8160   0.541E-01    0.667E-02
DAV:   2    -0.191682182605E+03   -0.97087E-04   -0.18062E-03 12280   0.122E-01    0.632E-02
DAV:   3    -0.191682159060E+03    0.23545E-04   -0.29937E-04  9000   0.118E-01
  29 F= -.19168216E+03 E0= -.19159844E+03  d E =0.635897E-03
       N       E                     dE             d eps       ncg     rms          rms(c)
DAV:   1    -0.191693636148E+03   -0.11454E-01   -0.78510E-01  8160   0.192E+00    0.216E-01
DAV:   2    -0.191695442173E+03   -0.18060E-02   -0.24983E-02 12920   0.487E-01    0.262E-01
DAV:   3    -0.191695773094E+03   -0.33092E-03   -0.40488E-03 11880   0.495E-01    0.337E-01
DAV:   4    -0.191694754928E+03    0.10182E-02   -0.17770E-03 10280   0.335E-01    0.137E-01
DAV:   5    -0.191694694442E+03    0.60485E-04   -0.89007E-04  9560   0.223E-01
  30 F= -.19169469E+03 E0= -.19161222E+03  d E =-.125354E-01
       N       E                     dE             d eps       ncg     rms          rms(c)
DAV:   1    -0.191688537501E+03    0.62174E-02   -0.23806E-01  8160   0.109E+00    0.163E-01
DAV:   2    -0.191692281427E+03   -0.37439E-02   -0.12970E-02 12560   0.685E-01    0.574E-01
DAV:   3    -0.191688789539E+03    0.34919E-02   -0.61826E-03 11280   0.618E-01    0.131E-01
DAV:   4    -0.191688744423E+03    0.45116E-04   -0.68837E-04  8640   0.173E-01
  31 F= -.19168874E+03 E0= -.19160622E+03  d E =0.595002E-02
       N       E                     dE             d eps       ncg     rms          rms(c)
DAV:   1    -0.191697701058E+03   -0.89115E-02   -0.62631E-01  8160   0.169E+00    0.184E-01
DAV:   2    -0.191699464361E+03   -0.17633E-02   -0.19455E-02 13520   0.551E-01    0.274E-01
DAV:   3    -0.191698725445E+03    0.73892E-03   -0.32270E-03 11200   0.449E-01    0.180E-01
DAV:   4    -0.191698474591E+03    0.25085E-03   -0.99891E-04 10160   0.254E-01    0.127E-01
DAV:   5    -0.191698389944E+03    0.84647E-04   -0.54372E-04  8720   0.179E-01
  32 F= -.19169839E+03 E0= -.19161712E+03  d E =-.964552E-02
       N       E                     dE             d eps       ncg     rms          rms(c)
DAV:   1    -0.191698519193E+03   -0.44602E-04   -0.65635E-02  8160   0.608E-01    0.108E-01
DAV:   2    -0.191699750652E+03   -0.12315E-02   -0.40515E-03 12280   0.378E-01    0.348E-01
DAV:   3    -0.191698490285E+03    0.12604E-02   -0.19289E-03 10040   0.360E-01    0.984E-02
DAV:   4    -0.191698440055E+03    0.50230E-04   -0.36177E-04  8280   0.112E-01
  33 F= -.19169844E+03 E0= -.19161645E+03  d E =-.501107E-04
       N       E                     dE             d eps       ncg     rms          rms(c)
DAV:   1    -0.191711207983E+03   -0.12718E-01   -0.14270E+00  8160   0.254E+00    0.286E-01
DAV:   2    -0.191717342145E+03   -0.61342E-02   -0.43548E-02 12880   0.915E-01    0.634E-01
DAV:   3    -0.191713388329E+03    0.39538E-02   -0.10454E-02 12360   0.843E-01    0.253E-01
DAV:   4    -0.191712889229E+03    0.49910E-03   -0.15697E-03 11120   0.277E-01    0.183E-01
DAV:   5    -0.191712866038E+03    0.23191E-04   -0.13837E-03 10520   0.299E-01    0.188E-01
DAV:   6    -0.191712588659E+03    0.27738E-03   -0.86642E-04  9760   0.200E-01    0.719E-02
DAV:   7    -0.191712549956E+03    0.38703E-04   -0.27016E-04  7880   0.103E-01
  34 F= -.19171255E+03 E0= -.19163244E+03  d E =-.141099E-01
       N       E                     dE             d eps       ncg     rms          rms(c)
DAV:   1    -0.191718494887E+03   -0.59062E-02   -0.34689E-01  8160   0.142E+00    0.316E-01
DAV:   2    -0.191717092914E+03    0.14020E-02   -0.15893E-02 11360   0.531E-01    0.354E-01
DAV:   3    -0.191716834888E+03    0.25803E-03   -0.67326E-03 10840   0.706E-01    0.353E-01
DAV:   4    -0.191715424033E+03    0.14109E-02   -0.37746E-03 11440   0.479E-01    0.200E-01
DAV:   5    -0.191715450564E+03   -0.26531E-04   -0.25127E-03 10440   0.369E-01    0.247E-01
DAV:   6    -0.191714804727E+03    0.64584E-03   -0.11329E-03  9640   0.264E-01    0.712E-02
DAV:   7    -0.191714790733E+03    0.13994E-04   -0.18699E-04  6520   0.106E-01
  35 F= -.19171479E+03 E0= -.19163455E+03  d E =-.224078E-02
       N       E                     dE             d eps       ncg     rms          rms(c)
DAV:   1    -0.191710816962E+03    0.39878E-02   -0.37581E-01  8160   0.131E+00    0.156E-01
DAV:   2    -0.191712530240E+03   -0.17133E-02   -0.13182E-02 12920   0.497E-01    0.318E-01
DAV:   3    -0.191711517578E+03    0.10127E-02   -0.25948E-03 12320   0.419E-01    0.143E-01
DAV:   4    -0.191711462976E+03    0.54601E-04   -0.66083E-04  9000   0.199E-01
  36 F= -.19171146E+03 E0= -.19163110E+03  d E =0.332776E-02
       N       E                     dE             d eps       ncg     rms          rms(c)
DAV:   1    -0.191725228489E+03   -0.13711E-01   -0.82291E-01  8160   0.197E+00    0.219E-01
DAV:   2    -0.191726726453E+03   -0.14980E-02   -0.21787E-02 12520   0.457E-01    0.257E-01
DAV:   3    -0.191726895308E+03   -0.16885E-03   -0.44512E-03 12080   0.507E-01    0.302E-01
DAV:   4    -0.191726040413E+03    0.85490E-03   -0.17066E-03 10160   0.339E-01    0.136E-01
DAV:   5    -0.191726039771E+03    0.64172E-06   -0.83465E-04 10000   0.233E-01
  37 F= -.19172604E+03 E0= -.19164622E+03  d E =-.145768E-01
       N       E                     dE             d eps       ncg     rms          rms(c)
DAV:   1    -0.191725355223E+03    0.68519E-03   -0.51412E-02  8400   0.556E-01    0.116E-01
DAV:   2    -0.191726890004E+03   -0.15348E-02   -0.39923E-03 12240   0.441E-01    0.380E-01
DAV:   3    -0.191725307749E+03    0.15823E-02   -0.21968E-03 10200   0.417E-01    0.109E-01
DAV:   4    -0.191725227120E+03    0.80629E-04   -0.33114E-04  8120   0.127E-01
  38 F= -.19172523E+03 E0= -.19164613E+03  d E =0.812650E-03
       N       E                     dE             d eps       ncg     rms          rms(c)
DAV:   1    -0.191738465675E+03   -0.13158E-01   -0.18386E+00  8160   0.289E+00    0.334E-01
DAV:   2    -0.191742197878E+03   -0.37322E-02   -0.50489E-02 12680   0.781E-01    0.474E-01
DAV:   3    -0.191741654285E+03    0.54359E-03   -0.10099E-02 12160   0.816E-01    0.454E-01
DAV:   4    -0.191739748175E+03    0.19061E-02   -0.36205E-03 11280   0.476E-01    0.207E-01
DAV:   5    -0.191739738620E+03    0.95551E-05   -0.23483E-03 11160   0.384E-01    0.242E-01
DAV:   6    -0.191739239086E+03    0.49953E-03   -0.15924E-03 10120   0.310E-01    0.101E-01
DAV:   7    -0.191739108952E+03    0.13013E-03   -0.34602E-04  8520   0.100E-01    0.270E-02
DAV:   8    -0.191739100349E+03    0.86029E-05   -0.54634E-05  7520   0.355E-02
  39 F= -.19173910E+03 E0= -.19166164E+03  d E =-.138732E-01
       N       E                     dE             d eps       ncg     rms          rms(c)
DAV:   1    -0.191738365976E+03    0.74298E-03   -0.15220E+00  8160   0.269E+00    0.357E-01
DAV:   2    -0.191742873172E+03   -0.45072E-02   -0.48537E-02 12480   0.935E-01    0.623E-01
DAV:   3    -0.191739787544E+03    0.30856E-02   -0.11447E-02 12480   0.928E-01    0.384E-01
DAV:   4    -0.191738682165E+03    0.11054E-02   -0.39048E-03 11440   0.472E-01    0.270E-01
DAV:   5    -0.191738382926E+03    0.29924E-03   -0.28623E-03 11280   0.448E-01    0.250E-01
DAV:   6    -0.191737812959E+03    0.56997E-03   -0.17422E-03 11080   0.303E-01    0.107E-01
DAV:   7    -0.191737743224E+03    0.69735E-04   -0.52859E-04  8640   0.171E-01
  40 F= -.19173774E+03 E0= -.19165967E+03  d E =0.135713E-02
       N       E                     dE             d eps       ncg     rms          rms(c)
DAV:   1    -0.191756152843E+03   -0.18340E-01   -0.12477E+00  8160   0.241E+00    0.251E-01
DAV:   2    -0.191757750669E+03   -0.15978E-02   -0.30409E-02 12680   0.499E-01    0.184E-01
DAV:   3    -0.191758103402E+03   -0.35273E-03   -0.32257E-03 12200   0.392E-01    0.268E-01
DAV:   4    -0.191757360514E+03    0.74289E-03   -0.17602E-03 10680   0.380E-01    0.158E-01
DAV:   5    -0.191757285314E+03    0.75201E-04   -0.87923E-04 10080   0.236E-01
  41 F= -.19175729E+03 E0= -.19167964E+03  d E =-.195421E-01
       N       E                     dE             d eps       ncg     rms          rms(c)
DAV:   1    -0.191748768960E+03    0.85916E-02   -0.20953E-01  8160   0.104E+00    0.177E-01
DAV:   2    -0.191753523086E+03   -0.47541E-02   -0.12371E-02 12200   0.725E-01    0.687E-01
DAV:   3    -0.191748797712E+03    0.47254E-02   -0.67630E-03 10480   0.674E-01    0.130E-01
DAV:   4    -0.191748708408E+03    0.89305E-04   -0.61838E-04  9600   0.155E-01
  42 F= -.19174871E+03 E0= -.19167130E+03  d E =0.857691E-02
       N       E                     dE             d eps       ncg     rms          rms(c)
DAV:   1    -0.191753675322E+03   -0.48776E-02   -0.31496E-01  8160   0.122E+00    0.224E-01
DAV:   2    -0.191755846220E+03   -0.21709E-02   -0.17466E-02 11840   0.747E-01    0.473E-01
DAV:   3    -0.191753350280E+03    0.24959E-02   -0.50801E-03 12000   0.602E-01    0.163E-01
DAV:   4    -0.191753518646E+03   -0.16837E-03   -0.15300E-03 10160   0.316E-01    0.239E-01
DAV:   5    -0.191753044675E+03    0.47397E-03   -0.12735E-03  9960   0.299E-01    0.120E-01
DAV:   6    -0.191752890502E+03    0.15417E-03   -0.47216E-04  8960   0.133E-01    0.520E-02
DAV:   7    -0.191752888451E+03    0.20510E-05   -0.13181E-04  6640   0.104E-01
  43 F= -.19175289E+03 E0= -.19167636E+03  d E =-.418004E-02
       N       E                     dE             d eps       ncg     rms          rms(c)
DAV:   1    -0.191770198593E+03   -0.17308E-01   -0.61318E-01  8160   0.177E+00    0.298E-01
DAV:   2    -0.191770698157E+03   -0.49956E-03   -0.21843E-02 12160   0.620E-01    0.422E-01
DAV:   3    -0.191769937518E+03    0.76064E-03   -0.67699E-03 12240   0.709E-01    0.357E-01
DAV:   4    -0.191769005556E+03    0.93196E-03   -0.31554E-03 11280   0.469E-01    0.258E-01
DAV:   5    -0.191768504032E+03    0.50152E-03   -0.19623E-03 10160   0.383E-01    0.166E-01
DAV:   6    -0.191768137591E+03    0.36644E-03   -0.86809E-04  9560   0.191E-01    0.387E-02
DAV:   7    -0.191768122187E+03    0.15403E-04   -0.11684E-04  5560   0.440E-02
  44 F= -.19176812E+03 E0= -.19169128E+03  d E =-.152337E-01
       N       E                     dE             d eps       ncg     rms          rms(c)
DAV:   1    -0.191794424923E+03   -0.26287E-01   -0.21292E+00  8160   0.316E+00    0.349E-01
DAV:   2    -0.191797857390E+03   -0.34325E-02   -0.55061E-02 12680   0.790E-01    0.384E-01
DAV:   3    -0.191798214542E+03   -0.35715E-03   -0.79773E-03 12080   0.776E-01    0.444E-01
DAV:   4    -0.191796275961E+03    0.19386E-02   -0.34481E-03 12200   0.533E-01    0.232E-01
DAV:   5    -0.191796105431E+03    0.17053E-03   -0.20531E-03 10200   0.385E-01    0.220E-01
DAV:   6    -0.191795813843E+03    0.29159E-03   -0.16438E-03 11200   0.293E-01    0.124E-01
DAV:   7    -0.191795642207E+03    0.17164E-03   -0.69874E-04  8480   0.176E-01    0.840E-02
DAV:   8    -0.191795562794E+03    0.79413E-04   -0.14326E-04  7360   0.103E-01
  45 F= -.19179556E+03 E0= -.19171886E+03  d E =-.274406E-01
       N       E                     dE             d eps       ncg     rms          rms(c)
DAV:   1    -0.191800539208E+03   -0.48970E-02   -0.73363E-02  8160   0.586E-01    0.749E-02
DAV:   2    -0.191800774851E+03   -0.23564E-03   -0.26184E-03 12800   0.220E-01    0.120E-01
DAV:   3    -0.191800637652E+03    0.13720E-03   -0.44671E-04  9200   0.184E-01    0.627E-02
DAV:   4    -0.191800590546E+03    0.47106E-04   -0.10229E-04  5720   0.810E-02
  46 F= -.19180059E+03 E0= -.19172393E+03  d E =-.502775E-02
       N       E                     dE             d eps       ncg     rms          rms(c)
DAV:   1    -0.191753976312E+03    0.46661E-01   -0.54254E+00  8160   0.500E+00    0.550E-01
DAV:   2    -0.191766232467E+03   -0.12256E-01   -0.14773E-01 12640   0.147E+00    0.783E-01
DAV:   3    -0.191762885976E+03    0.33465E-02   -0.23241E-02 12280   0.129E+00    0.626E-01
DAV:   4    -0.191760493978E+03    0.23920E-02   -0.89353E-03 12200   0.815E-01    0.486E-01
DAV:   5    -0.191758542568E+03    0.19514E-02   -0.60282E-03 11160   0.655E-01    0.278E-01
DAV:   6    -0.191758050686E+03    0.49188E-03   -0.30527E-03 11840   0.342E-01    0.138E-01
DAV:   7    -0.191757646114E+03    0.40457E-03   -0.99450E-04 10320   0.129E-01    0.469E-02
DAV:   8    -0.191757633033E+03    0.13081E-04   -0.12925E-04  6920   0.811E-02
  47 F= -.19175763E+03 E0= -.19168052E+03  d E =0.429575E-01
       N       E                     dE             d eps       ncg     rms          rms(c)
DAV:   1    -0.191721858783E+03    0.35787E-01   -0.51462E+00  8160   0.486E+00    0.516E-01
DAV:   2    -0.191734111889E+03   -0.12253E-01   -0.13094E-01 12560   0.142E+00    0.755E-01
DAV:   3    -0.191729690051E+03    0.44218E-02   -0.19761E-02 11160   0.120E+00    0.504E-01
DAV:   4    -0.191727232102E+03    0.24579E-02   -0.61247E-03 12120   0.629E-01    0.299E-01
DAV:   5    -0.191727045110E+03    0.18699E-03   -0.41666E-03 11080   0.521E-01    0.295E-01
DAV:   6    -0.191726744455E+03    0.30066E-03   -0.26826E-03 11360   0.389E-01    0.212E-01
DAV:   7    -0.191726331384E+03    0.41307E-03   -0.15310E-03 10280   0.282E-01    0.153E-01
DAV:   8    -0.191726088395E+03    0.24299E-03   -0.36922E-04  8640   0.155E-01    0.271E-02
DAV:   9    -0.191726090058E+03   -0.16638E-05   -0.52759E-05  6400   0.315E-02
  48 F= -.19172609E+03 E0= -.19164671E+03  d E =0.315430E-01
       N       E                     dE             d eps       ncg     rms          rms(c)
DAV:   1    -0.191728197461E+03   -0.21091E-02   -0.14338E+00  8160   0.259E+00    0.306E-01
DAV:   2    -0.191734598965E+03   -0.64015E-02   -0.42765E-02 13040   0.902E-01    0.662E-01
DAV:   3    -0.191729913497E+03    0.46855E-02   -0.12187E-02 12360   0.879E-01    0.280E-01
DAV:   4    -0.191729933548E+03   -0.20051E-04   -0.30041E-03 11160   0.405E-01    0.298E-01
DAV:   5    -0.191729087443E+03    0.84610E-03   -0.17501E-03 10200   0.369E-01    0.138E-01
DAV:   6    -0.191729074969E+03    0.12473E-04   -0.87973E-04 10320   0.207E-01
  49 F= -.19172907E+03 E0= -.19164901E+03  d E =-.298491E-02
       N       E                     dE             d eps       ncg     rms          rms(c)
DAV:   1    -0.191733464499E+03   -0.43771E-02   -0.22917E+00  8160   0.328E+00    0.413E-01
DAV:   2    -0.191748179805E+03   -0.14715E-01   -0.75724E-02 12600   0.139E+00    0.103E+00
DAV:   3    -0.191735761101E+03    0.12419E-01   -0.23685E-02 12200   0.124E+00    0.320E-01
DAV:   4    -0.191736826844E+03   -0.10657E-02   -0.55688E-03 11760   0.589E-01    0.459E-01
DAV:   5    -0.191734546200E+03    0.22806E-02   -0.32953E-03 11440   0.500E-01    0.115E-01
DAV:   6    -0.191734666762E+03   -0.12056E-03   -0.99853E-04 10280   0.174E-01    0.118E-01
DAV:   7    -0.191734548378E+03    0.11838E-03   -0.64031E-04  9280   0.201E-01    0.104E-01
DAV:   8    -0.191734426055E+03    0.12232E-03   -0.20462E-04  7160   0.122E-01    0.213E-02
DAV:   9    -0.191734426075E+03   -0.19870E-07   -0.35973E-05  6400   0.276E-02
  50 F= -.19173443E+03 E0= -.19165248E+03  d E =-.535111E-02
       N       E                     dE             d eps       ncg     rms          rms(c)
DAV:   1    -0.191745408602E+03   -0.10983E-01   -0.66326E-01  8160   0.177E+00    0.230E-01
DAV:   2    -0.191747372791E+03   -0.19642E-02   -0.22222E-02 11920   0.582E-01    0.393E-01
DAV:   3    -0.191746387133E+03    0.98566E-03   -0.59631E-03 12320   0.586E-01    0.277E-01
DAV:   4    -0.191745717989E+03    0.66914E-03   -0.17559E-03 10560   0.310E-01    0.136E-01
DAV:   5    -0.191745622568E+03    0.95421E-04   -0.96226E-04  9840   0.236E-01
  51 F= -.19174562E+03 E0= -.19166347E+03  d E =-.111965E-01
       N       E                     dE             d eps       ncg     rms          rms(c)
DAV:   1    -0.191733641578E+03    0.12076E-01   -0.77060E-01  8160   0.193E+00    0.273E-01
DAV:   2    -0.191738746524E+03   -0.51049E-02   -0.30033E-02 13080   0.827E-01    0.683E-01
DAV:   3    -0.191734477214E+03    0.42693E-02   -0.11058E-02 12000   0.814E-01    0.287E-01
DAV:   4    -0.191733821578E+03    0.65564E-03   -0.23047E-03 10920   0.319E-01    0.159E-01
DAV:   5    -0.191733760575E+03    0.61002E-04   -0.14392E-03 10160   0.302E-01    0.189E-01
DAV:   6    -0.191733376636E+03    0.38394E-03   -0.91957E-04  9760   0.234E-01    0.610E-02
DAV:   7    -0.191733343584E+03    0.33053E-04   -0.16720E-04  6440   0.692E-02
  52 F= -.19173334E+03 E0= -.19165140E+03  d E =0.122790E-01
       N       E                     dE             d eps       ncg     rms          rms(c)
DAV:   1    -0.191723739933E+03    0.96367E-02   -0.66249E-01  8160   0.177E+00    0.238E-01
DAV:   2    -0.191726003906E+03   -0.22640E-02   -0.23564E-02 12600   0.605E-01    0.438E-01
DAV:   3    -0.191724737925E+03    0.12660E-02   -0.64235E-03 12240   0.606E-01    0.290E-01
DAV:   4    -0.191724002910E+03    0.73502E-03   -0.18501E-03 10200   0.300E-01    0.122E-01
DAV:   5    -0.191723783977E+03    0.21893E-03   -0.83274E-04 10320   0.176E-01    0.885E-02
DAV:   6    -0.191723834128E+03   -0.50151E-04   -0.51362E-04  9520   0.188E-01
  53 F= -.19172383E+03 E0= -.19164133E+03  d E =0.950946E-02
       N       E                     dE             d eps       ncg     rms          rms(c)
DAV:   1    -0.191700132018E+03    0.23652E-01   -0.43338E+00  8160   0.452E+00    0.591E-01
DAV:   2    -0.191713775158E+03   -0.13643E-01   -0.14144E-01 12960   0.142E+00    0.110E+00
DAV:   3    -0.191707381308E+03    0.63939E-02   -0.46055E-02 12000   0.150E+00    0.764E-01
DAV:   4    -0.191702087804E+03    0.52935E-02   -0.11751E-02 11960   0.729E-01    0.286E-01
DAV:   5    -0.191700436723E+03    0.16511E-02   -0.44844E-03 10680   0.312E-01    0.170E-01
DAV:   6    -0.191701258636E+03   -0.82191E-03   -0.31441E-03 12400   0.461E-01    0.311E-01
DAV:   7    -0.191700121098E+03    0.11375E-02   -0.16392E-03  9960   0.353E-01    0.642E-02
DAV:   8    -0.191700101679E+03    0.19419E-04   -0.17477E-04  6840   0.986E-02
  54 F= -.19170010E+03 E0= -.19161546E+03  d E =0.237324E-01
       N       E                     dE             d eps       ncg     rms          rms(c)
DAV:   1    -0.191746574972E+03   -0.46454E-01   -0.12432E+01  8160   0.780E+00    0.100E+00
DAV:   2    -0.191764686829E+03   -0.18112E-01   -0.39361E-01 11440   0.204E+00    0.110E+00
DAV:   3    -0.191765621031E+03   -0.93420E-03   -0.91532E-02 11160   0.221E+00    0.124E+00
DAV:   4    -0.191751091510E+03    0.14530E-01   -0.37251E-02 12080   0.158E+00    0.696E-01
DAV:   5    -0.191747384975E+03    0.37065E-02   -0.20370E-02 12320   0.106E+00    0.647E-01
DAV:   6    -0.191745053859E+03    0.23311E-02   -0.14099E-02 11600   0.898E-01    0.407E-01
DAV:   7    -0.191743503954E+03    0.15499E-02   -0.41611E-03 11240   0.501E-01    0.234E-01
DAV:   8    -0.191742888250E+03    0.61570E-03   -0.12968E-03 10640   0.304E-01    0.863E-02
DAV:   9    -0.191742784109E+03    0.10414E-03   -0.23739E-04  7840   0.967E-02    0.367E-02
DAV:  10    -0.191742768634E+03    0.15475E-04   -0.11431E-04  7000   0.433E-02
  55 F= -.19174277E+03 E0= -.19166099E+03  d E =-.426670E-01
       N       E                     dE             d eps       ncg     rms          rms(c)
DAV:   1    -0.191737090735E+03    0.56934E-02   -0.43794E-01  8160   0.145E+00    0.197E-01
DAV:   2    -0.191738465743E+03   -0.13750E-02   -0.14636E-02 12720   0.481E-01    0.356E-01
DAV:   3    -0.191737561316E+03    0.90443E-03   -0.44521E-03 12320   0.502E-01    0.242E-01
DAV:   4    -0.191737067662E+03    0.49365E-03   -0.13006E-03  9720   0.256E-01    0.106E-01
DAV:   5    -0.191736921155E+03    0.14651E-03   -0.66629E-04 10120   0.150E-01    0.865E-02
DAV:   6    -0.191736931264E+03   -0.10109E-04   -0.41596E-04  9280   0.167E-01
  56 F= -.19173693E+03 E0= -.19165452E+03  d E =0.583737E-02
       N       E                     dE             d eps       ncg     rms          rms(c)
DAV:   1    -0.191749065797E+03   -0.12145E-01   -0.85773E-01  8160   0.200E+00    0.243E-01
DAV:   2    -0.191751641455E+03   -0.25757E-02   -0.25395E-02 11640   0.593E-01    0.430E-01
DAV:   3    -0.191750281110E+03    0.13603E-02   -0.70114E-03 12320   0.628E-01    0.287E-01
DAV:   4    -0.191749634943E+03    0.64617E-03   -0.19035E-03 11080   0.315E-01    0.148E-01
DAV:   5    -0.191749462414E+03    0.17253E-03   -0.94048E-04 10080   0.242E-01    0.137E-01
DAV:   6    -0.191749328673E+03    0.13374E-03   -0.59602E-04 10280   0.208E-01    0.810E-02
DAV:   7    -0.191749280188E+03    0.48485E-04   -0.21526E-04  6920   0.116E-01
  57 F= -.19174928E+03 E0= -.19166762E+03  d E =-.123489E-01
       N       E                     dE             d eps       ncg     rms          rms(c)
DAV:   1    -0.191747025847E+03    0.23028E-02   -0.43924E-02  8160   0.456E-01    0.611E-02
DAV:   2    -0.191747348758E+03   -0.32291E-03   -0.16725E-03 12640   0.224E-01    0.162E-01
DAV:   3    -0.191747056806E+03    0.29195E-03   -0.53582E-04  8760   0.187E-01    0.485E-02
DAV:   4    -0.191747062807E+03   -0.60007E-05   -0.94403E-05  5440   0.843E-02
  58 F= -.19174706E+03 E0= -.19166529E+03  d E =0.221738E-02
       N       E                     dE             d eps       ncg     rms          rms(c)
DAV:   1    -0.191738730685E+03    0.83261E-02   -0.48058E-01  8160   0.151E+00    0.211E-01
DAV:   2    -0.191739980036E+03   -0.12494E-02   -0.15968E-02 12080   0.489E-01    0.332E-01
DAV:   3    -0.191739410874E+03    0.56916E-03   -0.45635E-03 12240   0.517E-01    0.276E-01
DAV:   4    -0.191738812559E+03    0.59831E-03   -0.16597E-03 10200   0.306E-01    0.131E-01
DAV:   5    -0.191738638136E+03    0.17442E-03   -0.83725E-04 10240   0.208E-01    0.110E-01
DAV:   6    -0.191738551633E+03    0.86503E-04   -0.44845E-04  9240   0.170E-01
  59 F= -.19173855E+03 E0= -.19165623E+03  d E =0.851117E-02
       N       E                     dE             d eps       ncg     rms          rms(c)
DAV:   1    -0.191755033882E+03   -0.16396E-01   -0.16218E+00  8160   0.276E+00    0.342E-01
DAV:   2    -0.191758962632E+03   -0.39287E-02   -0.50039E-02 11840   0.809E-01    0.518E-01
DAV:   3    -0.191757775801E+03    0.11868E-02   -0.12871E-02 12240   0.849E-01    0.444E-01
DAV:   4    -0.191756007843E+03    0.17680E-02   -0.41965E-03 12160   0.488E-01    0.194E-01
DAV:   5    -0.191755715409E+03    0.29243E-03   -0.20085E-03 11280   0.322E-01    0.197E-01
DAV:   6    -0.191755487253E+03    0.22816E-03   -0.13573E-03 11160   0.309E-01    0.128E-01
DAV:   7    -0.191755294795E+03    0.19246E-03   -0.39051E-04  8320   0.147E-01    0.478E-02
DAV:   8    -0.191755274023E+03    0.20772E-04   -0.96300E-05  6840   0.793E-02
  60 F= -.19175527E+03 E0= -.19167394E+03  d E =-.167224E-01
       N       E                     dE             d eps       ncg     rms          rms(c)
DAV:   1    -0.191760679679E+03   -0.53849E-02   -0.18467E-01  8160   0.925E-01    0.111E-01
DAV:   2    -0.191761142488E+03   -0.46281E-03   -0.56942E-03 11360   0.276E-01    0.169E-01
DAV:   3    -0.191761024878E+03    0.11761E-03   -0.13727E-03 11160   0.280E-01    0.146E-01
DAV:   4    -0.191760832766E+03    0.19211E-03   -0.39205E-04  8520   0.155E-01    0.586E-02
DAV:   5    -0.191760823764E+03    0.90024E-05   -0.19106E-04  7200   0.105E-01
  61 F= -.19176082E+03 E0= -.19167949E+03  d E =-.554974E-02
       N       E                     dE             d eps       ncg     rms          rms(c)
DAV:   1    -0.191764670238E+03   -0.38375E-02   -0.92139E-02  8160   0.663E-01    0.891E-02
DAV:   2    -0.191765129613E+03   -0.45937E-03   -0.30422E-03 12240   0.259E-01    0.191E-01
DAV:   3    -0.191764747947E+03    0.38167E-03   -0.94421E-04 10160   0.252E-01    0.720E-02
DAV:   4    -0.191764739651E+03    0.82955E-05   -0.13785E-04  6000   0.948E-02
  62 F= -.19176474E+03 E0= -.19168409E+03  d E =-.391589E-02
       N       E                     dE             d eps       ncg     rms          rms(c)
DAV:   1    -0.191773820084E+03   -0.90721E-02   -0.48260E-01  8160   0.151E+00    0.208E-01
DAV:   2    -0.191776382075E+03   -0.25620E-02   -0.17099E-02 12760   0.631E-01    0.464E-01
DAV:   3    -0.191774320096E+03    0.20620E-02   -0.50044E-03 12320   0.581E-01    0.192E-01
DAV:   4    -0.191774076221E+03    0.24387E-03   -0.11210E-03 10080   0.228E-01    0.119E-01
DAV:   5    -0.191773963335E+03    0.11289E-03   -0.73205E-04 10520   0.206E-01    0.111E-01
DAV:   6    -0.191773876052E+03    0.87283E-04   -0.45675E-04  8720   0.167E-01
  63 F= -.19177388E+03 E0= -.19169329E+03  d E =-.913640E-02
       N       E                     dE             d eps       ncg     rms          rms(c)
DAV:   1    -0.191784927434E+03   -0.10964E-01   -0.78619E-01  8160   0.191E+00    0.223E-01
DAV:   2    -0.191787202322E+03   -0.22749E-02   -0.23604E-02 11360   0.529E-01    0.357E-01
DAV:   3    -0.191786401389E+03    0.80093E-03   -0.55701E-03 12400   0.566E-01    0.272E-01
DAV:   4    -0.191785829442E+03    0.57195E-03   -0.15936E-03 10280   0.307E-01    0.130E-01
DAV:   5    -0.191785622301E+03    0.20714E-03   -0.74063E-04  9520   0.185E-01    0.961E-02
DAV:   6    -0.191785649938E+03   -0.27637E-04   -0.47819E-04 10120   0.184E-01
  64 F= -.19178565E+03 E0= -.19170617E+03  d E =-.117739E-01
       N       E                     dE             d eps       ncg     rms          rms(c)
DAV:   1    -0.191792346512E+03   -0.67242E-02   -0.29226E-01  8160   0.117E+00    0.145E-01
DAV:   2    -0.191793712575E+03   -0.13661E-02   -0.98269E-03 12480   0.435E-01    0.305E-01
DAV:   3    -0.191792815442E+03    0.89713E-03   -0.23331E-03 12400   0.406E-01    0.139E-01
DAV:   4    -0.191792727555E+03    0.87887E-04   -0.57801E-04  8840   0.177E-01
  65 F= -.19179273E+03 E0= -.19171343E+03  d E =-.707762E-02
       N       E                     dE             d eps       ncg     rms          rms(c)
DAV:   1    -0.191788931579E+03    0.38839E-02   -0.10061E-01  8160   0.697E-01    0.124E-01
DAV:   2    -0.191790889714E+03   -0.19581E-02   -0.63404E-03 12040   0.562E-01    0.397E-01
DAV:   3    -0.191788867702E+03    0.20220E-02   -0.26202E-03 10280   0.443E-01    0.579E-02
DAV:   4    -0.191788943807E+03   -0.76106E-04   -0.33813E-04  8000   0.139E-01
  66 F= -.19178894E+03 E0= -.19170938E+03  d E =0.378375E-02
       N       E                     dE             d eps       ncg     rms          rms(c)
DAV:   1    -0.191769564752E+03    0.19303E-01   -0.26817E+00  8160   0.352E+00    0.434E-01
DAV:   2    -0.191777475221E+03   -0.79105E-02   -0.79840E-02 13240   0.116E+00    0.703E-01
DAV:   3    -0.191772860877E+03    0.46143E-02   -0.19549E-02 12320   0.106E+00    0.485E-01
DAV:   4    -0.191771491965E+03    0.13689E-02   -0.66810E-03 12360   0.653E-01    0.330E-01
DAV:   5    -0.191770666207E+03    0.82576E-03   -0.39882E-03 10960   0.488E-01    0.257E-01
DAV:   6    -0.191769977627E+03    0.68858E-03   -0.21408E-03 11880   0.339E-01    0.102E-01
DAV:   7    -0.191769883116E+03    0.94511E-04   -0.42765E-04  9040   0.105E-01
  67 F= -.19176988E+03 E0= -.19168918E+03  d E =0.190607E-01
       N       E                     dE             d eps       ncg     rms          rms(c)
DAV:   1    -0.191800111125E+03   -0.30133E-01   -0.72527E+00  8160   0.585E+00    0.696E-01
DAV:   2    -0.191820148410E+03   -0.20037E-01   -0.22203E-01 13320   0.186E+00    0.105E+00
DAV:   3    -0.191810017699E+03    0.10131E-01   -0.45120E-02 12240   0.167E+00    0.698E-01
DAV:   4    -0.191807193781E+03    0.28239E-02   -0.14544E-02 12280   0.101E+00    0.534E-01
DAV:   5    -0.191804771287E+03    0.24225E-02   -0.96797E-03 11760   0.779E-01    0.416E-01
DAV:   6    -0.191803311660E+03    0.14596E-02   -0.67128E-03 12520   0.575E-01    0.206E-01
DAV:   7    -0.191802902349E+03    0.40931E-03   -0.18669E-03 11000   0.248E-01    0.119E-01
DAV:   8    -0.191802750010E+03    0.15234E-03   -0.45407E-04  9480   0.182E-01    0.702E-02
DAV:   9    -0.191802695565E+03    0.54445E-04   -0.11548E-04  5960   0.882E-02
  68 F= -.19180270E+03 E0= -.19172374E+03  d E =-.328124E-01
       N       E                     dE             d eps       ncg     rms          rms(c)
DAV:   1    -0.191806907827E+03   -0.41578E-02   -0.12744E-01  8160   0.766E-01    0.958E-02
DAV:   2    -0.191807578348E+03   -0.67052E-03   -0.44483E-03 12280   0.294E-01    0.218E-01
DAV:   3    -0.191807097586E+03    0.48076E-03   -0.12954E-03 10600   0.279E-01    0.900E-02
DAV:   4    -0.191807040066E+03    0.57520E-04   -0.22378E-04  7080   0.102E-01
  69 F= -.19180704E+03 E0= -.19172835E+03  d E =-.434450E-02
       N       E                     dE             d eps       ncg     rms          rms(c)
DAV:   1    -0.191814713930E+03   -0.76163E-02   -0.40103E-01  8160   0.136E+00    0.164E-01
DAV:   2    -0.191816048620E+03   -0.13347E-02   -0.11591E-02 12360   0.434E-01    0.296E-01
DAV:   3    -0.191815319302E+03    0.72932E-03   -0.27991E-03 12360   0.430E-01    0.176E-01
DAV:   4    -0.191815086018E+03    0.23328E-03   -0.75098E-04  9680   0.203E-01    0.908E-02
DAV:   5    -0.191815003058E+03    0.82960E-04   -0.38645E-04  8920   0.138E-01
  70 F= -.19181500E+03 E0= -.19173662E+03  d E =-.796299E-02
       N       E                     dE             d eps       ncg     rms          rms(c)
DAV:   1    -0.191815653073E+03   -0.56705E-03   -0.48160E-03  9120   0.198E-01    0.756E-02
DAV:   2    -0.191816641495E+03   -0.98842E-03   -0.20788E-03 10960   0.370E-01    0.288E-01
DAV:   3    -0.191815572929E+03    0.10686E-02   -0.12740E-03 10000   0.311E-01    0.304E-02
DAV:   4    -0.191815587927E+03   -0.14998E-04   -0.45560E-05  5480   0.530E-02
  71 F= -.19181559E+03 E0= -.19173719E+03  d E =-.584869E-03
       N       E                     dE             d eps       ncg     rms          rms(c)
DAV:   1    -0.191826080576E+03   -0.10508E-01   -0.84507E-01  8160   0.197E+00    0.217E-01
DAV:   2    -0.191828600417E+03   -0.25198E-02   -0.24151E-02 12480   0.615E-01    0.357E-01
DAV:   3    -0.191827565371E+03    0.10350E-02   -0.42397E-03 12320   0.551E-01    0.230E-01
DAV:   4    -0.191827189595E+03    0.37578E-03   -0.13041E-03 10720   0.291E-01    0.140E-01
DAV:   5    -0.191827011873E+03    0.17772E-03   -0.75591E-04  9200   0.211E-01    0.107E-01
DAV:   6    -0.191826987500E+03    0.24374E-04   -0.61413E-04  9240   0.178E-01
  72 F= -.19182699E+03 E0= -.19174864E+03  d E =-.113996E-01
       N       E                     dE             d eps       ncg     rms          rms(c)
DAV:   1    -0.191821880266E+03    0.51316E-02   -0.20862E-01  8160   0.989E-01    0.134E-01
DAV:   2    -0.191823564555E+03   -0.16843E-02   -0.75676E-03 12560   0.519E-01    0.365E-01
DAV:   3    -0.191822001808E+03    0.15627E-02   -0.25024E-03 11560   0.448E-01    0.819E-02
DAV:   4    -0.191821941804E+03    0.60004E-04   -0.33954E-04  8600   0.106E-01
  73 F= -.19182194E+03 E0= -.19174332E+03  d E =0.504570E-02
       N       E                     dE             d eps       ncg     rms          rms(c)
DAV:   1    -0.191825759499E+03   -0.37577E-02   -0.11840E-01  8160   0.745E-01    0.101E-01
DAV:   2    -0.191826513806E+03   -0.75431E-03   -0.54440E-03 12600   0.300E-01    0.208E-01
DAV:   3    -0.191826002972E+03    0.51083E-03   -0.15178E-03 10640   0.291E-01    0.936E-02
DAV:   4    -0.191825966351E+03    0.36620E-04   -0.29839E-04  8160   0.132E-01
  74 F= -.19182597E+03 E0= -.19174736E+03  d E =-.402455E-02
       N       E                     dE             d eps       ncg     rms          rms(c)
DAV:   1    -0.191827114902E+03   -0.11119E-02   -0.94364E-02  8160   0.697E-01    0.117E-01
DAV:   2    -0.191827771065E+03   -0.65616E-03   -0.43539E-03 12680   0.350E-01    0.251E-01
DAV:   3    -0.191827065379E+03    0.70569E-03   -0.14278E-03 10520   0.338E-01    0.892E-02
DAV:   4    -0.191827001317E+03    0.64062E-04   -0.29453E-04  7840   0.119E-01
  75 F= -.19182700E+03 E0= -.19174889E+03  d E =-.103497E-02
       N       E                     dE             d eps       ncg     rms          rms(c)
DAV:   1    -0.191836957161E+03   -0.98918E-02   -0.71212E-01  8160   0.182E+00    0.212E-01
DAV:   2    -0.191839635106E+03   -0.26779E-02   -0.23155E-02 13120   0.562E-01    0.374E-01
DAV:   3    -0.191838351998E+03    0.12831E-02   -0.51603E-03 11960   0.555E-01    0.241E-01
DAV:   4    -0.191837903108E+03    0.44889E-03   -0.13469E-03 10080   0.281E-01    0.116E-01
DAV:   5    -0.191837714822E+03    0.18829E-03   -0.51297E-04 10120   0.137E-01    0.749E-02
DAV:   6    -0.191837806540E+03   -0.91718E-04   -0.44473E-04  9200   0.178E-01
  76 F= -.19183781E+03 E0= -.19175931E+03  d E =-.108052E-01
       N       E                     dE             d eps       ncg     rms          rms(c)
DAV:   1    -0.191839197445E+03   -0.14826E-02   -0.23929E-02  8160   0.361E-01    0.477E-02
DAV:   2    -0.191839252897E+03   -0.55453E-04   -0.79352E-04 11320   0.959E-02
  77 F= -.19183925E+03 E0= -.19176126E+03  d E =-.144636E-02
       N       E                     dE             d eps       ncg     rms          rms(c)
DAV:   1    -0.191850751242E+03   -0.11554E-01   -0.10695E+00  8160   0.221E+00    0.250E-01
DAV:   2    -0.191854481087E+03   -0.37298E-02   -0.30100E-02 13000   0.679E-01    0.458E-01
DAV:   3    -0.191852502062E+03    0.19790E-02   -0.68503E-03 12240   0.672E-01    0.268E-01
DAV:   4    -0.191851973783E+03    0.52828E-03   -0.17764E-03 11200   0.316E-01    0.139E-01
DAV:   5    -0.191851731537E+03    0.24225E-03   -0.77619E-04 10120   0.178E-01    0.976E-02
DAV:   6    -0.191851822466E+03   -0.90930E-04   -0.73394E-04 10000   0.211E-01
  78 F= -.19185182E+03 E0= -.19177376E+03  d E =-.125696E-01
       N       E                     dE             d eps       ncg     rms          rms(c)
DAV:   1    -0.191840949567E+03    0.10782E-01   -0.76239E-01  8160   0.187E+00    0.196E-01
DAV:   2    -0.191843326903E+03   -0.23773E-02   -0.20409E-02 12960   0.532E-01    0.340E-01
DAV:   3    -0.191842195556E+03    0.11313E-02   -0.38732E-03 12080   0.528E-01    0.205E-01
DAV:   4    -0.191841807803E+03    0.38775E-03   -0.10676E-03  9920   0.247E-01    0.101E-01
DAV:   5    -0.191841710965E+03    0.96838E-04   -0.46204E-04  9040   0.150E-01
  79 F= -.19184171E+03 E0= -.19176376E+03  d E =0.101115E-01
       N       E                     dE             d eps       ncg     rms          rms(c)
DAV:   1    -0.191815345170E+03    0.26463E-01   -0.51361E+00  8160   0.486E+00    0.561E-01
DAV:   2    -0.191838134992E+03   -0.22790E-01   -0.14790E-01 12960   0.177E+00    0.119E+00
DAV:   3    -0.191821958811E+03    0.16176E-01   -0.33143E-02 12160   0.160E+00    0.434E-01
DAV:   4    -0.191820444017E+03    0.15148E-02   -0.70846E-03 12240   0.551E-01    0.291E-01
DAV:   5    -0.191819647007E+03    0.79701E-03   -0.42213E-03 12720   0.471E-01    0.230E-01
DAV:   6    -0.191819663413E+03   -0.16407E-04   -0.28926E-03 11520   0.398E-01    0.201E-01
DAV:   7    -0.191819200944E+03    0.46247E-03   -0.15799E-03 10320   0.256E-01    0.118E-01
DAV:   8    -0.191819082370E+03    0.11857E-03   -0.34175E-04  8200   0.155E-01    0.524E-02
DAV:   9    -0.191819048990E+03    0.33380E-04   -0.58605E-05  6480   0.576E-02
  80 F= -.19181905E+03 E0= -.19174017E+03  d E =0.226620E-01
       N       E                     dE             d eps       ncg     rms          rms(c)
DAV:   1    -0.191821724511E+03   -0.26421E-02   -0.57662E-02  8160   0.532E-01    0.911E-02
DAV:   2    -0.191822211619E+03   -0.48711E-03   -0.27426E-03 11400   0.307E-01    0.217E-01
DAV:   3    -0.191821684482E+03    0.52714E-03   -0.85176E-04  9800   0.262E-01    0.581E-02
DAV:   4    -0.191821680608E+03    0.38733E-05   -0.14317E-04  5760   0.103E-01
  81 F= -.19182168E+03 E0= -.19174297E+03  d E =-.263162E-02
       N       E                     dE             d eps       ncg     rms          rms(c)
DAV:   1    -0.191819887094E+03    0.17974E-02   -0.53982E-02  8160   0.505E-01    0.604E-02
DAV:   2    -0.191820391757E+03   -0.50466E-03   -0.19779E-03 12840   0.266E-01    0.195E-01
DAV:   3    -0.191819942756E+03    0.44900E-03   -0.73136E-04  8680   0.225E-01    0.342E-02
DAV:   4    -0.191819954072E+03   -0.11316E-04   -0.72184E-05  5480   0.541E-02
  82 F= -.19181995E+03 E0= -.19174121E+03  d E =0.172654E-02
       N       E                     dE             d eps       ncg     rms          rms(c)
DAV:   1    -0.191825295783E+03   -0.53530E-02   -0.28000E-01  8160   0.115E+00    0.173E-01
DAV:   2    -0.191828374598E+03   -0.30788E-02   -0.14936E-02 12200   0.698E-01    0.483E-01
DAV:   3    -0.191825779267E+03    0.25953E-02   -0.39207E-03 12160   0.565E-01    0.109E-01
DAV:   4    -0.191825727806E+03    0.51461E-04   -0.51523E-04  8800   0.162E-01
  83 F= -.19182573E+03 E0= -.19174669E+03  d E =-.577373E-02
       N       E                     dE             d eps       ncg     rms          rms(c)
DAV:   1    -0.191829610308E+03   -0.38310E-02   -0.18892E-01  8160   0.945E-01    0.124E-01
DAV:   2    -0.191830836598E+03   -0.12263E-02   -0.66917E-03 13160   0.387E-01    0.302E-01
DAV:   3    -0.191829806952E+03    0.10296E-02   -0.25191E-03 11240   0.378E-01    0.986E-02
DAV:   4    -0.191829796855E+03    0.10097E-04   -0.35022E-04  8200   0.135E-01
  84 F= -.19182980E+03 E0= -.19175112E+03  d E =-.406905E-02
       N       E                     dE             d eps       ncg     rms          rms(c)
DAV:   1    -0.191826996264E+03    0.28107E-02   -0.71236E-02  8160   0.584E-01    0.629E-02
DAV:   2    -0.191827548849E+03   -0.55258E-03   -0.24376E-03 12480   0.259E-01    0.187E-01
DAV:   3    -0.191827110513E+03    0.43834E-03   -0.60159E-04  9400   0.221E-01    0.365E-02
DAV:   4    -0.191827127111E+03   -0.16597E-04   -0.77419E-05  5480   0.671E-02
  85 F= -.19182713E+03 E0= -.19174832E+03  d E =0.266974E-02
       N       E                     dE             d eps       ncg     rms          rms(c)
DAV:   1    -0.191820821785E+03    0.62887E-02   -0.58422E-01  8160   0.166E+00    0.229E-01
DAV:   2    -0.191821914255E+03   -0.10925E-02   -0.17037E-02 11720   0.486E-01    0.282E-01
DAV:   3    -0.191821107291E+03    0.80696E-03   -0.40696E-03 11640   0.453E-01    0.220E-01
DAV:   4    -0.191820901221E+03    0.20607E-03   -0.18252E-03 11320   0.349E-01    0.176E-01
DAV:   5    -0.191820454873E+03    0.44635E-03   -0.99983E-04  9760   0.221E-01    0.868E-02
DAV:   6    -0.191820483387E+03   -0.28513E-04   -0.47639E-04  8400   0.173E-01
  86 F= -.19182048E+03 E0= -.19174144E+03  d E =0.664372E-02
       N       E                     dE             d eps       ncg     rms          rms(c)
DAV:   1    -0.191808356956E+03    0.12098E-01   -0.25568E+00  8160   0.342E+00    0.373E-01
DAV:   2    -0.191813113371E+03   -0.47564E-02   -0.62295E-02 11920   0.736E-01    0.415E-01
DAV:   3    -0.191811859899E+03    0.12535E-02   -0.12419E-02 12280   0.694E-01    0.417E-01
DAV:   4    -0.191810923980E+03    0.93592E-03   -0.46270E-03 12280   0.599E-01    0.287E-01
DAV:   5    -0.191809890845E+03    0.10331E-02   -0.22627E-03 11040   0.341E-01    0.140E-01
DAV:   6    -0.191810152868E+03   -0.26202E-03   -0.16076E-03 10160   0.308E-01    0.183E-01
DAV:   7    -0.191809743861E+03    0.40901E-03   -0.76414E-04  9720   0.212E-01    0.442E-02
DAV:   8    -0.191809739901E+03    0.39596E-05   -0.79786E-05  6160   0.801E-02
  87 F= -.19180974E+03 E0= -.19172957E+03  d E =0.107435E-01
       N       E                     dE             d eps       ncg     rms          rms(c)
DAV:   1    -0.191807301587E+03    0.24423E-02   -0.20563E-01  8160   0.970E-01    0.110E-01
DAV:   2    -0.191807882571E+03   -0.58098E-03   -0.55280E-03 11880   0.299E-01    0.178E-01
DAV:   3    -0.191807548682E+03    0.33389E-03   -0.13154E-03 10760   0.272E-01    0.106E-01
DAV:   4    -0.191807503358E+03    0.45324E-04   -0.34577E-04  8680   0.152E-01
  88 F= -.19180750E+03 E0= -.19172682E+03  d E =0.223654E-02
       N       E                     dE             d eps       ncg     rms          rms(c)
DAV:   1    -0.191808744693E+03   -0.11960E-02   -0.13170E+00  8160   0.246E+00    0.295E-01
DAV:   2    -0.191811912938E+03   -0.31682E-02   -0.35146E-02 13000   0.714E-01    0.428E-01
DAV:   3    -0.191810299511E+03    0.16134E-02   -0.86823E-03 11960   0.711E-01    0.301E-01
DAV:   4    -0.191809661783E+03    0.63773E-03   -0.25074E-03 11720   0.390E-01    0.194E-01
DAV:   5    -0.191809371159E+03    0.29062E-03   -0.15927E-03 10400   0.316E-01    0.164E-01
DAV:   6    -0.191809220621E+03    0.15054E-03   -0.11407E-03  9720   0.240E-01    0.990E-02
DAV:   7    -0.191809135442E+03    0.85179E-04   -0.35742E-04  8280   0.130E-01
  89 F= -.19180914E+03 E0= -.19172739E+03  d E =-.163208E-02
       N       E                     dE             d eps       ncg     rms          rms(c)
DAV:   1    -0.191810595028E+03   -0.13744E-02   -0.87899E-01  8160   0.201E+00    0.221E-01
DAV:   2    -0.191813584289E+03   -0.29893E-02   -0.27588E-02 12120   0.649E-01    0.379E-01
DAV:   3    -0.191812218937E+03    0.13654E-02   -0.53472E-03 11840   0.562E-01    0.210E-01
DAV:   4    -0.191812023878E+03    0.19506E-03   -0.13867E-03 11240   0.293E-01    0.164E-01
DAV:   5    -0.191811778638E+03    0.24524E-03   -0.88616E-04  9400   0.236E-01    0.103E-01
DAV:   6    -0.191811768072E+03    0.10567E-04   -0.53096E-04  9440   0.153E-01
  90 F= -.19181177E+03 E0= -.19172935E+03  d E =-.263263E-02
       N       E                     dE             d eps       ncg     rms          rms(c)
DAV:   1    -0.191815304516E+03   -0.35259E-02   -0.32861E-01  8160   0.124E+00    0.152E-01
DAV:   2    -0.191816293221E+03   -0.98870E-03   -0.12691E-02 11000   0.345E-01    0.192E-01
DAV:   3    -0.191816290130E+03    0.30912E-05   -0.19471E-03 12400   0.371E-01    0.205E-01
DAV:   4    -0.191815869222E+03    0.42091E-03   -0.78667E-04  8880   0.224E-01    0.783E-02
DAV:   5    -0.191815859525E+03    0.96972E-05   -0.39573E-04  8800   0.143E-01
  91 F= -.19181586E+03 E0= -.19173336E+03  d E =-.409145E-02
       N       E                     dE             d eps       ncg     rms          rms(c)
DAV:   1    -0.191819893146E+03   -0.40239E-02   -0.72476E-01  8160   0.183E+00    0.218E-01
DAV:   2    -0.191822590185E+03   -0.26970E-02   -0.26840E-02 11400   0.601E-01    0.346E-01
DAV:   3    -0.191821660743E+03    0.92944E-03   -0.51210E-03 11600   0.553E-01    0.232E-01
DAV:   4    -0.191821248894E+03    0.41185E-03   -0.13332E-03 10400   0.289E-01    0.140E-01
DAV:   5    -0.191821094132E+03    0.15476E-03   -0.78077E-04  9480   0.220E-01    0.104E-01
DAV:   6    -0.191821083257E+03    0.10875E-04   -0.53293E-04  9400   0.161E-01
  92 F= -.19182108E+03 E0= -.19173861E+03  d E =-.522373E-02
       N       E                     dE             d eps       ncg     rms          rms(c)
DAV:   1    -0.191824825772E+03   -0.37316E-02   -0.53844E-01  8160   0.158E+00    0.179E-01
DAV:   2    -0.191826306621E+03   -0.14808E-02   -0.19389E-02 11360   0.405E-01    0.194E-01
DAV:   3    -0.191826534794E+03   -0.22817E-03   -0.25621E-03 12000   0.414E-01    0.253E-01
DAV:   4    -0.191825859654E+03    0.67514E-03   -0.11586E-03 10040   0.275E-01    0.885E-02
DAV:   5    -0.191825880325E+03   -0.20671E-04   -0.54108E-04  8720   0.173E-01
  93 F= -.19182588E+03 E0= -.19174372E+03  d E =-.479707E-02
       N       E                     dE             d eps       ncg     rms          rms(c)
DAV:   1    -0.191829259258E+03   -0.33996E-02   -0.49450E-01  8160   0.152E+00    0.185E-01
DAV:   2    -0.191831311364E+03   -0.20521E-02   -0.19295E-02 11520   0.532E-01    0.313E-01
DAV:   3    -0.191830480409E+03    0.83096E-03   -0.39354E-03 12000   0.493E-01    0.190E-01
DAV:   4    -0.191830159203E+03    0.32121E-03   -0.84777E-04  9840   0.223E-01    0.988E-02
DAV:   5    -0.191830128353E+03    0.30849E-04   -0.49440E-04  9160   0.178E-01
  94 F= -.19183013E+03 E0= -.19174834E+03  d E =-.424803E-02
       N       E                     dE             d eps       ncg     rms          rms(c)
DAV:   1    -0.191833106499E+03   -0.29473E-02   -0.32507E-01  8160   0.124E+00    0.155E-01
DAV:   2    -0.191834541894E+03   -0.14354E-02   -0.11899E-02 11280   0.446E-01    0.280E-01
DAV:   3    -0.191833782154E+03    0.75974E-03   -0.24846E-03 12120   0.417E-01    0.138E-01
DAV:   4    -0.191833603042E+03    0.17911E-03   -0.53148E-04  8640   0.154E-01    0.725E-02
DAV:   5    -0.191833627418E+03   -0.24376E-04   -0.37190E-04  9040   0.145E-01
  95 F= -.19183363E+03 E0= -.19175199E+03  d E =-.349906E-02
       N       E                     dE             d eps       ncg     rms          rms(c)
DAV:   1    -0.191832758026E+03    0.84502E-03   -0.21039E-02  8600   0.339E-01    0.646E-02
DAV:   2    -0.191833514484E+03   -0.75646E-03   -0.18384E-03 12040   0.306E-01    0.250E-01
DAV:   3    -0.191832767216E+03    0.74727E-03   -0.94503E-04  9880   0.271E-01    0.407E-02
DAV:   4    -0.191832755024E+03    0.12192E-04   -0.80330E-05  5680   0.440E-02
  96 F= -.19183276E+03 E0= -.19175106E+03  d E =0.872394E-03
       N       E                     dE             d eps       ncg     rms          rms(c)
DAV:   1    -0.191833719765E+03   -0.95255E-03   -0.56000E-02  8160   0.511E-01    0.677E-02
DAV:   2    -0.191834224833E+03   -0.50507E-03   -0.23031E-03 13080   0.262E-01    0.201E-01
DAV:   3    -0.191833784076E+03    0.44076E-03   -0.69231E-04  8840   0.222E-01    0.382E-02
DAV:   4    -0.191833781752E+03    0.23243E-05   -0.53449E-05  5640   0.506E-02
  97 F= -.19183378E+03 E0= -.19175224E+03  d E =-.102673E-02
       N       E                     dE             d eps       ncg     rms          rms(c)
DAV:   1    -0.191834346905E+03   -0.56283E-03   -0.59674E-02  8160   0.532E-01    0.909E-02
DAV:   2    -0.191835402324E+03   -0.10554E-02   -0.37594E-03 12120   0.410E-01    0.304E-01
DAV:   3    -0.191834366319E+03    0.10360E-02   -0.14570E-03  9920   0.328E-01    0.459E-02
DAV:   4    -0.191834383080E+03   -0.16761E-04   -0.11356E-04  5960   0.883E-02
  98 F= -.19183438E+03 E0= -.19175274E+03  d E =-.601328E-03
       N       E                     dE             d eps       ncg     rms          rms(c)
DAV:   1    -0.191834311739E+03    0.54581E-04   -0.17030E-04  8120   0.904E-02    0.359E-02
DAV:   2    -0.191834552668E+03   -0.24093E-03   -0.46665E-04  9800   0.192E-01    0.143E-01
DAV:   3    -0.191834291628E+03    0.26104E-03   -0.29263E-04  7880   0.158E-01    0.125E-02
DAV:   4    -0.191834300413E+03   -0.87847E-05   -0.17462E-05  5600   0.264E-02
  99 F= -.19183430E+03 E0= -.19175258E+03  d E =0.826674E-04
       N       E                     dE             d eps       ncg     rms          rms(c)
DAV:   1    -0.191836746692E+03   -0.24551E-02   -0.18855E-01  8160   0.938E-01    0.111E-01
DAV:   2    -0.191837472471E+03   -0.72578E-03   -0.68433E-03 11200   0.319E-01    0.199E-01
DAV:   3    -0.191837129565E+03    0.34291E-03   -0.15609E-03 11520   0.299E-01    0.112E-01
DAV:   4    -0.191837011948E+03    0.11762E-03   -0.26353E-04  7640   0.125E-01    0.561E-02
DAV:   5    -0.191837004166E+03    0.77816E-05   -0.12261E-04  6360   0.103E-01
 100 F= -.19183700E+03 E0= -.19175539E+03  d E =-.270375E-02
