   27   27  100    1
  0.9710400E+02  0.1002848E-08  0.1002848E-08  0.3000000E-08  0.5000000E-15
  1.000000000000000E-004
  CAR 
 unknown system                          
    159     34    120
 
  0.0000000E+00  0.0000000E+00  0.0000000E+00  0.1562500E-01
    1      -17.786225   1.000000
    2      -16.673652   1.000000
    3      -16.635014   1.000000
    4      -16.584896   1.000000
    5      -16.515413   1.000000
    6      -16.457048   1.000000
    7      -16.425288   1.000000
    8      -16.272809   1.000000
    9      -16.145012   1.000000
   10      -16.114600   1.000000
   11      -16.059145   1.000000
   12      -15.974609   1.000000
   13      -15.890463   1.000000
   14      -15.746799   1.000000
   15      -15.617035   1.000000
   16      -15.464109   1.000000
   17      -15.457988   1.000000
   18      -15.325979   1.000000
   19       -9.259914   1.000000
   20       -8.941853   1.000000
   21       -8.909092   1.000000
   22       -8.842104   1.000000
   23       -8.697579   1.000000
   24       -8.655118   1.000000
   25       -8.640712   1.000000
   26       -8.587175   1.000000
   27       -8.500456   1.000000
   28       -8.462378   1.000000
   29       -8.453597   1.000000
   30       -8.427741   1.000000
   31       -8.426576   1.000000
   32       -8.103169   1.000000
   33       -8.070870   1.000000
   34       -7.993132   1.000000
   35       -7.830924   1.000000
   36       -7.789821   1.000000
   37       -7.694455   1.000000
   38       -7.636873   1.000000
   39       -7.455041   1.000000
   40       -7.388040   1.000000
   41       -7.329479   1.000000
   42       -7.278948   1.000000
   43       -7.129254   1.000000
   44       -6.910373   1.000000
   45       -6.845731   1.000000
   46       -6.804162   1.000000
   47       -6.702106   1.000000
   48       -6.613766   1.000000
   49       -6.501182   1.000000
   50       -6.458375   1.000000
   51       -6.437136   1.000000
   52       -6.326428   1.000000
   53       -6.319523   1.000000
   54       -6.316077   1.000000
   55       -6.224534   1.000000
   56       -6.209350   1.000000
   57       -6.157941   1.000000
   58       -5.929958   1.000000
   59       -5.793973   1.000000
   60       -5.581962   1.000000
   61       -5.424452   1.000000
   62       -5.354360   1.000000
   63       -5.227402   1.000000
   64       -5.213341   1.000000
   65       -5.120330   1.000000
   66       -4.975531   1.000000
   67       -4.904930   1.000000
   68       -4.844791   1.000000
   69       -4.786179   1.000000
   70       -4.783107   1.000000
   71       -4.693135   1.000000
   72       -4.662360   1.000000
   73       -4.553764   1.000000
   74       -4.396679   1.000000
   75       -4.061177   1.000000
   76       -3.967562   0.999998
   77       -3.840237   0.999894
   78       -3.589115   0.973155
   79       -3.494883   0.896706
   80       -3.441033   0.811173
   81       -3.357821   0.615556
   82       -3.059515   0.034722
   83       -2.843145   0.000411
   84       -2.684159   0.000004
   85       -2.457599   0.000000
   86       -2.422254   0.000000
   87       -2.408479   0.000000
   88       -2.300106   0.000000
   89       -2.210858   0.000000
   90       -2.176985   0.000000
   91       -1.802959   0.000000
   92       -1.735502   0.000000
   93       -1.439451   0.000000
   94       -1.332131   0.000000
   95       -1.091170   0.000000
   96       -1.087082   0.000000
   97       -1.010393   0.000000
   98       -0.855286   0.000000
   99       -0.782453   0.000000
  100       -0.612234   0.000000
  101       -0.600392   0.000000
  102       -0.517137   0.000000
  103       -0.469847   0.000000
  104       -0.396272   0.000000
  105       -0.286525   0.000000
  106       -0.160258   0.000000
  107       -0.107211   0.000000
  108        0.031722   0.000000
  109        0.049032   0.000000
  110        0.290473   0.000000
  111        0.340955   0.000000
  112        0.629634   0.000000
  113        0.640264   0.000000
  114        0.701703   0.000000
  115        0.974496   0.000000
  116        0.996358   0.000000
  117        1.240866   0.000000
  118        1.647166   0.000000
  119        1.829028   0.000000
  120        2.149659   0.000000
 
  0.1250000E+00  0.2775558E-16  0.0000000E+00  0.3125000E-01
    1      -17.761650   1.000000
    2      -16.758716   1.000000
    3      -16.672370   1.000000
    4      -16.638455   1.000000
    5      -16.518619   1.000000
    6      -16.419353   1.000000
    7      -16.376773   1.000000
    8      -16.265507   1.000000
    9      -16.125403   1.000000
   10      -16.089311   1.000000
   11      -16.044113   1.000000
   12      -15.950713   1.000000
   13      -15.875809   1.000000
   14      -15.743032   1.000000
   15      -15.627116   1.000000
   16      -15.477863   1.000000
   17      -15.459004   1.000000
   18      -15.331939   1.000000
   19       -9.248723   1.000000
   20       -9.110762   1.000000
   21       -8.988495   1.000000
   22       -8.932667   1.000000
   23       -8.747156   1.000000
   24       -8.719395   1.000000
   25       -8.641688   1.000000
   26       -8.586661   1.000000
   27       -8.524611   1.000000
   28       -8.496384   1.000000
   29       -8.372780   1.000000
   30       -8.285821   1.000000
   31       -8.250304   1.000000
   32       -8.079253   1.000000
   33       -7.998407   1.000000
   34       -7.907466   1.000000
   35       -7.805281   1.000000
   36       -7.756357   1.000000
   37       -7.677660   1.000000
   38       -7.601264   1.000000
   39       -7.504860   1.000000
   40       -7.411003   1.000000
   41       -7.297825   1.000000
   42       -7.250422   1.000000
   43       -7.175249   1.000000
   44       -6.969012   1.000000
   45       -6.849432   1.000000
   46       -6.783259   1.000000
   47       -6.710730   1.000000
   48       -6.636717   1.000000
   49       -6.477162   1.000000
   50       -6.454662   1.000000
   51       -6.424063   1.000000
   52       -6.385875   1.000000
   53       -6.333919   1.000000
   54       -6.297323   1.000000
   55       -6.240425   1.000000
   56       -6.189072   1.000000
   57       -6.114019   1.000000
   58       -5.928877   1.000000
   59       -5.766631   1.000000
   60       -5.542839   1.000000
   61       -5.473738   1.000000
   62       -5.423366   1.000000
   63       -5.333987   1.000000
   64       -5.245379   1.000000
   65       -5.059368   1.000000
   66       -5.030227   1.000000
   67       -4.936626   1.000000
   68       -4.894992   1.000000
   69       -4.789767   1.000000
   70       -4.731370   1.000000
   71       -4.709263   1.000000
   72       -4.590928   1.000000
   73       -4.522264   1.000000
   74       -4.310881   1.000000
   75       -4.056693   1.000000
   76       -3.925021   0.999992
   77       -3.868145   0.999952
   78       -3.707330   0.997156
   79       -3.616482   0.983116
   80       -3.430071   0.789508
   81       -3.201658   0.208853
   82       -3.034577   0.023194
   83       -2.822285   0.000239
   84       -2.679223   0.000003
   85       -2.488220   0.000000
   86       -2.415017   0.000000
   87       -2.373146   0.000000
   88       -2.299036   0.000000
   89       -2.206291   0.000000
   90       -2.147671   0.000000
   91       -1.808758   0.000000
   92       -1.730235   0.000000
   93       -1.437557   0.000000
   94       -1.333397   0.000000
   95       -1.094916   0.000000
   96       -1.061301   0.000000
   97       -1.010779   0.000000
   98       -0.887383   0.000000
   99       -0.806684   0.000000
  100       -0.655154   0.000000
  101       -0.634841   0.000000
  102       -0.569518   0.000000
  103       -0.515536   0.000000
  104       -0.445316   0.000000
  105       -0.336796   0.000000
  106       -0.237332   0.000000
  107       -0.148709   0.000000
  108        0.024279   0.000000
  109        0.147984   0.000000
  110        0.193679   0.000000
  111        0.304234   0.000000
  112        0.620586   0.000000
  113        0.693098   0.000000
  114        0.819137   0.000000
  115        0.976874   0.000000
  116        1.012489   0.000000
  117        1.256767   0.000000
  118        1.688906   0.000000
  119        1.868542   0.000000
  120        2.184259   0.000000
 
  0.2500000E+00  0.5551115E-16  0.0000000E+00  0.3125000E-01
    1      -17.689313   1.000000
    2      -16.971668   1.000000
    3      -16.711576   1.000000
    4      -16.650728   1.000000
    5      -16.566852   1.000000
    6      -16.388809   1.000000
    7      -16.330744   1.000000
    8      -16.200853   1.000000
    9      -16.114314   1.000000
   10      -16.042807   1.000000
   11      -16.014786   1.000000
   12      -15.907084   1.000000
   13      -15.812674   1.000000
   14      -15.745699   1.000000
   15      -15.646256   1.000000
   16      -15.502125   1.000000
   17      -15.463298   1.000000
   18      -15.350999   1.000000
   19       -9.442317   1.000000
   20       -9.178109   1.000000
   21       -9.105679   1.000000
   22       -9.044882   1.000000
   23       -8.889784   1.000000
   24       -8.795948   1.000000
   25       -8.579807   1.000000
   26       -8.544267   1.000000
   27       -8.500810   1.000000
   28       -8.406678   1.000000
   29       -8.291789   1.000000
   30       -8.219424   1.000000
   31       -8.144901   1.000000
   32       -8.100706   1.000000
   33       -7.897176   1.000000
   34       -7.848627   1.000000
   35       -7.750739   1.000000
   36       -7.617770   1.000000
   37       -7.597665   1.000000
   38       -7.523522   1.000000
   39       -7.434592   1.000000
   40       -7.412799   1.000000
   41       -7.318327   1.000000
   42       -7.221867   1.000000
   43       -7.155530   1.000000
   44       -6.993577   1.000000
   45       -6.872894   1.000000
   46       -6.768359   1.000000
   47       -6.726920   1.000000
   48       -6.650683   1.000000
   49       -6.570464   1.000000
   50       -6.500877   1.000000
   51       -6.432934   1.000000
   52       -6.374818   1.000000
   53       -6.310868   1.000000
   54       -6.256325   1.000000
   55       -6.183535   1.000000
   56       -6.152676   1.000000
   57       -6.034156   1.000000
   58       -5.931377   1.000000
   59       -5.739279   1.000000
   60       -5.693639   1.000000
   61       -5.603594   1.000000
   62       -5.518785   1.000000
   63       -5.449195   1.000000
   64       -5.342977   1.000000
   65       -5.183192   1.000000
   66       -5.002177   1.000000
   67       -4.910970   1.000000
   68       -4.872689   1.000000
   69       -4.795254   1.000000
   70       -4.722881   1.000000
   71       -4.593746   1.000000
   72       -4.496541   1.000000
   73       -4.435330   1.000000
   74       -4.301877   1.000000
   75       -4.146801   1.000000
   76       -3.977336   0.999999
   77       -3.883857   0.999970
   78       -3.794939   0.999644
   79       -3.590124   0.973594
   80       -3.401018   0.725506
   81       -3.081047   0.048130
   82       -2.982873   0.009200
   83       -2.782325   0.000080
   84       -2.666423   0.000002
   85       -2.506488   0.000000
   86       -2.438827   0.000000
   87       -2.320208   0.000000
   88       -2.274074   0.000000
   89       -2.175687   0.000000
   90       -2.077989   0.000000
   91       -1.810768   0.000000
   92       -1.727284   0.000000
   93       -1.447398   0.000000
   94       -1.326805   0.000000
   95       -1.110468   0.000000
   96       -1.052534   0.000000
   97       -1.010875   0.000000
   98       -0.947993   0.000000
   99       -0.882796   0.000000
  100       -0.777893   0.000000
  101       -0.713287   0.000000
  102       -0.650601   0.000000
  103       -0.606840   0.000000
  104       -0.549346   0.000000
  105       -0.426130   0.000000
  106       -0.285631   0.000000
  107       -0.235928   0.000000
  108       -0.068524   0.000000
  109        0.056664   0.000000
  110        0.164111   0.000000
  111        0.299633   0.000000
  112        0.644985   0.000000
  113        0.797039   0.000000
  114        0.915417   0.000000
  115        1.002739   0.000000
  116        1.118911   0.000000
  117        1.302744   0.000000
  118        1.806894   0.000000
  119        1.981257   0.000000
  120        2.287015   0.000000
 
  0.3750000E+00  0.0000000E+00  0.0000000E+00  0.3125000E-01
    1      -17.575496   1.000000
    2      -17.182672   1.000000
    3      -16.752463   1.000000
    4      -16.640916   1.000000
    5      -16.603525   1.000000
    6      -16.395001   1.000000
    7      -16.306489   1.000000
    8      -16.145469   1.000000
    9      -16.083529   1.000000
   10      -16.000446   1.000000
   11      -15.962702   1.000000
   12      -15.895772   1.000000
   13      -15.806137   1.000000
   14      -15.733182   1.000000
   15      -15.650822   1.000000
   16      -15.503163   1.000000
   17      -15.467616   1.000000
   18      -15.379456   1.000000
   19       -9.653009   1.000000
   20       -9.267996   1.000000
   21       -9.122296   1.000000
   22       -9.050502   1.000000
   23       -8.984206   1.000000
   24       -8.841090   1.000000
   25       -8.525922   1.000000
   26       -8.490141   1.000000
   27       -8.447176   1.000000
   28       -8.329906   1.000000
   29       -8.285221   1.000000
   30       -8.205132   1.000000
   31       -8.144465   1.000000
   32       -8.083301   1.000000
   33       -7.976768   1.000000
   34       -7.822043   1.000000
   35       -7.723541   1.000000
   36       -7.662738   1.000000
   37       -7.550886   1.000000
   38       -7.461538   1.000000
   39       -7.338466   1.000000
   40       -7.285381   1.000000
   41       -7.217913   1.000000
   42       -7.129792   1.000000
   43       -7.059532   1.000000
   44       -6.946677   1.000000
   45       -6.870057   1.000000
   46       -6.808176   1.000000
   47       -6.700338   1.000000
   48       -6.656592   1.000000
   49       -6.613944   1.000000
   50       -6.523256   1.000000
   51       -6.401772   1.000000
   52       -6.372021   1.000000
   53       -6.321493   1.000000
   54       -6.210119   1.000000
   55       -6.136786   1.000000
   56       -6.060509   1.000000
   57       -5.984157   1.000000
   58       -5.949387   1.000000
   59       -5.877288   1.000000
   60       -5.815633   1.000000
   61       -5.784328   1.000000
   62       -5.642499   1.000000
   63       -5.550685   1.000000
   64       -5.392915   1.000000
   65       -5.184132   1.000000
   66       -4.982528   1.000000
   67       -4.896647   1.000000
   68       -4.864567   1.000000
   69       -4.804514   1.000000
   70       -4.754426   1.000000
   71       -4.562179   1.000000
   72       -4.493867   1.000000
   73       -4.417468   1.000000
   74       -4.333768   1.000000
   75       -4.156219   1.000000
   76       -4.041321   1.000000
   77       -3.840417   0.999895
   78       -3.757035   0.999086
   79       -3.514868   0.919888
   80       -3.379214   0.671877
   81       -3.026123   0.020103
   82       -2.940008   0.003901
   83       -2.757895   0.000039
   84       -2.641448   0.000001
   85       -2.503806   0.000000
   86       -2.480551   0.000000
   87       -2.279563   0.000000
   88       -2.224643   0.000000
   89       -2.140961   0.000000
   90       -1.983387   0.000000
   91       -1.807644   0.000000
   92       -1.731028   0.000000
   93       -1.488724   0.000000
   94       -1.320382   0.000000
   95       -1.191788   0.000000
   96       -1.069006   0.000000
   97       -1.038964   0.000000
   98       -0.990400   0.000000
   99       -0.948698   0.000000
  100       -0.850392   0.000000
  101       -0.778187   0.000000
  102       -0.725249   0.000000
  103       -0.705992   0.000000
  104       -0.583197   0.000000
  105       -0.456694   0.000000
  106       -0.394297   0.000000
  107       -0.291138   0.000000
  108       -0.199238   0.000000
  109       -0.039667   0.000000
  110        0.157378   0.000000
  111        0.288104   0.000000
  112        0.667362   0.000000
  113        0.883072   0.000000
  114        0.941830   0.000000
  115        1.049421   0.000000
  116        1.243449   0.000000
  117        1.359767   0.000000
  118        1.985711   0.000000
  119        2.154829   0.000000
  120        2.453650   0.000000
 
  0.5000000E+00  0.1110223E-15  0.0000000E+00  0.1562500E-01
    1      -17.474230   1.000000
    2      -17.317962   1.000000
    3      -16.767101   1.000000
    4      -16.636543   1.000000
    5      -16.615869   1.000000
    6      -16.401644   1.000000
    7      -16.297600   1.000000
    8      -16.146885   1.000000
    9      -16.037251   1.000000
   10      -15.973846   1.000000
   11      -15.948078   1.000000
   12      -15.890832   1.000000
   13      -15.817088   1.000000
   14      -15.760063   1.000000
   15      -15.630152   1.000000
   16      -15.494129   1.000000
   17      -15.468358   1.000000
   18      -15.396417   1.000000
   19       -9.728966   1.000000
   20       -9.308008   1.000000
   21       -9.148627   1.000000
   22       -9.044504   1.000000
   23       -8.986615   1.000000
   24       -8.838986   1.000000
   25       -8.513725   1.000000
   26       -8.496784   1.000000
   27       -8.430713   1.000000
   28       -8.327226   1.000000
   29       -8.236218   1.000000
   30       -8.195967   1.000000
   31       -8.122671   1.000000
   32       -8.055439   1.000000
   33       -8.017889   1.000000
   34       -7.858723   1.000000
   35       -7.781888   1.000000
   36       -7.721885   1.000000
   37       -7.506637   1.000000
   38       -7.430954   1.000000
   39       -7.287329   1.000000
   40       -7.241048   1.000000
   41       -7.151068   1.000000
   42       -7.087092   1.000000
   43       -6.986597   1.000000
   44       -6.952663   1.000000
   45       -6.851661   1.000000
   46       -6.745557   1.000000
   47       -6.696595   1.000000
   48       -6.657743   1.000000
   49       -6.583036   1.000000
   50       -6.547202   1.000000
   51       -6.428357   1.000000
   52       -6.373276   1.000000
   53       -6.283573   1.000000
   54       -6.243414   1.000000
   55       -6.160262   1.000000
   56       -6.105035   1.000000
   57       -5.992910   1.000000
   58       -5.976077   1.000000
   59       -5.879269   1.000000
   60       -5.820072   1.000000
   61       -5.762164   1.000000
   62       -5.680349   1.000000
   63       -5.514126   1.000000
   64       -5.409532   1.000000
   65       -5.323004   1.000000
   66       -5.095354   1.000000
   67       -4.889482   1.000000
   68       -4.850695   1.000000
   69       -4.812494   1.000000
   70       -4.746131   1.000000
   71       -4.560142   1.000000
   72       -4.466638   1.000000
   73       -4.387533   1.000000
   74       -4.304223   1.000000
   75       -4.233127   1.000000
   76       -4.011970   1.000000
   77       -3.811271   0.999768
   78       -3.732835   0.998388
   79       -3.506847   0.911106
   80       -3.353904   0.604930
   81       -3.013690   0.016196
   82       -2.924723   0.002815
   83       -2.749740   0.000031
   84       -2.628136   0.000001
   85       -2.507781   0.000000
   86       -2.490449   0.000000
   87       -2.265606   0.000000
   88       -2.195112   0.000000
   89       -2.127466   0.000000
   90       -1.924752   0.000000
   91       -1.820026   0.000000
   92       -1.726587   0.000000
   93       -1.526112   0.000000
   94       -1.324482   0.000000
   95       -1.219739   0.000000
   96       -1.110285   0.000000
   97       -1.057838   0.000000
   98       -1.023377   0.000000
   99       -0.927559   0.000000
  100       -0.881174   0.000000
  101       -0.787232   0.000000
  102       -0.767218   0.000000
  103       -0.738484   0.000000
  104       -0.578675   0.000000
  105       -0.487249   0.000000
  106       -0.429768   0.000000
  107       -0.330216   0.000000
  108       -0.237494   0.000000
  109       -0.077377   0.000000
  110        0.155162   0.000000
  111        0.277599   0.000000
  112        0.677256   0.000000
  113        0.914339   0.000000
  114        0.946461   0.000000
  115        1.068258   0.000000
  116        1.292053   0.000000
  117        1.386434   0.000000
  118        2.190798   0.000000
  119        2.241492   0.000000
  120        2.358682   0.000000
 
  0.0000000E+00  0.1250000E+00  0.0000000E+00  0.3125000E-01
    1      -17.761650   1.000000
    2      -16.759281   1.000000
    3      -16.672343   1.000000
    4      -16.637994   1.000000
    5      -16.518258   1.000000
    6      -16.420002   1.000000
    7      -16.375658   1.000000
    8      -16.266264   1.000000
    9      -16.125706   1.000000
   10      -16.089391   1.000000
   11      -16.043396   1.000000
   12      -15.950825   1.000000
   13      -15.875962   1.000000
   14      -15.743129   1.000000
   15      -15.627038   1.000000
   16      -15.479084   1.000000
   17      -15.457811   1.000000
   18      -15.331964   1.000000
   19       -9.248793   1.000000
   20       -9.111352   1.000000
   21       -8.988034   1.000000
   22       -8.932318   1.000000
   23       -8.746974   1.000000
   24       -8.719197   1.000000
   25       -8.641595   1.000000
   26       -8.587270   1.000000
   27       -8.524511   1.000000
   28       -8.496653   1.000000
   29       -8.372458   1.000000
   30       -8.285756   1.000000
   31       -8.249945   1.000000
   32       -8.079841   1.000000
   33       -7.998552   1.000000
   34       -7.906955   1.000000
   35       -7.805428   1.000000
   36       -7.756070   1.000000
   37       -7.678432   1.000000
   38       -7.601209   1.000000
   39       -7.504418   1.000000
   40       -7.410916   1.000000
   41       -7.298112   1.000000
   42       -7.250201   1.000000
   43       -7.175658   1.000000
   44       -6.968993   1.000000
   45       -6.849243   1.000000
   46       -6.783837   1.000000
   47       -6.710575   1.000000
   48       -6.636875   1.000000
   49       -6.476116   1.000000
   50       -6.454886   1.000000
   51       -6.423866   1.000000
   52       -6.386416   1.000000
   53       -6.333612   1.000000
   54       -6.296489   1.000000
   55       -6.241304   1.000000
   56       -6.188110   1.000000
   57       -6.115072   1.000000
   58       -5.928723   1.000000
   59       -5.766762   1.000000
   60       -5.543318   1.000000
   61       -5.474131   1.000000
   62       -5.422714   1.000000
   63       -5.334148   1.000000
   64       -5.246625   1.000000
   65       -5.059799   1.000000
   66       -5.029795   1.000000
   67       -4.934876   1.000000
   68       -4.892694   1.000000
   69       -4.790765   1.000000
   70       -4.733024   1.000000
   71       -4.709685   1.000000
   72       -4.589863   1.000000
   73       -4.522476   1.000000
   74       -4.310805   1.000000
   75       -4.056743   1.000000
   76       -3.925361   0.999992
   77       -3.869022   0.999954
   78       -3.708176   0.997208
   79       -3.615689   0.982880
   80       -3.428916   0.787144
   81       -3.202344   0.210248
   82       -3.034682   0.023234
   83       -2.821820   0.000236
   84       -2.678949   0.000003
   85       -2.488746   0.000000
   86       -2.414134   0.000000
   87       -2.373802   0.000000
   88       -2.299417   0.000000
   89       -2.205377   0.000000
   90       -2.148018   0.000000
   91       -1.809175   0.000000
   92       -1.729670   0.000000
   93       -1.437882   0.000000
   94       -1.333053   0.000000
   95       -1.094867   0.000000
   96       -1.061555   0.000000
   97       -1.010602   0.000000
   98       -0.887157   0.000000
   99       -0.807146   0.000000
  100       -0.656067   0.000000
  101       -0.634397   0.000000
  102       -0.570263   0.000000
  103       -0.514513   0.000000
  104       -0.445514   0.000000
  105       -0.336240   0.000000
  106       -0.237720   0.000000
  107       -0.147491   0.000000
  108        0.023993   0.000000
  109        0.147240   0.000000
  110        0.194324   0.000000
  111        0.304049   0.000000
  112        0.621072   0.000000
  113        0.692749   0.000000
  114        0.819123   0.000000
  115        0.977423   0.000000
  116        1.011705   0.000000
  117        1.256506   0.000000
  118        1.688883   0.000000
  119        1.868536   0.000000
  120        2.184251   0.000000
 
  0.1250000E+00  0.1250000E+00  0.0000000E+00  0.3125000E-01
    1      -17.714362   1.000000
    2      -16.839766   1.000000
    3      -16.831872   1.000000
    4      -16.654622   1.000000
    5      -16.424968   1.000000
    6      -16.406142   1.000000
    7      -16.364782   1.000000
    8      -16.261213   1.000000
    9      -16.080643   1.000000
   10      -16.068006   1.000000
   11      -15.980652   1.000000
   12      -15.963298   1.000000
   13      -15.831805   1.000000
   14      -15.756751   1.000000
   15      -15.644521   1.000000
   16      -15.495617   1.000000
   17      -15.469331   1.000000
   18      -15.330737   1.000000
   19       -9.302361   1.000000
   20       -9.241405   1.000000
   21       -9.138411   1.000000
   22       -9.043454   1.000000
   23       -8.792943   1.000000
   24       -8.665473   1.000000
   25       -8.638272   1.000000
   26       -8.542090   1.000000
   27       -8.525526   1.000000
   28       -8.442325   1.000000
   29       -8.298065   1.000000
   30       -8.244288   1.000000
   31       -8.123707   1.000000
   32       -8.078998   1.000000
   33       -8.037002   1.000000
   34       -7.821697   1.000000
   35       -7.795494   1.000000
   36       -7.709358   1.000000
   37       -7.570008   1.000000
   38       -7.558159   1.000000
   39       -7.467768   1.000000
   40       -7.351086   1.000000
   41       -7.321922   1.000000
   42       -7.262406   1.000000
   43       -7.161293   1.000000
   44       -7.017173   1.000000
   45       -6.837724   1.000000
   46       -6.769489   1.000000
   47       -6.698787   1.000000
   48       -6.656346   1.000000
   49       -6.569660   1.000000
   50       -6.479826   1.000000
   51       -6.418447   1.000000
   52       -6.358318   1.000000
   53       -6.307327   1.000000
   54       -6.265137   1.000000
   55       -6.240127   1.000000
   56       -6.166975   1.000000
   57       -6.092638   1.000000
   58       -5.920296   1.000000
   59       -5.786382   1.000000
   60       -5.616745   1.000000
   61       -5.592846   1.000000
   62       -5.449261   1.000000
   63       -5.391820   1.000000
   64       -5.279301   1.000000
   65       -5.103697   1.000000
   66       -5.028986   1.000000
   67       -4.977518   1.000000
   68       -4.968491   1.000000
   69       -4.783718   1.000000
   70       -4.640469   1.000000
   71       -4.596292   1.000000
   72       -4.589408   1.000000
   73       -4.453512   1.000000
   74       -4.216554   1.000000
   75       -4.148263   1.000000
   76       -4.001896   0.999999
   77       -3.856878   0.999934
   78       -3.781898   0.999504
   79       -3.605615   0.979622
   80       -3.446677   0.821772
   81       -3.085769   0.051565
   82       -2.991226   0.010770
   83       -2.770393   0.000057
   84       -2.678322   0.000003
   85       -2.460135   0.000000
   86       -2.432597   0.000000
   87       -2.354656   0.000000
   88       -2.299553   0.000000
   89       -2.189562   0.000000
   90       -2.117978   0.000000
   91       -1.793342   0.000000
   92       -1.732668   0.000000
   93       -1.403263   0.000000
   94       -1.365910   0.000000
   95       -1.083815   0.000000
   96       -1.041791   0.000000
   97       -1.027573   0.000000
   98       -0.922514   0.000000
   99       -0.880088   0.000000
  100       -0.713638   0.000000
  101       -0.703896   0.000000
  102       -0.625000   0.000000
  103       -0.624021   0.000000
  104       -0.466045   0.000000
  105       -0.405348   0.000000
  106       -0.272675   0.000000
  107       -0.264913   0.000000
  108       -0.015606   0.000000
  109        0.071697   0.000000
  110        0.126676   0.000000
  111        0.289485   0.000000
  112        0.657525   0.000000
  113        0.790325   0.000000
  114        0.890353   0.000000
  115        1.042753   0.000000
  116        1.064719   0.000000
  117        1.269734   0.000000
  118        1.765992   0.000000
  119        1.945651   0.000000
  120        2.252121   0.000000
 
  0.2500000E+00  0.1250000E+00  0.0000000E+00  0.3125000E-01
    1      -17.621776   1.000000
    2      -17.055618   1.000000
    3      -16.894600   1.000000
    4      -16.639970   1.000000
    5      -16.444025   1.000000
    6      -16.383580   1.000000
    7      -16.324810   1.000000
    8      -16.206199   1.000000
    9      -16.081104   1.000000
   10      -16.033523   1.000000
   11      -15.950753   1.000000
   12      -15.908702   1.000000
   13      -15.794849   1.000000
   14      -15.758104   1.000000
   15      -15.672411   1.000000
   16      -15.504891   1.000000
   17      -15.475892   1.000000
   18      -15.342510   1.000000
   19       -9.532987   1.000000
   20       -9.347275   1.000000
   21       -9.240586   1.000000
   22       -9.037643   1.000000
   23       -8.840209   1.000000
   24       -8.682800   1.000000
   25       -8.540191   1.000000
   26       -8.467792   1.000000
   27       -8.445044   1.000000
   28       -8.408403   1.000000
   29       -8.260915   1.000000
   30       -8.244376   1.000000
   31       -8.150620   1.000000
   32       -8.108448   1.000000
   33       -7.979205   1.000000
   34       -7.905170   1.000000
   35       -7.813348   1.000000
   36       -7.608945   1.000000
   37       -7.546578   1.000000
   38       -7.436822   1.000000
   39       -7.411758   1.000000
   40       -7.268265   1.000000
   41       -7.218215   1.000000
   42       -7.180783   1.000000
   43       -7.071746   1.000000
   44       -6.998935   1.000000
   45       -6.859888   1.000000
   46       -6.782607   1.000000
   47       -6.694272   1.000000