   27   27  100    1
  0.9710400E+02  0.1002848E-08  0.1002848E-08  0.3000000E-08  0.5000000E-15
  1.000000000000000E-004
  CAR 
 unknown system                          
    159     34    120
 
  0.0000000E+00  0.0000000E+00  0.0000000E+00  0.1562500E-01
    1      -17.834030   1.000000
    2      -16.739807   1.000000
    3      -16.642640   1.000000
    4      -16.611248   1.000000
    5      -16.538149   1.000000
    6      -16.422304   1.000000
    7      -16.373270   1.000000
    8      -16.346063   1.000000
    9      -16.189497   1.000000
   10      -16.140795   1.000000
   11      -16.079223   1.000000
   12      -15.956276   1.000000
   13      -15.940750   1.000000
   14      -15.750236   1.000000
   15      -15.558601   1.000000
   16      -15.498355   1.000000
   17      -15.255408   1.000000
   18      -15.133664   1.000000
   19       -9.307441   1.000000
   20       -9.070295   1.000000
   21       -8.842693   1.000000
   22       -8.821921   1.000000
   23       -8.767154   1.000000
   24       -8.745598   1.000000
   25       -8.744527   1.000000
   26       -8.603224   1.000000
   27       -8.579487   1.000000
   28       -8.428997   1.000000
   29       -8.407535   1.000000
   30       -8.365533   1.000000
   31       -8.306578   1.000000
   32       -8.270256   1.000000
   33       -8.173097   1.000000
   34       -8.159969   1.000000
   35       -7.758530   1.000000
   36       -7.689070   1.000000
   37       -7.688032   1.000000
   38       -7.583259   1.000000
   39       -7.509609   1.000000
   40       -7.387224   1.000000
   41       -7.219716   1.000000
   42       -7.189778   1.000000
   43       -7.129774   1.000000
   44       -6.891822   1.000000
   45       -6.805006   1.000000
   46       -6.766142   1.000000
   47       -6.755422   1.000000
   48       -6.694917   1.000000
   49       -6.625137   1.000000
   50       -6.540022   1.000000
   51       -6.529227   1.000000
   52       -6.256215   1.000000
   53       -6.207220   1.000000
   54       -6.117938   1.000000
   55       -6.057329   1.000000
   56       -6.033827   1.000000
   57       -5.939989   1.000000
   58       -5.923667   1.000000
   59       -5.834718   1.000000
   60       -5.832012   1.000000
   61       -5.634926   1.000000
   62       -5.367525   1.000000
   63       -5.326385   1.000000
   64       -5.046180   1.000000
   65       -4.980530   1.000000
   66       -4.917457   1.000000
   67       -4.801418   1.000000
   68       -4.780640   1.000000
   69       -4.763073   1.000000
   70       -4.655802   1.000000
   71       -4.619445   1.000000
   72       -4.612649   1.000000
   73       -4.516851   1.000000
   74       -4.378231   1.000000
   75       -4.335880   1.000000
   76       -3.979406   1.000000
   77       -3.758470   0.999850
   78       -3.629564   0.996580
   79       -3.502610   0.964608
   80       -3.161532   0.272611
   81       -3.132890   0.209700
   82       -2.728007   0.000121
   83       -2.719382   0.000095
   84       -2.624087   0.000005
   85       -2.494429   0.000000
   86       -2.440287   0.000000
   87       -2.239786   0.000000
   88       -2.161572   0.000000
   89       -2.158621   0.000000
   90       -1.978998   0.000000
   91       -1.969035   0.000000
   92       -1.641215   0.000000
   93       -1.382053   0.000000
   94       -1.297314   0.000000
   95       -1.239956   0.000000
   96       -0.963998   0.000000
   97       -0.900477   0.000000
   98       -0.833873   0.000000
   99       -0.832577   0.000000
  100       -0.638945   0.000000
  101       -0.637918   0.000000
  102       -0.543761   0.000000
  103       -0.252545   0.000000
  104       -0.175117   0.000000
  105       -0.119955   0.000000
  106       -0.013558   0.000000
  107       -0.009715   0.000000
  108        0.058337   0.000000
  109        0.130989   0.000000
  110        0.133952   0.000000
  111        0.193220   0.000000
  112        0.305369   0.000000
  113        0.533333   0.000000
  114        0.917341   0.000000
  115        0.952339   0.000000
  116        1.241417   0.000000
  117        1.282477   0.000000
  118        1.662191   0.000000
  119        1.850546   0.000000
  120        2.180482   0.000000
 
  0.1250000E+00  0.2775558E-16  0.0000000E+00  0.3125000E-01
    1      -17.808391   1.000000
    2      -16.778679   1.000000
    3      -16.737822   1.000000
    4      -16.600689   1.000000
    5      -16.558088   1.000000
    6      -16.441907   1.000000
    7      -16.377909   1.000000
    8      -16.281459   1.000000
    9      -16.207125   1.000000
   10      -16.082508   1.000000
   11      -16.039784   1.000000
   12      -15.989010   1.000000
   13      -15.872866   1.000000
   14      -15.744845   1.000000
   15      -15.563119   1.000000
   16      -15.502169   1.000000
   17      -15.270799   1.000000
   18      -15.141116   1.000000
   19       -9.286181   1.000000
   20       -9.183848   1.000000
   21       -9.046471   1.000000
   22       -8.968037   1.000000
   23       -8.822469   1.000000
   24       -8.722246   1.000000
   25       -8.678317   1.000000
   26       -8.579436   1.000000
   27       -8.518564   1.000000
   28       -8.472356   1.000000
   29       -8.417000   1.000000
   30       -8.353180   1.000000
   31       -8.280569   1.000000
   32       -8.089450   1.000000
   33       -8.019480   1.000000
   34       -7.985098   1.000000
   35       -7.827625   1.000000
   36       -7.717521   1.000000
   37       -7.682903   1.000000
   38       -7.527815   1.000000
   39       -7.444406   1.000000
   40       -7.368566   1.000000
   41       -7.262503   1.000000
   42       -7.201512   1.000000
   43       -7.161954   1.000000
   44       -6.924927   1.000000
   45       -6.881166   1.000000
   46       -6.824875   1.000000
   47       -6.750447   1.000000
   48       -6.651595   1.000000
   49       -6.605519   1.000000
   50       -6.544312   1.000000
   51       -6.492043   1.000000
   52       -6.265359   1.000000
   53       -6.228805   1.000000
   54       -6.125578   1.000000
   55       -6.093509   1.000000
   56       -6.044698   1.000000
   57       -5.938260   1.000000
   58       -5.868493   1.000000
   59       -5.839103   1.000000
   60       -5.699460   1.000000
   61       -5.579865   1.000000
   62       -5.399893   1.000000
   63       -5.342658   1.000000
   64       -5.127108   1.000000
   65       -5.066480   1.000000
   66       -4.980586   1.000000
   67       -4.966696   1.000000
   68       -4.876099   1.000000
   69       -4.780223   1.000000
   70       -4.690028   1.000000
   71       -4.532029   1.000000
   72       -4.420221   1.000000
   73       -4.389295   1.000000
   74       -4.360245   1.000000
   75       -4.303756   1.000000
   76       -3.897097   0.999998
   77       -3.808095   0.999964
   78       -3.710852   0.999480
   79       -3.490552   0.957428
   80       -3.393733   0.850126
   81       -2.914562   0.009355
   82       -2.792289   0.000650
   83       -2.714132   0.000082
   84       -2.638284   0.000008
   85       -2.505472   0.000000
   86       -2.455487   0.000000
   87       -2.216797   0.000000
   88       -2.121560   0.000000
   89       -2.077919   0.000000
   90       -1.986659   0.000000
   91       -1.933495   0.000000
   92       -1.644388   0.000000
   93       -1.384885   0.000000
   94       -1.306571   0.000000
   95       -1.227276   0.000000
   96       -0.973091   0.000000
   97       -0.910684   0.000000
   98       -0.832596   0.000000
   99       -0.804638   0.000000
  100       -0.704909   0.000000
  101       -0.665856   0.000000
  102       -0.600102   0.000000
  103       -0.343204   0.000000
  104       -0.288455   0.000000
  105       -0.216246   0.000000
  106       -0.120202   0.000000
  107       -0.024084   0.000000
  108       -0.000303   0.000000
  109        0.102093   0.000000
  110        0.194565   0.000000
  111        0.261697   0.000000
  112        0.457372   0.000000
  113        0.626563   0.000000
  114        0.768450   0.000000
  115        1.057598   0.000000
  116        1.240116   0.000000
  117        1.320137   0.000000
  118        1.707209   0.000000
  119        1.890143   0.000000
  120        2.216049   0.000000
 
  0.2500000E+00  0.5551115E-16  0.0000000E+00  0.3125000E-01
    1      -17.732886   1.000000
    2      -16.990416   1.000000
    3      -16.736780   1.000000
    4      -16.650711   1.000000
    5      -16.597092   1.000000
    6      -16.475172   1.000000
    7      -16.340276   1.000000
    8      -16.206860   1.000000
    9      -16.163734   1.000000
   10      -16.099308   1.000000
   11      -16.006383   1.000000
   12      -15.897601   1.000000
   13      -15.801124   1.000000
   14      -15.726359   1.000000
   15      -15.574327   1.000000
   16      -15.499715   1.000000
   17      -15.306916   1.000000
   18      -15.163147   1.000000
   19       -9.503907   1.000000
   20       -9.241672   1.000000
   21       -9.158346   1.000000
   22       -9.107236   1.000000
   23       -8.896201   1.000000
   24       -8.804132   1.000000
   25       -8.720899   1.000000
   26       -8.516854   1.000000
   27       -8.453311   1.000000
   28       -8.413055   1.000000
   29       -8.382922   1.000000
   30       -8.240627   1.000000
   31       -8.154008   1.000000
   32       -8.036852   1.000000
   33       -7.981390   1.000000
   34       -7.845859   1.000000
   35       -7.733985   1.000000
   36       -7.658044   1.000000
   37       -7.532062   1.000000
   38       -7.503552   1.000000
   39       -7.441956   1.000000
   40       -7.391717   1.000000
   41       -7.285393   1.000000
   42       -7.255730   1.000000
   43       -7.066617   1.000000
   44       -6.971707   1.000000
   45       -6.920699   1.000000
   46       -6.849838   1.000000
   47       -6.783907   1.000000
   48       -6.664825   1.000000
   49       -6.597785   1.000000
   50       -6.448131   1.000000
   51       -6.412831   1.000000
   52       -6.293095   1.000000
   53       -6.265160   1.000000
   54       -6.173253   1.000000
   55       -6.104250   1.000000
   56       -6.051269   1.000000
   57       -5.875566   1.000000
   58       -5.836165   1.000000
   59       -5.781690   1.000000
   60       -5.654935   1.000000
   61       -5.531348   1.000000
   62       -5.526010   1.000000
   63       -5.463257   1.000000
   64       -5.292026   1.000000
   65       -5.179990   1.000000
   66       -5.114354   1.000000
   67       -5.007862   1.000000
   68       -4.894202   1.000000
   69       -4.793681   1.000000
   70       -4.647820   1.000000
   71       -4.468647   1.000000
   72       -4.346072   1.000000
   73       -4.302750   1.000000
   74       -4.219206   1.000000
   75       -4.171715   1.000000
   76       -4.029168   1.000000
   77       -3.901593   0.999998
   78       -3.753785   0.999830
   79       -3.473461   0.945283
   80       -3.408577   0.873261
   81       -2.983192   0.031022
   82       -2.787115   0.000572
   83       -2.726758   0.000117
   84       -2.575012   0.000001
   85       -2.511559   0.000000
   86       -2.429913   0.000000
   87       -2.222911   0.000000
   88       -2.087690   0.000000
   89       -2.005965   0.000000
   90       -1.925861   0.000000
   91       -1.792866   0.000000
   92       -1.641324   0.000000
   93       -1.390429   0.000000
   94       -1.337559   0.000000
   95       -1.205573   0.000000
   96       -1.004055   0.000000
   97       -0.925056   0.000000
   98       -0.878269   0.000000
   99       -0.825646   0.000000
  100       -0.783471   0.000000
  101       -0.733067   0.000000
  102       -0.705400   0.000000
  103       -0.542955   0.000000
  104       -0.442604   0.000000
  105       -0.347897   0.000000
  106       -0.236599   0.000000
  107       -0.134842   0.000000
  108       -0.055767   0.000000
  109        0.069496   0.000000
  110        0.233683   0.000000
  111        0.285890   0.000000
  112        0.587464   0.000000
  113        0.690702   0.000000
  114        0.833944   0.000000
  115        1.105585   0.000000
  116        1.265621   0.000000
  117        1.422567   0.000000
  118        1.832758   0.000000
  119        2.003372   0.000000
  120        2.321643   0.000000
 
  0.3750000E+00  0.0000000E+00  0.0000000E+00  0.3125000E-01
    1      -17.613880   1.000000
    2      -17.207383   1.000000
    3      -16.741249   1.000000
    4      -16.697766   1.000000
    5      -16.599816   1.000000
    6      -16.520171   1.000000
    7      -16.299841   1.000000
    8      -16.178737   1.000000
    9      -16.130920   1.000000
   10      -16.101256   1.000000
   11      -15.928629   1.000000
   12      -15.841211   1.000000
   13      -15.776868   1.000000
   14      -15.703616   1.000000
   15      -15.610354   1.000000
   16      -15.455406   1.000000
   17      -15.336843   1.000000
   18      -15.194460   1.000000
   19       -9.732676   1.000000
   20       -9.315498   1.000000
   21       -9.264152   1.000000
   22       -9.029133   1.000000
   23       -8.951012   1.000000
   24       -8.869486   1.000000
   25       -8.690583   1.000000
   26       -8.547223   1.000000
   27       -8.452422   1.000000
   28       -8.335856   1.000000
   29       -8.301787   1.000000
   30       -8.135281   1.000000
   31       -8.104927   1.000000
   32       -8.026896   1.000000
   33       -7.980100   1.000000
   34       -7.839371   1.000000
   35       -7.700212   1.000000
   36       -7.646849   1.000000
   37       -7.582813   1.000000
   38       -7.549242   1.000000
   39       -7.444461   1.000000
   40       -7.340152   1.000000
   41       -7.164736   1.000000
   42       -7.115760   1.000000
   43       -7.040290   1.000000
   44       -6.955747   1.000000
   45       -6.896295   1.000000
   46       -6.813659   1.000000
   47       -6.765557   1.000000
   48       -6.606323   1.000000
   49       -6.488600   1.000000
   50       -6.437972   1.000000
   51       -6.319340   1.000000
   52       -6.285811   1.000000
   53       -6.214915   1.000000
   54       -6.158257   1.000000
   55       -6.106539   1.000000
   56       -6.074719   1.000000
   57       -6.003119   1.000000
   58       -5.970346   1.000000
   59       -5.832337   1.000000
   60       -5.721298   1.000000
   61       -5.680368   1.000000
   62       -5.551111   1.000000
   63       -5.478241   1.000000
   64       -5.340698   1.000000
   65       -5.204674   1.000000
   66       -5.109731   1.000000
   67       -4.994279   1.000000
   68       -4.846991   1.000000
   69       -4.791053   1.000000
   70       -4.711183   1.000000
   71       -4.541083   1.000000
   72       -4.406956   1.000000
   73       -4.291740   1.000000
   74       -4.197573   1.000000
   75       -4.078963   1.000000
   76       -4.040382   1.000000
   77       -3.886199   0.999997
   78       -3.717759   0.999563
   79       -3.496407   0.961049
   80       -3.262320   0.542900
   81       -3.126297   0.196529
   82       -2.825152   0.001425
   83       -2.673633   0.000025
   84       -2.603316   0.000003
   85       -2.470502   0.000000
   86       -2.372770   0.000000
   87       -2.202702   0.000000
   88       -2.099857   0.000000
   89       -1.940313   0.000000
   90       -1.869135   0.000000
   91       -1.674123   0.000000
   92       -1.602187   0.000000
   93       -1.391034   0.000000
   94       -1.361412   0.000000
   95       -1.199197   0.000000
   96       -1.058679   0.000000
   97       -1.026100   0.000000
   98       -0.939283   0.000000
   99       -0.882916   0.000000
  100       -0.875253   0.000000
  101       -0.795891   0.000000
  102       -0.715947   0.000000
  103       -0.634926   0.000000
  104       -0.545480   0.000000
  105       -0.445139   0.000000
  106       -0.331997   0.000000
  107       -0.270599   0.000000
  108       -0.099587   0.000000
  109        0.044580   0.000000
  110        0.219541   0.000000
  111        0.272628   0.000000
  112        0.585091   0.000000
  113        0.751392   0.000000
  114        0.998429   0.000000
  115        1.130011   0.000000
  116        1.307811   0.000000
  117        1.529055   0.000000
  118        2.020881   0.000000
  119        2.179876   0.000000
  120        2.494608   0.000000
 
  0.5000000E+00  0.1110223E-15  0.0000000E+00  0.1562500E-01
    1      -17.506981   1.000000
    2      -17.349086   1.000000
    3      -16.743839   1.000000
    4      -16.716225   1.000000
    5      -16.584567   1.000000
    6      -16.549958   1.000000
    7      -16.277768   1.000000
    8      -16.198596   1.000000
    9      -16.115515   1.000000
   10      -16.080787   1.000000
   11      -15.878421   1.000000
   12      -15.834326   1.000000
   13      -15.767754   1.000000
   14      -15.697773   1.000000
   15      -15.640878   1.000000
   16      -15.430446   1.000000
   17      -15.338849   1.000000
   18      -15.213806   1.000000
   19       -9.815089   1.000000
   20       -9.352621   1.000000
   21       -9.302627   1.000000
   22       -9.009170   1.000000
   23       -8.939588   1.000000
   24       -8.833992   1.000000
   25       -8.677670   1.000000
   26       -8.661275   1.000000
   27       -8.442066   1.000000
   28       -8.293075   1.000000
   29       -8.229868   1.000000
   30       -8.133166   1.000000
   31       -8.081284   1.000000
   32       -8.015503   1.000000
   33       -7.924261   1.000000
   34       -7.845074   1.000000
   35       -7.745216   1.000000
   36       -7.682425   1.000000
   37       -7.641704   1.000000
   38       -7.593456   1.000000
   39       -7.466059   1.000000
   40       -7.334357   1.000000
   41       -7.094301   1.000000
   42       -7.070392   1.000000
   43       -7.001366   1.000000
   44       -6.854352   1.000000
   45       -6.828837   1.000000
   46       -6.711344   1.000000
   47       -6.649347   1.000000
   48       -6.589148   1.000000
   49       -6.521492   1.000000
   50       -6.458182   1.000000
   51       -6.412942   1.000000
   52       -6.344261   1.000000
   53       -6.267612   1.000000
   54       -6.182697   1.000000
   55       -6.111316   1.000000
   56       -6.098450   1.000000
   57       -6.009696   1.000000
   58       -5.844239   1.000000
   59       -5.812705   1.000000
   60       -5.789901   1.000000
   61       -5.632688   1.000000
   62       -5.596648   1.000000
   63       -5.533770   1.000000
   64       -5.408655   1.000000
   65       -5.222096   1.000000
   66       -5.065371   1.000000
   67       -4.998543   1.000000
   68       -4.956338   1.000000
   69       -4.831984   1.000000
   70       -4.630021   1.000000
   71       -4.576843   1.000000
   72       -4.442279   1.000000
   73       -4.335814   1.000000
   74       -4.174632   1.000000
   75       -4.036640   1.000000
   76       -4.012588   1.000000
   77       -3.861672   0.999993
   78       -3.684575   0.999011
   79       -3.460003   0.933912
   80       -3.347256   0.760630
   81       -2.988600   0.033794
   82       -2.950186   0.017892
   83       -2.659308   0.000016
   84       -2.608048   0.000003
   85       -2.457333   0.000000
   86       -2.340554   0.000000
   87       -2.184883   0.000000
   88       -2.101469   0.000000
   89       -1.928141   0.000000
   90       -1.843901   0.000000
   91       -1.652550   0.000000
   92       -1.561408   0.000000
   93       -1.385036   0.000000
   94       -1.367243   0.000000
   95       -1.198363   0.000000
   96       -1.083605   0.000000
   97       -1.074428   0.000000
   98       -0.995215   0.000000
   99       -0.930186   0.000000
  100       -0.893831   0.000000
  101       -0.819432   0.000000
  102       -0.707910   0.000000
  103       -0.626496   0.000000
  104       -0.597219   0.000000
  105       -0.477716   0.000000
  106       -0.406357   0.000000
  107       -0.299243   0.000000
  108       -0.111125   0.000000
  109        0.022270   0.000000
  110        0.200722   0.000000
  111        0.277268   0.000000
  112        0.587357   0.000000
  113        0.773521   0.000000
  114        1.051231   0.000000
  115        1.143104   0.000000
  116        1.327508   0.000000
  117        1.573484   0.000000
  118        2.252884   0.000000
  119        2.266795   0.000000
  120        2.407452   0.000000
 
  0.0000000E+00  0.1250000E+00  0.0000000E+00  0.3125000E-01
    1      -17.808597   1.000000
    2      -16.801132   1.000000
    3      -16.700306   1.000000
    4      -16.635596   1.000000
    5      -16.573215   1.000000
    6      -16.386921   1.000000
    7      -16.343221   1.000000
    8      -16.319457   1.000000
    9      -16.182736   1.000000
   10      -16.129525   1.000000
   11      -16.039133   1.000000
   12      -15.931341   1.000000
   13      -15.926644   1.000000
   14      -15.740315   1.000000
   15      -15.574442   1.000000
   16      -15.511304   1.000000
   17      -15.257744   1.000000
   18      -15.137002   1.000000
   19       -9.307625   1.000000
   20       -9.255743   1.000000
   21       -8.978206   1.000000
   22       -8.923772   1.000000
   23       -8.815554   1.000000
   24       -8.777498   1.000000
   25       -8.707519   1.000000
   26       -8.518649   1.000000
   27       -8.486590   1.000000
   28       -8.403403   1.000000
   29       -8.402089   1.000000
   30       -8.296170   1.000000
   31       -8.244704   1.000000
   32       -8.224145   1.000000
   33       -8.083389   1.000000
   34       -8.071296   1.000000
   35       -7.732021   1.000000
   36       -7.648271   1.000000
   37       -7.638096   1.000000
   38       -7.595543   1.000000
   39       -7.548975   1.000000
   40       -7.410740   1.000000
   41       -7.216339   1.000000
   42       -7.212020   1.000000
   43       -7.166685   1.000000
   44       -6.981600   1.000000
   45       -6.839700   1.000000
   46       -6.752640   1.000000
   47       -6.714046   1.000000
   48       -6.680336   1.000000
   49       -6.562331   1.000000
   50       -6.478491   1.000000
   51       -6.477099   1.000000
   52       -6.309477   1.000000
   53       -6.225205   1.000000
   54       -6.207021   1.000000
   55       -6.050173   1.000000
   56       -6.047672   1.000000
   57       -6.006804   1.000000
   58       -5.875793   1.000000
   59       -5.775833   1.000000
   60       -5.750522   1.000000
   61       -5.596116   1.000000
   62       -5.465536   1.000000
   63       -5.439531   1.000000
   64       -5.134868   1.000000
   65       -5.059768   1.000000
   66       -4.917072   1.000000
   67       -4.837294   1.000000
   68       -4.794749   1.000000
   69       -4.694249   1.000000
   70       -4.637723   1.000000
   71       -4.572046   1.000000
   72       -4.531406   1.000000
   73       -4.484082   1.000000
   74       -4.332709   1.000000
   75       -4.322393   1.000000
   76       -4.044113   1.000000
   77       -3.765100   0.999875
   78       -3.699315   0.999308
   79       -3.553207   0.984792
   80       -3.126618   0.197160
   81       -3.096139   0.142912
   82       -2.692688   0.000044
   83       -2.689202   0.000040
   84       -2.620128   0.000005
   85       -2.485489   0.000000
   86       -2.431545   0.000000
   87       -2.220233   0.000000
   88       -2.136989   0.000000
   89       -2.124836   0.000000
   90       -1.978685   0.000000
   91       -1.957503   0.000000
   92       -1.631259   0.000000
   93       -1.383394   0.000000
   94       -1.299645   0.000000
   95       -1.258558   0.000000
   96       -0.976708   0.000000
   97       -0.919625   0.000000
   98       -0.820443   0.000000
   99       -0.802071   0.000000
  100       -0.704918   0.000000
  101       -0.696928   0.000000
  102       -0.635285   0.000000
  103       -0.375953   0.000000
  104       -0.324185   0.000000
  105       -0.164541   0.000000
  106       -0.076586   0.000000
  107       -0.048589   0.000000
  108        0.071503   0.000000
  109        0.132873   0.000000
  110        0.235737   0.000000
  111        0.306883   0.000000
  112        0.380341   0.000000
  113        0.648377   0.000000
  114        0.906824   0.000000
  115        0.962068   0.000000
  116        1.200640   0.000000
  117        1.216395   0.000000
  118        1.705215   0.000000
  119        1.892748   0.000000
  120        2.215477   0.000000
 
  0.1250000E+00  0.1250000E+00  0.0000000E+00  0.3125000E-01
    1      -17.758161   1.000000
    2      -16.909865   1.000000
    3      -16.805489   1.000000
    4      -16.655717   1.000000
    5      -16.527718   1.000000
    6      -16.397358   1.000000
    7      -16.360330   1.000000
    8      -16.262255   1.000000
    9      -16.194281   1.000000
   10      -16.062996   1.000000
   11      -16.001289   1.000000
   12      -15.942185   1.000000
   13      -15.840245   1.000000
   14      -15.725481   1.000000
   15      -15.594232   1.000000
   16      -15.519370   1.000000
   17      -15.275327   1.000000
   18      -15.145838   1.000000
   19       -9.452202   1.000000
   20       -9.302804   1.000000
   21       -9.157505   1.000000
   22       -9.030210   1.000000
   23       -8.843006   1.000000
   24       -8.766741   1.000000
   25       -8.661543   1.000000
   26       -8.507467   1.000000
   27       -8.446071   1.000000
   28       -8.406616   1.000000
   29       -8.365604   1.000000
   30       -8.292688   1.000000
   31       -8.153614   1.000000
   32       -8.120542   1.000000
   33       -7.974709   1.000000
   34       -7.888270   1.000000
   35       -7.803239   1.000000
   36       -7.684825   1.000000
   37       -7.615476   1.000000
   38       -7.544751   1.000000
   39       -7.426385   1.000000
   40       -7.373026   1.000000
   41       -7.276253   1.000000
   42       -7.208906   1.000000
   43       -7.156988   1.000000
   44       -6.995775   1.000000
   45       -6.848821   1.000000
   46       -6.806906   1.000000
   47       -6.776542   1.000000
   48       -6.644926   1.000000
   49       -6.567246   1.000000
   50       -6.436542   1.000000
   51       -6.394044   1.000000
   52       -6.339476   1.000000
   53       -6.259469   1.000000
   54       -6.191595   1.000000
   55       -6.105015   1.000000
   56       -6.042333   1.000000
   57       -5.989417   1.000000
   58       -5.847634   1.000000
   59       -5.802797   1.000000
   60       -5.640258   1.000000
   61       -5.559000   1.000000
   62       -5.528526   1.000000
   63       -5.489347   1.000000
   64       -5.255261   1.000000
   65       -5.144390   1.000000
   66       -5.081539   1.000000
   67       -4.875804   1.000000
   68       -4.868158   1.000000
   69       -4.728547   1.000000
   70       -4.603899   1.000000
   71       -4.500426   1.000000
   72       -4.385906   1.000000
   73       -4.347969   1.000000
   74       -4.288057   1.000000
   75       -4.270047   1.000000
   76       -4.086286   1.000000
   77       -3.912343   0.999999
   78       -3.704454   0.999390
   79       -3.538151   0.980213
   80       -3.280255   0.592728
   81       -2.896764   0.006622
   82       -2.771793   0.000389
   83       -2.674385   0.000026
   84       -2.586506   0.000001
   85       -2.493578   0.000000
   86       -2.436061   0.000000
   87       -2.157083   0.000000
   88       -2.082964   0.000000
   89       -2.028997   0.000000
   90       -1.968864   0.000000
   91       -1.925474   0.000000
   92       -1.627817   0.000000
   93       -1.389851   0.000000
   94       -1.329783   0.000000
   95       -1.255927   0.000000
   96       -0.998486   0.000000
   97       -0.934362   0.000000
   98       -0.852483   0.000000
   99       -0.804459   0.000000
  100       -0.768645   0.000000
  101       -0.741851   0.000000
  102       -0.719243   0.000000
  103       -0.547447   0.000000
  104       -0.436940   0.000000
  105       -0.265763   0.000000
  106       -0.153153   0.000000
  107       -0.076509   0.000000
  108        0.038136   0.000000
  109        0.116086   0.000000
  110        0.220542   0.000000
  111        0.414435   0.000000
  112        0.483182   0.000000
  113        0.768625   0.000000
  114        0.826072   0.000000
  115        1.026745   0.000000
  116        1.183697   0.000000
  117        1.243904   0.000000
  118        1.789001   0.000000
  119        1.970918   0.000000
  120        2.285541   0.000000
 
  0.2500000E+00  0.1250000E+00  0.0000000E+00  0.3125000E-01
    1      -17.660265   1.000000
    2      -17.095970   1.000000
    3      -16.896230   1.000000
    4      -16.643298   1.000000
    5      -16.506929   1.000000
    6      -16.458297   1.000000
    7      -16.330861   1.000000
    8      -16.193311   1.000000
    9      -16.172381   1.000000
   10      -16.076780   1.000000
   11      -15.958449   1.000000
   12      -15.868831   1.000000
   13      -15.788608   1.000000
   14      -15.705990   1.000000
   15      -15.628769   1.000000
   16      -15.486935   1.000000
   17      -15.310013   1.000000
   18      -15.165921   1.000000
   19       -9.648727   1.000000
   20       -9.442642   1.000000
   21       -9.235402   1.000000
   22       -9.066656   1.000000
   23       -8.854474   1.000000
   24       -8.721615   1.000000
   25       -8.667658   1.000000
   26       -8.474251   1.000000
   27       -8.430533   1.000000
   28       -8.380032   1.000000
   29       -8.349654   1.000000
   30       -8.229292   1.000000
   31       -8.114828   1.000000
   32       -8.032941   1.000000
   33       -7.967291   1.000000
   34       -7.935611   1.000000
   35       -7.726657   1.000000
   36       -7.657755   1.000000
   37       -7.583137   1.000000
   38       -7.494317   1.000000
   39       -7.370254   1.000000
   40       -7.336795   1.000000
   41       -7.275744   1.000000
   42       -7.199877   1.000000
   43       -7.080288   1.000000
   44       -6.939151   1.000000
   45       -6.900850   1.000000
   46       -6.779101   1.000000
   47       -6.745277   1.000000