 vasp.5.4.1 05Feb16 (build Jul 05 2020 17:13:04) complex                        
  
 executed on           IFC91_ompi date 2024.04.23  16:01:24
 running on   40 total cores
 distrk:  each k-point on   40 cores,    1 groups
 distr:  one band on NCORES_PER_BAND=   1 cores,   40 groups


--------------------------------------------------------------------------------------------------------


 INCAR:
 POTCAR:   PAW_PBE V 08Apr2002                    
 POTCAR:   PAW_PBE Mo 08Apr2002                   
 POTCAR:   PAW_PBE W 08Apr2002                    
 POTCAR:    PAW_PBE S 17Jan2003                   

 ----------------------------------------------------------------------------- 
|                                                                             |
|           W    W    AA    RRRRR   N    N  II  N    N   GGGG   !!!           |
|           W    W   A  A   R    R  NN   N  II  NN   N  G    G  !!!           |
|           W    W  A    A  R    R  N N  N  II  N N  N  G       !!!           |
|           W WW W  AAAAAA  RRRRR   N  N N  II  N  N N  G  GGG   !            |
|           WW  WW  A    A  R   R   N   NN  II  N   NN  G    G                |
|           W    W  A    A  R    R  N    N  II  N    N   GGGG   !!!           |
|                                                                             |
|      For optimal performance we recommend to set                            |
|        NCORE= 4 - approx SQRT( number of cores)                             |
|      NCORE specifies how many cores store one orbital (NPAR=cpu/NCORE).     |
|      This setting can  greatly improve the performance of VASP for DFT.     |
|      The default, NPAR=number of cores might be grossly inefficient         |
|      on modern multi-core architectures or massively parallel machines.     |
|      Do your own testing !!!!                                               |
|      Unfortunately you need to use the default for GW and RPA calculations. |
|      (for HF NCORE is supported but not extensively tested yet)             |
|                                                                             |
 ----------------------------------------------------------------------------- 

 POTCAR:   PAW_PBE V 08Apr2002                    
   VRHFIN =V: p6 d4 s1                                                          
   LEXCH  = PE                                                                  
   EATOM  =   170.8679 eV,   12.5584 Ry                                         
                                                                                
   TITEL  = PAW_PBE V 08Apr2002                                                 
   LULTRA =        F    use ultrasoft PP ?                                      
   IUNSCR =        1    unscreen: 0-lin 1-nonlin 2-no                           
   RPACOR =    2.000    partial core radius                                     
   POMASS =   50.941; ZVAL   =    5.000    mass and valenz                      
   RCORE  =    2.700    outmost cutoff radius                                   
   RWIGS  =    2.500; RWIGS  =    1.323    wigner-seitz radius (au A)           
   ENMAX  =  192.543; ENMIN  =  144.408 eV                                      
   RCLOC  =    1.779    cutoff for local pot                                    
   LCOR   =        T    correct aug charges                                     
   LPAW   =        T    paw PP                                                  
   EAUG   =  358.662                                                            
   DEXC   =    -.034                                                            
   RMAX   =    3.323    core radius for proj-oper                               
   RAUG   =    1.300    factor for augmentation sphere                          
   RDEP   =    2.762    radius for radial grids                                 
   QCUT   =   -3.762; QGAM   =    7.524    optimization parameters              
                                                                                
   Description                                                                  
     l     E      TYP  RCUT    TYP  RCUT                                        
     2   .000     23  2.700                                                     
     2   .000     23  2.700                                                     
     0   .000     23  2.700                                                     
     0  2.000     23  2.700                                                     
     1   .000     23  2.700                                                     
     1  2.000     23  2.700                                                     
     3   .000      7   .000                                                     
  local pseudopotential read in
  partial core-charges read in
  atomic valenz-charges read in
  non local Contribution for L=           2  read in
    real space projection operators read in
  non local Contribution for L=           2  read in
    real space projection operators read in
  non local Contribution for L=           0  read in
    real space projection operators read in
  non local Contribution for L=           0  read in
    real space projection operators read in
  non local Contribution for L=           1  read in
    real space projection operators read in
  non local Contribution for L=           1  read in
    real space projection operators read in
    PAW grid and wavefunctions read in
 
   number of l-projection  operators is LMAX  =           6
   number of lm-projection operators is LMMAX =          18
 
 POTCAR:   PAW_PBE Mo 08Apr2002                   
   VRHFIN =Mo: 4p5s4d                                                           
   LEXCH  = PE                                                                  
   EATOM  =   217.5180 eV,   15.9871 Ry                                         
                                                                                
   TITEL  = PAW_PBE Mo 08Apr2002                                                
   LULTRA =        F    use ultrasoft PP ?                                      
   IUNSCR =        1    unscreen: 0-lin 1-nonlin 2-no                           
   RPACOR =    2.200    partial core radius                                     
   POMASS =   95.940; ZVAL   =    6.000    mass and valenz                      
   RCORE  =    2.750    outmost cutoff radius                                   
   RWIGS  =    2.750; RWIGS  =    1.455    wigner-seitz radius (au A)           
   ENMAX  =  224.584; ENMIN  =  168.438 eV                                      
   RCLOC  =    2.111    cutoff for local pot                                    
   LCOR   =        T    correct aug charges                                     
   LPAW   =        T    paw PP                                                  
   EAUG   =  345.278                                                            
   DEXC   =    -.088                                                            
   RMAX   =    3.077    core radius for proj-oper                               
   RAUG   =    1.300    factor for augmentation sphere                          
   RDEP   =    2.815    radius for radial grids                                 
   QCUT   =   -4.063; QGAM   =    8.126    optimization parameters              
                                                                                
   Description                                                                  
     l     E      TYP  RCUT    TYP  RCUT                                        
     2   .000     23  2.500                                                     
     2   .000     23  2.500                                                     
     0   .000     23  2.600                                                     
     0  1.000     23  2.600                                                     
     1   .400     23  2.750                                                     
     1  2.000     23  2.750                                                     
     3   .000      7   .000                                                     
  local pseudopotential read in
  partial core-charges read in
  atomic valenz-charges read in
  non local Contribution for L=           2  read in
    real space projection operators read in
  non local Contribution for L=           2  read in
    real space projection operators read in
  non local Contribution for L=           0  read in
    real space projection operators read in
  non local Contribution for L=           0  read in
    real space projection operators read in
  non local Contribution for L=           1  read in
    real space projection operators read in
  non local Contribution for L=           1  read in
    real space projection operators read in
    PAW grid and wavefunctions read in
 
   number of l-projection  operators is LMAX  =           6
   number of lm-projection operators is LMMAX =          18
 
 POTCAR:   PAW_PBE W 08Apr2002                    
   VRHFIN =W : 6s5d                                                             
   LEXCH  = PE                                                                  
   EATOM  =   204.6100 eV,   15.0384 Ry                                         
                                                                                
   TITEL  = PAW_PBE W 08Apr2002                                                 
   LULTRA =        F    use ultrasoft PP ?                                      
   IUNSCR =        1    unscreen: 0-lin 1-nonlin 2-no                           
   RPACOR =    2.330    partial core radius                                     
   POMASS =  183.850; ZVAL   =    6.000    mass and valenz                      
   RCORE  =    2.750    outmost cutoff radius                                   
   RWIGS  =    2.750; RWIGS  =    1.455    wigner-seitz radius (au A)           
   ENMAX  =  223.057; ENMIN  =  167.293 eV                                      
   RCLOC  =    2.147    cutoff for local pot                                    
   LCOR   =        T    correct aug charges                                     
   LPAW   =        T    paw PP                                                  
   EAUG   =  373.438                                                            
   DEXC   =    -.060                                                            
   RMAX   =    3.087    core radius for proj-oper                               
   RAUG   =    1.300    factor for augmentation sphere                          
   RDEP   =    2.886    radius for radial grids                                 
   QCUT   =   -4.049; QGAM   =    8.098    optimization parameters              
                                                                                
   Description                                                                  
     l     E      TYP  RCUT    TYP  RCUT                                        
     2   .000     23  2.500                                                     
     2   .000     23  2.500                                                     
     0   .000     23  2.500                                                     
     0   .000     23  2.500                                                     
     1   .200     23  2.750                                                     
     1  2.000     23  2.750                                                     
     3   .000      7   .000                                                     
  local pseudopotential read in
  partial core-charges read in
  atomic valenz-charges read in
  non local Contribution for L=           2  read in
    real space projection operators read in
  non local Contribution for L=           2  read in
    real space projection operators read in
  non local Contribution for L=           0  read in
    real space projection operators read in
  non local Contribution for L=           0  read in
    real space projection operators read in
  non local Contribution for L=           1  read in
    real space projection operators read in
  non local Contribution for L=           1  read in
    real space projection operators read in
    PAW grid and wavefunctions read in
 
   number of l-projection  operators is LMAX  =           6
   number of lm-projection operators is LMMAX =          18
 
 POTCAR:    PAW_PBE S 17Jan2003                   
   VRHFIN =S : s2p4                                                             
   LEXCH  = PE                                                                  
   EATOM  =   276.8230 eV,   20.3459 Ry                                         
                                                                                
   TITEL  = PAW_PBE S 17Jan2003                                                 
   LULTRA =        F    use ultrasoft PP ?                                      
   IUNSCR =        1    unscreen: 0-lin 1-nonlin 2-no                           
   RPACOR =    1.500    partial core radius                                     
   POMASS =   32.066; ZVAL   =    6.000    mass and valenz                      
   RCORE  =    1.900    outmost cutoff radius                                   
   RWIGS  =    2.200; RWIGS  =    1.164    wigner-seitz radius (au A)           
   ENMAX  =  280.000; ENMIN  =  194.016 eV                                      
   ICORE  =        2    local potential                                         
   LCOR   =        T    correct aug charges                                     
   LPAW   =        T    paw PP                                                  
   EAUG   =  335.092                                                            
   DEXC   =     .000                                                            
   RMAX   =    2.867    core radius for proj-oper                               
   RAUG   =    1.300    factor for augmentation sphere                          
   RDEP   =    1.954    radius for radial grids                                 
   QCUT   =   -4.360; QGAM   =    8.721    optimization parameters              
                                                                                
   Description                                                                  
     l     E      TYP  RCUT    TYP  RCUT                                        
     0   .000     23  1.900                                                     
     0   .000     23  1.900                                                     
     1   .000     23  1.900                                                     
     1   .000     23  1.900                                                     
     2   .000     23  1.900                                                     
  local pseudopotential read in
  partial core-charges read in
  atomic valenz-charges read in
  non local Contribution for L=           0  read in
    real space projection operators read in
  non local Contribution for L=           0  read in
    real space projection operators read in
  non local Contribution for L=           1  read in
    real space projection operators read in
  non local Contribution for L=           1  read in
    real space projection operators read in
    PAW grid and wavefunctions read in
 
   number of l-projection  operators is LMAX  =           4
   number of lm-projection operators is LMMAX =           8
 

 ----------------------------------------------------------------------------- 
|                                                                             |
|  ADVICE TO THIS USER RUNNING 'VASP/VAMP'   (HEAR YOUR MASTER'S VOICE ...):  |
|                                                                             |
|      You have a (more or less) 'large supercell' and for larger cells       |
|      it might be more efficient to use real space projection operators      |
|      So try LREAL= Auto  in the INCAR   file.                               |
|      Mind: If you want to do a very accurate calculations keep the          |
|      reciprocal projection scheme          (i.e. LREAL=.FALSE.)             |
|                                                                             |
 ----------------------------------------------------------------------------- 

 PAW_PBE V 08Apr2002                    :
 energy of atom  1       EATOM= -170.8679
 kinetic energy error for atom=    0.0047 (will be added to EATOM!!)
 PAW_PBE Mo 08Apr2002                   :
 energy of atom  2       EATOM= -217.5180
 kinetic energy error for atom=    0.0215 (will be added to EATOM!!)
 PAW_PBE W 08Apr2002                    :
 energy of atom  3       EATOM= -204.6100
 kinetic energy error for atom=    0.0205 (will be added to EATOM!!)
  PAW_PBE S 17Jan2003                   :
 energy of atom  4       EATOM= -276.8230
 kinetic energy error for atom=    0.0122 (will be added to EATOM!!)
 
 
 POSCAR: crystal structure from VMoWS2 with Hexag
  positions in cartesian coordinates
  No initial velocities read in
 exchange correlation table for  LEXCH =        8
   RHO(1)=    0.500       N(1)  =     2000
   RHO(2)=  100.500       N(2)  =     4000
 


--------------------------------------------------------------------------------------------------------


 ion  position               nearest neighbor table
   1  0.667  0.333  0.000-  19 2.34  22 2.34  25 2.36  24 2.36  17 2.36  16 2.36
   2  0.000  0.667  0.000-  27 2.34  12 2.34  14 2.36  15 2.36  24 2.36  25 2.36
   3  0.667  0.667  0.000-  21 2.34  24 2.34  27 2.36  26 2.36  19 2.36  18 2.36
   4  0.333  0.000  0.000-  11 2.34  20 2.34  17 2.36  16 2.36  15 2.36  14 2.36   9 3.34   8 3.34
                             5 3.34   6 3.34
   5  0.667  0.000  0.000-  17 2.34  26 2.34  23 2.36  22 2.36  21 2.36  20 2.36   6 3.34   4 3.34
                             7 3.36   9 3.36
   6  0.000  0.000  0.000-  23 2.34  14 2.34  11 2.36  10 2.36  27 2.36  26 2.36   5 3.34   7 3.34
                             4 3.34   8 3.36
   7  1.000  0.333  0.000-  25 2.34  10 2.34  13 2.36  12 2.36  22 2.36  23 2.36   6 3.34   8 3.34
                             5 3.36   9 3.36
   8  0.333  0.333  0.000-  13 2.34  16 2.34  19 2.36  18 2.36  11 2.36  10 2.36   9 3.34   4 3.34
                             7 3.34   6 3.36
   9  0.333  0.667  0.000-  15 2.34  18 2.34  20 2.36  21 2.36  13 2.36  12 2.36   4 3.34   8 3.34
                             5 3.36   7 3.36
  10  0.111  0.222  0.955-   7 2.34   6 2.36   8 2.36
  11  0.222  0.111  0.045-   4 2.34   6 2.36   8 2.36
  12  0.111  0.556  0.955-   2 2.34   7 2.36   9 2.36
  13  0.222  0.444  0.045-   8 2.34   7 2.36   9 2.36
  14  0.111  0.889  0.955-   6 2.34   2 2.36   4 2.36
  15  0.222  0.777  0.045-   9 2.34   2 2.36   4 2.36
  16  0.444  0.222  0.955-   8 2.34   4 2.36   1 2.36
  17  0.556  0.111  0.045-   5 2.34   4 2.36   1 2.36
  18  0.444  0.556  0.955-   9 2.34   8 2.36   3 2.36
  19  0.556  0.444  0.045-   1 2.34   8 2.36   3 2.36
  20  0.444  0.889  0.955-   4 2.34   9 2.36   5 2.36
  21  0.556  0.777  0.045-   3 2.34   9 2.36   5 2.36
  22  0.777  0.222  0.955-   1 2.34   5 2.36   7 2.36
  23  0.889  0.111  0.045-   6 2.34   5 2.36   7 2.36
  24  0.777  0.556  0.955-   3 2.34   1 2.36   2 2.36
  25  0.889  0.444  0.045-   7 2.34   1 2.36   2 2.36
  26  0.777  0.889  0.955-   5 2.34   3 2.36   6 2.36
  27  0.889  0.777  0.045-   2 2.34   3 2.36   6 2.36
 

IMPORTANT INFORMATION: All symmetrisations will be switched off!
NOSYMM: (Re-)initialisation of all symmetry stuff for point group C_1.

 
 
 KPOINTS: K-POINTS 	#supercell of CrS2 in hexagona

Automatic generation of k-mesh.
Space group operators:
 irot       det(A)        alpha          n_x          n_y          n_z        tau_x        tau_y        tau_z
    1     1.000000     0.000000     1.000000     0.000000     0.000000     0.000000     0.000000     0.000000
 
 Subroutine IBZKPT returns following result:
 ===========================================
 
 Found     34 irreducible k-points:
 
 Following reciprocal coordinates:
            Coordinates               Weight
  0.000000  0.000000  0.000000      1.000000
  0.125000  0.000000  0.000000      2.000000
  0.250000  0.000000  0.000000      2.000000
  0.375000  0.000000  0.000000      2.000000
  0.500000  0.000000  0.000000      1.000000
  0.000000  0.125000  0.000000      2.000000
  0.125000  0.125000  0.000000      2.000000
  0.250000  0.125000  0.000000      2.000000
  0.375000  0.125000  0.000000      2.000000
  0.500000  0.125000  0.000000      2.000000
 -0.375000  0.125000  0.000000      2.000000
 -0.250000  0.125000  0.000000      2.000000
 -0.125000  0.125000  0.000000      2.000000
  0.000000  0.250000  0.000000      2.000000
  0.125000  0.250000  0.000000      2.000000
  0.250000  0.250000  0.000000      2.000000
  0.375000  0.250000  0.000000      2.000000
  0.500000  0.250000  0.000000      2.000000
 -0.375000  0.250000  0.000000      2.000000
 -0.250000  0.250000  0.000000      2.000000
 -0.125000  0.250000  0.000000      2.000000
 -0.000000  0.375000  0.000000      2.000000
  0.125000  0.375000  0.000000      2.000000
  0.250000  0.375000  0.000000      2.000000
  0.375000  0.375000  0.000000      2.000000
  0.500000  0.375000  0.000000      2.000000
 -0.375000  0.375000  0.000000      2.000000
 -0.250000  0.375000  0.000000      2.000000
 -0.125000  0.375000  0.000000      2.000000
  0.000000  0.500000  0.000000      1.000000
  0.125000  0.500000  0.000000      2.000000
  0.250000  0.500000  0.000000      2.000000
  0.375000  0.500000  0.000000      2.000000
  0.500000  0.500000  0.000000      1.000000
 
 Following cartesian coordinates:
            Coordinates               Weight
  0.000000  0.000000  0.000000      1.000000
  0.007209  0.012401  0.000000      2.000000
  0.014418  0.024802  0.000000      2.000000
  0.021626  0.037202  0.000000      2.000000
  0.028835  0.049603  0.000000      1.000000
 -0.007209  0.012401  0.000000      2.000000
  0.000000  0.024802  0.000000      2.000000
  0.007209  0.037202  0.000000      2.000000
  0.014418  0.049603  0.000000      2.000000
  0.021626  0.062004  0.000000      2.000000
 -0.028835 -0.024802  0.000000      2.000000
 -0.021626 -0.012401  0.000000      2.000000
 -0.014418  0.000000  0.000000      2.000000
 -0.014418  0.024802  0.000000      2.000000
 -0.007209  0.037202  0.000000      2.000000
  0.000000  0.049603  0.000000      2.000000
  0.007209  0.062004  0.000000      2.000000
  0.014418  0.074405  0.000000      2.000000
 -0.036044 -0.012401  0.000000      2.000000
 -0.028835  0.000000  0.000000      2.000000
 -0.021626  0.012401  0.000000      2.000000
 -0.021626  0.037202  0.000000      2.000000
 -0.014418  0.049603  0.000000      2.000000
 -0.007209  0.062004  0.000000      2.000000
  0.000000  0.074405  0.000000      2.000000
  0.007209  0.086806  0.000000      2.000000
 -0.043253  0.000000  0.000000      2.000000
 -0.036044  0.012401  0.000000      2.000000
 -0.028835  0.024802  0.000000      2.000000
 -0.028835  0.049603  0.000000      1.000000
 -0.021626  0.062004  0.000000      2.000000
 -0.014418  0.074405  0.000000      2.000000
 -0.007209  0.086806  0.000000      2.000000
  0.000000  0.099206  0.000000      1.000000
 


--------------------------------------------------------------------------------------------------------




 Dimension of arrays:
   k-points           NKPTS =     34   k-points in BZ     NKDIM =     34   number of bands    NBANDS=    120
   number of dos      NEDOS =    301   number of ions     NIONS =     27
   non local maximal  LDIM  =      6   non local SUM 2l+1 LMDIM =     18
   total plane-waves  NPLWV = 222264
   max r-space proj   IRMAX =      1   max aug-charges    IRDMAX=   5642
   dimension x,y,z NGX =    42 NGY =   42 NGZ =  126
   dimension x,y,z NGXF=    84 NGYF=   84 NGZF=  252
   support grid    NGXF=    84 NGYF=   84 NGZF=  252
   ions per type =               3   3   3  18
 NGX,Y,Z   is equivalent  to a cutoff of   6.96,  6.96,  6.98 a.u.
 NGXF,Y,Z  is equivalent  to a cutoff of  13.92, 13.92, 13.96 a.u.


 I would recommend the setting:
   dimension x,y,z NGX =    41 NGY =   41 NGZ =  123
 SYSTEM =  unknown system                          
 POSCAR =  crystal structure from VMoWS2 with Hexag

 Startparameter for this run:
   NWRITE =      2    write-flag & timer
   PREC   = normal    normal or accurate (medium, high low for compatibility)
   ISTART =      0    job   : 0-new  1-cont  2-samecut
   ICHARG =      2    charge: 1-file 2-atom 10-const
   ISPIN  =      1    spin polarized calculation?
   LNONCOLLINEAR =      F non collinear calculations
   LSORBIT =      F    spin-orbit coupling
   INIWAV =      1    electr: 0-lowe 1-rand  2-diag
   LASPH  =      F    aspherical Exc in radial PAW
   METAGGA=      F    non-selfconsistent MetaGGA calc.

 Electronic Relaxation 1
   ENCUT  =  280.0 eV  20.58 Ry    4.54 a.u.  13.68 13.68 40.93*2*pi/ulx,y,z
   ENINI  =  280.0     initial cutoff
   ENAUG  =  373.4 eV  augmentation charge cutoff
   NELM   =     60;   NELMIN=  2; NELMDL= -5     # of ELM steps 
   EDIFF  = 0.1E-03   stopping-criterion for ELM
   LREAL  =      F    real-space projection
   NLSPLINE    = F    spline interpolate recip. space projectors
   LCOMPAT=      F    compatible to vasp.4.4
   GGA_COMPAT  = T    GGA compatible to vasp.4.4-vasp.4.6
   LMAXPAW     = -100 max onsite density
   LMAXMIX     =    2 max onsite mixed and CHGCAR
   VOSKOWN=      0    Vosko Wilk Nusair interpolation
   ROPT   =    0.00000   0.00000   0.00000   0.00000
 Ionic relaxation
   EDIFFG = 0.1E-02   stopping-criterion for IOM
   NSW    =    100    number of steps for IOM
   NBLOCK =      1;   KBLOCK =    100    inner block; outer block 
   IBRION =      1    ionic relax: 0-MD 1-quasi-New 2-CG
   NFREE  =      0    steps in history (QN), initial steepest desc. (CG)
   ISIF   =      3    stress and relaxation
   IWAVPR =     11    prediction:  0-non 1-charg 2-wave 3-comb
   ISYM   =      0    0-nonsym 1-usesym 2-fastsym
   LCORR  =      T    Harris-Foulkes like correction to forces

   POTIM  = 0.5000    time-step for ionic-motion
   TEIN   =    0.0    initial temperature
   TEBEG  =    0.0;   TEEND  =   0.0 temperature during run
   SMASS  =  -3.00    Nose mass-parameter (am)
   estimated Nose-frequenzy (Omega)   =  0.10E-29 period in steps =****** mass=  -0.230E-26a.u.
   SCALEE = 1.0000    scale energy and forces
   NPACO  =    256;   APACO  = 16.0  distance and # of slots for P.C.
   PSTRESS=    0.0 pullay stress

  Mass of Ions in am
   POMASS =  50.94 95.94183.85 32.07
  Ionic Valenz
   ZVAL   =   5.00  6.00  6.00  6.00
  Atomic Wigner-Seitz radii
   RWIGS  =  -1.00 -1.00 -1.00 -1.00
  virtual crystal weights 
   VCA    =   1.00  1.00  1.00  1.00
   NELECT =     159.0000    total number of electrons
   NUPDOWN=      -1.0000    fix difference up-down

 DOS related values:
   EMIN   =  10.00;   EMAX   =-10.00  energy-range for DOS
   EFERMI =   0.00
   ISMEAR =     0;   SIGMA  =   0.20  broadening in eV -4-tet -1-fermi 0-gaus

 Electronic relaxation 2 (details)
   IALGO  =     38    algorithm
   LDIAG  =      T    sub-space diagonalisation (order eigenvalues)
   LSUBROT=      F    optimize rotation matrix (better conditioning)
   TURBO    =      0    0=normal 1=particle mesh
   IRESTART =      0    0=no restart 2=restart with 2 vectors
   NREBOOT  =      0    no. of reboots
   NMIN     =      0    reboot dimension
   EREF     =   0.00    reference energy to select bands
   IMIX   =      4    mixing-type and parameters
     AMIX     =   0.40;   BMIX     =  1.00
     AMIX_MAG =   1.60;   BMIX_MAG =  1.00
     AMIN     =   0.10
     WC   =   100.;   INIMIX=   1;  MIXPRE=   1;  MAXMIX= -45

 Intra band minimization:
   WEIMIN = 0.0010     energy-eigenvalue tresh-hold
   EBREAK =  0.21E-06  absolut break condition
   DEPER  =   0.30     relativ break condition  

   TIME   =   0.40     timestep for ELM

  volume/ion in A,a.u.               =      97.10       655.29
  Fermi-wavevector in a.u.,A,eV,Ry     =   0.643191  1.215456  5.628665  0.413695
  Thomas-Fermi vector in A             =   1.710110
 
 Write flags
   LWAVE  =      F    write WAVECAR
   LCHARG =      F    write CHGCAR
   LVTOT  =      F    write LOCPOT, total local potential
   LVHAR  =      F    write LOCPOT, Hartree potential only
   LELF   =      F    write electronic localiz. function (ELF)
   LORBIT =      0    0 simple, 1 ext, 2 COOP (PROOUT)


 Dipole corrections
   LMONO  =      F    monopole corrections only (constant potential shift)
   LDIPOL =      F    correct potential (dipole corrections)
   IDIPOL =      0    1-x, 2-y, 3-z, 4-all directions 
   EPSILON=  1.0000000 bulk dielectric constant

 Exchange correlation treatment:
   GGA     =    --    GGA type
   LEXCH   =     8    internal setting for exchange type
   VOSKOWN=      0    Vosko Wilk Nusair interpolation
   LHFCALC =     F    Hartree Fock is set to
   LHFONE  =     F    Hartree Fock one center treatment
   AEXX    =    0.0000 exact exchange contribution

 Linear response parameters
   LEPSILON=     F    determine dielectric tensor
   LRPA    =     F    only Hartree local field effects (RPA)
   LNABLA  =     F    use nabla operator in PAW spheres
   LVEL    =     F    velocity operator in full k-point grid
   LINTERFAST=   F  fast interpolation
   KINTER  =     0    interpolate to denser k-point grid
   CSHIFT  =0.1000    complex shift for real part using Kramers Kronig
   OMEGAMAX=  -1.0    maximum frequency
   DEG_THRESHOLD= 0.2000000E-02 threshold for treating states as degnerate
   RTIME   =    0.100 relaxation time in fs

 Orbital magnetization related:
   ORBITALMAG=     F  switch on orbital magnetization
   LCHIMAG   =     F  perturbation theory with respect to B field
   DQ        =  0.001000  dq finite difference perturbation B field



--------------------------------------------------------------------------------------------------------


 quasi-Newton-method for relaxation of ions
 charge density and potential will be updated during run
 non-spin polarized calculation
 Variant of blocked Davidson
 Davidson routine will perform the subspace rotation
 perform sub-space diagonalisation
    after iterative eigenvector-optimisation
 modified Broyden-mixing scheme, WC =      100.0
 initial mixing is a Kerker type mixing with AMIX =  0.4000 and BMIX =      1.0000
 Hartree-type preconditioning will be used
 using additional bands           40
 reciprocal scheme for non local part
 use partial core corrections
 calculate Harris-corrections to forces 
   (improved forces if not selfconsistent)
 use gradient corrections 
 use of overlap-Matrix (Vanderbilt PP)
 Gauss-broadening in eV      SIGMA  =   0.20


--------------------------------------------------------------------------------------------------------


  energy-cutoff  :      280.00
  volume of cell :     2621.81
      direct lattice vectors                 reciprocal lattice vectors
     8.669999960  5.039999894  0.000000000     0.057670129  0.099206348  0.000000000
    -8.669999821  5.040000133  0.000000000    -0.057670126  0.099206350  0.000000000
     0.000000000  0.000000000 30.000000000     0.000000000  0.000000000  0.033333333

  length of vectors
    10.028484344 10.028484344 30.000000000     0.114750788  0.114750788  0.033333333


 
 k-points in units of 2pi/SCALE and weight: K-POINTS 	#supercell of CrS2 in hexagona
   0.00000000  0.00000000  0.00000000       0.016
   0.00720877  0.01240079  0.00000000       0.031
   0.01441753  0.02480159  0.00000000       0.031
   0.02162630  0.03720238  0.00000000       0.031
   0.02883506  0.04960317  0.00000000       0.016
  -0.00720877  0.01240079  0.00000000       0.031
   0.00000000  0.02480159  0.00000000       0.031
   0.00720877  0.03720238  0.00000000       0.031
   0.01441753  0.04960317  0.00000000       0.031
   0.02162630  0.06200397  0.00000000       0.031
  -0.02883506 -0.02480159  0.00000000       0.031
  -0.02162630 -0.01240079  0.00000000       0.031
  -0.01441753  0.00000000  0.00000000       0.031
  -0.01441753  0.02480159  0.00000000       0.031
  -0.00720877  0.03720238  0.00000000       0.031
   0.00000000  0.04960317  0.00000000       0.031
   0.00720877  0.06200397  0.00000000       0.031
   0.01441753  0.07440476  0.00000000       0.031
  -0.03604383 -0.01240079  0.00000000       0.031
  -0.02883506  0.00000000  0.00000000       0.031
  -0.02162630  0.01240079  0.00000000       0.031
  -0.02162630  0.03720238  0.00000000       0.031
  -0.01441753  0.04960317  0.00000000       0.031
  -0.00720877  0.06200397  0.00000000       0.031
   0.00000000  0.07440476  0.00000000       0.031
   0.00720877  0.08680556  0.00000000       0.031
  -0.04325260  0.00000000  0.00000000       0.031
  -0.03604383  0.01240079  0.00000000       0.031
  -0.02883506  0.02480159  0.00000000       0.031
  -0.02883506  0.04960317  0.00000000       0.016
  -0.02162630  0.06200397  0.00000000       0.031
  -0.01441753  0.07440476  0.00000000       0.031
  -0.00720876  0.08680556  0.00000000       0.031
   0.00000000  0.09920635  0.00000000       0.016
 
 k-points in reciprocal lattice and weights: K-POINTS 	#supercell of CrS2 in hexagona
   0.00000000  0.00000000  0.00000000       0.016
   0.12500000  0.00000000  0.00000000       0.031
   0.25000000  0.00000000  0.00000000       0.031
   0.37500000  0.00000000  0.00000000       0.031
   0.50000000  0.00000000  0.00000000       0.016
   0.00000000  0.12500000  0.00000000       0.031
   0.12500000  0.12500000  0.00000000       0.031
   0.25000000  0.12500000  0.00000000       0.031
   0.37500000  0.12500000  0.00000000       0.031
   0.50000000  0.12500000  0.00000000       0.031
  -0.37500000  0.12500000  0.00000000       0.031
  -0.25000000  0.12500000  0.00000000       0.031
  -0.12500000  0.12500000  0.00000000       0.031
   0.00000000  0.25000000  0.00000000       0.031
   0.12500000  0.25000000  0.00000000       0.031
   0.25000000  0.25000000  0.00000000       0.031
   0.37500000  0.25000000  0.00000000       0.031
   0.50000000  0.25000000  0.00000000       0.031
  -0.37500000  0.25000000  0.00000000       0.031
  -0.25000000  0.25000000  0.00000000       0.031
  -0.12500000  0.25000000  0.00000000       0.031
  -0.00000000  0.37500000  0.00000000       0.031
   0.12500000  0.37500000  0.00000000       0.031
   0.25000000  0.37500000  0.00000000       0.031
   0.37500000  0.37500000  0.00000000       0.031
   0.50000000  0.37500000  0.00000000       0.031
  -0.37500000  0.37500000  0.00000000       0.031
  -0.25000000  0.37500000  0.00000000       0.031
  -0.12500000  0.37500000  0.00000000       0.031
   0.00000000  0.50000000  0.00000000       0.016
   0.12500000  0.50000000  0.00000000       0.031
   0.25000000  0.50000000  0.00000000       0.031
   0.37500000  0.50000000  0.00000000       0.031
   0.50000000  0.50000000  0.00000000       0.016
 
 position of ions in fractional coordinates (direct lattice) 
   0.66666669  0.33333334  0.00000000
   0.00000000  0.66666669  0.00000000
   0.66666669  0.66666669  0.00000000
   0.33333334  0.00000000  0.00000000
   0.66666669  0.00000000  0.00000000
   0.00000000  0.00000000  0.00000000
   1.00000000  0.33333334  0.00000000
   0.33333334  0.33333334  0.00000000
   0.33333334  0.66666669  0.00000000
   0.11068511  0.22244981  0.95539999
   0.22244981  0.11068511  0.04460000
   0.11068511  0.55578315  0.95539999
   0.22244981  0.44401845  0.04460000
   0.11068511  0.88911647  0.95539999
   0.22244981  0.77735180  0.04460000
   0.44401845  0.22244981  0.95539999
   0.55578315  0.11068511  0.04460000
   0.44401845  0.55578315  0.95539999
   0.55578315  0.44401845  0.04460000
   0.44401845  0.88911647  0.95539999
   0.55578315  0.77735180  0.04460000
   0.77735180  0.22244981  0.95539999
   0.88911647  0.11068511  0.04460000
   0.77735180  0.55578315  0.95539999
   0.88911647  0.44401845  0.04460000
   0.77735180  0.88911647  0.95539999
   0.88911647  0.77735180  0.04460000
 
 position of ions in cartesian coordinates  (Angst):
   2.89000012  5.04000012  0.00000000
  -5.78000005  3.36000019  0.00000000
   0.00000009  6.72000022  0.00000000
   2.89000007  1.68000002  0.00000000
   5.78000015  3.36000003  0.00000000
   0.00000000  0.00000000  0.00000000
   5.77999993  6.71999999  0.00000000
   0.00000005  3.36000011  0.00000000
  -2.88999998  5.04000020  0.00000000
  -0.96899991  1.67900001 28.66199970
   0.96899995  1.67899998  1.33799996
  -3.85899993  3.35900011 28.66199970
  -1.92100007  3.35900008  1.33799996
  -6.74899970  5.03900005 28.66199970
  -4.81100010  5.03900017  1.33799996
   1.92100017  3.35900003 28.66199970
   3.85900003  3.35900000  1.33799996
  -0.96899986  5.03900012 28.66199970
   0.96900000  5.03900009  1.33799996
  -3.85899963  6.71900006 28.66199970
  -1.92100003  6.71900019  1.33799996
   4.81100024  5.03900004 28.66199970
   6.74899984  5.03899987  1.33799996
   1.92100021  6.71900014 28.66199970
   3.85899981  6.71899996  1.33799996
  -0.96899956  8.39900008 28.66199970
   0.96899979  8.39900005  1.33799996
 


--------------------------------------------------------------------------------------------------------


 k-point  1 :   0.0000 0.0000 0.0000  plane waves:   27959
 k-point  2 :   0.1250 0.0000 0.0000  plane waves:   27889
 k-point  3 :   0.2500 0.0000 0.0000  plane waves:   27875
 k-point  4 :   0.3750 0.0000 0.0000  plane waves:   27893
 k-point  5 :   0.5000 0.0000 0.0000  plane waves:   27932
 k-point  6 :   0.0000 0.1250 0.0000  plane waves:   27889
 k-point  7 :   0.1250 0.1250 0.0000  plane waves:   27906
 k-point  8 :   0.2500 0.1250 0.0000  plane waves:   27898
 k-point  9 :   0.3750 0.1250 0.0000  plane waves:   27888
 k-point 10 :   0.5000 0.1250 0.0000  plane waves:   27873
 k-point 11 :  -0.3750 0.1250 0.0000  plane waves:   27874
 k-point 12 :  -0.2500 0.1250 0.0000  plane waves:   27895
 k-point 13 :  -0.1250 0.1250 0.0000  plane waves:   27879
 k-point 14 :   0.0000 0.2500 0.0000  plane waves:   27875
 k-point 15 :   0.1250 0.2500 0.0000  plane waves:   27898
 k-point 16 :   0.2500 0.2500 0.0000  plane waves:   27920
 k-point 17 :   0.3750 0.2500 0.0000  plane waves:   27901
 k-point 18 :   0.5000 0.2500 0.0000  plane waves:   27875
 k-point 19 :  -0.3750 0.2500 0.0000  plane waves:   27894
 k-point 20 :  -0.2500 0.2500 0.0000  plane waves:   27870
 k-point 21 :  -0.1250 0.2500 0.0000  plane waves:   27895
 k-point 22 :  -0.0000 0.3750 0.0000  plane waves:   27893
 k-point 23 :   0.1250 0.3750 0.0000  plane waves:   27888
 k-point 24 :   0.2500 0.3750 0.0000  plane waves:   27901
 k-point 25 :   0.3750 0.3750 0.0000  plane waves:   27860
 k-point 26 :   0.5000 0.3750 0.0000  plane waves:   27895
 k-point 27 :  -0.3750 0.3750 0.0000  plane waves:   27858
 k-point 28 :  -0.2500 0.3750 0.0000  plane waves:   27894
 k-point 29 :  -0.1250 0.3750 0.0000  plane waves:   27874
 k-point 30 :   0.0000 0.5000 0.0000  plane waves:   27932
 k-point 31 :   0.1250 0.5000 0.0000  plane waves:   27873
 k-point 32 :   0.2500 0.5000 0.0000  plane waves:   27875
 k-point 33 :   0.3750 0.5000 0.0000  plane waves:   27895
 k-point 34 :   0.5000 0.5000 0.0000  plane waves:   27910

 maximum and minimum number of plane-waves per node :     27959    27858

 maximum number of plane-waves:     27959
 maximum index in each direction: 
   IXMAX=   14   IYMAX=   13   IZMAX=   40
   IXMIN=  -14   IYMIN=  -14   IZMIN=  -40

 WARNING: aliasing errors must be expected set NGX to  58 to avoid them
 WARNING: aliasing errors must be expected set NGY to  56 to avoid them
 WARNING: aliasing errors must be expected set NGZ to 162 to avoid them
 aliasing errors are usually negligible using standard VASP settings
 and one can safely disregard these warnings

 serial   3D FFT for wavefunctions

 total amount of memory used by VASP on root node   650782. kBytes
========================================================================

   base      :      30000. kBytes
   nonl-proj :     559647. kBytes
   fftplans  :       2414. kBytes
   grid      :      12150. kBytes
   one-center:        419. kBytes
   wavefun   :      46152. kBytes
 
     INWAV:  cpu time    0.0000: real time    0.0000
 Broyden mixing: mesh for mixing (old mesh)
   NGX = 27   NGY = 27   NGZ = 81
  (NGX  = 84   NGY  = 84   NGZ  =252)
  gives a total of  59049 points

 initial charge density was supplied:
 charge density of overlapping atoms calculated
 number of electron     159.0000000 magnetization 
 keeping initial charge density in first step


--------------------------------------------------------------------------------------------------------


 Maximum index for augmentation-charges          148 (set IRDMAX)


--------------------------------------------------------------------------------------------------------


 First call to EWALD:  gamma=   0.129
 Maximum number of real-space cells 4x 4x 2
 Maximum number of reciprocal cells 2x 2x 5

 FEWALD executed in parallel
    FEWALD:  cpu time    0.0016: real time    0.0017


----------------------------------------- Iteration    1(   1)  ---------------------------------------


    POTLOK:  cpu time    0.0372: real time    0.0374
    SETDIJ:  cpu time    0.0031: real time    0.0032
     EDDAV:  cpu time   21.7232: real time   21.7784
       DOS:  cpu time    0.0013: real time    0.0014
    --------------------------------------------
      LOOP:  cpu time   21.7691: real time   21.8273

 eigenvalue-minimisations  :  8160
 total energy-change (2. order) : 0.1123766E+04  (-0.3586105E+04)
 number of electron     159.0000000 magnetization 
 augmentation part      159.0000000 magnetization 

 Free energy of the ion-electron system (eV)
  ---------------------------------------------------
  alpha Z        PSCENC =        81.65567618
  Ewald energy   TEWEN  =     41891.17177386
  -Hartree energ DENC   =    -47723.81767265
  -exchange      EXHF   =         0.00000000
  -V(xc)+E(xc)   XCENC  =      -242.92468729
  PAW double counting   =      3467.42045192    -2871.19716117
  entropy T*S    EENTRO =        -0.53505349
  eigenvalues    EBANDS =      -239.45014545
  atomic energy  EATOM  =      6761.44252427
  Solvation  Ediel_sol  =         0.00000000
  ---------------------------------------------------
  free energy    TOTEN  =      1123.76570617 eV

  energy without entropy =     1124.30075966  energy(sigma->0) =     1124.03323292


--------------------------------------------------------------------------------------------------------




----------------------------------------- Iteration    1(   2)  ---------------------------------------


     EDDAV:  cpu time   28.2304: real time   28.2986
       DOS:  cpu time    0.0009: real time    0.0009
    --------------------------------------------
      LOOP:  cpu time   28.2325: real time   28.3079

 eigenvalue-minimisations  : 11240
 total energy-change (2. order) :-0.1128095E+04  (-0.1087545E+04)
 number of electron     159.0000000 magnetization 
 augmentation part      159.0000000 magnetization 

 Free energy of the ion-electron system (eV)
  ---------------------------------------------------
  alpha Z        PSCENC =        81.65567618
  Ewald energy   TEWEN  =     41891.17177386
  -Hartree energ DENC   =    -47723.81767265
  -exchange      EXHF   =         0.00000000
  -V(xc)+E(xc)   XCENC  =      -242.92468729
  PAW double counting   =      3467.42045192    -2871.19716117
  entropy T*S    EENTRO =        -0.19023058
  eigenvalues    EBANDS =     -1367.88977136
  atomic energy  EATOM  =      6761.44252427
  Solvation  Ediel_sol  =         0.00000000
  ---------------------------------------------------
  free energy    TOTEN  =        -4.32909684 eV

  energy without entropy =       -4.13886625  energy(sigma->0) =       -4.23398155


--------------------------------------------------------------------------------------------------------




----------------------------------------- Iteration    1(   3)  ---------------------------------------


     EDDAV:  cpu time   27.5685: real time   27.6363
       DOS:  cpu time    0.0010: real time    0.0010
    --------------------------------------------
      LOOP:  cpu time   27.5717: real time   27.6438

 eigenvalue-minimisations  : 10920
 total energy-change (2. order) :-0.1956282E+03  (-0.1880172E+03)
 number of electron     159.0000000 magnetization 
 augmentation part      159.0000000 magnetization 

 Free energy of the ion-electron system (eV)
  ---------------------------------------------------
  alpha Z        PSCENC =        81.65567618
  Ewald energy   TEWEN  =     41891.17177386
  -Hartree energ DENC   =    -47723.81767265
  -exchange      EXHF   =         0.00000000
  -V(xc)+E(xc)   XCENC  =      -242.92468729
  PAW double counting   =      3467.42045192    -2871.19716117
  entropy T*S    EENTRO =        -0.26160985
  eigenvalues    EBANDS =     -1563.44664037
  atomic energy  EATOM  =      6761.44252427
  Solvation  Ediel_sol  =         0.00000000
  ---------------------------------------------------
  free energy    TOTEN  =      -199.95734511 eV

  energy without entropy =     -199.69573525  energy(sigma->0) =     -199.82654018


--------------------------------------------------------------------------------------------------------




----------------------------------------- Iteration    1(   4)  ---------------------------------------


     EDDAV:  cpu time   29.8814: real time   29.9533
       DOS:  cpu time    0.0010: real time    0.0010
    --------------------------------------------
      LOOP:  cpu time   29.8832: real time   29.9616

 eigenvalue-minimisations  : 12040
 total energy-change (2. order) :-0.9014111E+01  (-0.8734564E+01)
 number of electron     159.0000000 magnetization 
 augmentation part      159.0000000 magnetization 

 Free energy of the ion-electron system (eV)
  ---------------------------------------------------
  alpha Z        PSCENC =        81.65567618
  Ewald energy   TEWEN  =     41891.17177386
  -Hartree energ DENC   =    -47723.81767265
  -exchange      EXHF   =         0.00000000
  -V(xc)+E(xc)   XCENC  =      -242.92468729
  PAW double counting   =      3467.42045192    -2871.19716117
  entropy T*S    EENTRO =        -0.29122947
  eigenvalues    EBANDS =     -1572.43113137
  atomic energy  EATOM  =      6761.44252427
  Solvation  Ediel_sol  =         0.00000000
  ---------------------------------------------------
  free energy    TOTEN  =      -208.97145573 eV

  energy without entropy =     -208.68022625  energy(sigma->0) =     -208.82584099


--------------------------------------------------------------------------------------------------------




----------------------------------------- Iteration    1(   5)  ---------------------------------------


     EDDAV:  cpu time   28.6224: real time   28.6913
       DOS:  cpu time    0.0009: real time    0.0009
    CHARGE:  cpu time    0.4590: real time    0.4602
    MIXING:  cpu time    0.0020: real time    0.0021
    --------------------------------------------
      LOOP:  cpu time   29.0853: real time   29.1619

 eigenvalue-minimisations  : 11480
 total energy-change (2. order) :-0.3329302E+00  (-0.3319899E+00)
 number of electron     159.0000110 magnetization 
 augmentation part       -9.8033354 magnetization 

 Broyden mixing:
  rms(total) = 0.27509E+01    rms(broyden)= 0.27505E+01
  rms(prec ) = 0.29368E+01
  weight for this iteration     100.00

 Free energy of the ion-electron system (eV)
  ---------------------------------------------------
  alpha Z        PSCENC =        81.65567618
  Ewald energy   TEWEN  =     41891.17177386
  -Hartree energ DENC   =    -47723.81767265
  -exchange      EXHF   =         0.00000000
  -V(xc)+E(xc)   XCENC  =      -242.92468729
  PAW double counting   =      3467.42045192    -2871.19716117
  entropy T*S    EENTRO =        -0.28818532
  eigenvalues    EBANDS =     -1572.76710573
  atomic energy  EATOM  =      6761.44252427
  Solvation  Ediel_sol  =         0.00000000
  ---------------------------------------------------
  free energy    TOTEN  =      -209.30438594 eV

  energy without entropy =     -209.01620062  energy(sigma->0) =     -209.16029328


--------------------------------------------------------------------------------------------------------




----------------------------------------- Iteration    1(   6)  ---------------------------------------


    POTLOK:  cpu time    0.0335: real time    0.0338
    SETDIJ:  cpu time    0.0026: real time    0.0026
     EDDAV:  cpu time   30.8924: real time   30.9662
       DOS:  cpu time    0.0010: real time    0.0010
    CHARGE:  cpu time    0.4567: real time    0.4578
    MIXING:  cpu time    0.0017: real time    0.0022
    --------------------------------------------
      LOOP:  cpu time   31.3890: real time   31.4723

 eigenvalue-minimisations  : 12600
 total energy-change (2. order) :-0.2857632E+02  (-0.1080497E+02)
 number of electron     159.0000107 magnetization 
 augmentation part        7.0792642 magnetization 

 Broyden mixing:
  rms(total) = 0.59492E+01    rms(broyden)= 0.59485E+01
  rms(prec ) = 0.65605E+01
  weight for this iteration     100.00

 eigenvalues of (default mixing * dielectric matrix)
  average eigenvalue GAMMA=   0.2937
  0.2937

 Free energy of the ion-electron system (eV)
  ---------------------------------------------------
  alpha Z        PSCENC =        81.65567618
  Ewald energy   TEWEN  =     41891.17177386
  -Hartree energ DENC   =    -47702.22096812
  -exchange      EXHF   =         0.00000000
  -V(xc)+E(xc)   XCENC  =      -233.61748931
  PAW double counting   =      3676.53904874    -3082.63027949
  entropy T*S    EENTRO =        -0.25236506
  eigenvalues    EBANDS =     -1629.96862868
  atomic energy  EATOM  =      6761.44252427
  Solvation  Ediel_sol  =         0.00000000
  ---------------------------------------------------
  free energy    TOTEN  =      -237.88070762 eV

  energy without entropy =     -237.62834256  energy(sigma->0) =     -237.75452509


--------------------------------------------------------------------------------------------------------




----------------------------------------- Iteration    1(   7)  ---------------------------------------


    POTLOK:  cpu time    0.0319: real time    0.0319
    SETDIJ:  cpu time    0.0024: real time    0.0024
     EDDAV:  cpu time   32.7878: real time   32.8668
       DOS:  cpu time    0.0010: real time    0.0010
    CHARGE:  cpu time    0.4619: real time    0.4631
    MIXING:  cpu time    0.0012: real time    0.0012
    --------------------------------------------
      LOOP:  cpu time   33.2874: real time   33.3760

 eigenvalue-minimisations  : 13480
 total energy-change (2. order) : 0.4131365E+02  (-0.1751455E+02)
 number of electron     159.0000088 magnetization 
 augmentation part       -6.2618314 magnetization 

 Broyden mixing:
  rms(total) = 0.20019E+01    rms(broyden)= 0.20000E+01
  rms(prec ) = 0.22236E+01
  weight for this iteration     100.00

 eigenvalues of (default mixing * dielectric matrix)
  average eigenvalue GAMMA=   0.5521
  0.8931  0.2112

 Free energy of the ion-electron system (eV)
  ---------------------------------------------------
  alpha Z        PSCENC =        81.65567618
  Ewald energy   TEWEN  =     41891.17177386
  -Hartree energ DENC   =    -47739.22346275
  -exchange      EXHF   =         0.00000000
  -V(xc)+E(xc)   XCENC  =      -234.98845845
  PAW double counting   =      3763.79650925    -3177.83147826
  entropy T*S    EENTRO =        -0.35589009
  eigenvalues    EBANDS =     -1542.23425626
  atomic energy  EATOM  =      6761.44252427
  Solvation  Ediel_sol  =         0.00000000
  ---------------------------------------------------
  free energy    TOTEN  =      -196.56706225 eV

  energy without entropy =     -196.21117216  energy(sigma->0) =     -196.38911721


--------------------------------------------------------------------------------------------------------




----------------------------------------- Iteration    1(   8)  ---------------------------------------


    POTLOK:  cpu time    0.0303: real time    0.0304
    SETDIJ:  cpu time    0.0023: real time    0.0023
     EDDAV:  cpu time   29.6439: real time   29.7147
       DOS:  cpu time    0.0011: real time    0.0011
    CHARGE:  cpu time    0.4702: real time    0.4713
    MIXING:  cpu time    0.0013: real time    0.0017
    --------------------------------------------
      LOOP:  cpu time   30.1501: real time   30.2312

 eigenvalue-minimisations  : 11960
 total energy-change (2. order) : 0.7095702E+01  (-0.1764647E+01)
 number of electron     159.0000095 magnetization 
 augmentation part       -6.3733909 magnetization 

 Broyden mixing:
  rms(total) = 0.12523E+01    rms(broyden)= 0.12520E+01
  rms(prec ) = 0.13527E+01
  weight for this iteration     100.00

 eigenvalues of (default mixing * dielectric matrix)
  average eigenvalue GAMMA=   0.5862
  1.1356  0.2312  0.3918

 Free energy of the ion-electron system (eV)
  ---------------------------------------------------
  alpha Z        PSCENC =        81.65567618
  Ewald energy   TEWEN  =     41891.17177386
  -Hartree energ DENC   =    -47762.33921344
  -exchange      EXHF   =         0.00000000
  -V(xc)+E(xc)   XCENC  =      -235.00456042
  PAW double counting   =      3907.12387006    -3322.78980003
  entropy T*S    EENTRO =        -0.31144613
  eigenvalues    EBANDS =     -1510.42018429
  atomic energy  EATOM  =      6761.44252427
  Solvation  Ediel_sol  =         0.00000000
  ---------------------------------------------------
  free energy    TOTEN  =      -189.47135993 eV

  energy without entropy =     -189.15991381  energy(sigma->0) =     -189.31563687


--------------------------------------------------------------------------------------------------------




----------------------------------------- Iteration    1(   9)  ---------------------------------------


    POTLOK:  cpu time    0.0349: real time    0.0352
    SETDIJ:  cpu time    0.0023: real time    0.0023
     EDDAV:  cpu time   33.0510: real time   33.1306
       DOS:  cpu time    0.0010: real time    0.0010
    CHARGE:  cpu time    0.4806: real time    0.4818
    MIXING:  cpu time    0.0002: real time    0.0012
    --------------------------------------------
      LOOP:  cpu time   33.5733: real time   33.7755

 eigenvalue-minimisations  : 13600
 total energy-change (2. order) : 0.1343770E+01  (-0.3031538E+00)
 number of electron     159.0000091 magnetization 
 augmentation part       -5.5499883 magnetization 

 Broyden mixing:
  rms(total) = 0.91169E+00    rms(broyden)= 0.91146E+00
  rms(prec ) = 0.98896E+00
  weight for this iteration     100.00

 eigenvalues of (default mixing * dielectric matrix)
  average eigenvalue GAMMA=   0.7415
  1.8139  0.6218  0.2201  0.3103

 Free energy of the ion-electron system (eV)
  ---------------------------------------------------
  alpha Z        PSCENC =        81.65567618
  Ewald energy   TEWEN  =     41891.17177386
  -Hartree energ DENC   =    -47766.98673903
  -exchange      EXHF   =         0.00000000
  -V(xc)+E(xc)   XCENC  =      -234.10953114
  PAW double counting   =      3977.18751404    -3393.72571551
  entropy T*S    EENTRO =        -0.32135373
  eigenvalues    EBANDS =     -1504.44173857
  atomic energy  EATOM  =      6761.44252427
  Solvation  Ediel_sol  =         0.00000000
  ---------------------------------------------------
  free energy    TOTEN  =      -188.12758964 eV

  energy without entropy =     -187.80623591  energy(sigma->0) =     -187.96691277


--------------------------------------------------------------------------------------------------------




----------------------------------------- Iteration    1(  10)  ---------------------------------------


    POTLOK:  cpu time    0.0319: real time    0.0320
    SETDIJ:  cpu time    0.0024: real time    0.0024
     EDDAV:  cpu time   32.8958: real time   32.9753
       DOS:  cpu time    0.0010: real time    0.0010
    CHARGE:  cpu time    0.4944: real time    0.4955
    MIXING:  cpu time    0.0013: real time    0.0013
    --------------------------------------------
      LOOP:  cpu time   33.4288: real time   33.5172

 eigenvalue-minimisations  : 13520
 total energy-change (2. order) : 0.1191678E+01  (-0.1725560E+00)
 number of electron     159.0000092 magnetization 
 augmentation part       -4.2539949 magnetization 

 Broyden mixing:
  rms(total) = 0.21500E+00    rms(broyden)= 0.21442E+00
  rms(prec ) = 0.22689E+00
  weight for this iteration     100.00

 eigenvalues of (default mixing * dielectric matrix)
  average eigenvalue GAMMA=   0.8390
  1.8536  1.1909  0.6410  0.2205  0.2890

 Free energy of the ion-electron system (eV)
  ---------------------------------------------------
  alpha Z        PSCENC =        81.65567618
  Ewald energy   TEWEN  =     41891.17177386
  -Hartree energ DENC   =    -47780.20861033
  -exchange      EXHF   =         0.00000000
  -V(xc)+E(xc)   XCENC  =      -232.57243871
  PAW double counting   =      4105.44782816    -3523.59155160
  entropy T*S    EENTRO =        -0.35109071
  eigenvalues    EBANDS =     -1489.93002296
  atomic energy  EATOM  =      6761.44252427
  Solvation  Ediel_sol  =         0.00000000
  ---------------------------------------------------
  free energy    TOTEN  =      -186.93591184 eV

  energy without entropy =     -186.58482113  energy(sigma->0) =     -186.76036648


--------------------------------------------------------------------------------------------------------




----------------------------------------- Iteration    1(  11)  ---------------------------------------


    POTLOK:  cpu time    0.0298: real time    0.0301
    SETDIJ:  cpu time    0.0023: real time    0.0023
     EDDAV:  cpu time   33.0510: real time   33.1305
       DOS:  cpu time    0.0010: real time    0.0010
    CHARGE:  cpu time    0.4953: real time    0.4965
    MIXING:  cpu time    0.0013: real time    0.0013
    --------------------------------------------
      LOOP:  cpu time   33.5819: real time   33.6706

 eigenvalue-minimisations  : 13600
 total energy-change (2. order) :-0.8805409E-01  (-0.5871568E-01)
 number of electron     159.0000090 magnetization 
 augmentation part       -4.4491056 magnetization 

 Broyden mixing:
  rms(total) = 0.36813E+00    rms(broyden)= 0.36790E+00
  rms(prec ) = 0.40759E+00
  weight for this iteration     100.00

 eigenvalues of (default mixing * dielectric matrix)
  average eigenvalue GAMMA=   0.8543
  1.8621  1.8621  0.6389  0.2186  0.2836  0.2605

 Free energy of the ion-electron system (eV)
  ---------------------------------------------------
  alpha Z        PSCENC =        81.65567618
  Ewald energy   TEWEN  =     41891.17177386
  -Hartree energ DENC   =    -47790.12423581
  -exchange      EXHF   =         0.00000000
  -V(xc)+E(xc)   XCENC  =      -232.24310214
  PAW double counting   =      4151.73305564    -3569.99322885
  entropy T*S    EENTRO =        -0.33816154
  eigenvalues    EBANDS =     -1480.32826754
  atomic energy  EATOM  =      6761.44252427
  Solvation  Ediel_sol  =         0.00000000
  ---------------------------------------------------
  free energy    TOTEN  =      -187.02396593 eV

  energy without entropy =     -186.68580439  energy(sigma->0) =     -186.85488516


--------------------------------------------------------------------------------------------------------




----------------------------------------- Iteration    1(  12)  ---------------------------------------


    POTLOK:  cpu time    0.0308: real time    0.0309
    SETDIJ:  cpu time    0.0025: real time    0.0025
     EDDAV:  cpu time   31.6913: real time   31.7675
       DOS:  cpu time    0.0010: real time    0.0010
    CHARGE:  cpu time    0.4948: real time    0.4959
    MIXING:  cpu time    0.0014: real time    0.0014
    --------------------------------------------
      LOOP:  cpu time   32.2228: real time   32.3088

 eigenvalue-minimisations  : 12920
 total energy-change (2. order) : 0.7721106E-01  (-0.6944218E-01)
 number of electron     159.0000088 magnetization 
 augmentation part       -4.4526483 magnetization 

 Broyden mixing:
  rms(total) = 0.32465E+00    rms(broyden)= 0.32444E+00
  rms(prec ) = 0.35972E+00
  weight for this iteration     100.00

 eigenvalues of (default mixing * dielectric matrix)
  average eigenvalue GAMMA=   0.8071
  1.9641  1.9641  0.6385  0.3992  0.2984  0.2197  0.1658

 Free energy of the ion-electron system (eV)
  ---------------------------------------------------
  alpha Z        PSCENC =        81.65567618
  Ewald energy   TEWEN  =     41891.17177386
  -Hartree energ DENC   =    -47797.36480231
  -exchange      EXHF   =         0.00000000
  -V(xc)+E(xc)   XCENC  =      -232.04054648
  PAW double counting   =      4179.61719661    -3597.85861341
  entropy T*S    EENTRO =        -0.33227300
  eigenvalues    EBANDS =     -1473.23769059
  atomic energy  EATOM  =      6761.44252427
  Solvation  Ediel_sol  =         0.00000000
  ---------------------------------------------------
  free energy    TOTEN  =      -186.94675487 eV

  energy without entropy =     -186.61448187  energy(sigma->0) =     -186.78061837


--------------------------------------------------------------------------------------------------------




----------------------------------------- Iteration    1(  13)  ---------------------------------------


    POTLOK:  cpu time    0.0315: real time    0.0317
    SETDIJ:  cpu time    0.0024: real time    0.0024
     EDDAV:  cpu time   32.1089: real time   32.1861
       DOS:  cpu time    0.0011: real time    0.0011
    CHARGE:  cpu time    0.4966: real time    0.4979
    MIXING:  cpu time    0.0013: real time    0.0013
    --------------------------------------------
      LOOP:  cpu time   32.6430: real time   32.7301

 eigenvalue-minimisations  : 13160
 total energy-change (2. order) : 0.8114363E-01  (-0.2444991E-01)
 number of electron     159.0000088 magnetization 
 augmentation part       -4.3709230 magnetization 

 Broyden mixing:
  rms(total) = 0.18321E+00    rms(broyden)= 0.18307E+00
  rms(prec ) = 0.20551E+00
  weight for this iteration     100.00

 eigenvalues of (default mixing * dielectric matrix)
  average eigenvalue GAMMA=   0.7914
  2.2289  1.7364  0.8120  0.6355  0.2994  0.2200  0.2564  0.1429

 Free energy of the ion-electron system (eV)
  ---------------------------------------------------
  alpha Z        PSCENC =        81.65567618
  Ewald energy   TEWEN  =     41891.17177386
  -Hartree energ DENC   =    -47800.45081391
  -exchange      EXHF   =         0.00000000
  -V(xc)+E(xc)   XCENC  =      -231.95897235
  PAW double counting   =      4187.96287741    -3606.17381179
  entropy T*S    EENTRO =        -0.33554223
  eigenvalues    EBANDS =     -1470.17932266
  atomic energy  EATOM  =      6761.44252427
  Solvation  Ediel_sol  =         0.00000000
  ---------------------------------------------------
  free energy    TOTEN  =      -186.86561124 eV

  energy without entropy =     -186.53006901  energy(sigma->0) =     -186.69784012


--------------------------------------------------------------------------------------------------------




----------------------------------------- Iteration    1(  14)  ---------------------------------------


    POTLOK:  cpu time    0.0301: real time    0.0305
    SETDIJ:  cpu time    0.0023: real time    0.0023
     EDDAV:  cpu time   32.1335: real time   32.2103
       DOS:  cpu time    0.0010: real time    0.0010
    CHARGE:  cpu time    0.4964: real time    0.4976
    MIXING:  cpu time    0.0015: real time    0.0015
    --------------------------------------------
      LOOP:  cpu time   32.6662: real time   32.7526

 eigenvalue-minimisations  : 13160
 total energy-change (2. order) : 0.3845046E-01  (-0.9149223E-02)
 number of electron     159.0000089 magnetization 
 augmentation part       -4.1397082 magnetization 

 Broyden mixing:
  rms(total) = 0.60864E-01    rms(broyden)= 0.60670E-01
  rms(prec ) = 0.68669E-01
  weight for this iteration     100.00

 eigenvalues of (default mixing * dielectric matrix)
  average eigenvalue GAMMA=   0.7794
  2.2362  1.7965  0.9581  0.5868  0.5256  0.2982  0.2203  0.2521  0.1410

 Free energy of the ion-electron system (eV)
  ---------------------------------------------------
  alpha Z        PSCENC =        81.65567618
  Ewald energy   TEWEN  =     41891.17177386
  -Hartree energ DENC   =    -47804.05801212
  -exchange      EXHF   =         0.00000000
  -V(xc)+E(xc)   XCENC  =      -231.87457450
  PAW double counting   =      4191.92035942    -3610.07397454
  entropy T*S    EENTRO =        -0.34340257
  eigenvalues    EBANDS =     -1466.66753077
  atomic energy  EATOM  =      6761.44252427
  Solvation  Ediel_sol  =         0.00000000
  ---------------------------------------------------
  free energy    TOTEN  =      -186.82716078 eV

  energy without entropy =     -186.48375820  energy(sigma->0) =     -186.65545949


--------------------------------------------------------------------------------------------------------




----------------------------------------- Iteration    1(  15)  ---------------------------------------


    POTLOK:  cpu time    0.0313: real time    0.0313
    SETDIJ:  cpu time    0.0024: real time    0.0024
     EDDAV:  cpu time   28.9168: real time   28.9863
       DOS:  cpu time    0.0010: real time    0.0010
    CHARGE:  cpu time    0.4946: real time    0.4957
    MIXING:  cpu time    0.0016: real time    0.0016
    --------------------------------------------
      LOOP:  cpu time   29.4488: real time   29.5271

 eigenvalue-minimisations  : 11600
 total energy-change (2. order) : 0.3878433E-02  (-0.1039914E-02)
 number of electron     159.0000089 magnetization 
 augmentation part       -4.1622685 magnetization 

 Broyden mixing:
  rms(total) = 0.31123E-01    rms(broyden)= 0.31104E-01
  rms(prec ) = 0.36037E-01
  weight for this iteration     100.00

 eigenvalues of (default mixing * dielectric matrix)
  average eigenvalue GAMMA=   0.8293
  2.3083  2.0328  1.2909  0.6886  0.6886  0.3741  0.2982  0.2202  0.2502  0.1411

 Free energy of the ion-electron system (eV)
  ---------------------------------------------------
  alpha Z        PSCENC =        81.65567618
  Ewald energy   TEWEN  =     41891.17177386
  -Hartree energ DENC   =    -47806.91386996
  -exchange      EXHF   =         0.00000000
  -V(xc)+E(xc)   XCENC  =      -231.83223533
  PAW double counting   =      4193.04590773    -3611.15896072
  entropy T*S    EENTRO =        -0.34229571
  eigenvalues    EBANDS =     -1463.89180266
  atomic energy  EATOM  =      6761.44252427
  Solvation  Ediel_sol  =         0.00000000
  ---------------------------------------------------
  free energy    TOTEN  =      -186.82328234 eV

  energy without entropy =     -186.48098663  energy(sigma->0) =     -186.65213449


--------------------------------------------------------------------------------------------------------




----------------------------------------- Iteration    1(  16)  ---------------------------------------


    POTLOK:  cpu time    0.0314: real time    0.0314
    SETDIJ:  cpu time    0.0024: real time    0.0024
     EDDAV:  cpu time   31.4154: real time   31.4904
       DOS:  cpu time    0.0010: real time    0.0010
    CHARGE:  cpu time    0.4970: real time    0.4982
    MIXING:  cpu time    0.0017: real time    0.0017
    --------------------------------------------
      LOOP:  cpu time   31.9497: real time   32.0340

 eigenvalue-minimisations  : 12840
 total energy-change (2. order) :-0.6435915E-03  (-0.9192593E-03)
 number of electron     159.0000089 magnetization 
 augmentation part       -4.2068943 magnetization 

 Broyden mixing:
  rms(total) = 0.54849E-01    rms(broyden)= 0.54827E-01
  rms(prec ) = 0.61060E-01
  weight for this iteration     100.00

 eigenvalues of (default mixing * dielectric matrix)
  average eigenvalue GAMMA=   0.8016
  2.4117  2.1334  1.3933  0.7655  0.6546  0.4016  0.2986  0.2203  0.2506  0.1412
  0.1470

 Free energy of the ion-electron system (eV)
  ---------------------------------------------------
  alpha Z        PSCENC =        81.65567618
  Ewald energy   TEWEN  =     41891.17177386
  -Hartree energ DENC   =    -47812.00465271
  -exchange      EXHF   =         0.00000000
  -V(xc)+E(xc)   XCENC  =      -231.76530817
  PAW double counting   =      4194.66703955    -3612.72494958
  entropy T*S    EENTRO =        -0.34110779
  eigenvalues    EBANDS =     -1458.92492154
  atomic energy  EATOM  =      6761.44252427
  Solvation  Ediel_sol  =         0.00000000
  ---------------------------------------------------
  free energy    TOTEN  =      -186.82392593 eV

  energy without entropy =     -186.48281814  energy(sigma->0) =     -186.65337204


--------------------------------------------------------------------------------------------------------




----------------------------------------- Iteration    1(  17)  ---------------------------------------


    POTLOK:  cpu time    0.0334: real time    0.0337
    SETDIJ:  cpu time    0.0024: real time    0.0024
     EDDAV:  cpu time   32.2564: real time   32.3341
       DOS:  cpu time    0.0011: real time    0.0011
    CHARGE:  cpu time    0.4965: real time    0.4977
    MIXING:  cpu time    0.0017: real time    0.0017
    --------------------------------------------
      LOOP:  cpu time   32.7929: real time   32.8805

 eigenvalue-minimisations  : 13200
 total energy-change (2. order) : 0.2374947E-02  (-0.6758382E-03)
 number of electron     159.0000089 magnetization 
 augmentation part       -4.2146127 magnetization 

 Broyden mixing:
  rms(total) = 0.21765E-01    rms(broyden)= 0.21727E-01
  rms(prec ) = 0.25197E-01
  weight for this iteration     100.00

 eigenvalues of (default mixing * dielectric matrix)
  average eigenvalue GAMMA=   0.8205
  2.3052  2.3052  1.3505  1.1548  0.6596  0.6596  0.3769  0.2975  0.2202  0.2504
  0.1412  0.1247

 Free energy of the ion-electron system (eV)
  ---------------------------------------------------
  alpha Z        PSCENC =        81.65567618
  Ewald energy   TEWEN  =     41891.17177386
  -Hartree energ DENC   =    -47813.92056540
  -exchange      EXHF   =         0.00000000
  -V(xc)+E(xc)   XCENC  =      -231.74183713
  PAW double counting   =      4195.05970693    -3613.09983364
  entropy T*S    EENTRO =        -0.34094939
  eigenvalues    EBANDS =     -1457.04804666
  atomic energy  EATOM  =      6761.44252427
  Solvation  Ediel_sol  =         0.00000000
  ---------------------------------------------------
  free energy    TOTEN  =      -186.82155099 eV

  energy without entropy =     -186.48060160  energy(sigma->0) =     -186.65107629


--------------------------------------------------------------------------------------------------------




----------------------------------------- Iteration    1(  18)  ---------------------------------------


    POTLOK:  cpu time    0.0313: real time    0.0314
    SETDIJ:  cpu time    0.0023: real time    0.0023
     EDDAV:  cpu time   28.5828: real time   28.6525
       DOS:  cpu time    0.0011: real time    0.0011
    CHARGE:  cpu time    0.4964: real time    0.4976
    MIXING:  cpu time    0.0019: real time    0.0019
    --------------------------------------------
      LOOP:  cpu time   29.1178: real time   29.1961

 eigenvalue-minimisations  : 11480
 total energy-change (2. order) : 0.4579682E-03  (-0.1347077E-03)
 number of electron     159.0000089 magnetization 
 augmentation part       -4.1862841 magnetization 

 Broyden mixing:
  rms(total) = 0.64422E-02    rms(broyden)= 0.64270E-02
  rms(prec ) = 0.93349E-02
  weight for this iteration     100.00

 eigenvalues of (default mixing * dielectric matrix)
  average eigenvalue GAMMA=   0.8907
  2.5228  2.5228  1.5795  1.2610  0.9987  0.6426  0.6426  0.3750  0.2976  0.2202
  0.2504  0.1412  0.1244

 Free energy of the ion-electron system (eV)
  ---------------------------------------------------
  alpha Z        PSCENC =        81.65567618
  Ewald energy   TEWEN  =     41891.17177386
  -Hartree energ DENC   =    -47817.23452137
  -exchange      EXHF   =         0.00000000
  -V(xc)+E(xc)   XCENC  =      -231.71044668
  PAW double counting   =      4194.67563171    -3612.69549143
  entropy T*S    EENTRO =        -0.34158802
  eigenvalues    EBANDS =     -1453.78465154
  atomic energy  EATOM  =      6761.44252427
  Solvation  Ediel_sol  =         0.00000000
  ---------------------------------------------------
  free energy    TOTEN  =      -186.82109302 eV

  energy without entropy =     -186.47950499  energy(sigma->0) =     -186.65029901


--------------------------------------------------------------------------------------------------------




----------------------------------------- Iteration    1(  19)  ---------------------------------------


    POTLOK:  cpu time    0.0307: real time    0.0310
    SETDIJ:  cpu time    0.0023: real time    0.0023
     EDDAV:  cpu time   26.3898: real time   26.4533
       DOS:  cpu time    0.0003: real time    0.0011
    CHARGE:  cpu time    0.4978: real time    0.4990
    MIXING:  cpu time    0.0018: real time    0.0018
    --------------------------------------------
      LOOP:  cpu time   26.9248: real time   26.9958

 eigenvalue-minimisations  : 10440
 total energy-change (2. order) :-0.5912614E-03  (-0.8159600E-04)
 number of electron     159.0000089 magnetization 
 augmentation part       -4.1972199 magnetization 

 Broyden mixing:
  rms(total) = 0.79856E-02    rms(broyden)= 0.79804E-02
  rms(prec ) = 0.98933E-02
  weight for this iteration     100.00

 eigenvalues of (default mixing * dielectric matrix)
  average eigenvalue GAMMA=   0.8789
  2.6345  2.6345  1.6546  1.3358  1.0132  0.6468  0.6468  0.3752  0.2202  0.2976
  0.2505  0.3291  0.1412  0.1244

 Free energy of the ion-electron system (eV)
  ---------------------------------------------------
  alpha Z        PSCENC =        81.65567618
  Ewald energy   TEWEN  =     41891.17177386
  -Hartree energ DENC   =    -47822.55302211
  -exchange      EXHF   =         0.00000000
  -V(xc)+E(xc)   XCENC  =      -231.66627489
  PAW double counting   =      4193.47337950    -3611.47282219
  entropy T*S    EENTRO =        -0.34114694
  eigenvalues    EBANDS =     -1448.53177197
  atomic energy  EATOM  =      6761.44252427
  Solvation  Ediel_sol  =         0.00000000
  ---------------------------------------------------
  free energy    TOTEN  =      -186.82168428 eV

  energy without entropy =     -186.48053734  energy(sigma->0) =     -186.65111081


--------------------------------------------------------------------------------------------------------




----------------------------------------- Iteration    1(  20)  ---------------------------------------


    POTLOK:  cpu time    0.0321: real time    0.0324
    SETDIJ:  cpu time    0.0024: real time    0.0024
     EDDAV:  cpu time   21.2796: real time   21.3305
       DOS:  cpu time    0.0011: real time    0.0011
    CHARGE:  cpu time    0.4981: real time    0.4993
    MIXING:  cpu time    0.0019: real time    0.0019
    --------------------------------------------
      LOOP:  cpu time   21.8165: real time   21.8768

 eigenvalue-minimisations  :  7880
 total energy-change (2. order) :-0.3122975E-03  (-0.3083041E-04)
 number of electron     159.0000089 magnetization 
 augmentation part       -4.1973932 magnetization 

 Broyden mixing:
  rms(total) = 0.56425E-02    rms(broyden)= 0.56358E-02
  rms(prec ) = 0.71062E-02
  weight for this iteration     100.00

 eigenvalues of (default mixing * dielectric matrix)
  average eigenvalue GAMMA=   0.9521
  3.2721  2.5137  1.8176  1.7160  1.0057  1.0057  0.6439  0.6439  0.3752  0.2976
  0.2202  0.1412  0.2505  0.2545  0.1244

 Free energy of the ion-electron system (eV)
  ---------------------------------------------------
  alpha Z        PSCENC =        81.65567618
  Ewald energy   TEWEN  =     41891.17177386
  -Hartree energ DENC   =    -47824.48712027
  -exchange      EXHF   =         0.00000000
  -V(xc)+E(xc)   XCENC  =      -231.65141468
  PAW double counting   =      4193.08900979    -3611.08387079
  entropy T*S    EENTRO =        -0.34108113
  eigenvalues    EBANDS =     -1446.61749381
  atomic energy  EATOM  =      6761.44252427
  Solvation  Ediel_sol  =         0.00000000
  ---------------------------------------------------
  free energy    TOTEN  =      -186.82199658 eV

  energy without entropy =     -186.48091545  energy(sigma->0) =     -186.65145601


--------------------------------------------------------------------------------------------------------




----------------------------------------- Iteration    1(  21)  ---------------------------------------


    POTLOK:  cpu time    0.0293: real time    0.0305
    SETDIJ:  cpu time    0.0023: real time    0.0023
     EDDAV:  cpu time   21.2530: real time   21.3041
       DOS:  cpu time    0.0012: real time    0.0012
    CHARGE:  cpu time    0.4959: real time    0.4971
    MIXING:  cpu time    0.0019: real time    0.0019
    --------------------------------------------
      LOOP:  cpu time   21.7858: real time   21.8455

 eigenvalue-minimisations  :  7920
 total energy-change (2. order) :-0.1161011E-02  (-0.2926137E-04)
 number of electron     159.0000089 magnetization 
 augmentation part       -4.1891333 magnetization 

 Broyden mixing:
  rms(total) = 0.26382E-02    rms(broyden)= 0.26337E-02
  rms(prec ) = 0.34925E-02
  weight for this iteration     100.00

 eigenvalues of (default mixing * dielectric matrix)
  average eigenvalue GAMMA=   0.9897
  3.7240  2.4808  2.1307  1.6733  1.0801  1.0801  0.7345  0.6343  0.6343  0.3752
  0.2976  0.2202  0.1412  0.2505  0.2535  0.1244

 Free energy of the ion-electron system (eV)
  ---------------------------------------------------
  alpha Z        PSCENC =        81.65567618
  Ewald energy   TEWEN  =     41891.17177386
  -Hartree energ DENC   =    -47828.39478674
  -exchange      EXHF   =         0.00000000
  -V(xc)+E(xc)   XCENC  =      -231.62480866
  PAW double counting   =      4192.48451601    -3610.47736703
  entropy T*S    EENTRO =        -0.34119163
  eigenvalues    EBANDS =     -1442.73949385
  atomic energy  EATOM  =      6761.44252427
  Solvation  Ediel_sol  =         0.00000000
  ---------------------------------------------------
  free energy    TOTEN  =      -186.82315759 eV

  energy without entropy =     -186.48196596  energy(sigma->0) =     -186.65256177


--------------------------------------------------------------------------------------------------------




----------------------------------------- Iteration    1(  22)  ---------------------------------------


    POTLOK:  cpu time    0.0305: real time    0.0306
    SETDIJ:  cpu time    0.0023: real time    0.0023
     EDDAV:  cpu time   18.8363: real time   18.8814
       DOS:  cpu time    0.0011: real time    0.0011
    CHARGE:  cpu time    0.4984: real time    0.4995
    MIXING:  cpu time    0.0020: real time    0.0021
    --------------------------------------------
      LOOP:  cpu time   19.3717: real time   19.4259

 eigenvalue-minimisations  :  6720
 total energy-change (2. order) :-0.7725124E-03  (-0.8317192E-05)
 number of electron     159.0000089 magnetization 
 augmentation part       -4.1897449 magnetization 

 Broyden mixing:
  rms(total) = 0.24379E-02    rms(broyden)= 0.24360E-02
  rms(prec ) = 0.30501E-02
  weight for this iteration     100.00

 eigenvalues of (default mixing * dielectric matrix)
  average eigenvalue GAMMA=   1.0684
  4.7771  2.4878  2.4878  1.6667  1.3762  1.0396  0.9978  0.6404  0.6404  0.3751
  0.3869  0.2976  0.2202  0.2505  0.2533  0.1412  0.1244

 Free energy of the ion-electron system (eV)
  ---------------------------------------------------
  alpha Z        PSCENC =        81.65567618
  Ewald energy   TEWEN  =     41891.17177386
  -Hartree energ DENC   =    -47830.16575613
[...]
    104      -0.5458      0.00000
    105      -0.4517      0.00000
    106      -0.3596      0.00000
    107      -0.2783      0.00000
    108      -0.1080      0.00000
    109       0.0396      0.00000
    110       0.1576      0.00000
    111       0.3666      0.00000
    112       0.5890      0.00000
    113       0.7538      0.00000
    114       1.0031      0.00000
    115       1.1395      0.00000
    116       1.2817      0.00000
    117       1.5108      0.00000
    118       2.1587      0.00000
    119       2.3186      0.00000
    120       2.4258      0.00000

 k-point    34 :       0.5000    0.5000    0.0000
  band No.  band energies     occupation 
      1     -17.5066      2.00000
      2     -17.3494      2.00000
      3     -16.7443      2.00000
      4     -16.7162      2.00000
      5     -16.5835      2.00000
      6     -16.5512      2.00000
      7     -16.2772      2.00000
      8     -16.1982      2.00000
      9     -16.1164      2.00000
     10     -16.0809      2.00000
     11     -15.8781      2.00000
     12     -15.8342      2.00000
     13     -15.7679      2.00000
     14     -15.6974      2.00000
     15     -15.6408      2.00000
     16     -15.4306      2.00000
     17     -15.3387      2.00000
     18     -15.2138      2.00000
     19      -9.8151      2.00000
     20      -9.3530      2.00000
     21      -9.3033      2.00000
     22      -9.0087      2.00000
     23      -8.9401      2.00000
     24      -8.8330      2.00000
     25      -8.6784      2.00000
     26      -8.6618      2.00000
     27      -8.4417      2.00000
     28      -8.2929      2.00000
     29      -8.2298      2.00000
     30      -8.1333      2.00000
     31      -8.0817      2.00000
     32      -8.0135      2.00000
     33      -7.9230      2.00000
     34      -7.8457      2.00000
     35      -7.7459      2.00000
     36      -7.6825      2.00000
     37      -7.6417      2.00000
     38      -7.5951      2.00000
     39      -7.4667      2.00000
     40      -7.3351      2.00000
     41      -7.0928      2.00000
     42      -7.0714      2.00000
     43      -7.0005      2.00000
     44      -6.8539      2.00000
     45      -6.8268      2.00000
     46      -6.7121      2.00000
     47      -6.6503      2.00000
     48      -6.5887      2.00000
     49      -6.5213      2.00000
     50      -6.4594      2.00000
     51      -6.4122      2.00000
     52      -6.3444      2.00000
     53      -6.2675      2.00000
     54      -6.1820      2.00000
     55      -6.1110      2.00000
     56      -6.0966      2.00000
     57      -6.0091      2.00000
     58      -5.8450      2.00000
     59      -5.8140      2.00000
     60      -5.7907      2.00000
     61      -5.6308      2.00000
     62      -5.5965      2.00000
     63      -5.5334      2.00000
     64      -5.4091      2.00000
     65      -5.2222      2.00000
     66      -5.0663      2.00000
     67      -4.9989      2.00000
     68      -4.9549      2.00000
     69      -4.8322      2.00000
     70      -4.6294      2.00000
     71      -4.5774      2.00000
     72      -4.4447      2.00000
     73      -4.3355      2.00000
     74      -4.1764      2.00000
     75      -4.0368      2.00000
     76      -4.0124      2.00000
     77      -3.8598      1.99999
     78      -3.6830      1.99795
     79      -3.4664      1.87902
     80      -3.3420      1.49777
     81      -2.9889      0.06790
     82      -2.9508      0.03619
     83      -2.6584      0.00003
     84      -2.6095      0.00001
     85      -2.4572      0.00000
     86      -2.3399      0.00000
     87      -2.1848      0.00000
     88      -2.1016      0.00000
     89      -1.9272      0.00000
     90      -1.8439      0.00000
     91      -1.6536      0.00000
     92      -1.5626      0.00000
     93      -1.3851      0.00000
     94      -1.3654      0.00000
     95      -1.1988      0.00000
     96      -1.0847      0.00000
     97      -1.0727      0.00000
     98      -0.9955      0.00000
     99      -0.9292      0.00000
    100      -0.8930      0.00000
    101      -0.8201      0.00000
    102      -0.7069      0.00000
    103      -0.6277      0.00000
    104      -0.5977      0.00000
    105      -0.4788      0.00000
    106      -0.4057      0.00000
    107      -0.2966      0.00000
    108      -0.1138      0.00000
    109       0.0221      0.00000
    110       0.2004      0.00000
    111       0.2781      0.00000
    112       0.5877      0.00000
    113       0.7741      0.00000
    114       1.0496      0.00000
    115       1.1439      0.00000
    116       1.3282      0.00000
    117       1.5730      0.00000
    118       2.2530      0.00000
    119       2.2671      0.00000
    120       2.4074      0.00000


--------------------------------------------------------------------------------------------------------


 soft charge-density along one line, spin component           1
         0         1         2         3         4         5         6         7         8         9
 total charge-density along one line
 
 pseudopotential strength for first ion, spin component:           1
 -7.174   0.006   0.026  -0.024  -0.002   0.660  -0.003  -0.008
  0.006  -7.065  -0.012  -0.019   0.024  -0.003   0.627   0.004
  0.026  -0.012  -7.029   0.007   0.015  -0.008   0.004   0.618
 -0.024  -0.019   0.007  -7.087   0.022   0.007   0.006  -0.002
 -0.002   0.024   0.015   0.022  -7.171   0.001  -0.007  -0.004
  0.660  -0.003  -0.008   0.007   0.001   0.337   0.001   0.002
 -0.003   0.627   0.004   0.006  -0.007   0.001   0.347  -0.001
 -0.008   0.004   0.618  -0.002  -0.004   0.002  -0.001   0.349
  0.007   0.006  -0.002   0.633  -0.006  -0.002  -0.002   0.001
  0.001  -0.007  -0.004  -0.006   0.659  -0.000   0.002   0.001
  0.007   0.008  -0.021  -0.004   0.004  -0.002  -0.002   0.005
  0.003   0.002  -0.007  -0.001   0.001  -0.001  -0.001   0.002
  0.004   0.002   0.002  -0.002   0.007  -0.000  -0.000   0.000
 -0.002  -0.010   0.001   0.006  -0.001   0.000   0.001  -0.000
 -0.007  -0.002  -0.001  -0.000   0.004   0.000   0.000  -0.000
  0.003   0.001   0.001  -0.002   0.004  -0.000  -0.000  -0.000
 -0.002  -0.007  -0.000   0.004  -0.001   0.000   0.001   0.000
 -0.004  -0.002  -0.001  -0.001   0.003   0.001   0.000   0.000
 total augmentation occupancy for first ion, spin component:           1
  0.790   0.153   0.060  -0.021  -0.063   0.442   0.210   0.005   0.005  -0.007  -0.038   0.001  -0.005  -0.040   0.009  -0.002
  0.153   1.043  -0.030   0.024   0.022   0.208   0.639  -0.025   0.009  -0.005   0.006  -0.003   0.040  -0.055  -0.043   0.002
  0.060  -0.030   0.885   0.017   0.034   0.003  -0.025   0.354   0.014   0.002   0.132   0.005  -0.052  -0.003   0.030  -0.003
 -0.021   0.024   0.017   1.070  -0.129   0.005   0.009   0.015   0.650  -0.214  -0.004   0.002  -0.043   0.032  -0.010  -0.002
 -0.063   0.022   0.034  -0.129   0.862  -0.007  -0.005   0.003  -0.216   0.451  -0.022   0.000  -0.009  -0.023  -0.005  -0.003
  0.442   0.208   0.003   0.005  -0.007   0.381   0.218  -0.003   0.001   0.004   0.008   0.001   0.013  -0.055  -0.020  -0.000
  0.210   0.639  -0.025   0.009  -0.005   0.218   0.576  -0.017   0.004  -0.001  -0.009  -0.002   0.040  -0.078  -0.053   0.003
  0.005  -0.025   0.354   0.015   0.003  -0.003  -0.017   0.281   0.010  -0.002   0.035   0.009  -0.022  -0.003   0.012  -0.004
  0.005   0.009   0.014   0.650  -0.216   0.001   0.004   0.010   0.581  -0.219   0.005   0.001  -0.053   0.045  -0.021  -0.004
 -0.007  -0.005   0.002  -0.214   0.451   0.004  -0.001  -0.002  -0.219   0.376   0.005   0.001   0.020  -0.032   0.010  -0.001
 -0.038   0.006   0.132  -0.004  -0.022   0.008  -0.009   0.035   0.005   0.005   1.370   0.141  -0.023   0.018   0.013  -0.002
  0.001  -0.003   0.005   0.002   0.000   0.001  -0.002   0.009   0.001   0.001   0.141   0.026  -0.008   0.000   0.005  -0.001
 -0.005   0.040  -0.052  -0.043  -0.009   0.013   0.040  -0.022  -0.053   0.020  -0.023  -0.008   0.360  -0.000  -0.009   0.027
 -0.040  -0.055  -0.003   0.032  -0.023  -0.055  -0.078  -0.003   0.045  -0.032   0.018   0.000  -0.000   0.415   0.000   0.000
  0.009  -0.043   0.030  -0.010  -0.005  -0.020  -0.053   0.012  -0.021   0.010   0.013   0.005  -0.009   0.000   0.351   0.000
 -0.002   0.002  -0.003  -0.002  -0.003  -0.000   0.003  -0.004  -0.004  -0.001  -0.002  -0.001   0.027   0.000   0.000   0.003
 -0.002   0.001   0.000  -0.001  -0.001  -0.004  -0.005  -0.000   0.003  -0.002   0.001   0.000   0.000   0.029  -0.000  -0.000
  0.003  -0.002   0.002  -0.000  -0.002   0.001  -0.004   0.003  -0.001  -0.001   0.001   0.000   0.000  -0.000   0.027   0.000


------------------------ aborting loop because EDIFF is reached ----------------------------------------


    CHARGE:  cpu time    0.4534: real time    0.4545
    FORLOC:  cpu time    0.0063: real time    0.0063
    FORNL :  cpu time    5.4070: real time    5.4199
    STRESS:  cpu time   32.5586: real time   32.6364
    FORCOR:  cpu time    0.0331: real time    0.0336
    FORHAR:  cpu time    0.0123: real time    0.0124
    MIXING:  cpu time    0.0010: real time    0.0011
    OFIELD:  cpu time    0.0000: real time    0.0000

  FORCE on cell =-STRESS in cart. coord.  units (eV):
  Direction    XX          YY          ZZ          XY          YZ          ZX
  --------------------------------------------------------------------------------------
  Alpha Z    89.55147    89.55147    89.55147
  Ewald   49376.19195 49330.76529-54294.14292    39.11254   -21.41940    12.21545
  Hartree 50081.80513 50052.77103-49713.77087    25.05332   -11.94637     6.86680
  E(xc)    -609.61888  -610.67794  -617.90440     0.91993     0.95176    -0.54656
  Local  ************************101445.40537   -57.30105    41.50605   -23.77191
  n-local  1213.61152  1215.55480  1248.94535    -1.70905     2.26733    -1.34031
  augment  -213.29222  -212.78586  -214.59126    -0.43958    -0.98035     0.57227
  Kinetic  2008.49457  2015.00083  2054.63529    -5.64307   -10.19821     5.89843
  Fock        0.00000     0.00000     0.00000     0.00000     0.00000     0.00000
  -------------------------------------------------------------------------------------
  Total       0.12639     0.13176    -1.87196    -0.00696     0.18081    -0.10584
  in kB       0.08470     0.08831    -1.25456    -0.00466     0.12117    -0.07093
  external pressure =       -0.36 kB  Pullay stress =        0.00 kB


 VOLUME and BASIS-vectors are now :
 -----------------------------------------------------------------------------
  energy-cutoff  :      280.00
  volume of cell :     2390.64
      direct lattice vectors                 reciprocal lattice vectors
     8.285616461  4.784471194  0.000000000     0.060498202  0.104240381  0.000000000
    -8.306714270  4.820984683  0.000000000    -0.060039997  0.103975626  0.000000000
     0.000000000  0.000000000 30.000000000     0.000000000  0.000000000  0.033333333

  length of vectors
     9.567789961  9.604342521 30.000000000     0.120524228  0.120065532  0.033333333


 FORCES acting on ions
    electron-ion (+dipol)            ewald-force                    non-local-force                 convergence-correction
 -----------------------------------------------------------------------------------------------
   0.132E+02 -.229E+02 0.134E+02   -.139E+02 0.242E+02 -.131E+02   0.771E+00 -.134E+01 -.277E+00   -.166E-01 0.147E-01 -.329E-01
   -.113E+02 0.216E+02 -.156E+02   0.118E+02 -.231E+02 0.154E+02   -.502E+00 0.148E+01 0.227E+00   -.202E-01 0.952E-02 0.329E-01
   -.129E+02 0.205E+02 -.156E+02   0.140E+02 -.217E+02 0.154E+02   -.103E+01 0.117E+01 0.228E+00   -.182E-01 0.926E-02 0.348E-01
   0.609E+01 0.277E+01 -.191E+01   -.586E+01 -.258E+01 0.193E+01   -.248E+00 -.933E-01 -.254E-01   -.364E-02 -.901E-01 -.112E-02
   -.574E+01 -.406E+01 -.193E+01   0.542E+01 0.397E+01 0.194E+01   0.203E+00 0.170E+00 -.250E-01   0.110E+00 -.585E-01 0.253E-02
   -.630E+01 0.116E+02 -.349E+01   0.619E+01 -.113E+02 0.348E+01   0.108E+00 -.187E+00 0.127E-01   0.509E-02 -.418E-01 -.393E-02
   0.186E+02 -.271E+02 0.233E+02   -.192E+02 0.277E+02 -.231E+02   0.562E+00 -.707E+00 -.225E+00   0.366E-01 0.427E-01 -.119E-01
   0.143E+02 -.298E+02 0.233E+02   -.145E+02 0.306E+02 -.231E+02   0.329E+00 -.833E+00 -.222E+00   -.582E-01 0.108E-01 -.139E-01
   -.173E+02 0.298E+02 -.193E+02   0.176E+02 -.304E+02 0.191E+02   -.380E+00 0.650E+00 0.172E+00   0.343E-01 0.445E-03 0.137E-01
   0.110E+02 -.188E+02 0.634E+03   -.111E+02 0.191E+02 -.638E+03   0.202E+00 -.349E+00 0.403E+01   -.105E-01 0.195E-01 0.753E-02
   0.275E+01 -.954E+01 -.613E+03   -.366E+01 0.106E+02 0.617E+03   0.910E+00 -.104E+01 -.349E+01   -.763E-02 -.173E-01 0.158E-01
   -.137E+01 0.941E+01 0.497E+03   0.901E+00 -.902E+01 -.502E+03   0.454E+00 -.393E+00 0.505E+01   0.475E-02 0.127E-01 0.131E-01
   0.628E+01 -.108E+02 -.505E+03   -.611E+01 0.105E+02 0.511E+03   -.176E+00 0.299E+00 -.524E+01   0.851E-03 0.204E-01 -.115E-01
   -.532E+01 0.147E+02 0.590E+03   0.615E+01 -.163E+02 -.593E+03   -.846E+00 0.169E+01 0.311E+01   0.815E-02 -.281E-01 0.132E-01
   -.709E+01 0.239E+02 -.610E+03   0.741E+01 -.246E+02 0.614E+03   -.324E+00 0.756E+00 -.365E+01   0.452E-03 -.305E-01 -.274E-01
   0.108E+02 -.213E+02 0.606E+03   -.109E+02 0.221E+02 -.610E+03   0.273E+00 -.811E+00 0.368E+01   -.751E-01 -.495E-01 -.626E-01
   0.849E+01 -.148E+02 -.607E+03   -.923E+01 0.161E+02 0.610E+03   0.685E+00 -.120E+01 -.320E+01   0.519E-01 -.844E-01 0.108E+00
   -.747E+01 0.575E+01 0.497E+03   0.734E+01 -.520E+01 -.502E+03   0.116E+00 -.590E+00 0.505E+01   0.883E-02 0.489E-01 0.449E-01
   0.577E+01 -.128E+02 -.489E+03   -.537E+01 0.130E+02 0.493E+03   -.240E+00 -.273E+00 -.487E+01   -.150E+00 0.763E-01 0.229E-01
   -.741E+01 0.128E+02 0.621E+03   0.807E+01 -.139E+02 -.624E+03   -.680E+00 0.116E+01 0.347E+01   0.287E-01 -.280E-01 -.112E-01
   -.173E+02 0.180E+02 -.610E+03   0.177E+02 -.186E+02 0.614E+03   -.493E+00 0.657E+00 -.365E+01   0.766E-01 -.751E-02 -.696E-01
   0.130E+02 -.200E+02 0.606E+03   -.136E+02 0.206E+02 -.610E+03   0.563E+00 -.639E+00 0.368E+01   0.841E-01 0.313E-01 -.644E-01
   0.684E+01 -.698E+01 -.613E+03   -.733E+01 0.832E+01 0.616E+03   0.460E+00 -.131E+01 -.349E+01   0.243E-01 -.178E-01 0.137E-01
   -.370E+01 0.651E+01 0.481E+03   0.369E+01 -.640E+01 -.486E+03   0.122E+00 -.215E+00 0.457E+01   -.112E+00 0.104E+00 -.398E-02
   0.809E+01 -.113E+02 -.488E+03   -.847E+01 0.111E+02 0.493E+03   0.359E+00 0.751E-01 -.487E+01   0.227E-01 0.122E+00 0.489E-01
   -.995E+01 0.118E+02 0.589E+03   0.110E+02 -.133E+02 -.593E+03   -.104E+01 0.159E+01 0.311E+01   0.338E-01 -.681E-01 0.592E-01
   -.115E+02 0.203E+02 -.587E+03   0.121E+02 -.212E+02 0.590E+03   -.588E+00 0.102E+01 -.323E+01   -.227E-01 -.620E-01 -.797E-01
 -----------------------------------------------------------------------------------------------
   0.383E+00 -.665E+00 0.475E-01   0.462E-13 0.000E+00 0.682E-12   -.420E+00 0.727E+00 -.880E-01   0.371E-01 -.606E-01 0.374E-01
 
 
 POSITION                                       TOTAL-FORCE (eV/Angst)
 -----------------------------------------------------------------------------------
      2.88820      4.56429     -0.05118         0.018698     -0.031471     -0.036818
     -5.67645      3.46528      0.05664         0.000933      0.002544      0.034577
     -0.16295      6.64937      0.05658         0.001944     -0.001206      0.032952
      2.80932      1.61903      0.00577        -0.019633      0.004087     -0.007494
      5.47624      3.15899      0.00579        -0.004350      0.017443     -0.007807
     -0.03510      0.06540      0.01010         0.003182      0.012942     -0.001367
      5.69768      6.11846     -0.07122        -0.012900     -0.003396     -0.026462
      0.13843      2.90879     -0.07114         0.009201      0.010366     -0.025186
     -2.94232      5.09619      0.06215        -0.001431     -0.003546      0.022371
     -0.89111      1.54378     28.25637         0.000147      0.000888     -0.012860
      0.94910      1.56596      1.64775        -0.007325      0.009775      0.003273
     -3.70742      3.20760     28.69077        -0.008434      0.007584      0.004104
     -1.85465      3.21218      1.33076         0.000817     -0.002166     -0.005873
     -6.45108      4.80137     28.42409         0.001030     -0.019543      0.003237
     -4.65779      4.81820      1.66811         0.001230      0.008026      0.021100
      1.87499      3.21021     28.34377         0.006841     -0.015227     -0.014550
      3.66061      3.22637      1.62375        -0.007730      0.011926     -0.026214
     -0.92425      4.81487     28.69090        -0.003718      0.010337      0.004094
      0.91970      4.80466      1.28254         0.016670     -0.004322     -0.011748
     -3.72246      6.44748     28.33400         0.003175     -0.006978      0.005890
     -1.84410      6.44327      1.66813        -0.010459      0.002051      0.021177
      4.56793      4.76503     28.34405         0.010208     -0.014540     -0.014718
      6.45517      4.74452      1.64632        -0.002677      0.009332     -0.000563
      1.82280      6.41046     28.74077         0.003354     -0.002128      0.019769
      3.66501      6.38962      1.28209        -0.005244     -0.015148     -0.013457
     -0.93270      7.98870     28.42531         0.015054     -0.007905      0.005716
      0.90969      7.99272      1.59703        -0.008580      0.020276      0.026858
 -----------------------------------------------------------------------------------
    total drift:                               -0.000301      0.001036     -0.003070


--------------------------------------------------------------------------------------------------------



  FREE ENERGIE OF THE ION-ELECTRON SYSTEM (eV)
  ---------------------------------------------------
  free  energy   TOTEN  =      -192.33689782 eV

  energy  without entropy=     -192.20397976  energy(sigma->0) =     -192.27043879
 
 d Force = 0.7182538E-03[ 0.612E-03, 0.825E-03]  d Energy = 0.6254910E-03 0.928E-04
 d Force = 0.1813562E+01[ 0.182E+01, 0.181E+01]  d Ewald  =-0.2641505E+01 0.446E+01


--------------------------------------------------------------------------------------------------------


    POTLOK:  cpu time    0.0348: real time    0.0349


--------------------------------------------------------------------------------------------------------


 Quasi-Newton relaxation of ions (Broydens 2nd method)
  g(Force)  = 0.736E-03   g(Stress)= 0.597E-04

 retain information from N=  2 steps
 eigenvalues of (default step * inverse Hessian matrix)
  average eigenvalue of G=   3.3871
 eigenvalue spectrum of G is  3.3871  3.3871


--------------------------------------------------------------------------------------------------------


  
 reached required accuracy - stopping structural energy minimisation
     LOOP+:  cpu time  115.8193: real time  116.1173
    4ORBIT:  cpu time    0.0000: real time    0.0000

 total amount of memory used by VASP on root node   650782. kBytes
========================================================================

   base      :      30000. kBytes
   nonl-proj :     559647. kBytes
   fftplans  :       2414. kBytes
   grid      :      12150. kBytes
   one-center:        419. kBytes
   wavefun   :      46152. kBytes
 
  
  
 General timing and accounting informations for this job:
 ========================================================
  
                  Total CPU time used (sec):     6374.645
                            User time (sec):     6347.077
                          System time (sec):       27.568
                         Elapsed time (sec):     6391.265
  
                   Maximum memory used (kb):      740212.
                   Average memory used (kb):           0.
  
                          Minor page faults:      1059775
                          Major page faults:            5
                 Voluntary context switches:         5370
