<?xml version="1.0" encoding="ISO-8859-1"?>
<modeling>
 <generator>
  <i name="program" type="string">vasp </i>
  <i name="version" type="string">5.4.1  </i>
  <i name="subversion" type="string">05Feb16 (build Jul 05 2020 17:13:04) complex                          parallel </i>
  <i name="platform" type="string">IFC91_ompi </i>
  <i name="date" type="string">2024 04 23 </i>
  <i name="time" type="string">16:01:24 </i>
 </generator>
 <incar>
  <i type="int" name="ISTART">     0</i>
  <i type="string" name="PREC">normal</i>
  <i type="string" name="ALGO"> Normal</i>
  <i type="int" name="ISPIN">     1</i>
  <i type="int" name="ICHARG">     2</i>
  <i type="int" name="IBRION">     1</i>
  <i type="int" name="NSW">   100</i>
  <i type="int" name="ISIF">     3</i>
  <i type="int" name="ISYM">     0</i>
  <i name="SYMPREC">      0.00000001</i>
  <i name="POTIM">      0.50000000</i>
  <i type="logical" name="LREAL"> F  </i>
  <i type="logical" name="LPLANE"> F  </i>
  <i type="int" name="ISMEAR">     0</i>
  <i type="logical" name="LWAVE"> F  </i>
  <i type="logical" name="LCHARG"> F  </i>
  <v type="int" name="KPOINT_BSE">    -1     0     0     0</v>
 </incar>
 <kpoints>
  <generation param="Gamma">
   <v type="int" name="divisions">       8        8        1 </v>
   <v name="usershift">      0.00000000       0.00000000       0.00000000 </v>
   <v name="genvec1">      0.12500000       0.00000000       0.00000000 </v>
   <v name="genvec2">     -0.00000000       0.12500000       0.00000000 </v>
   <v name="genvec3">      0.00000000       0.00000000       1.00000000 </v>
   <v name="shift">      0.00000000       0.00000000       0.00000000 </v>
  </generation>
  <varray name="kpointlist" >
   <v>       0.00000000       0.00000000       0.00000000 </v>
   <v>       0.12500000       0.00000000       0.00000000 </v>
   <v>       0.25000000       0.00000000       0.00000000 </v>
   <v>       0.37500000       0.00000000       0.00000000 </v>
   <v>       0.50000000       0.00000000       0.00000000 </v>
   <v>       0.00000000       0.12500000       0.00000000 </v>
   <v>       0.12500000       0.12500000       0.00000000 </v>
   <v>       0.25000000       0.12500000       0.00000000 </v>
   <v>       0.37500000       0.12500000       0.00000000 </v>
   <v>       0.50000000       0.12500000       0.00000000 </v>
   <v>      -0.37500000       0.12500000       0.00000000 </v>
   <v>      -0.25000000       0.12500000       0.00000000 </v>
   <v>      -0.12500000       0.12500000       0.00000000 </v>
   <v>       0.00000000       0.25000000       0.00000000 </v>
   <v>       0.12500000       0.25000000       0.00000000 </v>
   <v>       0.25000000       0.25000000       0.00000000 </v>
   <v>       0.37500000       0.25000000       0.00000000 </v>
   <v>       0.50000000       0.25000000       0.00000000 </v>
   <v>      -0.37500000       0.25000000       0.00000000 </v>
   <v>      -0.25000000       0.25000000       0.00000000 </v>
   <v>      -0.12500000       0.25000000       0.00000000 </v>
   <v>      -0.00000000       0.37500000       0.00000000 </v>
   <v>       0.12500000       0.37500000       0.00000000 </v>
   <v>       0.25000000       0.37500000       0.00000000 </v>
   <v>       0.37500000       0.37500000       0.00000000 </v>
   <v>       0.50000000       0.37500000       0.00000000 </v>
   <v>      -0.37500000       0.37500000       0.00000000 </v>
   <v>      -0.25000000       0.37500000       0.00000000 </v>
   <v>      -0.12500000       0.37500000       0.00000000 </v>
   <v>       0.00000000       0.50000000       0.00000000 </v>
   <v>       0.12500000       0.50000000       0.00000000 </v>
   <v>       0.25000000       0.50000000       0.00000000 </v>
   <v>       0.37500000       0.50000000       0.00000000 </v>
   <v>       0.50000000       0.50000000       0.00000000 </v>
  </varray>
  <varray name="weights" >
   <v>       0.01562500 </v>
   <v>       0.03125000 </v>
   <v>       0.03125000 </v>
   <v>       0.03125000 </v>
   <v>       0.01562500 </v>
   <v>       0.03125000 </v>
   <v>       0.03125000 </v>
   <v>       0.03125000 </v>
   <v>       0.03125000 </v>
   <v>       0.03125000 </v>
   <v>       0.03125000 </v>
   <v>       0.03125000 </v>
   <v>       0.03125000 </v>
   <v>       0.03125000 </v>
   <v>       0.03125000 </v>
   <v>       0.03125000 </v>
   <v>       0.03125000 </v>
   <v>       0.03125000 </v>
   <v>       0.03125000 </v>
   <v>       0.03125000 </v>
   <v>       0.03125000 </v>
   <v>       0.03125000 </v>
   <v>       0.03125000 </v>
   <v>       0.03125000 </v>
   <v>       0.03125000 </v>
   <v>       0.03125000 </v>
   <v>       0.03125000 </v>
   <v>       0.03125000 </v>
   <v>       0.03125000 </v>
   <v>       0.01562500 </v>
   <v>       0.03125000 </v>
   <v>       0.03125000 </v>
   <v>       0.03125000 </v>
   <v>       0.01562500 </v>
  </varray>
 </kpoints>
 <parameters>
  <separator name="general" >
   <i type="string" name="SYSTEM">unknown system</i>
   <i type="logical" name="LCOMPAT"> F  </i>
  </separator>
  <separator name="electronic" >
   <i type="string" name="PREC">normal</i>
   <i name="ENMAX">    280.00000000</i>
   <i name="ENAUG">    373.43800000</i>
   <i name="EDIFF">      0.00010000</i>
   <i type="int" name="IALGO">    38</i>
   <i type="int" name="IWAVPR">    11</i>
   <i type="int" name="NBANDS">   120</i>
   <i name="NELECT">    159.00000000</i>
   <i type="int" name="TURBO">     0</i>
   <i type="int" name="IRESTART">     0</i>
   <i type="int" name="NREBOOT">     0</i>
   <i type="int" name="NMIN">     0</i>
   <i name="EREF">      0.00000000</i>
   <separator name="electronic smearing" >
    <i type="int" name="ISMEAR">     0</i>
    <i name="SIGMA">      0.20000000</i>
    <i name="KSPACING">      0.50000000</i>
    <i type="logical" name="KGAMMA"> T  </i>
   </separator>
   <separator name="electronic projectors" >
    <i type="logical" name="LREAL"> F  </i>
    <v name="ROPT">      0.00000000      0.00000000      0.00000000      0.00000000</v>
    <i type="int" name="LMAXPAW">  -100</i>
    <i type="int" name="LMAXMIX">     2</i>
    <i type="logical" name="NLSPLINE"> F  </i>
   </separator>
   <separator name="electronic startup" >
    <i type="int" name="ISTART">     0</i>
    <i type="int" name="ICHARG">     2</i>
    <i type="int" name="INIWAV">     1</i>
   </separator>
   <separator name="electronic spin" >
    <i type="int" name="ISPIN">     1</i>
    <i type="logical" name="LNONCOLLINEAR"> F  </i>
    <v name="MAGMOM">      1.00000000      1.00000000      1.00000000      1.00000000      1.00000000      1.00000000      1.00000000      1.00000000      1.00000000      1.00000000      1.00000000      1.00000000      1.00000000      1.00000000      1.00000000      1.00000000      1.00000000      1.00000000      1.00000000      1.00000000
      1.00000000      1.00000000      1.00000000      1.00000000      1.00000000      1.00000000      1.00000000</v>
    <i name="NUPDOWN">     -1.00000000</i>
    <i type="logical" name="LSORBIT"> F  </i>
    <v name="SAXIS">      0.00000000      0.00000000      1.00000000</v>
    <i type="logical" name="LSPIRAL"> F  </i>
    <v name="QSPIRAL">      0.00000000      0.00000000      0.00000000</v>
    <i type="logical" name="LZEROZ"> F  </i>
   </separator>
   <separator name="electronic exchange-correlation" >
    <i type="logical" name="LASPH"> F  </i>
    <i type="logical" name="LMETAGGA"> F  </i>
   </separator>
   <separator name="electronic convergence" >
    <i type="int" name="NELM">    60</i>
    <i type="int" name="NELMDL">    -5</i>
    <i type="int" name="NELMIN">     2</i>
    <i name="ENINI">    280.00000000</i>
    <separator name="electronic convergence detail" >
     <i type="logical" name="LDIAG"> T  </i>
     <i type="logical" name="LSUBROT"> F  </i>
     <i name="WEIMIN">      0.00100000</i>
     <i name="EBREAK">      0.00000021</i>
     <i name="DEPER">      0.30000000</i>
     <i type="int" name="NRMM">     4</i>
     <i name="TIME">      0.40000000</i>
    </separator>
   </separator>
   <separator name="electronic mixer" >
    <i name="AMIX">      0.40000000</i>
    <i name="BMIX">      1.00000000</i>
    <i name="AMIN">      0.10000000</i>
    <i name="AMIX_MAG">      1.60000000</i>
    <i name="BMIX_MAG">      1.00000000</i>
    <separator name="electronic mixer details" >
     <i type="int" name="IMIX">     4</i>
     <i type="logical" name="MIXFIRST"> F  </i>
     <i type="int" name="MAXMIX">   -45</i>
     <i name="WC">    100.00000000</i>
     <i type="int" name="INIMIX">     1</i>
     <i type="int" name="MIXPRE">     1</i>
     <i type="int" name="MREMOVE">     5</i>
    </separator>
   </separator>
   <separator name="electronic dipolcorrection" >
    <i type="logical" name="LDIPOL"> F  </i>
    <i type="logical" name="LMONO"> F  </i>
    <i type="int" name="IDIPOL">     0</i>
    <i name="EPSILON">      1.00000000</i>
    <v name="DIPOL">   -100.00000000   -100.00000000   -100.00000000</v>
    <i name="EFIELD">      0.00000000</i>
   </separator>
  </separator>
  <separator name="grids" >
   <i type="int" name="NGX">    42</i>
   <i type="int" name="NGY">    42</i>
   <i type="int" name="NGZ">   126</i>
   <i type="int" name="NGXF">    84</i>
   <i type="int" name="NGYF">    84</i>
   <i type="int" name="NGZF">   252</i>
   <i type="logical" name="ADDGRID"> F  </i>
  </separator>
  <separator name="ionic" >
   <i type="int" name="NSW">   100</i>
   <i type="int" name="IBRION">     1</i>
   <i type="int" name="ISIF">     3</i>
   <i name="PSTRESS">      0.00000000</i>
   <i name="EDIFFG">      0.00100000</i>
   <i type="int" name="NFREE">     0</i>
   <i name="POTIM">      0.50000000</i>
   <i name="SMASS">     -3.00000000</i>
   <i name="SCALEE">      1.00000000</i>
  </separator>
  <separator name="ionic md" >
   <i name="TEBEG">      0.00010000</i>
   <i name="TEEND">      0.00010000</i>
   <i type="int" name="NBLOCK">     1</i>
   <i type="int" name="KBLOCK">   100</i>
   <i type="int" name="NPACO">   256</i>
   <i name="APACO">     16.00000000</i>
  </separator>
  <separator name="symmetry" >
   <i type="int" name="ISYM">     0</i>
   <i name="SYMPREC">      0.00000001</i>
  </separator>
  <separator name="dos" >
   <i type="logical" name="LORBIT"> F  </i>
   <v name="RWIGS">     -1.00000000     -1.00000000     -1.00000000     -1.00000000</v>
   <i type="int" name="NEDOS">   301</i>
   <i name="EMIN">     10.00000000</i>
   <i name="EMAX">    -10.00000000</i>
   <i name="EFERMI">      0.00000000</i>
  </separator>
  <separator name="writing" >
   <i type="int" name="NWRITE">     2</i>
   <i type="logical" name="LWAVE"> F  </i>
   <i type="logical" name="LCHARG"> F  </i>
   <i type="logical" name="LPARD"> F  </i>
   <i type="logical" name="LVTOT"> F  </i>
   <i type="logical" name="LVHAR"> F  </i>
   <i type="logical" name="LELF"> F  </i>
   <i type="logical" name="LOPTICS"> F  </i>
   <v name="STM">      0.00000000      0.00000000      0.00000000      0.00000000      0.00000000      0.00000000      0.00000000</v>
  </separator>
  <separator name="performance" >
   <i type="int" name="NPAR">    40</i>
   <i type="int" name="NSIM">     4</i>
   <i type="int" name="NBLK">    -1</i>
   <i type="logical" name="LPLANE"> F  </i>
   <i type="logical" name="LSCALAPACK"> T  </i>
   <i type="logical" name="LSCAAWARE"> F  </i>
   <i type="logical" name="LSCALU"> F  </i>
   <i type="logical" name="LASYNC"> F  </i>
   <i type="logical" name="LORBITALREAL"> F  </i>
  </separator>
  <separator name="miscellaneous" >
   <i type="int" name="IDIOT">     3</i>
   <i type="logical" name="LMUSIC"> F  </i>
   <v name="POMASS">     50.94100000     95.94000000    183.85000000     32.06600000</v>
   <v name="DARWINR">      0.00000000      0.00000000      0.00000000      0.00000000</v>
   <v name="DARWINV">      1.00000000      1.00000000      1.00000000      1.00000000</v>
   <i type="logical" name="LCORR"> T  </i>
  </separator>
  <i type="logical" name="GGA_COMPAT"> T  </i>
  <i type="logical" name="LBERRY"> F  </i>
  <i type="int" name="ICORELEVEL">     0</i>
  <i type="logical" name="LDAU"> F  </i>
  <i type="int" name="I_CONSTRAINED_M">     0</i>
  <separator name="electronic exchange-correlation" >
   <i type="string" name="GGA">--</i>
   <i type="int" name="VOSKOWN">     0</i>
   <i type="logical" name="LHFCALC"> F  </i>
   <i type="string" name="PRECFOCK"></i>
   <i type="logical" name="LSYMGRAD"> F  </i>
   <i type="logical" name="LHFONE"> F  </i>
   <i type="logical" name="LRHFCALC"> F  </i>
   <i type="logical" name="LTHOMAS"> F  </i>
   <i type="logical" name="LMODELHF"> F  </i>
   <i name="ENCUT4O">     -1.00000000</i>
   <i type="int" name="EXXOEP">     0</i>
   <i type="int" name="FOURORBIT">     0</i>
   <i name="AEXX">      0.00000000</i>
   <i name="HFALPHA">      0.00000000</i>
   <i name="MCALPHA">      0.00000000</i>
   <i name="ALDAX">      1.00000000</i>
   <i name="AGGAX">      1.00000000</i>
   <i name="ALDAC">      1.00000000</i>
   <i name="AGGAC">      1.00000000</i>
   <i type="int" name="NKREDX">     1</i>
   <i type="int" name="NKREDY">     1</i>
   <i type="int" name="NKREDZ">     1</i>
   <i type="logical" name="SHIFTRED"> F  </i>
   <i type="logical" name="ODDONLY"> F  </i>
   <i type="logical" name="EVENONLY"> F  </i>
   <i type="int" name="LMAXFOCK">     0</i>
   <i type="int" name="NMAXFOCKAE">     0</i>
   <i type="logical" name="LFOCKAEDFT"> F  </i>
   <i name="HFSCREEN">      0.00000000</i>
   <i name="HFSCREENC">      0.00000000</i>
   <i type="int" name="NBANDSGWLOW">     0</i>
  </separator>
  <separator name="vdW DFT" >
   <i type="logical" name="LUSE_VDW"> F  </i>
   <i name="Zab_VDW">     -0.84910000</i>
   <i name="PARAM1">      0.12340000</i>
   <i name="PARAM2">      1.00000000</i>
   <i name="PARAM3">      0.00000000</i>
  </separator>
  <separator name="model GW" >
   <i type="int" name="MODEL_GW">     0</i>
   <i name="MODEL_EPS0">     58.26239943</i>
   <i name="MODEL_ALPHA">      1.00000000</i>
  </separator>
  <separator name="linear response parameters" >
   <i type="logical" name="LEPSILON"> F  </i>
   <i type="logical" name="LRPA"> F  </i>
   <i type="logical" name="LNABLA"> F  </i>
   <i type="logical" name="LVEL"> F  </i>
   <i type="int" name="KINTER">     0</i>
   <i name="CSHIFT">      0.10000000</i>
   <i name="OMEGAMAX">     -1.00000000</i>
   <i name="DEG_THRESHOLD">      0.00200000</i>
  </separator>
  <separator name="orbital magnetization" >
   <i type="logical" name="NUCIND"> F  </i>
   <v name="MAGPOS">      0.00000000      0.00000000      0.00000000</v>
   <i type="logical" name="LNICSALL"> T  </i>
   <i type="logical" name="ORBITALMAG"> F  </i>
   <i type="logical" name="LMAGBLOCH"> F  </i>
   <i type="logical" name="LCHIMAG"> F  </i>
   <i type="logical" name="LGAUGE"> T  </i>
   <i type="int" name="MAGATOM">     0</i>
   <v name="MAGDIPOL">      0.00000000      0.00000000      0.00000000</v>
   <v name="AVECCONST">      0.00000000      0.00000000      0.00000000</v>
  </separator>
  <separator name="response functions" >
   <i type="logical" name="LADDER"> F  </i>
   <i type="logical" name="LFXC"> F  </i>
   <i type="logical" name="LHARTREE"> T  </i>
   <i type="int" name="IBSE">     0</i>
   <v type="int" name="KPOINT">    -1     0     0     0</v>
   <i type="logical" name="LTCTE"> F  </i>
   <i type="logical" name="LTETE"> F  </i>
   <i type="logical" name="LTRIPLET"> F  </i>
   <i type="logical" name="LFXCEPS"> F  </i>
   <i type="logical" name="LFXHEG"> F  </i>
   <i type="int" name="NATURALO">     0</i>
   <i type="logical" name="L2ORDER"> F  </i>
   <i type="logical" name="LUSEW"> F  </i>
   <i name="ENCUTGW">     -2.00000000</i>
   <i name="ENCUTGWSOFT">     -2.00000000</i>
   <i name="ENCUTLF">     -1.00000000</i>
   <i type="int" name="LMAXMP2">    -1</i>
   <i name="SCISSOR">      0.00000000</i>
   <i type="int" name="NOMEGA">     0</i>
   <i type="int" name="NOMEGAR">     0</i>
   <i type="int" name="NBANDSGW">    -1</i>
   <i type="int" name="NBANDSO">    -1</i>
   <i type="int" name="NBANDSV">    -1</i>
   <i type="int" name="NELM">     1</i>
   <i type="int" name="NELMHF">     1</i>
   <i type="int" name="DIM">     3</i>
   <i type="int" name="ANTIRES">     0</i>
   <i name="OMEGAMAX">    -30.00000000</i>
   <i name="OMEGAMIN">    -30.00000000</i>
   <i name="OMEGATL">   -200.00000000</i>
   <i type="int" name="OMEGAGRID">     0</i>
   <i name="CSHIFT">     -0.10000000</i>
   <i type="logical" name="SELFENERGY"> F  </i>
   <i type="logical" name="LSPECTRAL"> F  </i>
   <i type="logical" name="LSPECTRALGW"> F  </i>
   <i type="logical" name="LSINGLES"> F  </i>
   <i type="logical" name="LFERMIGW"> F  </i>
   <i type="logical" name="ODDONLYGW"> F  </i>
   <i type="logical" name="EVENONLYGW"> F  </i>
   <i type="int" name="NKREDLFX">     1</i>
   <i type="int" name="NKREDLFY">     1</i>
   <i type="int" name="NKREDLFZ">     1</i>
   <i type="int" name="MAXMEM">  1800</i>
   <i type="int" name="TELESCOPE">     0</i>
   <i type="int" name="TAUPAR">     1</i>
   <i type="int" name="OMEGAPAR">    -1</i>
   <i name="LAMBDA">      1.00000000</i>
  </separator>
  <separator name="External order field" >
   <i name="OFIELD_KAPPA">      0.00000000</i>
   <v name="OFIELD_K">      0.00000000      0.00000000      0.00000000</v>
   <i name="OFIELD_Q6_NEAR">      0.00000000</i>
   <i name="OFIELD_Q6_FAR">      0.00000000</i>
   <i name="OFIELD_A">      0.00000000</i>
  </separator>
 </parameters>
 <atominfo>
  <atoms>      27 </atoms>
  <types>       4 </types>
  <array name="atoms" >
   <dimension dim="1">ion</dimension>
   <field type="string">element</field>
   <field type="int">atomtype</field>
   <set>
    <rc><c>V </c><c>   1</c></rc>
    <rc><c>V </c><c>   1</c></rc>
    <rc><c>V </c><c>   1</c></rc>
    <rc><c>Mo</c><c>   2</c></rc>
    <rc><c>Mo</c><c>   2</c></rc>
    <rc><c>Mo</c><c>   2</c></rc>
    <rc><c>W </c><c>   3</c></rc>
    <rc><c>W </c><c>   3</c></rc>
    <rc><c>W </c><c>   3</c></rc>
    <rc><c>S </c><c>   4</c></rc>
    <rc><c>S </c><c>   4</c></rc>
    <rc><c>S </c><c>   4</c></rc>
    <rc><c>S </c><c>   4</c></rc>
    <rc><c>S </c><c>   4</c></rc>
    <rc><c>S </c><c>   4</c></rc>
    <rc><c>S </c><c>   4</c></rc>
    <rc><c>S </c><c>   4</c></rc>
    <rc><c>S </c><c>   4</c></rc>
    <rc><c>S </c><c>   4</c></rc>
    <rc><c>S </c><c>   4</c></rc>
    <rc><c>S </c><c>   4</c></rc>
    <rc><c>S </c><c>   4</c></rc>
    <rc><c>S </c><c>   4</c></rc>
    <rc><c>S </c><c>   4</c></rc>
    <rc><c>S </c><c>   4</c></rc>
    <rc><c>S </c><c>   4</c></rc>
    <rc><c>S </c><c>   4</c></rc>
   </set>
  </array>
  <array name="atomtypes" >
   <dimension dim="1">type</dimension>
   <field type="int">atomspertype</field>
   <field type="string">element</field>
   <field>mass</field>
   <field>valence</field>
   <field type="string">pseudopotential</field>
   <set>
    <rc><c>   3</c><c>V </c><c>     50.94100000</c><c>      5.00000000</c><c> PAW_PBE V 08Apr2002                    </c></rc>
    <rc><c>   3</c><c>Mo</c><c>     95.94000000</c><c>      6.00000000</c><c> PAW_PBE Mo 08Apr2002                   </c></rc>
    <rc><c>   3</c><c>W </c><c>    183.85000000</c><c>      6.00000000</c><c> PAW_PBE W 08Apr2002                    </c></rc>
    <rc><c>  18</c><c>S </c><c>     32.06600000</c><c>      6.00000000</c><c>  PAW_PBE S 17Jan2003                   </c></rc>
   </set>
  </array>
 </atominfo>
 <structure name="initialpos" >
  <crystal>
   <varray name="basis" >
    <v>       8.66999996       5.03999989       0.00000000 </v>
    <v>      -8.66999982       5.04000013       0.00000000 </v>
    <v>       0.00000000       0.00000000      30.00000000 </v>
   </varray>
   <i name="volume">   2621.80797419 </i>
   <varray name="rec_basis" >
    <v>       0.05767013       0.09920635       0.00000000 </v>
    <v>      -0.05767013       0.09920635       0.00000000 </v>
    <v>       0.00000000       0.00000000       0.03333333 </v>
   </varray>
  </crystal>
  <varray name="positions" >
   <v>       0.66666669       0.33333334       0.00000000 </v>
   <v>       0.00000000       0.66666669       0.00000000 </v>
   <v>       0.66666669       0.66666669       0.00000000 </v>
   <v>       0.33333334       0.00000000       0.00000000 </v>
   <v>       0.66666669       0.00000000       0.00000000 </v>
   <v>       0.00000000       0.00000000       0.00000000 </v>
   <v>       1.00000000       0.33333334       0.00000000 </v>
   <v>       0.33333334       0.33333334       0.00000000 </v>
   <v>       0.33333334       0.66666669       0.00000000 </v>
   <v>       0.11068511       0.22244981       0.95539999 </v>
   <v>       0.22244981       0.11068511       0.04460000 </v>
   <v>       0.11068511       0.55578315       0.95539999 </v>
   <v>       0.22244981       0.44401845       0.04460000 </v>
   <v>       0.11068511       0.88911647       0.95539999 </v>
   <v>       0.22244981       0.77735180       0.04460000 </v>
   <v>       0.44401845       0.22244981       0.95539999 </v>
   <v>       0.55578315       0.11068511       0.04460000 </v>
   <v>       0.44401845       0.55578315       0.95539999 </v>
   <v>       0.55578315       0.44401845       0.04460000 </v>
   <v>       0.44401845       0.88911647       0.95539999 </v>
   <v>       0.55578315       0.77735180       0.04460000 </v>
   <v>       0.77735180       0.22244981       0.95539999 </v>
   <v>       0.88911647       0.11068511       0.04460000 </v>
   <v>       0.77735180       0.55578315       0.95539999 </v>
   <v>       0.88911647       0.44401845       0.04460000 </v>
   <v>       0.77735180       0.88911647       0.95539999 </v>
   <v>       0.88911647       0.77735180       0.04460000 </v>
  </varray>
 </structure>
 <calculation>
  <scstep>
   <time name="dav">   21.72   21.78</time>
   <time name="total">   21.77   21.83</time>
   <energy>
    <i name="alphaZ">     81.65567618 </i>
    <i name="ewald">  41891.17177386 </i>
    <i name="hartreedc"> -47723.81767265 </i>
    <i name="XCdc">   -242.92468729 </i>
    <i name="pawpsdc">   3467.42045192 </i>
    <i name="pawaedc">  -2871.19716117 </i>
    <i name="eentropy">     -0.53505349 </i>
    <i name="bandstr">   -239.45014545 </i>
    <i name="atom">   6761.44252427 </i>
    <i name="e_fr_energy">   1123.76570617 </i>
    <i name="e_wo_entrp">   1124.30075966 </i>
    <i name="e_0_energy">   1124.03323292 </i>
   </energy>
  </scstep>
  <scstep>
   <time name="dav">   28.23   28.30</time>
   <time name="total">   28.23   28.31</time>
   <energy>
    <i name="e_fr_energy">     -4.32909684 </i>
    <i name="e_wo_entrp">     -4.13886625 </i>
    <i name="e_0_energy">     -4.23398155 </i>
   </energy>
  </scstep>
  <scstep>
   <time name="dav">   27.57   27.64</time>
   <time name="total">   27.57   27.64</time>
   <energy>
    <i name="e_fr_energy">   -199.95734511 </i>
    <i name="e_wo_entrp">   -199.69573525 </i>
    <i name="e_0_energy">   -199.82654018 </i>
   </energy>
  </scstep>
  <scstep>
   <time name="dav">   29.88   29.95</time>
   <time name="total">   29.88   29.96</time>
   <energy>
    <i name="e_fr_energy">   -208.97145573 </i>
    <i name="e_wo_entrp">   -208.68022625 </i>
    <i name="e_0_energy">   -208.82584099 </i>
   </energy>
  </scstep>
  <scstep>
   <time name="dav">   28.62   28.69</time>
   <time name="total">   29.09   29.16</time>
   <energy>
    <i name="e_fr_energy">   -209.30438594 </i>
    <i name="e_wo_entrp">   -209.01620062 </i>
    <i name="e_0_energy">   -209.16029328 </i>
   </energy>
  </scstep>
  <scstep>
   <time name="dav">   30.89   30.97</time>
   <time name="total">   31.39   31.47</time>
   <energy>
    <i name="e_fr_energy">   -237.88070762 </i>
    <i name="e_wo_entrp">   -237.62834256 </i>
    <i name="e_0_energy">   -237.75452509 </i>
   </energy>
  </scstep>
  <scstep>
   <time name="dav">   32.79   32.87</time>
   <time name="total">   33.29   33.38</time>
   <energy>
    <i name="e_fr_energy">   -196.56706225 </i>
    <i name="e_wo_entrp">   -196.21117216 </i>
    <i name="e_0_energy">   -196.38911721 </i>
   </energy>
  </scstep>
  <scstep>
   <time name="dav">   29.64   29.71</time>
   <time name="total">   30.15   30.23</time>
   <energy>
    <i name="e_fr_energy">   -189.47135993 </i>
    <i name="e_wo_entrp">   -189.15991381 </i>
    <i name="e_0_energy">   -189.31563687 </i>
   </energy>
  </scstep>
  <scstep>
   <time name="dav">   33.05   33.13</time>
   <time name="total">   33.57   33.78</time>
   <energy>
    <i name="e_fr_energy">   -188.12758964 </i>
    <i name="e_wo_entrp">   -187.80623591 </i>
    <i name="e_0_energy">   -187.96691277 </i>
   </energy>
  </scstep>
  <scstep>
   <time name="dav">   32.90   32.98</time>
   <time name="total">   33.43   33.52</time>
   <energy>
    <i name="e_fr_energy">   -186.93591184 </i>
    <i name="e_wo_entrp">   -186.58482113 </i>
    <i name="e_0_energy">   -186.76036648 </i>
   </energy>
  </scstep>
  <scstep>
   <time name="dav">   33.05   33.13</time>
   <time name="total">   33.58   33.67</time>
   <energy>
    <i name="e_fr_energy">   -187.02396593 </i>
    <i name="e_wo_entrp">   -186.68580439 </i>
    <i name="e_0_energy">   -186.85488516 </i>
   </energy>
  </scstep>
  <scstep>
   <time name="dav">   31.69   31.77</time>
   <time name="total">   32.22   32.31</time>
   <energy>
    <i name="e_fr_energy">   -186.94675487 </i>
    <i name="e_wo_entrp">   -186.61448187 </i>
    <i name="e_0_energy">   -186.78061837 </i>
   </energy>
  </scstep>
  <scstep>
   <time name="dav">   32.11   32.19</time>
   <time name="total">   32.64   32.73</time>
   <energy>
    <i name="e_fr_energy">   -186.86561124 </i>
    <i name="e_wo_entrp">   -186.53006901 </i>
    <i name="e_0_energy">   -186.69784012 </i>
   </energy>
  </scstep>
  <scstep>
   <time name="dav">   32.13   32.21</time>
   <time name="total">   32.67   32.75</time>
   <energy>
    <i name="e_fr_energy">   -186.82716078 </i>
    <i name="e_wo_entrp">   -186.48375820 </i>
    <i name="e_0_energy">   -186.65545949 </i>
   </energy>
  </scstep>
  <scstep>
   <time name="dav">   28.92   28.99</time>
   <time name="total">   29.45   29.53</time>
   <energy>
    <i name="e_fr_energy">   -186.82328234 </i>
    <i name="e_wo_entrp">   -186.48098663 </i>
    <i name="e_0_energy">   -186.65213449 </i>
   </energy>
  </scstep>
  <scstep>
   <time name="dav">   31.42   31.49</time>
   <time name="total">   31.95   32.03</time>
   <energy>
    <i name="e_fr_energy">   -186.82392593 </i>
    <i name="e_wo_entrp">   -186.48281814 </i>
    <i name="e_0_energy">   -186.65337204 </i>
   </energy>
  </scstep>
  <scstep>
   <time name="dav">   32.26   32.33</time>
   <time name="total">   32.79   32.88</time>
   <energy>
    <i name="e_fr_energy">   -186.82155099 </i>
    <i name="e_wo_entrp">   -186.48060160 </i>
    <i name="e_0_energy">   -186.65107629 </i>
   </energy>
  </scstep>
  <scstep>
   <time name="dav">   28.58   28.65</time>
   <time name="total">   29.12   29.20</time>
   <energy>
    <i name="e_fr_energy">   -186.82109302 </i>
    <i name="e_wo_entrp">   -186.47950499 </i>
    <i name="e_0_energy">   -186.65029901 </i>
   </energy>
  </scstep>
  <scstep>
   <time name="dav">   26.39   26.45</time>
   <time name="total">   26.92   27.00</time>
   <energy>
    <i name="e_fr_energy">   -186.82168428 </i>
    <i name="e_wo_entrp">   -186.48053734 </i>
    <i name="e_0_energy">   -186.65111081 </i>
   </energy>
  </scstep>
  <scstep>
   <time name="dav">   21.28   21.33</time>
   <time name="total">   21.82   21.88</time>
   <energy>
    <i name="e_fr_energy">   -186.82199658 </i>
    <i name="e_wo_entrp">   -186.48091545 </i>
    <i name="e_0_energy">   -186.65145601 </i>
   </energy>
  </scstep>
  <scstep>
   <time name="dav">   21.25   21.30</time>
   <time name="total">   21.79   21.85</time>
   <energy>
    <i name="e_fr_energy">   -186.82315759 </i>
    <i name="e_wo_entrp">   -186.48196596 </i>
    <i name="e_0_energy">   -186.65256177 </i>
   </energy>
  </scstep>
  <scstep>
   <time name="dav">   18.84   18.88</time>
   <time name="total">   19.37   19.43</time>
   <energy>
    <i name="e_fr_energy">   -186.82393010 </i>
    <i name="e_wo_entrp">   -186.48275395 </i>
    <i name="e_0_energy">   -186.65334203 </i>
   </energy>
  </scstep>
  <scstep>
   <time name="dav">   20.37   20.42</time>
   <time name="total">   20.91   20.97</time>
   <energy>
    <i name="e_fr_energy">   -186.82477995 </i>
    <i name="e_wo_entrp">   -186.48366729 </i>
    <i name="e_0_energy">   -186.65422362 </i>
   </energy>
  </scstep>
  <scstep>
   <time name="dav">   17.95   17.99</time>
   <time name="total">   18.49   18.54</time>
   <energy>
    <i name="e_fr_energy">   -186.82539419 </i>
    <i name="e_wo_entrp">   -186.48423643 </i>
    <i name="e_0_energy">   -186.65481531 </i>
   </energy>
  </scstep>
  <scstep>
   <time name="dav">   17.45   17.49</time>
   <time name="total">   17.99   18.04</time>
   <energy>
    <i name="e_fr_energy">   -186.82584070 </i>
    <i name="e_wo_entrp">   -186.48467549 </i>
    <i name="e_0_energy">   -186.65525809 </i>
   </energy>
  </scstep>
  <scstep>
   <time name="dav">   19.35   19.39</time>
   <time name="total">   19.89   19.94</time>
   <energy>
    <i name="e_fr_energy">   -186.82602154 </i>
    <i name="e_wo_entrp">   -186.48486218 </i>
    <i name="e_0_energy">   -186.65544186 </i>
   </energy>
  </scstep>
  <scstep>
   <time name="dav">   18.66   18.70</time>
   <time name="total">   18.69   18.75</time>
   <energy>
    <i name="alphaZ">     81.65567618 </i>
    <i name="ewald">  41891.17177386 </i>
    <i name="hartreedc"> -47833.65298727 </i>
    <i name="XCdc">   -231.60893446 </i>
    <i name="pawpsdc">   4192.07694778 </i>
    <i name="pawaedc">  -3610.07282282 </i>
    <i name="eentropy">     -0.34115601 </i>
    <i name="bandstr">  -1437.49714215 </i>
    <i name="atom">   6761.44252427 </i>
    <i name="e_fr_energy">   -186.82612063 </i>
    <i name="e_wo_entrp">   -186.48496461 </i>
    <i name="e_0_energy">   -186.65554262 </i>
   </energy>
  </scstep>
  <structure>
   <crystal>
    <varray name="basis" >
     <v>       8.66999996       5.03999989       0.00000000 </v>
     <v>      -8.66999982       5.04000013       0.00000000 </v>
     <v>       0.00000000       0.00000000      30.00000000 </v>
    </varray>
    <i name="volume">   2621.80797419 </i>
    <varray name="rec_basis" >
     <v>       0.05767013       0.09920635       0.00000000 </v>
     <v>      -0.05767013       0.09920635       0.00000000 </v>
     <v>       0.00000000       0.00000000       0.03333333 </v>
    </varray>
   </crystal>
   <varray name="positions" >
    <v>       0.66666669       0.33333334       0.00000000 </v>
    <v>       0.00000000       0.66666669       0.00000000 </v>
    <v>       0.66666669       0.66666669       0.00000000 </v>
    <v>       0.33333334       0.00000000       0.00000000 </v>
    <v>       0.66666669       0.00000000       0.00000000 </v>
    <v>       0.00000000       0.00000000       0.00000000 </v>
    <v>       1.00000000       0.33333334       0.00000000 </v>
    <v>       0.33333334       0.33333334       0.00000000 </v>
    <v>       0.33333334       0.66666669       0.00000000 </v>
    <v>       0.11068511       0.22244981       0.95539999 </v>
    <v>       0.22244981       0.11068511       0.04460000 </v>
    <v>       0.11068511       0.55578315       0.95539999 </v>
    <v>       0.22244981       0.44401845       0.04460000 </v>
    <v>       0.11068511       0.88911647       0.95539999 </v>
    <v>       0.22244981       0.77735180       0.04460000 </v>
    <v>       0.44401845       0.22244981       0.95539999 </v>
    <v>       0.55578315       0.11068511       0.04460000 </v>
    <v>       0.44401845       0.55578315       0.95539999 </v>
    <v>       0.55578315       0.44401845       0.04460000 </v>
    <v>       0.44401845       0.88911647       0.95539999 </v>
    <v>       0.55578315       0.77735180       0.04460000 </v>
    <v>       0.77735180       0.22244981       0.95539999 </v>
    <v>       0.88911647       0.11068511       0.04460000 </v>
    <v>       0.77735180       0.55578315       0.95539999 </v>
    <v>       0.88911647       0.44401845       0.04460000 </v>
    <v>       0.77735180       0.88911647       0.95539999 </v>
    <v>       0.88911647       0.77735180       0.04460000 </v>
   </varray>
  </structure>
  <varray name="forces" >
   <v>       0.11903247      -0.20277638      -0.00904036 </v>
   <v>      -0.30597483       0.20089650      -0.03385615 </v>
   <v>      -0.01982290       0.35209087      -0.04450940 </v>
   <v>       0.00496949      -0.00686192       0.11822835 </v>
   <v>      -0.00449862      -0.01430871       0.11686849 </v>
   <v>       0.01647942      -0.01191861      -0.13090733 </v>
   <v>       0.15454843      -0.48514626      -0.06925093 </v>
   <v>       0.36063294      -0.38797269      -0.08257427 </v>
   <v>      -0.29278953       0.47940276       0.13184030 </v>
   <v>       0.04450208       0.14514966      -2.97864543 </v>
   <v>      -0.17481045       0.14963801       2.89759148 </v>
   <v>      -0.58248975      -0.01300027      -2.08485571 </v>
   <v>      -0.15750749       0.04051895       2.86280000 </v>
   <v>       0.50198765      -0.70117445      -2.13684907 </v>
   <v>      -0.35229281      -0.68460951       2.18760923 </v>
   <v>       0.34142563       0.71134695      -2.16756452 </v>
   <v>      -0.51317055       0.68047055       2.15084848 </v>
   <v>       0.47198578       0.54859861      -2.12836803 </v>
   <v>       0.23611046       0.52848415       1.40046653 </v>
   <v>       0.20439810      -0.13874561      -2.88925347 </v>
   <v>       0.64604255      -0.15185505       2.14394063 </v>
   <v>      -0.66241292       0.17927227      -2.11986374 </v>
   <v>      -0.22015460       0.12429529       2.89243583 </v>
   <v>       0.05921312       0.00993646      -0.76403904 </v>
   <v>      -0.74765133       0.00298706       1.44385273 </v>
   <v>       0.54431426      -0.67773893      -2.13273428 </v>
   <v>       0.32793338      -0.67697971       1.42582969 </v>
  </varray>
  <varray name="stress" >
   <v>       7.25733475      -0.12915265      -1.53279231 </v>
   <v>      -0.12915271       4.49230983      -0.04157077 </v>
   <v>      -1.53279233      -0.04157080      30.31924861 </v>
  </varray>
  <energy>
   <i name="e_fr_energy">   -186.82612063 </i>
   <i name="e_wo_entrp">   -186.65554262 </i>
   <i name="e_0_energy">     -0.34115601 </i>
  </energy>
  <time name="totalsc">  781.34  783.55</time>
 </calculation>
 <calculation>
  <scstep>
   <time name="dav">   21.72   21.77</time>
   <time name="total">   22.25   22.31</time>
   <energy>
    <i name="alphaZ">     78.92235967 </i>
    <i name="ewald">  39379.64672165 </i>
    <i name="hartreedc"> -45336.95758154 </i>
    <i name="XCdc">   -239.07387523 </i>
    <i name="pawpsdc">   4192.07066330 </i>
    <i name="pawaedc">  -3610.06679987 </i>
    <i name="eentropy">     -0.27824888 </i>
    <i name="bandstr">  -1413.19792152 </i>
    <i name="atom">   6761.44252427 </i>
    <i name="e_fr_energy">   -187.49215815 </i>
    <i name="e_wo_entrp">   -187.21390927 </i>
    <i name="e_0_energy">   -187.35303371 </i>
   </energy>
  </scstep>
  <scstep>
   <time name="dav">   30.29   30.37</time>
   <time name="total">   30.83   30.91</time>
   <energy>
    <i name="e_fr_energy">   -189.35057924 </i>
    <i name="e_wo_entrp">   -189.03417959 </i>
    <i name="e_0_energy">   -189.19237941 </i>
   </energy>
  </scstep>
  <scstep>
   <time name="dav">   30.57   30.64</time>
   <time name="total">   31.12   31.20</time>
   <energy>
    <i name="e_fr_energy">   -189.34739093 </i>
    <i name="e_wo_entrp">   -189.08820317 </i>
    <i name="e_0_energy">   -189.21779705 </i>
   </energy>
  </scstep>
  <scstep>
   <time name="dav">   31.22   31.29</time>
   <time name="total">   31.76   31.84</time>
   <energy>
    <i name="e_fr_energy">   -188.74260523 </i>
    <i name="e_wo_entrp">   -188.46201657 </i>
    <i name="e_0_energy">   -188.60231090 </i>
   </energy>
  </scstep>
  <scstep>
   <time name="dav">   26.53   26.60</time>
   <time name="total">   27.07   27.15</time>
   <energy>
    <i name="e_fr_energy">   -188.72594092 </i>
    <i name="e_wo_entrp">   -188.44955756 </i>
    <i name="e_0_energy">   -188.58774924 </i>
   </energy>
  </scstep>
  <scstep>
   <time name="dav">   30.27   30.34</time>
   <time name="total">   30.81   30.89</time>
   <energy>
    <i name="e_fr_energy">   -188.69277258 </i>
    <i name="e_wo_entrp">   -188.41276003 </i>
    <i name="e_0_energy">   -188.55276631 </i>
   </energy>
  </scstep>
  <scstep>
   <time name="dav">   31.67   31.75</time>
   <time name="total">   32.21   32.30</time>
   <energy>
    <i name="e_fr_energy">   -188.70065310 </i>
    <i name="e_wo_entrp">   -188.42003517 </i>
    <i name="e_0_energy">   -188.56034413 </i>
   </energy>
  </scstep>
  <scstep>
   <time name="dav">   32.38   32.46</time>
   <time name="total">   32.92   33.00</time>
   <energy>
    <i name="e_fr_energy">   -188.65764501 </i>
    <i name="e_wo_entrp">   -188.38004810 </i>
    <i name="e_0_energy">   -188.51884655 </i>
   </energy>
  </scstep>
  <scstep>
   <time name="dav">   26.75   26.81</time>
   <time name="total">   27.29   27.36</time>
   <energy>
    <i name="e_fr_energy">   -188.65615517 </i>
    <i name="e_wo_entrp">   -188.37920196 </i>
    <i name="e_0_energy">   -188.51767857 </i>
   </energy>
  </scstep>
  <scstep>
   <time name="dav">   32.65   32.73</time>
   <time name="total">   33.19   33.28</time>
   <energy>
    <i name="e_fr_energy">   -188.65701167 </i>
    <i name="e_wo_entrp">   -188.38063598 </i>
    <i name="e_0_energy">   -188.51882383 </i>
   </energy>
  </scstep>
  <scstep>
   <time name="dav">   31.66   31.74</time>
   <time name="total">   32.20   32.29</time>
   <energy>
    <i name="e_fr_energy">   -188.65560094 </i>
    <i name="e_wo_entrp">   -188.37935365 </i>
    <i name="e_0_energy">   -188.51747730 </i>
   </energy>
  </scstep>
  <scstep>
   <time name="dav">   29.32   29.39</time>
   <time name="total">   29.35   29.43</time>
   <energy>
    <i name="alphaZ">     78.92235967 </i>
    <i name="ewald">  39379.64672165 </i>
    <i name="hartreedc"> -45348.04008991 </i>
    <i name="XCdc">   -237.97551080 </i>
    <i name="pawpsdc">   3952.64295315 </i>
    <i name="pawaedc">  -3367.16859846 </i>
    <i name="eentropy">     -0.27615416 </i>
    <i name="bandstr">  -1407.84974887 </i>
    <i name="atom">   6761.44252427 </i>
    <i name="e_fr_energy">   -188.65554346 </i>
    <i name="e_wo_entrp">   -188.37938930 </i>
    <i name="e_0_energy">   -188.51746638 </i>
   </energy>
  </scstep>
  <structure>
   <crystal>
    <varray name="basis" >
     <v>       8.85206967       5.10292588       0.00000000 </v>
     <v>      -8.85587600       5.10947414       0.00000000 </v>
     <v>       0.00000000       0.00000000      30.00000000 </v>
    </varray>
    <i name="volume">   2712.60899749 </i>
    <varray name="rec_basis" >
     <v>       0.05650804       0.09794124       0.00000000 </v>
     <v>      -0.05643562       0.09789914       0.00000000 </v>
     <v>       0.00000000       0.00000000       0.03333333 </v>
    </varray>
   </crystal>
   <varray name="positions" >
    <v>       0.66602737       0.33203169      -0.00001454 </v>
    <v>       0.00011022       0.66847944      -0.00005444 </v>
    <v>       0.66829664       0.66840694      -0.00007158 </v>
    <v>       0.33331433      -0.00004667       0.00019012 </v>
    <v>       0.66658569      -0.00005597       0.00018793 </v>
    <v>      -0.00001119      -0.00010289      -0.00021051 </v>
    <v>       0.99810808       0.33058147      -0.00011136 </v>
    <v>       0.33247985       0.33047318      -0.00013279 </v>
    <v>       0.33481317       0.66977568       0.00021201 </v>
    <v>       0.11150361       0.22302068       0.95061006 </v>
    <v>       0.22267962       0.11188762       0.04925958 </v>
    <v>       0.10900231       0.55734151       0.95204736 </v>
    <v>       0.22220552       0.44465059       0.04920363 </v>
    <v>       0.10872591       0.88436405       0.95196375 </v>
    <v>       0.21819315       0.77505541       0.04811787 </v>
    <v>       0.44837284       0.22490440       0.95191435 </v>
    <v>       0.55761215       0.11536955       0.04805875 </v>
    <v>       0.44795717       0.55709559       0.95197739 </v>
    <v>       0.55896936       0.44589087       0.04685207 </v>
    <v>       0.44392309       0.88788376       0.95075381 </v>
    <v>       0.55685377       0.77482763       0.04804764 </v>
    <v>       0.77636685       0.22515074       0.95199106 </v>
    <v>       0.88909884       0.11189249       0.04925129 </v>
    <v>       0.77756409       0.55566597       0.95417135 </v>
    <v>       0.88705068       0.44611283       0.04692184 </v>
    <v>       0.77562252       0.88435845       0.95197036 </v>
    <v>       0.88678882       0.77319942       0.04689286 </v>
   </varray>
  </structure>
  <varray name="forces" >
   <v>       0.11675164      -0.20349660       0.09813510 </v>
   <v>      -0.19041169       0.22961589      -0.08640043 </v>
   <v>      -0.09970506       0.28285221      -0.09321902 </v>
   <v>       0.06040048      -0.01969886       0.03082718 </v>
   <v>      -0.01191719      -0.06181431       0.03126734 </v>
   <v>      -0.19489747       0.33569168      -0.05881219 </v>
   <v>       0.42157511      -0.45777470       0.05869668 </v>
   <v>       0.18061062      -0.59777535       0.05461372 </v>
   <v>      -0.31859150       0.55495587      -0.05543292 </v>
   <v>      -0.06736700       0.08918841      -0.18782262 </v>
   <v>      -0.05304439       0.10263053       0.14030558 </v>
   <v>       0.10342995      -0.00959416       0.24092934 </v>
   <v>       0.01433157       0.00308395      -0.26423260 </v>
   <v>       0.02858364      -0.07415959      -0.05746407 </v>
   <v>       0.09397508      -0.04799419       0.10039343 </v>
   <v>      -0.10055979       0.05167736      -0.05204901 </v>
   <v>      -0.03254665       0.07654246       0.09454280 </v>
   <v>      -0.05633252      -0.07676580       0.26495564 </v>
   <v>      -0.04612888      -0.06295724      -0.23376018 </v>
   <v>       0.05386399      -0.10240851      -0.09496250 </v>
   <v>      -0.01481990      -0.09145362       0.11593046 </v>
   <v>       0.02089122       0.10363291      -0.07001221 </v>
   <v>      -0.05196589       0.10251840       0.13687240 </v>
   <v>       0.01135259       0.00463390       0.20151007 </v>
   <v>       0.08949183      -0.00796321      -0.25321946 </v>
   <v>       0.03296270      -0.06998499      -0.05451180 </v>
   <v>       0.01006748      -0.05318246      -0.00708072 </v>
  </varray>
  <varray name="stress" >
   <v>     -19.99889427       0.01393666      -0.01439905 </v>
   <v>       0.01393656     -19.59566383       0.10002387 </v>
   <v>      -0.01439916       0.10002392      -1.84717773 </v>
  </varray>
  <energy>
   <i name="e_fr_energy">   -188.65554346 </i>
   <i name="e_wo_entrp">   -188.51746638 </i>
   <i name="e_0_energy">     -0.27615416 </i>
  </energy>
  <time name="totalsc">  403.84  404.90</time>
 </calculation>
 <calculation>
  <scstep>
   <time name="dav">   23.92   23.97</time>
   <time name="total">   24.44   24.50</time>
   <energy>
    <i name="alphaZ">     82.34872431 </i>
    <i name="ewald">  41304.03546987 </i>
    <i name="hartreedc"> -47302.97910296 </i>
    <i name="XCdc">   -233.85430430 </i>
    <i name="pawpsdc">   3950.50499614 </i>
    <i name="pawaedc">  -3365.00651477 </i>
    <i name="eentropy">     -0.23140186 </i>
    <i name="bandstr">  -1386.84409590 </i>
    <i name="atom">   6761.44252427 </i>
    <i name="e_fr_energy">   -190.58370520 </i>
    <i name="e_wo_entrp">   -190.35230334 </i>
    <i name="e_0_energy">   -190.46800427 </i>
   </energy>
  </scstep>
  <scstep>
   <time name="dav">   28.84   28.91</time>
   <time name="total">   29.36   29.44</time>
   <energy>
    <i name="e_fr_energy">   -190.51942191 </i>
    <i name="e_wo_entrp">   -190.30300797 </i>
    <i name="e_0_energy">   -190.41121494 </i>
   </energy>
  </scstep>
  <scstep>
   <time name="dav">   30.49   30.57</time>
   <time name="total">   31.02   31.10</time>
   <energy>
    <i name="e_fr_energy">   -190.07127733 </i>
    <i name="e_wo_entrp">   -189.82355257 </i>
    <i name="e_0_energy">   -189.94741495 </i>
   </energy>
  </scstep>
  <scstep>
   <time name="dav">   31.67   31.74</time>
   <time name="total">   32.19   32.28</time>
   <energy>
    <i name="e_fr_energy">   -189.85575088 </i>
    <i name="e_wo_entrp">   -189.63307882 </i>
    <i name="e_0_energy">   -189.74441485 </i>
   </energy>
  </scstep>
  <scstep>
   <time name="dav">   28.59   28.66</time>
   <time name="total">   29.12   29.20</time>
   <energy>
    <i name="e_fr_energy">   -189.76569650 </i>
    <i name="e_wo_entrp">   -189.53327325 </i>
    <i name="e_0_energy">   -189.64948488 </i>
   </energy>
  </scstep>
  <scstep>
   <time name="dav">   29.58   29.65</time>
   <time name="total">   30.10   30.18</time>
   <energy>
    <i name="e_fr_energy">   -189.75516242 </i>
    <i name="e_wo_entrp">   -189.52333632 </i>
    <i name="e_0_energy">   -189.63924937 </i>
   </energy>
  </scstep>
  <scstep>
   <time name="dav">   30.24   30.31</time>
   <time name="total">   30.77   30.85</time>
   <energy>
    <i name="e_fr_energy">   -189.75154617 </i>
    <i name="e_wo_entrp">   -189.52020164 </i>
    <i name="e_0_energy">   -189.63587390 </i>
   </energy>
  </scstep>
  <scstep>
   <time name="dav">   29.05   29.12</time>
   <time name="total">   29.57   29.65</time>
   <energy>
    <i name="e_fr_energy">   -189.75110668 </i>
    <i name="e_wo_entrp">   -189.51977788 </i>
    <i name="e_0_energy">   -189.63544228 </i>
   </energy>
  </scstep>
  <scstep>
   <time name="dav">   27.11   27.17</time>
   <time name="total">   27.64   27.71</time>
   <energy>
    <i name="e_fr_energy">   -189.75202224 </i>
    <i name="e_wo_entrp">   -189.52040980 </i>
    <i name="e_0_energy">   -189.63621602 </i>
   </energy>
  </scstep>
  <scstep>
   <time name="dav">   27.08   27.15</time>
   <time name="total">   27.61   27.68</time>
   <energy>
    <i name="e_fr_energy">   -189.75135316 </i>
    <i name="e_wo_entrp">   -189.51975638 </i>
    <i name="e_0_energy">   -189.63555477 </i>
   </energy>
  </scstep>
  <scstep>
   <time name="dav">   18.56   18.61</time>
   <time name="total">   18.60   18.65</time>
   <energy>
    <i name="alphaZ">     82.34872431 </i>
    <i name="ewald">  41304.03546987 </i>
    <i name="hartreedc"> -47276.09297297 </i>
    <i name="XCdc">   -235.24669686 </i>
    <i name="pawpsdc">   4038.45350144 </i>
    <i name="pawaedc">  -3454.14990702 </i>
    <i name="eentropy">     -0.23155376 </i>
    <i name="bandstr">  -1410.31040068 </i>
    <i name="atom">   6761.44252427 </i>
    <i name="e_fr_energy">   -189.75131139 </i>
    <i name="e_wo_entrp">   -189.51975763 </i>
    <i name="e_0_energy">   -189.63553451 </i>
   </energy>
  </scstep>
  <structure>
   <crystal>
    <varray name="basis" >
     <v>       8.66413509       4.99686053       0.00000000 </v>
     <v>      -8.66770941       5.00301043       0.00000000 </v>
     <v>       0.00000000       0.00000000      30.00000000 </v>
    </varray>
    <i name="volume">   2599.74279776 </i>
    <varray name="rec_basis" >
     <v>       0.05773275       0.10002193       0.00000000 </v>
     <v>      -0.05766179       0.09998068       0.00000000 </v>
     <v>       0.00000000       0.00000000       0.03333333 </v>
    </varray>
   </crystal>
   <varray name="positions" >
    <v>       0.66580155       0.33158269       0.00004086 </v>
    <v>       0.00030886       0.66904215      -0.00010322 </v>
    <v>       0.66867040       0.66897122      -0.00012420 </v>
    <v>       0.33333946      -0.00013706       0.00020752 </v>
    <v>       0.66647175      -0.00014707       0.00020559 </v>
    <v>       0.00035911       0.00063999      -0.00024371 </v>
    <v>       0.99775220       0.32941951      -0.00007822 </v>
    <v>       0.33166114       0.32930941      -0.00010195 </v>
    <v>       0.33542880       0.67100034       0.00018072 </v>
    <v>       0.11158707       0.22323295       0.95050403 </v>
    <v>       0.22279910       0.11210849       0.04933879 </v>
    <v>       0.10908538       0.55722675       0.95218337 </v>
    <v>       0.22222435       0.44464200       0.04905446 </v>
    <v>       0.10863026       0.88421377       0.95193131 </v>
    <v>       0.21820348       0.77488601       0.04817454 </v>
    <v>       0.44836233       0.22508620       0.95188497 </v>
    <v>       0.55770796       0.11552757       0.04811213 </v>
    <v>       0.44777593       0.55702216       0.95212696 </v>
    <v>       0.55882079       0.44583057       0.04672011 </v>
    <v>       0.44380477       0.88766248       0.95070020 </v>
    <v>       0.55668789       0.77469016       0.04811309 </v>
    <v>       0.77655875       0.22530260       0.95195154 </v>
    <v>       0.88921916       0.11211214       0.04932856 </v>
    <v>       0.77758264       0.55566280       0.95428511 </v>
    <v>       0.88712311       0.44601409       0.04677889 </v>
    <v>       0.77553798       0.88421091       0.95193959 </v>
    <v>       0.88671024       0.77310162       0.04688886 </v>
   </varray>
  </structure>
  <varray name="forces" >
   <v>       0.12875132      -0.23057622       0.10104364 </v>
   <v>      -0.13515615       0.26830483      -0.07772844 </v>
   <v>      -0.16409698       0.25342011      -0.08047563 </v>
   <v>       0.08920908      -0.03302496       0.00414138 </v>
   <v>      -0.01430530      -0.09656481       0.00488013 </v>
   <v>      -0.26033956       0.44711145      -0.02770585 </v>
   <v>       0.51385296      -0.43927267       0.06791505 </v>
   <v>       0.11765467      -0.66873550       0.06788978 </v>
   <v>      -0.32630635       0.57338095      -0.08375405 </v>
   <v>      -0.02483303       0.02218110      -0.79286459 </v>
   <v>      -0.00596059       0.01397187       0.70100926 </v>
   <v>      -0.03084311      -0.01588729      -0.22484947 </v>
   <v>       0.00715417       0.01614014       0.25456660 </v>
   <v>       0.06306451      -0.12877882      -0.54011098 </v>
   <v>      -0.03947755      -0.11691015       0.62305790 </v>
   <v>       0.02961626       0.10864331      -0.55923114 </v>
   <v>      -0.07290413       0.14229994       0.58904482 </v>
   <v>       0.02056729       0.03363535      -0.20423326 </v>
   <v>       0.02264587       0.07121417       0.20070320 </v>
   <v>       0.00340153      -0.01548719      -0.65892689 </v>
   <v>       0.11164343      -0.01377804       0.63894844 </v>
   <v>      -0.09397908       0.02106560      -0.57663256 </v>
   <v>       0.00145979       0.01610159       0.70018640 </v>
   <v>       0.01771289      -0.00322701      -0.20081847 </v>
   <v>      -0.06501887       0.00110404       0.18379914 </v>
   <v>       0.06782661      -0.12514171      -0.53936460 </v>
   <v>       0.03866032      -0.10119007       0.42951020 </v>
  </varray>
  <varray name="stress" >
   <v>     -10.15845225       0.03058393      -0.04744921 </v>
   <v>       0.03058388      -9.87472560       0.11961255 </v>
   <v>      -0.04744921       0.11961253       6.51073604 </v>
  </varray>
  <energy>
   <i name="e_fr_energy">   -189.75131139 </i>
   <i name="e_wo_entrp">   -189.63553451 </i>
   <i name="e_0_energy">     -0.23155376 </i>
  </energy>
  <time name="totalsc">  353.07  354.00</time>
 </calculation>
 <calculation>
  <scstep>
   <time name="dav">   21.73   21.79</time>
   <time name="total">   22.25   22.31</time>
   <energy>
    <i name="alphaZ">     85.81555884 </i>
    <i name="ewald">  42831.24961906 </i>
    <i name="hartreedc"> -48847.65708621 </i>
    <i name="XCdc">   -232.96810234 </i>
    <i name="pawpsdc">   4038.94205577 </i>
    <i name="pawaedc">  -3454.63953065 </i>
    <i name="eentropy">     -0.18914858 </i>
    <i name="bandstr">  -1373.33956278 </i>
    <i name="atom">   6761.44252427 </i>
    <i name="e_fr_energy">   -191.34367262 </i>
    <i name="e_wo_entrp">   -191.15452404 </i>
    <i name="e_0_energy">   -191.24909833 </i>
   </energy>
  </scstep>
  <scstep>
   <time name="dav">   32.63   32.71</time>
   <time name="total">   33.14   33.23</time>
   <energy>
    <i name="e_fr_energy">   -191.12902166 </i>
    <i name="e_wo_entrp">   -190.94580049 </i>
    <i name="e_0_energy">   -191.03741107 </i>
   </energy>
  </scstep>
  <scstep>
   <time name="dav">   30.06   30.13</time>
   <time name="total">   30.57   30.65</time>
   <energy>
    <i name="e_fr_energy">   -191.32452053 </i>
    <i name="e_wo_entrp">   -191.10625860 </i>
    <i name="e_0_energy">   -191.21538957 </i>
   </energy>
  </scstep>
  <scstep>
   <time name="dav">   31.73   31.81</time>
   <time name="total">   32.25   32.34</time>
   <energy>
    <i name="e_fr_energy">   -190.90767357 </i>
    <i name="e_wo_entrp">   -190.72457482 </i>
    <i name="e_0_energy">   -190.81612420 </i>
   </energy>
  </scstep>
  <scstep>
   <time name="dav">   27.55   27.61</time>
   <time name="total">   28.06   28.14</time>
   <energy>
    <i name="e_fr_energy">   -190.80713086 </i>
    <i name="e_wo_entrp">   -190.61417996 </i>
    <i name="e_0_energy">   -190.71065541 </i>
   </energy>
  </scstep>
  <scstep>
   <time name="dav">   31.11   31.19</time>
   <time name="total">   31.63   31.71</time>
   <energy>
    <i name="e_fr_energy">   -190.79619364 </i>
    <i name="e_wo_entrp">   -190.60160755 </i>
    <i name="e_0_energy">   -190.69890060 </i>
   </energy>
  </scstep>
  <scstep>
   <time name="dav">   29.75   29.82</time>
   <time name="total">   30.27   30.35</time>
   <energy>
    <i name="e_fr_energy">   -190.77651273 </i>
    <i name="e_wo_entrp">   -190.58493436 </i>
    <i name="e_0_energy">   -190.68072354 </i>
   </energy>
  </scstep>
  <scstep>
   <time name="dav">   25.90   25.96</time>
   <time name="total">   26.42   26.49</time>
   <energy>
    <i name="e_fr_energy">   -190.77240701 </i>
    <i name="e_wo_entrp">   -190.57982546 </i>
    <i name="e_0_energy">   -190.67611624 </i>
   </energy>
  </scstep>
  <scstep>
   <time name="dav">   26.85   26.91</time>
   <time name="total">   27.37   27.44</time>
   <energy>
    <i name="e_fr_energy">   -190.77284361 </i>
    <i name="e_wo_entrp">   -190.57994480 </i>
    <i name="e_0_energy">   -190.67639420 </i>
   </energy>
  </scstep>
  <scstep>
   <time name="dav">   26.87   26.93</time>
   <time name="total">   27.38   27.45</time>
   <energy>
    <i name="e_fr_energy">   -190.77256392 </i>
    <i name="e_wo_entrp">   -190.57981519 </i>
    <i name="e_0_energy">   -190.67618956 </i>
   </energy>
  </scstep>
  <scstep>
   <time name="dav">   20.08   20.13</time>
   <time name="total">   20.11   20.17</time>
   <energy>
    <i name="alphaZ">     85.81555884 </i>
    <i name="ewald">  42831.24961906 </i>
    <i name="hartreedc"> -48819.19722115 </i>
    <i name="XCdc">   -234.28977954 </i>
    <i name="pawpsdc">   4064.25287070 </i>
    <i name="pawaedc">  -3480.12838912 </i>
    <i name="eentropy">     -0.19279028 </i>
    <i name="bandstr">  -1399.72497543 </i>
    <i name="atom">   6761.44252427 </i>
    <i name="e_fr_energy">   -190.77258266 </i>
    <i name="e_wo_entrp">   -190.57979237 </i>
    <i name="e_0_energy">   -190.67618751 </i>
   </energy>
  </scstep>
  <structure>
   <crystal>
    <varray name="basis" >
     <v>       8.48445663       4.89812583       0.00000000 </v>
     <v>      -8.48658286       4.90177186       0.00000000 </v>
     <v>       0.00000000       0.00000000      30.00000000 </v>
    </varray>
    <i name="volume">   2494.71664382 </i>
    <varray name="rec_basis" >
     <v>       0.05894584       0.10205467       0.00000000 </v>
     <v>      -0.05890199       0.10202910       0.00000000 </v>
     <v>       0.00000000       0.00000000       0.03333333 </v>
    </varray>
   </crystal>
   <varray name="positions" >
    <v>       0.66477491       0.32959373       0.00025201 </v>
    <v>       0.00167341       0.67122249      -0.00025643 </v>
    <v>       0.66949686       0.67116497      -0.00027964 </v>
    <v>       0.33346312      -0.00073920       0.00019352 </v>
    <v>       0.66572685      -0.00078167       0.00019336 </v>
    <v>       0.00239724       0.00474188      -0.00027464 </v>
    <v>       0.99703894       0.32473709       0.00006984 </v>
    <v>       0.32763948       0.32462129       0.00004948 </v>
    <v>       0.33786987       0.67581538      -0.00001620 </v>
    <v>       0.11153064       0.22323381       0.94835506 </v>
    <v>       0.22271219       0.11192979       0.05126057 </v>
    <v>       0.10866676       0.55741518       0.95132527 </v>
    <v>       0.22237319       0.44475974       0.05001876 </v>
    <v>       0.10796667       0.88299699       0.95040782 </v>
    <v>       0.21696793       0.77431776       0.04990317 </v>
    <v>       0.44947624       0.22561336       0.95030125 </v>
    <v>       0.55843980       0.11690035       0.04974670 </v>
    <v>       0.44844475       0.55732220       0.95130856 </v>
    <v>       0.55977938       0.44642854       0.04750187 </v>
    <v>       0.44386381       0.88784147       0.94886258 </v>
    <v>       0.55737874       0.77421358       0.04987484 </v>
    <v>       0.77598165       0.22573232       0.95033235 </v>
    <v>       0.88918699       0.11191649       0.05125085 </v>
    <v>       0.77761598       0.55555019       0.95353027 </v>
    <v>       0.88669653       0.44649894       0.04752790 </v>
    <v>       0.77491352       0.88299781       0.95041578 </v>
    <v>       0.88613901       0.77216999       0.04814499 </v>
   </varray>
  </structure>
  <varray name="forces" >
   <v>       0.11137530      -0.20019088       0.07004489 </v>
   <v>      -0.12877603       0.27860562      -0.02604935 </v>
   <v>      -0.18254312       0.25123861      -0.02463761 </v>
   <v>       0.14585892      -0.04549994      -0.02531550 </v>
   <v>      -0.03196883      -0.15599032      -0.02621894 </v>
   <v>      -0.32106923       0.55462501       0.03417167 </v>
   <v>       0.61453877      -0.49450705       0.02518204 </v>
   <v>       0.11991579      -0.78155175       0.02607347 </v>
   <v>      -0.40282711       0.70550375      -0.03556833 </v>
   <v>       0.01444092      -0.02356721      -0.71331537 </v>
   <v>       0.06549744      -0.07357905       0.54393394 </v>
   <v>       0.03511014      -0.03383621      -0.02942072 </v>
   <v>      -0.02127029       0.03901914       0.04102793 </v>
   <v>      -0.02308800      -0.01473679      -0.37966778 </v>
   <v>      -0.04716021      -0.01726073       0.47423258 </v>
   <v>       0.02322104       0.00424855      -0.36430861 </v>
   <v>      -0.01526003       0.02577816       0.44662683 </v>
   <v>       0.01823365      -0.03655547      -0.02374223 </v>
   <v>      -0.01911824      -0.01945770       0.07921504 </v>
   <v>      -0.04874612       0.08647679      -0.53602834 </v>
   <v>       0.02941434       0.03261429       0.47974068 </v>
   <v>      -0.00128650      -0.01693587      -0.36669473 </v>
   <v>       0.03014827      -0.09342049       0.54232464 </v>
   <v>       0.01279911      -0.00516492      -0.20093047 </v>
   <v>       0.02322247      -0.00364321       0.07460367 </v>
   <v>       0.02701465       0.01312837      -0.37916416 </v>
   <v>      -0.02767710       0.02465931       0.29388477 </v>
  </varray>
  <varray name="stress" >
   <v>      -5.84828934      -0.15715058      -0.02801420 </v>
   <v>      -0.15715056      -5.66595840      -0.07301429 </v>
   <v>      -0.02801422      -0.07301413       4.55446315 </v>
  </varray>
  <energy>
   <i name="e_fr_energy">   -190.77258266 </i>
   <i name="e_wo_entrp">   -190.67618751 </i>
   <i name="e_0_energy">     -0.19279028 </i>
  </energy>
  <time name="totalsc">  352.48  353.41</time>
 </calculation>
 <calculation>
  <scstep>
   <time name="dav">   21.70   21.75</time>
   <time name="total">   22.20   22.26</time>
   <energy>
    <i name="alphaZ">     90.13261109 </i>
    <i name="ewald">  44648.63694461 </i>
    <i name="hartreedc"> -50691.08751164 </i>
    <i name="XCdc">   -231.86291636 </i>
    <i name="pawpsdc">   4064.25444678 </i>
    <i name="pawaedc">  -3480.12858048 </i>
    <i name="eentropy">     -0.16452591 </i>
    <i name="bandstr">  -1353.45041245 </i>
    <i name="atom">   6761.44252427 </i>
    <i name="e_fr_energy">   -192.22742009 </i>
    <i name="e_wo_entrp">   -192.06289418 </i>
    <i name="e_0_energy">   -192.14515713 </i>
   </energy>
  </scstep>
  <scstep>
   <time name="dav">   25.81   25.88</time>
   <time name="total">   26.31   26.38</time>
   <energy>
    <i name="e_fr_energy">   -191.94712905 </i>
    <i name="e_wo_entrp">   -191.77090798 </i>
    <i name="e_0_energy">   -191.85901852 </i>
   </energy>
  </scstep>
  <scstep>
   <time name="dav">   27.28   27.34</time>
   <time name="total">   27.78   27.85</time>
   <energy>
    <i name="e_fr_energy">   -191.75947634 </i>
    <i name="e_wo_entrp">   -191.59841726 </i>
    <i name="e_0_energy">   -191.67894680 </i>
   </energy>
  </scstep>
  <scstep>
   <time name="dav">   29.18   29.25</time>
   <time name="total">   29.68   29.76</time>
   <energy>
    <i name="e_fr_energy">   -191.79229754 </i>
    <i name="e_wo_entrp">   -191.60160151 </i>
    <i name="e_0_energy">   -191.69694952 </i>
   </energy>
  </scstep>
  <scstep>
   <time name="dav">   28.58   28.65</time>
   <time name="total">   29.09   29.17</time>
   <energy>
    <i name="e_fr_energy">   -191.62945857 </i>
    <i name="e_wo_entrp">   -191.45377175 </i>
    <i name="e_0_energy">   -191.54161516 </i>
   </energy>
  </scstep>
  <scstep>
   <time name="dav">   30.03   30.10</time>
   <time name="total">   30.53   30.61</time>
   <energy>
    <i name="e_fr_energy">   -191.60498178 </i>
    <i name="e_wo_entrp">   -191.43924426 </i>
    <i name="e_0_energy">   -191.52211302 </i>
   </energy>
  </scstep>
  <scstep>
   <time name="dav">   30.40   30.48</time>
   <time name="total">   30.91   30.99</time>
   <energy>
    <i name="e_fr_energy">   -191.58679145 </i>
    <i name="e_wo_entrp">   -191.41265594 </i>
    <i name="e_0_energy">   -191.49972370 </i>
   </energy>
  </scstep>
  <scstep>
   <time name="dav">   30.48   30.56</time>
   <time name="total">   30.99   31.07</time>
   <energy>
    <i name="e_fr_energy">   -191.57974444 </i>
    <i name="e_wo_entrp">   -191.40771072 </i>
    <i name="e_0_energy">   -191.49372758 </i>
   </energy>
  </scstep>
  <scstep>
   <time name="dav">   30.17   30.24</time>
   <time name="total">   30.67   30.75</time>
   <energy>
    <i name="e_fr_energy">   -191.58108897 </i>
    <i name="e_wo_entrp">   -191.40880430 </i>
    <i name="e_0_energy">   -191.49494663 </i>
   </energy>
  </scstep>
  <scstep>
   <time name="dav">   29.39   29.46</time>
   <time name="total">   29.89   29.97</time>
   <energy>
    <i name="e_fr_energy">   -191.57971074 </i>
    <i name="e_wo_entrp">   -191.40716446 </i>
    <i name="e_0_energy">   -191.49343760 </i>
   </energy>
  </scstep>
  <scstep>
   <time name="dav">   18.25   18.30</time>
   <time name="total">   18.29   18.34</time>
   <energy>
    <i name="alphaZ">     90.13261109 </i>
    <i name="ewald">  44648.63694461 </i>
    <i name="hartreedc"> -50657.77842318 </i>
    <i name="XCdc">   -233.34269642 </i>
    <i name="pawpsdc">   4088.72814099 </i>
    <i name="pawaedc">  -3504.71100666 </i>
    <i name="eentropy">     -0.17236199 </i>
    <i name="bandstr">  -1384.51546950 </i>
    <i name="atom">   6761.44252427 </i>
    <i name="e_fr_energy">   -191.57973679 </i>
    <i name="e_wo_entrp">   -191.40737480 </i>
    <i name="e_0_energy">   -191.49355580 </i>
   </energy>
  </scstep>
  <structure>
   <crystal>
    <varray name="basis" >
     <v>       8.26990452       4.77454478       0.00000000 </v>
     <v>      -8.28061218       4.79305576       0.00000000 </v>
     <v>       0.00000000       0.00000000      30.00000000 </v>
    </varray>
    <i name="volume">   2375.22801508 </i>
    <varray name="rec_basis" >
     <v>       0.06053805       0.10458717       0.00000000 </v>
     <v>      -0.06030425       0.10445192       0.00000000 </v>
     <v>       0.00000000       0.00000000       0.03333333 </v>
    </varray>
   </crystal>
   <varray name="positions" >
    <v>       0.66303110       0.32621346       0.00054880 </v>
    <v>       0.00433637       0.67552565      -0.00037835 </v>
    <v>       0.67110351       0.67551223      -0.00039421 </v>
    <v>       0.33391112      -0.00232876       0.00008275 </v>
    <v>       0.66361439      -0.00246969       0.00008015 </v>
    <v>       0.00698151       0.01393655      -0.00014140 </v>
    <v>       0.99553911       0.31448937       0.00020091 </v>
    <v>       0.31884744       0.31435660       0.00018753 </v>
    <v>       0.34352129       0.68700747      -0.00020976 </v>
    <v>       0.11126243       0.22269746       0.94490063 </v>
    <v>       0.22217802       0.11045566       0.05404091 </v>
    <v>       0.10823149       0.55704947       0.95065708 </v>
    <v>       0.22271333       0.44536877       0.05079360 </v>
    <v>       0.10742198       0.88250241       0.94835253 </v>
    <v>       0.21585771       0.77429247       0.05236606 </v>
    <v>       0.45024151       0.22561447       0.94826520 </v>
    <v>       0.55890208       0.11781709       0.05206959 </v>
    <v>       0.44868322       0.55704853       0.95066740 </v>
    <v>       0.56008784       0.44670223       0.04829872 </v>
    <v>       0.44462067       0.88935014       0.94612829 </v>
    <v>       0.55841139       0.77426472       0.05236534 </v>
    <v>       0.77531917       0.22563774       0.94827954 </v>
    <v>       0.88825549       0.11044082       0.05402774 </v>
    <v>       0.77763898       0.55536331       0.95234518 </v>
    <v>       0.88651319       0.44666017       0.04830251 </v>
    <v>       0.77497728       0.88249135       0.94836048 </v>
    <v>       0.88601284       0.77221477       0.04980266 </v>
   </varray>
  </structure>
  <varray name="forces" >
   <v>       0.09091039      -0.15764329       0.01755885 </v>
   <v>      -0.24269951       0.27127356      -0.01988461 </v>
   <v>      -0.11639861       0.34596711      -0.01854558 </v>
   <v>       0.16524648       0.02263267      -0.01119292 </v>
   <v>      -0.10670389      -0.12992530      -0.01278843 </v>
   <v>      -0.07995322       0.13808399       0.13328396 </v>
   <v>       0.37875546      -0.37962242      -0.11854148 </v>
   <v>       0.13837922      -0.51136881      -0.11947215 </v>
   <v>      -0.31215372       0.53348754       0.11113743 </v>
   <v>       0.02198134      -0.03136272      -0.40673403 </v>
   <v>       0.15922006      -0.15503018       0.25507461 </v>
   <v>       0.19977996      -0.03474190       0.34511642 </v>
   <v>      -0.06012064       0.10028803      -0.34098719 </v>
   <v>      -0.14322397       0.09494530      -0.04745116 </v>
   <v>      -0.00875402       0.09614575       0.15280766 </v>
   <v>      -0.02931551      -0.09362461      -0.05417072 </v>
   <v>       0.04548151      -0.08036836       0.12935639 </v>
   <v>      -0.06256384      -0.19145651       0.34095683 </v>
   <v>      -0.11766135      -0.21561400      -0.17709237 </v>
   <v>      -0.12159823       0.21212769      -0.36600950 </v>
   <v>      -0.08055594       0.05565950       0.15490793 </v>
   <v>       0.09650327      -0.02310325      -0.05022577 </v>
   <v>       0.05110404      -0.21468018       0.25293080 </v>
   <v>      -0.01615732       0.02475594       0.03082552 </v>
   <v>       0.24324495      -0.00398176      -0.17554173 </v>
   <v>      -0.00749584       0.17338983      -0.05030673 </v>
   <v>      -0.08525108       0.15376636       0.04498797 </v>
  </varray>
  <varray name="stress" >
   <v>      -0.01832469      -0.38618165       0.24375950 </v>
   <v>      -0.38618143       0.45539612      -0.45791740 </v>
   <v>       0.24375943      -0.45791746      -0.39307767 </v>
  </varray>
  <energy>
   <i name="e_fr_energy">   -191.57973679 </i>
   <i name="e_wo_entrp">   -191.49355580 </i>
   <i name="e_0_energy">     -0.17236199 </i>
  </energy>
  <time name="totalsc">  348.56  349.47</time>
 </calculation>
 <calculation>
  <scstep>
   <time name="dav">   21.71   21.76</time>
   <time name="total">   22.21   22.27</time>
   <energy>
    <i name="alphaZ">     90.00313975 </i>
    <i name="ewald">  44568.07300594 </i>
    <i name="hartreedc"> -50576.58597724 </i>
    <i name="XCdc">   -233.52721870 </i>
    <i name="pawpsdc">   4088.69541613 </i>
    <i name="pawaedc">  -3504.67367149 </i>
    <i name="eentropy">     -0.16703576 </i>
    <i name="bandstr">  -1384.94986318 </i>
    <i name="atom">   6761.44252427 </i>
    <i name="e_fr_energy">   -191.68968027 </i>
    <i name="e_wo_entrp">   -191.52264451 </i>
    <i name="e_0_energy">   -191.60616239 </i>
   </energy>
  </scstep>
  <scstep>
   <time name="dav">   31.94   32.02</time>
   <time name="total">   32.45   32.54</time>
   <energy>
    <i name="e_fr_energy">   -191.76025514 </i>
    <i name="e_wo_entrp">   -191.57425857 </i>
    <i name="e_0_energy">   -191.66725686 </i>
   </energy>
  </scstep>
  <scstep>
   <time name="dav">   30.67   30.74</time>
   <time name="total">   31.17   31.25</time>
   <energy>
    <i name="e_fr_energy">   -191.70859578 </i>
    <i name="e_wo_entrp">   -191.53981865 </i>
    <i name="e_0_energy">   -191.62420722 </i>
   </energy>
  </scstep>
  <scstep>
   <time name="dav">   28.61   28.68</time>
   <time name="total">   29.11   29.19</time>
   <energy>
    <i name="e_fr_energy">   -191.70924555 </i>
    <i name="e_wo_entrp">   -191.53969827 </i>
    <i name="e_0_energy">   -191.62447191 </i>
   </energy>
  </scstep>
  <scstep>
   <time name="dav">   29.05   29.12</time>
   <time name="total">   29.55   29.63</time>
   <energy>
    <i name="e_fr_energy">   -191.70594908 </i>
    <i name="e_wo_entrp">   -191.53451276 </i>
    <i name="e_0_energy">   -191.62023092 </i>
   </energy>
  </scstep>
  <scstep>
   <time name="dav">   28.69   28.76</time>
   <time name="total">   29.20   29.27</time>
   <energy>
    <i name="e_fr_energy">   -191.70541838 </i>
    <i name="e_wo_entrp">   -191.53453120 </i>
    <i name="e_0_energy">   -191.61997479 </i>
   </energy>
  </scstep>
  <scstep>
   <time name="dav">   27.77   27.84</time>
   <time name="total">   28.27   28.35</time>
   <energy>
    <i name="e_fr_energy">   -191.70513777 </i>
    <i name="e_wo_entrp">   -191.53464889 </i>
    <i name="e_0_energy">   -191.61989333 </i>
   </energy>
  </scstep>
  <scstep>
   <time name="dav">   18.00   18.05</time>
   <time name="total">   18.04   18.09</time>
   <energy>
    <i name="alphaZ">     90.00313975 </i>
    <i name="ewald">  44568.07300594 </i>
    <i name="hartreedc"> -50578.74765513 </i>
    <i name="XCdc">   -233.45318059 </i>
    <i name="pawpsdc">   4085.60961919 </i>
    <i name="pawaedc">  -3501.53600937 </i>
    <i name="eentropy">     -0.17058999 </i>
    <i name="bandstr">  -1382.92601527 </i>
    <i name="atom">   6761.44252427 </i>
    <i name="e_fr_energy">   -191.70516120 </i>
    <i name="e_wo_entrp">   -191.53457121 </i>
    <i name="e_0_energy">   -191.61986621 </i>
   </energy>
  </scstep>
  <structure>
   <crystal>
    <varray name="basis" >
     <v>       8.26604756       4.77265816       0.00000000 </v>
     <v>      -8.28628865       4.80768318       0.00000000 </v>
     <v>       0.00000000       0.00000000      30.00000000 </v>
    </varray>
    <i name="volume">   2378.64482881 </i>
    <varray name="rec_basis" >
     <v>       0.06063557       0.10450852       0.00000000 </v>
     <v>      -0.06019383       0.10425324       0.00000000 </v>
     <v>       0.00000000       0.00000000       0.03333333 </v>
    </varray>
   </crystal>
   <varray name="positions" >
    <v>       0.66252999       0.32521088       0.00057323 </v>
    <v>       0.00495473       0.67751548      -0.00040832 </v>
    <v>       0.67246801       0.67751037      -0.00042215 </v>
    <v>       0.33449260      -0.00267182       0.00006633 </v>
    <v>       0.66268705      -0.00278965       0.00006123 </v>
    <v>       0.00738678       0.01474872       0.00006768 </v>
    <v>       0.99475896       0.31163745       0.00001208 </v>
    <v>       0.31680526       0.31153965      -0.00000287 </v>
    <v>       0.34520985       0.69042143      -0.00003180 </v>
    <v>       0.11117353       0.22248626       0.94429968 </v>
    <v>       0.22187293       0.10925017       0.05440956 </v>
    <v>       0.10863894       0.55630855       0.95121324 </v>
    <v>       0.22303409       0.44603044       0.05024238 </v>
    <v>       0.10748895       0.88339021       0.94830350 </v>
    <v>       0.21632500       0.77479460       0.05257689 </v>
    <v>       0.44968134       0.22523408       0.94820566 </v>
    <v>       0.55862750       0.11727604       0.05224509 </v>
    <v>       0.44754853       0.55628058       0.95121667 </v>
    <v>       0.55867377       0.44596574       0.04800704 </v>
    <v>       0.44531459       0.89073036       0.94558385 </v>
    <v>       0.55844200       0.77477077       0.05257914 </v>
    <v>       0.77549180       0.22524796       0.94822646 </v>
    <v>       0.88734831       0.10924911       0.05439301 </v>
    <v>       0.77771509       0.55553422       0.95240933 </v>
    <v>       0.88719527       0.44594110       0.04801354 </v>
    <v>       0.77581633       0.88337968       0.94830696 </v>
    <v>       0.88653328       0.77322206       0.04985245 </v>
   </varray>
  </structure>
  <varray name="forces" >
   <v>       0.08684823      -0.15428682       0.07037422 </v>
   <v>      -0.27824094       0.26929722      -0.04254512 </v>
   <v>      -0.10538411       0.37893621      -0.04149670 </v>
   <v>       0.16285718       0.05875415      -0.01106463 </v>
   <v>      -0.12686419      -0.11520535      -0.01135373 </v>
   <v>      -0.07382743       0.12363073       0.06080609 </v>
   <v>       0.36038895      -0.42078767      -0.02397060 </v>
   <v>       0.18386915      -0.51969240      -0.02262392 </v>
   <v>      -0.30204714       0.53218897       0.00311016 </v>
   <v>       0.06083341      -0.09992914      -0.28993335 </v>
   <v>       0.10341437      -0.07994268       0.14830116 </v>
   <v>       0.15651019      -0.02229133       0.36508202 </v>
   <v>      -0.04896758       0.08149510      -0.37101306 </v>
   <v>      -0.07676094       0.06370331      -0.02826904 </v>
   <v>      -0.03627245       0.07711022       0.14400950 </v>
   <v>       0.00318567      -0.06277229      -0.08058004 </v>
   <v>       0.02388613      -0.04393339       0.09623802 </v>
   <v>      -0.05454996      -0.14451187       0.36448950 </v>
   <v>      -0.09351569      -0.15219096      -0.23394017 </v>
   <v>      -0.07062040       0.12322775      -0.23779114 </v>
   <v>      -0.04932716       0.06966668       0.14356445 </v>
   <v>       0.05341784      -0.03329902      -0.07923807 </v>
   <v>       0.01630009      -0.13087828       0.14992846 </v>
   <v>      -0.01488939       0.02364316       0.09416753 </v>
   <v>       0.17801303       0.00382638      -0.23217751 </v>
   <v>      -0.01346051       0.09721811      -0.02683373 </v>
   <v>      -0.04479636       0.07702320       0.09275970 </v>
  </varray>
  <varray name="stress" >
   <v>      -0.05285870      -0.02489792       0.01486591 </v>
   <v>      -0.02489783      -0.01969766      -0.06333965 </v>
   <v>       0.01486575      -0.06333952      -1.30531123 </v>
  </varray>
  <energy>
   <i name="e_fr_energy">   -191.70516120 </i>
   <i name="e_wo_entrp">   -191.61986621 </i>
   <i name="e_0_energy">     -0.17058999 </i>
  </energy>
  <time name="totalsc">  262.75  263.44</time>
 </calculation>
 <calculation>
  <scstep>
   <time name="dav">   21.71   21.77</time>
   <time name="total">   22.22   22.28</time>
   <energy>
    <i name="alphaZ">     90.03584471 </i>
    <i name="ewald">  44586.87886123 </i>
    <i name="hartreedc"> -50597.46530178 </i>
    <i name="XCdc">   -233.42907150 </i>
    <i name="pawpsdc">   4085.54192079 </i>
    <i name="pawaedc">  -3501.46765053 </i>
    <i name="eentropy">     -0.16055190 </i>
    <i name="bandstr">  -1383.21112404 </i>
    <i name="atom">   6761.44252427 </i>
    <i name="e_fr_energy">   -191.83454874 </i>
    <i name="e_wo_entrp">   -191.67399684 </i>
    <i name="e_0_energy">   -191.75427279 </i>
   </energy>
  </scstep>
  <scstep>
   <time name="dav">   30.41   30.48</time>
   <time name="total">   30.91   30.99</time>
   <energy>
    <i name="e_fr_energy">   -191.90336150 </i>
    <i name="e_wo_entrp">   -191.72506969 </i>
    <i name="e_0_energy">   -191.81421560 </i>
   </energy>
  </scstep>
  <scstep>
   <time name="dav">   30.71   30.78</time>
   <time name="total">   31.21   31.30</time>
   <energy>
    <i name="e_fr_energy">   -191.86519804 </i>
    <i name="e_wo_entrp">   -191.70493299 </i>
    <i name="e_0_energy">   -191.78506551 </i>
   </energy>
  </scstep>
  <scstep>
   <time name="dav">   30.26   30.33</time>
   <time name="total">   30.77   30.85</time>
   <energy>
    <i name="e_fr_energy">   -191.86411352 </i>
    <i name="e_wo_entrp">   -191.70238886 </i>
    <i name="e_0_energy">   -191.78325119 </i>
   </energy>
  </scstep>
  <scstep>
   <time name="dav">   30.51   30.59</time>
   <time name="total">   31.01   31.10</time>
   <energy>
    <i name="e_fr_energy">   -191.85862778 </i>
    <i name="e_wo_entrp">   -191.69456407 </i>
    <i name="e_0_energy">   -191.77659592 </i>
   </energy>
  </scstep>
  <scstep>
   <time name="dav">   30.58   30.66</time>
   <time name="total">   31.09   31.17</time>
   <energy>
    <i name="e_fr_energy">   -191.85799619 </i>
    <i name="e_wo_entrp">   -191.69420354 </i>
    <i name="e_0_energy">   -191.77609986 </i>
   </energy>
  </scstep>
  <scstep>
   <time name="dav">   27.88   27.95</time>
   <time name="total">   28.38   28.46</time>
   <energy>
    <i name="e_fr_energy">   -191.85749728 </i>
    <i name="e_wo_entrp">   -191.69409936 </i>
    <i name="e_0_energy">   -191.77579832 </i>
   </energy>
  </scstep>
  <scstep>
   <time name="dav">   24.05   24.11</time>
   <time name="total">   24.55   24.62</time>
   <energy>
    <i name="e_fr_energy">   -191.85734381 </i>
    <i name="e_wo_entrp">   -191.69400605 </i>
    <i name="e_0_energy">   -191.77567493 </i>
   </energy>
  </scstep>
  <scstep>
   <time name="dav">   18.09   18.13</time>
   <time name="total">   18.12   18.17</time>
   <energy>
    <i name="alphaZ">     90.03584471 </i>
    <i name="ewald">  44586.87886123 </i>
    <i name="hartreedc"> -50598.03737165 </i>
    <i name="XCdc">   -233.40081206 </i>
    <i name="pawpsdc">   4090.25246952 </i>
    <i name="pawaedc">  -3506.23134611 </i>
    <i name="eentropy">     -0.16330590 </i>
    <i name="bandstr">  -1382.63414309 </i>
    <i name="atom">   6761.44252427 </i>
    <i name="e_fr_energy">   -191.85727906 </i>
    <i name="e_wo_entrp">   -191.69397317 </i>
    <i name="e_0_energy">   -191.77562612 </i>
   </energy>
  </scstep>
  <structure>
   <crystal>
    <varray name="basis" >
     <v>       8.26351906       4.77127912       0.00000000 </v>
     <v>      -8.28471581       4.80795992       0.00000000 </v>
     <v>       0.00000000       0.00000000      30.00000000 </v>
    </varray>
    <i name="volume">   2377.78080069 </i>
    <varray name="rec_basis" >
     <v>       0.06066110       0.10452666       0.00000000 </v>
     <v>      -0.06019830       0.10425922       0.00000000 </v>
[...]
      <set comment="kpoint 31">
       <r>  -17.5249    1.0000 </r>
       <r>  -17.3114    1.0000 </r>
       <r>  -16.9161    1.0000 </r>
       <r>  -16.6569    1.0000 </r>
       <r>  -16.5213    1.0000 </r>
       <r>  -16.4019    1.0000 </r>
       <r>  -16.2878    1.0000 </r>
       <r>  -16.2171    1.0000 </r>
       <r>  -16.1372    1.0000 </r>
       <r>  -16.0661    1.0000 </r>
       <r>  -15.9277    1.0000 </r>
       <r>  -15.8317    1.0000 </r>
       <r>  -15.7991    1.0000 </r>
       <r>  -15.7182    1.0000 </r>
       <r>  -15.6461    1.0000 </r>
       <r>  -15.5139    1.0000 </r>
       <r>  -15.2884    1.0000 </r>
       <r>  -15.1621    1.0000 </r>
       <r>   -9.8448    1.0000 </r>
       <r>   -9.4655    1.0000 </r>
       <r>   -9.3095    1.0000 </r>
       <r>   -9.0110    1.0000 </r>
       <r>   -8.8892    1.0000 </r>
       <r>   -8.7257    1.0000 </r>
       <r>   -8.5303    1.0000 </r>
       <r>   -8.4841    1.0000 </r>
       <r>   -8.4066    1.0000 </r>
       <r>   -8.3314    1.0000 </r>
       <r>   -8.2461    1.0000 </r>
       <r>   -8.2245    1.0000 </r>
       <r>   -8.1735    1.0000 </r>
       <r>   -8.0998    1.0000 </r>
       <r>   -8.0213    1.0000 </r>
       <r>   -7.8780    1.0000 </r>
       <r>   -7.7735    1.0000 </r>
       <r>   -7.7014    1.0000 </r>
       <r>   -7.5979    1.0000 </r>
       <r>   -7.4322    1.0000 </r>
       <r>   -7.3518    1.0000 </r>
       <r>   -7.2265    1.0000 </r>
       <r>   -7.1600    1.0000 </r>
       <r>   -7.1330    1.0000 </r>
       <r>   -7.0833    1.0000 </r>
       <r>   -6.8965    1.0000 </r>
       <r>   -6.8293    1.0000 </r>
       <r>   -6.7722    1.0000 </r>
       <r>   -6.6537    1.0000 </r>
       <r>   -6.6069    1.0000 </r>
       <r>   -6.4978    1.0000 </r>
       <r>   -6.4386    1.0000 </r>
       <r>   -6.3322    1.0000 </r>
       <r>   -6.3257    1.0000 </r>
       <r>   -6.2668    1.0000 </r>
       <r>   -6.1704    1.0000 </r>
       <r>   -6.1247    1.0000 </r>
       <r>   -6.0870    1.0000 </r>
       <r>   -6.0505    1.0000 </r>
       <r>   -5.9561    1.0000 </r>
       <r>   -5.8603    1.0000 </r>
       <r>   -5.7818    1.0000 </r>
       <r>   -5.6449    1.0000 </r>
       <r>   -5.5967    1.0000 </r>
       <r>   -5.4972    1.0000 </r>
       <r>   -5.4121    1.0000 </r>
       <r>   -5.3065    1.0000 </r>
       <r>   -5.1855    1.0000 </r>
       <r>   -5.0495    1.0000 </r>
       <r>   -4.8156    1.0000 </r>
       <r>   -4.7772    1.0000 </r>
       <r>   -4.5553    1.0000 </r>
       <r>   -4.4772    1.0000 </r>
       <r>   -4.4236    1.0000 </r>
       <r>   -4.3196    1.0000 </r>
       <r>   -4.2505    1.0000 </r>
       <r>   -4.2056    1.0000 </r>
       <r>   -4.0683    1.0000 </r>
       <r>   -4.0333    1.0000 </r>
       <r>   -3.6788    0.9989 </r>
       <r>   -3.5462    0.9828 </r>
       <r>   -3.0585    0.0912 </r>
       <r>   -2.9295    0.0124 </r>
       <r>   -2.7539    0.0002 </r>
       <r>   -2.6583    0.0000 </r>
       <r>   -2.5095    0.0000 </r>
       <r>   -2.3840    0.0000 </r>
       <r>   -2.3430    0.0000 </r>
       <r>   -2.0468    0.0000 </r>
       <r>   -1.9695    0.0000 </r>
       <r>   -1.9283    0.0000 </r>
       <r>   -1.8626    0.0000 </r>
       <r>   -1.7230    0.0000 </r>
       <r>   -1.6295    0.0000 </r>
       <r>   -1.5355    0.0000 </r>
       <r>   -1.4566    0.0000 </r>
       <r>   -1.3499    0.0000 </r>
       <r>   -1.1567    0.0000 </r>
       <r>   -1.0697    0.0000 </r>
       <r>   -1.0001    0.0000 </r>
       <r>   -0.9517    0.0000 </r>
       <r>   -0.9212    0.0000 </r>
       <r>   -0.8059    0.0000 </r>
       <r>   -0.7458    0.0000 </r>
       <r>   -0.6602    0.0000 </r>
       <r>   -0.5998    0.0000 </r>
       <r>   -0.3449    0.0000 </r>
       <r>   -0.2631    0.0000 </r>
       <r>   -0.2289    0.0000 </r>
       <r>    0.0038    0.0000 </r>
       <r>    0.0678    0.0000 </r>
       <r>    0.2698    0.0000 </r>
       <r>    0.4635    0.0000 </r>
       <r>    0.6800    0.0000 </r>
       <r>    0.7804    0.0000 </r>
       <r>    0.9018    0.0000 </r>
       <r>    1.0204    0.0000 </r>
       <r>    1.1675    0.0000 </r>
       <r>    1.2502    0.0000 </r>
       <r>    2.1416    0.0000 </r>
       <r>    2.3287    0.0000 </r>
       <r>    2.3851    0.0000 </r>
      </set>
      <set comment="kpoint 32">
       <r>  -17.5445    1.0000 </r>
       <r>  -17.2167    1.0000 </r>
       <r>  -17.0454    1.0000 </r>
       <r>  -16.6382    1.0000 </r>
       <r>  -16.5009    1.0000 </r>
       <r>  -16.3566    1.0000 </r>
       <r>  -16.2835    1.0000 </r>
       <r>  -16.1996    1.0000 </r>
       <r>  -16.1666    1.0000 </r>
       <r>  -16.0642    1.0000 </r>
       <r>  -15.9926    1.0000 </r>
       <r>  -15.8488    1.0000 </r>
       <r>  -15.7745    1.0000 </r>
       <r>  -15.7073    1.0000 </r>
       <r>  -15.6395    1.0000 </r>
       <r>  -15.4651    1.0000 </r>
       <r>  -15.3122    1.0000 </r>
       <r>  -15.1700    1.0000 </r>
       <r>   -9.7693    1.0000 </r>
       <r>   -9.5650    1.0000 </r>
       <r>   -9.4029    1.0000 </r>
       <r>   -8.9631    1.0000 </r>
       <r>   -8.7624    1.0000 </r>
       <r>   -8.6501    1.0000 </r>
       <r>   -8.5126    1.0000 </r>
       <r>   -8.4865    1.0000 </r>
       <r>   -8.4586    1.0000 </r>
       <r>   -8.3653    1.0000 </r>
       <r>   -8.2651    1.0000 </r>
       <r>   -8.2084    1.0000 </r>
       <r>   -8.1818    1.0000 </r>
       <r>   -8.0944    1.0000 </r>
       <r>   -8.0186    1.0000 </r>
       <r>   -7.9428    1.0000 </r>
       <r>   -7.8096    1.0000 </r>
       <r>   -7.7199    1.0000 </r>
       <r>   -7.5743    1.0000 </r>
       <r>   -7.4892    1.0000 </r>
       <r>   -7.3776    1.0000 </r>
       <r>   -7.2270    1.0000 </r>
       <r>   -7.1819    1.0000 </r>
       <r>   -7.1332    1.0000 </r>
       <r>   -7.0672    1.0000 </r>
       <r>   -6.9152    1.0000 </r>
       <r>   -6.8423    1.0000 </r>
       <r>   -6.8059    1.0000 </r>
       <r>   -6.6492    1.0000 </r>
       <r>   -6.5411    1.0000 </r>
       <r>   -6.4719    1.0000 </r>
       <r>   -6.4081    1.0000 </r>
       <r>   -6.3721    1.0000 </r>
       <r>   -6.3078    1.0000 </r>
       <r>   -6.2672    1.0000 </r>
       <r>   -6.1688    1.0000 </r>
       <r>   -6.1209    1.0000 </r>
       <r>   -6.0851    1.0000 </r>
       <r>   -5.9745    1.0000 </r>
       <r>   -5.8664    1.0000 </r>
       <r>   -5.7977    1.0000 </r>
       <r>   -5.7345    1.0000 </r>
       <r>   -5.6219    1.0000 </r>
       <r>   -5.5666    1.0000 </r>
       <r>   -5.5088    1.0000 </r>
       <r>   -5.4029    1.0000 </r>
       <r>   -5.3739    1.0000 </r>
       <r>   -5.1858    1.0000 </r>
       <r>   -5.1535    1.0000 </r>
       <r>   -4.8686    1.0000 </r>
       <r>   -4.7585    1.0000 </r>
       <r>   -4.6416    1.0000 </r>
       <r>   -4.4984    1.0000 </r>
       <r>   -4.4122    1.0000 </r>
       <r>   -4.3361    1.0000 </r>
       <r>   -4.2066    1.0000 </r>
       <r>   -4.1650    1.0000 </r>
       <r>   -4.0722    1.0000 </r>
       <r>   -3.9435    1.0000 </r>
       <r>   -3.6582    0.9982 </r>
       <r>   -3.5280    0.9765 </r>
       <r>   -3.1045    0.1566 </r>
       <r>   -2.9488    0.0175 </r>
       <r>   -2.8055    0.0009 </r>
       <r>   -2.7301    0.0001 </r>
       <r>   -2.5135    0.0000 </r>
       <r>   -2.4467    0.0000 </r>
       <r>   -2.3538    0.0000 </r>
       <r>   -2.0980    0.0000 </r>
       <r>   -1.9801    0.0000 </r>
       <r>   -1.9376    0.0000 </r>
       <r>   -1.8397    0.0000 </r>
       <r>   -1.7636    0.0000 </r>
       <r>   -1.6304    0.0000 </r>
       <r>   -1.4714    0.0000 </r>
       <r>   -1.4042    0.0000 </r>
       <r>   -1.2824    0.0000 </r>
       <r>   -1.1276    0.0000 </r>
       <r>   -1.0479    0.0000 </r>
       <r>   -0.9956    0.0000 </r>
       <r>   -0.9551    0.0000 </r>
       <r>   -0.9043    0.0000 </r>
       <r>   -0.7996    0.0000 </r>
       <r>   -0.7319    0.0000 </r>
       <r>   -0.6588    0.0000 </r>
       <r>   -0.5615    0.0000 </r>
       <r>   -0.4128    0.0000 </r>
       <r>   -0.3182    0.0000 </r>
       <r>   -0.1604    0.0000 </r>
       <r>   -0.1129    0.0000 </r>
       <r>    0.0700    0.0000 </r>
       <r>    0.1771    0.0000 </r>
       <r>    0.4773    0.0000 </r>
       <r>    0.5950    0.0000 </r>
       <r>    0.7410    0.0000 </r>
       <r>    0.9322    0.0000 </r>
       <r>    1.0944    0.0000 </r>
       <r>    1.2024    0.0000 </r>
       <r>    1.3730    0.0000 </r>
       <r>    2.1196    0.0000 </r>
       <r>    2.2920    0.0000 </r>
       <r>    2.5928    0.0000 </r>
      </set>
      <set comment="kpoint 33">
       <r>  -17.5291    1.0000 </r>
       <r>  -17.2891    1.0000 </r>
       <r>  -16.9313    1.0000 </r>
       <r>  -16.6160    1.0000 </r>
       <r>  -16.5483    1.0000 </r>
       <r>  -16.4799    1.0000 </r>
       <r>  -16.3005    1.0000 </r>
       <r>  -16.1802    1.0000 </r>
       <r>  -16.1126    1.0000 </r>
       <r>  -16.0955    1.0000 </r>
       <r>  -15.9235    1.0000 </r>
       <r>  -15.8541    1.0000 </r>
       <r>  -15.7580    1.0000 </r>
       <r>  -15.6991    1.0000 </r>
       <r>  -15.6442    1.0000 </r>
       <r>  -15.4356    1.0000 </r>
       <r>  -15.3320    1.0000 </r>
       <r>  -15.1965    1.0000 </r>
       <r>   -9.7852    1.0000 </r>
       <r>   -9.4856    1.0000 </r>
       <r>   -9.3602    1.0000 </r>
       <r>   -8.9381    1.0000 </r>
       <r>   -8.8452    1.0000 </r>
       <r>   -8.7482    1.0000 </r>
       <r>   -8.6483    1.0000 </r>
       <r>   -8.6111    1.0000 </r>
       <r>   -8.4371    1.0000 </r>
       <r>   -8.3114    1.0000 </r>
       <r>   -8.2575    1.0000 </r>
       <r>   -8.1515    1.0000 </r>
       <r>   -8.0911    1.0000 </r>
       <r>   -8.0767    1.0000 </r>
       <r>   -7.9560    1.0000 </r>
       <r>   -7.9120    1.0000 </r>
       <r>   -7.7714    1.0000 </r>
       <r>   -7.6785    1.0000 </r>
       <r>   -7.6292    1.0000 </r>
       <r>   -7.5779    1.0000 </r>
       <r>   -7.3869    1.0000 </r>
       <r>   -7.3151    1.0000 </r>
       <r>   -7.1628    1.0000 </r>
       <r>   -7.0245    1.0000 </r>
       <r>   -6.9631    1.0000 </r>
       <r>   -6.9122    1.0000 </r>
       <r>   -6.8769    1.0000 </r>
       <r>   -6.8066    1.0000 </r>
       <r>   -6.7012    1.0000 </r>
       <r>   -6.5617    1.0000 </r>
       <r>   -6.5190    1.0000 </r>
       <r>   -6.4261    1.0000 </r>
       <r>   -6.3651    1.0000 </r>
       <r>   -6.2783    1.0000 </r>
       <r>   -6.2236    1.0000 </r>
       <r>   -6.1763    1.0000 </r>
       <r>   -6.1034    1.0000 </r>
       <r>   -6.0198    1.0000 </r>
       <r>   -5.9819    1.0000 </r>
       <r>   -5.9266    1.0000 </r>
       <r>   -5.8979    1.0000 </r>
       <r>   -5.7042    1.0000 </r>
       <r>   -5.6465    1.0000 </r>
       <r>   -5.5562    1.0000 </r>
       <r>   -5.5225    1.0000 </r>
       <r>   -5.3914    1.0000 </r>
       <r>   -5.2837    1.0000 </r>
       <r>   -5.2365    1.0000 </r>
       <r>   -4.9480    1.0000 </r>
       <r>   -4.8697    1.0000 </r>
       <r>   -4.8237    1.0000 </r>
       <r>   -4.7413    1.0000 </r>
       <r>   -4.5337    1.0000 </r>
       <r>   -4.4232    1.0000 </r>
       <r>   -4.3418    1.0000 </r>
       <r>   -4.1652    1.0000 </r>
       <r>   -4.0923    1.0000 </r>
       <r>   -4.0335    1.0000 </r>
       <r>   -3.8456    1.0000 </r>
       <r>   -3.6980    0.9993 </r>
       <r>   -3.5142    0.9706 </r>
       <r>   -3.2000    0.3697 </r>
       <r>   -3.0553    0.0875 </r>
       <r>   -2.8450    0.0022 </r>
       <r>   -2.7065    0.0001 </r>
       <r>   -2.5676    0.0000 </r>
       <r>   -2.4608    0.0000 </r>
       <r>   -2.3444    0.0000 </r>
       <r>   -2.1581    0.0000 </r>
       <r>   -2.0623    0.0000 </r>
       <r>   -1.9390    0.0000 </r>
       <r>   -1.8434    0.0000 </r>
       <r>   -1.6726    0.0000 </r>
       <r>   -1.6033    0.0000 </r>
       <r>   -1.4159    0.0000 </r>
       <r>   -1.3726    0.0000 </r>
       <r>   -1.2217    0.0000 </r>
       <r>   -1.1058    0.0000 </r>
       <r>   -1.0477    0.0000 </r>
       <r>   -0.9917    0.0000 </r>
       <r>   -0.9385    0.0000 </r>
       <r>   -0.8757    0.0000 </r>
       <r>   -0.8297    0.0000 </r>
       <r>   -0.7220    0.0000 </r>
       <r>   -0.6708    0.0000 </r>
       <r>   -0.5458    0.0000 </r>
       <r>   -0.4517    0.0000 </r>
       <r>   -0.3596    0.0000 </r>
       <r>   -0.2783    0.0000 </r>
       <r>   -0.1080    0.0000 </r>
       <r>    0.0396    0.0000 </r>
       <r>    0.1576    0.0000 </r>
       <r>    0.3666    0.0000 </r>
       <r>    0.5890    0.0000 </r>
       <r>    0.7538    0.0000 </r>
       <r>    1.0031    0.0000 </r>
       <r>    1.1395    0.0000 </r>
       <r>    1.2817    0.0000 </r>
       <r>    1.5108    0.0000 </r>
       <r>    2.1587    0.0000 </r>
       <r>    2.3186    0.0000 </r>
       <r>    2.4258    0.0000 </r>
      </set>
      <set comment="kpoint 34">
       <r>  -17.5066    1.0000 </r>
       <r>  -17.3494    1.0000 </r>
       <r>  -16.7443    1.0000 </r>
       <r>  -16.7162    1.0000 </r>
       <r>  -16.5835    1.0000 </r>
       <r>  -16.5512    1.0000 </r>
       <r>  -16.2772    1.0000 </r>
       <r>  -16.1982    1.0000 </r>
       <r>  -16.1164    1.0000 </r>
       <r>  -16.0809    1.0000 </r>
       <r>  -15.8781    1.0000 </r>
       <r>  -15.8342    1.0000 </r>
       <r>  -15.7679    1.0000 </r>
       <r>  -15.6974    1.0000 </r>
       <r>  -15.6408    1.0000 </r>
       <r>  -15.4306    1.0000 </r>
       <r>  -15.3387    1.0000 </r>
       <r>  -15.2138    1.0000 </r>
       <r>   -9.8151    1.0000 </r>
       <r>   -9.3530    1.0000 </r>
       <r>   -9.3033    1.0000 </r>
       <r>   -9.0087    1.0000 </r>
       <r>   -8.9401    1.0000 </r>
       <r>   -8.8330    1.0000 </r>
       <r>   -8.6784    1.0000 </r>
       <r>   -8.6618    1.0000 </r>
       <r>   -8.4417    1.0000 </r>
       <r>   -8.2929    1.0000 </r>
       <r>   -8.2298    1.0000 </r>
       <r>   -8.1333    1.0000 </r>
       <r>   -8.0817    1.0000 </r>
       <r>   -8.0135    1.0000 </r>
       <r>   -7.9230    1.0000 </r>
       <r>   -7.8457    1.0000 </r>
       <r>   -7.7459    1.0000 </r>
       <r>   -7.6825    1.0000 </r>
       <r>   -7.6417    1.0000 </r>
       <r>   -7.5951    1.0000 </r>
       <r>   -7.4667    1.0000 </r>
       <r>   -7.3351    1.0000 </r>
       <r>   -7.0928    1.0000 </r>
       <r>   -7.0714    1.0000 </r>
       <r>   -7.0005    1.0000 </r>
       <r>   -6.8539    1.0000 </r>
       <r>   -6.8268    1.0000 </r>
       <r>   -6.7121    1.0000 </r>
       <r>   -6.6503    1.0000 </r>
       <r>   -6.5887    1.0000 </r>
       <r>   -6.5213    1.0000 </r>
       <r>   -6.4594    1.0000 </r>
       <r>   -6.4122    1.0000 </r>
       <r>   -6.3444    1.0000 </r>
       <r>   -6.2675    1.0000 </r>
       <r>   -6.1820    1.0000 </r>
       <r>   -6.1110    1.0000 </r>
       <r>   -6.0966    1.0000 </r>
       <r>   -6.0091    1.0000 </r>
       <r>   -5.8450    1.0000 </r>
       <r>   -5.8140    1.0000 </r>
       <r>   -5.7907    1.0000 </r>
       <r>   -5.6308    1.0000 </r>
       <r>   -5.5965    1.0000 </r>
       <r>   -5.5334    1.0000 </r>
       <r>   -5.4091    1.0000 </r>
       <r>   -5.2222    1.0000 </r>
       <r>   -5.0663    1.0000 </r>
       <r>   -4.9989    1.0000 </r>
       <r>   -4.9549    1.0000 </r>
       <r>   -4.8322    1.0000 </r>
       <r>   -4.6294    1.0000 </r>
       <r>   -4.5774    1.0000 </r>
       <r>   -4.4447    1.0000 </r>
       <r>   -4.3355    1.0000 </r>
       <r>   -4.1764    1.0000 </r>
       <r>   -4.0368    1.0000 </r>
       <r>   -4.0124    1.0000 </r>
       <r>   -3.8598    1.0000 </r>
       <r>   -3.6830    0.9990 </r>
       <r>   -3.4664    0.9395 </r>
       <r>   -3.3420    0.7489 </r>
       <r>   -2.9889    0.0339 </r>
       <r>   -2.9508    0.0181 </r>
       <r>   -2.6584    0.0000 </r>
       <r>   -2.6095    0.0000 </r>
       <r>   -2.4572    0.0000 </r>
       <r>   -2.3399    0.0000 </r>
       <r>   -2.1848    0.0000 </r>
       <r>   -2.1016    0.0000 </r>
       <r>   -1.9272    0.0000 </r>
       <r>   -1.8439    0.0000 </r>
       <r>   -1.6536    0.0000 </r>
       <r>   -1.5626    0.0000 </r>
       <r>   -1.3851    0.0000 </r>
       <r>   -1.3654    0.0000 </r>
       <r>   -1.1988    0.0000 </r>
       <r>   -1.0847    0.0000 </r>
       <r>   -1.0727    0.0000 </r>
       <r>   -0.9955    0.0000 </r>
       <r>   -0.9292    0.0000 </r>
       <r>   -0.8930    0.0000 </r>
       <r>   -0.8201    0.0000 </r>
       <r>   -0.7069    0.0000 </r>
       <r>   -0.6277    0.0000 </r>
       <r>   -0.5977    0.0000 </r>
       <r>   -0.4788    0.0000 </r>
       <r>   -0.4057    0.0000 </r>
       <r>   -0.2966    0.0000 </r>
       <r>   -0.1138    0.0000 </r>
       <r>    0.0221    0.0000 </r>
       <r>    0.2004    0.0000 </r>
       <r>    0.2781    0.0000 </r>
       <r>    0.5877    0.0000 </r>
       <r>    0.7741    0.0000 </r>
       <r>    1.0496    0.0000 </r>
       <r>    1.1439    0.0000 </r>
       <r>    1.3282    0.0000 </r>
       <r>    1.5730    0.0000 </r>
       <r>    2.2530    0.0000 </r>
       <r>    2.2671    0.0000 </r>
       <r>    2.4074    0.0000 </r>
      </set>
     </set>
    </set>
   </array>
  </eigenvalues>
  <separator name="orbital magnetization" >
   <v name="MAGDIPOLOUT">      0.00000000      0.00000000      0.00000000</v>
  </separator>
 </calculation>
 <structure name="finalpos" >
  <crystal>
   <varray name="basis" >
    <v>       8.28561646       4.78447119       0.00000000 </v>
    <v>      -8.30671427       4.82098468       0.00000000 </v>
    <v>       0.00000000       0.00000000      30.00000000 </v>
   </varray>
   <i name="volume">   2390.64195552 </i>
   <varray name="rec_basis" >
    <v>       0.06049820       0.10424038       0.00000000 </v>
    <v>      -0.06004000       0.10397563       0.00000000 </v>
    <v>       0.00000000       0.00000000       0.03333333 </v>
   </varray>
  </crystal>
  <varray name="positions" >
   <v>       0.65051363       0.30116724      -0.00170588 </v>
   <v>       0.01780723       0.70111933       0.00188787 </v>
   <v>       0.68327410       0.70115550       0.00188606 </v>
   <v>       0.33872729      -0.00033168       0.00019232 </v>
   <v>       0.66059672      -0.00033606       0.00019287 </v>
   <v>       0.00469365       0.00890693       0.00033654 </v>
   <v>       0.98249069       0.29408223      -0.00237410 </v>
   <v>       0.31158793       0.29413201      -0.00237118 </v>
   <v>       0.35322349       0.70653670       0.00207171 </v>
   <v>       0.10701317       0.21401719       0.94187894 </v>
   <v>       0.22065545       0.10583797       0.05492492 </v>
   <v>       0.11006911       0.55610534       0.95635899 </v>
   <v>       0.22263567       0.44534155       0.04435875 </v>
   <v>       0.11021777       0.88654791       0.94746966 </v>
   <v>       0.22046330       0.78062946       0.05560360 </v>
   <v>       0.44806651       0.22120879       0.94479238 </v>
   <v>       0.55777851       0.11568119       0.05412513 </v>
   <v>       0.44598888       0.55612139       0.95636344 </v>
   <v>       0.55647964       0.44434832       0.04275133 </v>
   <v>       0.44688557       0.89387771       0.94446663 </v>
   <v>       0.56008436       0.78066330       0.05560429 </v>
   <v>       0.77306035       0.22118884       0.94480160 </v>
   <v>       0.88509712       0.10574608       0.05487730 </v>
   <v>       0.77850497       0.55709045       0.95802563 </v>
   <v>       0.88778274       0.44431734       0.04273646 </v>
   <v>       0.77631837       0.88662953       0.94751036 </v>
   <v>       0.88819823       0.77642990       0.05323428 </v>
  </varray>
 </structure>
</modeling>
