unknown system                          
           1
     8.852070    5.102926    0.000000
    -8.855876    5.109474    0.000000
     0.000000    0.000000   30.000000
   V    Mo   W    S 
   3   3   3  18
Direct configuration=     1
   0.66666669  0.33333334  0.00000000
   0.00000000  0.66666669  0.00000000
   0.66666669  0.66666669  0.00000000
   0.33333334  0.00000000  0.00000000
   0.66666669  0.00000000  0.00000000
   0.00000000  0.00000000  0.00000000
   1.00000000  0.33333334  0.00000000
   0.33333334  0.33333334  0.00000000
   0.33333334  0.66666669  0.00000000
   0.11068511  0.22244981  0.95539999
   0.22244981  0.11068511  0.04460000
   0.11068511  0.55578315  0.95539999
   0.22244981  0.44401845  0.04460000
   0.11068511  0.88911647  0.95539999
   0.22244981  0.77735180  0.04460000
   0.44401845  0.22244981  0.95539999
   0.55578315  0.11068511  0.04460000
   0.44401845  0.55578315  0.95539999
   0.55578315  0.44401845  0.04460000
   0.44401845  0.88911647  0.95539999
   0.55578315  0.77735180  0.04460000
   0.77735180  0.22244981  0.95539999
   0.88911647  0.11068511  0.04460000
   0.77735180  0.55578315  0.95539999
   0.88911647  0.44401845  0.04460000
   0.77735180  0.88911647  0.95539999
   0.88911647  0.77735180  0.04460000
unknown system                          
           1
     8.664135    4.996861    0.000000
    -8.667709    5.003010    0.000000
     0.000000    0.000000   30.000000
   V    Mo   W    S 
   3   3   3  18
Direct configuration=     2
   0.66602737  0.33203169 -0.00001454
   0.00011022  0.66847944 -0.00005444
   0.66829664  0.66840694 -0.00007158
   0.33331433 -0.00004667  0.00019012
   0.66658569 -0.00005597  0.00018793
  -0.00001119 -0.00010289 -0.00021051
   0.99810808  0.33058147 -0.00011136
   0.33247985  0.33047318 -0.00013279
   0.33481317  0.66977568  0.00021201
   0.11150361  0.22302068  0.95061006
   0.22267962  0.11188762  0.04925958
   0.10900231  0.55734151  0.95204736
   0.22220552  0.44465059  0.04920363
   0.10872591  0.88436405  0.95196375
   0.21819315  0.77505541  0.04811787
   0.44837284  0.22490440  0.95191435
   0.55761215  0.11536955  0.04805875
   0.44795717  0.55709559  0.95197739
   0.55896936  0.44589087  0.04685207
   0.44392309  0.88788376  0.95075381
   0.55685377  0.77482763  0.04804764
   0.77636685  0.22515074  0.95199106
   0.88909884  0.11189249  0.04925129
   0.77756409  0.55566597  0.95417135
   0.88705068  0.44611283  0.04692184
   0.77562252  0.88435845  0.95197036
   0.88678882  0.77319942  0.04689286
unknown system                          
           1
     8.484457    4.898126    0.000000
    -8.486583    4.901772    0.000000
     0.000000    0.000000   30.000000
   V    Mo   W    S 
   3   3   3  18
Direct configuration=     3
   0.66580155  0.33158269  0.00004086
   0.00030886  0.66904215 -0.00010322
   0.66867040  0.66897122 -0.00012420
   0.33333946 -0.00013706  0.00020752
   0.66647175 -0.00014707  0.00020559
   0.00035911  0.00063999 -0.00024371
   0.99775220  0.32941951 -0.00007822
   0.33166114  0.32930941 -0.00010195
   0.33542880  0.67100034  0.00018072
   0.11158707  0.22323295  0.95050403
   0.22279910  0.11210849  0.04933879
   0.10908538  0.55722675  0.95218337
   0.22222435  0.44464200  0.04905446
   0.10863026  0.88421377  0.95193131
   0.21820348  0.77488601  0.04817454
   0.44836233  0.22508620  0.95188497
   0.55770796  0.11552757  0.04811213
   0.44777593  0.55702216  0.95212696
   0.55882079  0.44583057  0.04672011
   0.44380477  0.88766248  0.95070020
   0.55668789  0.77469016  0.04811309
   0.77655875  0.22530260  0.95195154
   0.88921916  0.11211214  0.04932856
   0.77758264  0.55566280  0.95428511
   0.88712311  0.44601409  0.04677889
   0.77553798  0.88421091  0.95193959
   0.88671024  0.77310162  0.04688886
unknown system                          
           1
     8.269905    4.774545    0.000000
    -8.280612    4.793056    0.000000
     0.000000    0.000000   30.000000
   V    Mo   W    S 
   3   3   3  18
Direct configuration=     4
   0.66477491  0.32959373  0.00025201
   0.00167341  0.67122249 -0.00025643
   0.66949686  0.67116497 -0.00027964
   0.33346312 -0.00073920  0.00019352
   0.66572685 -0.00078167  0.00019336
   0.00239724  0.00474188 -0.00027464
   0.99703894  0.32473709  0.00006984
   0.32763948  0.32462129  0.00004948
   0.33786987  0.67581538 -0.00001620
   0.11153064  0.22323381  0.94835506
   0.22271219  0.11192979  0.05126057
   0.10866676  0.55741518  0.95132527
   0.22237319  0.44475974  0.05001876
   0.10796667  0.88299699  0.95040782
   0.21696793  0.77431776  0.04990317
   0.44947624  0.22561336  0.95030125
   0.55843980  0.11690035  0.04974670
   0.44844475  0.55732220  0.95130856
   0.55977938  0.44642854  0.04750187
   0.44386381  0.88784147  0.94886258
   0.55737874  0.77421358  0.04987484
   0.77598165  0.22573232  0.95033235
   0.88918699  0.11191649  0.05125085
   0.77761598  0.55555019  0.95353027
   0.88669653  0.44649894  0.04752790
   0.77491352  0.88299781  0.95041578
   0.88613901  0.77216999  0.04814499
unknown system                          
           1
     8.266048    4.772658    0.000000
    -8.286289    4.807683    0.000000
     0.000000    0.000000   30.000000
   V    Mo   W    S 
   3   3   3  18
Direct configuration=     5
   0.66303110  0.32621346  0.00054880
   0.00433637  0.67552565 -0.00037835
   0.67110351  0.67551223 -0.00039421
   0.33391112 -0.00232876  0.00008275
   0.66361439 -0.00246969  0.00008015
   0.00698151  0.01393655 -0.00014140
   0.99553911  0.31448937  0.00020091
   0.31884744  0.31435660  0.00018753
   0.34352129  0.68700747 -0.00020976
   0.11126243  0.22269746  0.94490063
   0.22217802  0.11045566  0.05404091
   0.10823149  0.55704947  0.95065708
   0.22271333  0.44536877  0.05079360
   0.10742198  0.88250241  0.94835253
   0.21585771  0.77429247  0.05236606
   0.45024151  0.22561447  0.94826520
   0.55890208  0.11781709  0.05206959
   0.44868322  0.55704853  0.95066740
   0.56008784  0.44670223  0.04829872
   0.44462067  0.88935014  0.94612829
   0.55841139  0.77426472  0.05236534
   0.77531917  0.22563774  0.94827954
   0.88825549  0.11044082  0.05402774
   0.77763898  0.55536331  0.95234518
   0.88651319  0.44666017  0.04830251
   0.77497728  0.88249135  0.94836048
   0.88601284  0.77221477  0.04980266
unknown system                          
           1
     8.263519    4.771279    0.000000
    -8.284716    4.807960    0.000000
     0.000000    0.000000   30.000000
   V    Mo   W    S 
   3   3   3  18
Direct configuration=     6
   0.66252999  0.32521088  0.00057323
   0.00495473  0.67751548 -0.00040832
   0.67246801  0.67751037 -0.00042215
   0.33449260 -0.00267182  0.00006633
   0.66268705 -0.00278965  0.00006123
   0.00738678  0.01474872  0.00006768
   0.99475896  0.31163745  0.00001208
   0.31680526  0.31153965 -0.00000287
   0.34520985  0.69042143 -0.00003180
   0.11117353  0.22248626  0.94429968
   0.22187293  0.10925017  0.05440956
   0.10863894  0.55630855  0.95121324
   0.22303409  0.44603044  0.05024238
   0.10748895  0.88339021  0.94830350
   0.21632500  0.77479460  0.05257689
   0.44968134  0.22523408  0.94820566
   0.55862750  0.11727604  0.05224509
   0.44754853  0.55628058  0.95121667
   0.55867377  0.44596574  0.04800704
   0.44531459  0.89073036  0.94558385
   0.55844200  0.77477077  0.05257914
   0.77549180  0.22524796  0.94822646
   0.88734831  0.10924911  0.05439301
   0.77771509  0.55553422  0.95240933
   0.88719527  0.44594110  0.04801354
   0.77581633  0.88337968  0.94830696
   0.88653328  0.77322206  0.04985245
unknown system                          
           1
     8.268492    4.774282    0.000000
    -8.299318    4.827642    0.000000
     0.000000    0.000000   30.000000
   V    Mo   W    S 
   3   3   3  18
Direct configuration=     7
   0.66179872  0.32377561  0.00073037
   0.00571798  0.68052179 -0.00050322
   0.67468838  0.68058500 -0.00051468
   0.33556171 -0.00292435  0.00004128
   0.66136248 -0.00308867  0.00003551
   0.00796787  0.01594058  0.00020414
   0.99327931  0.30722585 -0.00004162
   0.31389156  0.30714908 -0.00005356
   0.34771958  0.69537801 -0.00002464
   0.11072307  0.22154729  0.94363921
   0.22173027  0.10826953  0.05475241
   0.10911480  0.55552307  0.95202115
   0.22340596  0.44679704  0.04942194
   0.10761983  0.88414079  0.94823139
   0.21671148  0.77547632  0.05290792
   0.44925918  0.22478453  0.94801763
   0.55841940  0.11687762  0.05246952
   0.44632077  0.55549281  0.95202333
   0.55723458  0.44528307  0.04749149
   0.44589299  0.89188086  0.94504196
   0.55873215  0.77545348  0.05290933
   0.77547322  0.22480122  0.94804136
   0.88649611  0.10826412  0.05473944
   0.77781980  0.55575776  0.95261273
   0.88794166  0.44525285  0.04750182
   0.77644183  0.88410922  0.94823799
   0.88688977  0.77393996  0.05006570
unknown system                          
           1
     8.267836    4.773948    0.000000
    -8.304758    4.837865    0.000000
     0.000000    0.000000   30.000000
   V    Mo   W    S 
   3   3   3  18
Direct configuration=     8
   0.66067839  0.32155944  0.00088168
   0.00685158  0.68493649 -0.00055985
   0.67794283  0.68502721 -0.00056443
   0.33726629 -0.00288942  0.00001635
   0.65969634 -0.00304479  0.00000762
   0.00806091  0.01613297  0.00044746
   0.99124765  0.30203328 -0.00031558
   0.31075577  0.30198876 -0.00032364
   0.35043092  0.70080077  0.00022903
   0.11004034  0.22014424  0.94292447
   0.22137829  0.10670196  0.05521299
   0.10967996  0.55451001  0.95320021
   0.22393737  0.44788496  0.04823955
   0.10794786  0.88510550  0.94810463
   0.21719450  0.77633979  0.05324587
   0.44886882  0.22436407  0.94779204
   0.55816389  0.11637276  0.05279592
   0.44476227  0.55446943  0.95319398
   0.55541870  0.44445147  0.04671652
   0.44680665  0.89369582  0.94426952
   0.55910949  0.77632904  0.05326143
   0.77545336  0.22438035  0.94781893
   0.88526409  0.10669773  0.05520496
   0.77801839  0.55615111  0.95298256
   0.88892348  0.44443013  0.04672572
   0.77710624  0.88509190  0.94810084
   0.88721008  0.77454946  0.05039114
unknown system                          
           1
     8.280731    4.781338    0.000000
    -8.317550    4.845077    0.000000
     0.000000    0.000000   30.000000
   V    Mo   W    S 
   3   3   3  18
Direct configuration=     9
   0.65951300  0.31924099  0.00093574
   0.00807832  0.68853929 -0.00052276
   0.68029759  0.68859495 -0.00052196
   0.33892851 -0.00227070 -0.00000289
   0.65867037 -0.00237017 -0.00001063
   0.00730272  0.01461257  0.00066162
   0.98962782  0.29931968 -0.00059249
   0.30967689  0.29930241 -0.00060248
   0.35154677  0.70307982  0.00053696
   0.10915158  0.21834862  0.94261440
   0.22102582  0.10554747  0.05539085
   0.10990387  0.55381362  0.95426062
   0.22428439  0.44858805  0.04714026
   0.10853075  0.88581276  0.94796523
   0.21747691  0.77714241  0.05341891
   0.44890388  0.22419685  0.94758519
   0.55798952  0.11601871  0.05310411
   0.44385330  0.55378392  0.95424888
   0.55437750  0.44405592  0.04594627
   0.44739747  0.89487080  0.94387630
   0.55963116  0.77714772  0.05344225
   0.77525934  0.22421449  0.94760935
   0.88446031  0.10555093  0.05538238
   0.77825724  0.55661969  0.95347959
   0.88957287  0.44403638  0.04594645
   0.77725420  0.88583423  0.94795385
   0.88724238  0.77458305  0.05075391
unknown system                          
           1
     8.280652    4.781240    0.000000
    -8.318417    4.846617    0.000000
     0.000000    0.000000   30.000000
   V    Mo   W    S 
   3   3   3  18
Direct configuration=    10
   0.65818807  0.31660105  0.00085806
   0.00941332  0.69169767 -0.00041607
   0.68211826  0.69173904 -0.00041548
   0.34025797 -0.00157390 -0.00000018
   0.65805319 -0.00164453 -0.00000704
   0.00655832  0.01312999  0.00073760
   0.98802846  0.29684268 -0.00081952
   0.30880083  0.29683033 -0.00082674
   0.35259836  0.70519862  0.00074959
   0.10820399  0.21643929  0.94245460
   0.22084995  0.10483796  0.05543088
   0.10987041  0.55329287  0.95507733
   0.22448147  0.44898695  0.04626480
   0.10922856  0.88647443  0.94780862
   0.21769354  0.77794320  0.05362706
   0.44918881  0.22410732  0.94730272
   0.55783786  0.11572203  0.05345766
   0.44337439  0.55327659  0.95506514
   0.55387076  0.44399756  0.04530022
   0.44764426  0.89535998  0.94369708
   0.56020850  0.77796527  0.05364673
   0.77489156  0.22412866  0.94732404
   0.88392290  0.10483522  0.05542489
   0.77848786  0.55707328  0.95400069
   0.89002738  0.44398284  0.04529287
   0.77722405  0.88650903  0.94780174
   0.88719141  0.77446104  0.05116264
unknown system                          
           1
     8.285556    4.784072    0.000000
    -8.321905    4.846994    0.000000
     0.000000    0.000000   30.000000
   V    Mo   W    S 
   3   3   3  18
Direct configuration=    11
   0.65679743  0.31382810  0.00068443
   0.01080019  0.69419361 -0.00022346
   0.68323054  0.69417182 -0.00022308
   0.34119713 -0.00089697  0.00002549
   0.65780539 -0.00090334  0.00001872
   0.00578660  0.01156722  0.00077237
   0.98679040  0.29534656 -0.00106891
   0.30854440  0.29534341 -0.00107426
   0.35307581  0.70620956  0.00103055
   0.10735399  0.21473437  0.94242078
   0.22064345  0.10428590  0.05537433
   0.10976513  0.55309036  0.95570877
   0.22445228  0.44892578  0.04554879
   0.10999079  0.88710736  0.94768184
   0.21799352  0.77866883  0.05377669
   0.44952252  0.22408978  0.94702904
   0.55771499  0.11547860  0.05377576
   0.44327454  0.55308437  0.95569479
   0.55378917  0.44410289  0.04471232
   0.44778155  0.89562864  0.94365116
   0.56062437  0.77870259  0.05379267
   0.77454129  0.22410938  0.94704742
   0.88357634  0.10428125  0.05536872
   0.77872255  0.55751822  0.95459447
   0.89022717  0.44410317  0.04469538
   0.77710109  0.88716769  0.94767641
   0.88711181  0.77427531  0.05150870
unknown system                          
           1
     8.282383    4.782249    0.000000
    -8.318194    4.844241    0.000000
     0.000000    0.000000   30.000000
   V    Mo   W    S 
   3   3   3  18
Direct configuration=    12
   0.65606081  0.31235243  0.00050115
   0.01151883  0.69481740 -0.00006365
   0.68316525  0.69482017 -0.00006847
   0.34121864 -0.00063993  0.00003890
   0.65803706 -0.00066188  0.00003526
   0.00542990  0.01085508  0.00072633
   0.98637154  0.29531160 -0.00117096
   0.30892528  0.29530678 -0.00117742
   0.35300584  0.70605410  0.00110414
   0.10709087  0.21420472  0.94240924
   0.22056855  0.10423918  0.05531060
   0.10968276  0.55328586  0.95577942
   0.22425148  0.44852470  0.04543709
   0.11033655  0.88734339  0.94762601
   0.21816377  0.77893754  0.05391095
   0.44970765  0.22409456  0.94684118
   0.55769781  0.11545600  0.05392709
   0.44355412  0.55328618  0.95576997
   0.55415610  0.44433482  0.04452644
   0.44769079  0.89544863  0.94374494
   0.56071854  0.77897027  0.05391724
   0.77435658  0.22411908  0.94685721
   0.88360506  0.10422987  0.05530325
   0.77876667  0.55760654  0.95490769
   0.89009386  0.44433575  0.04450817
   0.77697296  0.88738009  0.94763152
   0.88706718  0.77420152  0.05166663
unknown system                          
           1
     8.283717    4.783043    0.000000
    -8.318135    4.842621    0.000000
     0.000000    0.000000   30.000000
   V    Mo   W    S 
   3   3   3  18
Direct configuration=    13
   0.65565651  0.31154319  0.00040314
   0.01193867  0.69522941  0.00002344
   0.68316481  0.69521666  0.00001947
   0.34120361 -0.00053959  0.00005551
   0.65814848 -0.00055411  0.00005160
   0.00531834  0.01061986  0.00070055
   0.98611508  0.29518759 -0.00122805
   0.30905674  0.29518293 -0.00123267
   0.35300600  0.70606624  0.00116200
   0.10699756  0.21402069  0.94242034
   0.22053568  0.10426188  0.05525975
   0.10967588  0.55340580  0.95581831
   0.22413641  0.44829519  0.04536913
   0.11047247  0.88741593  0.94761574
   0.21830458  0.77906115  0.05397188
   0.44974914  0.22406757  0.94674648
   0.55768994  0.11544342  0.05397920
   0.44367927  0.55340635  0.95580960
   0.55432769  0.44441610  0.04441454
   0.44764053  0.89534729  0.94379984
   0.56070027  0.77909257  0.05397825
   0.77428665  0.22409147  0.94676284
   0.88365983  0.10425143  0.05525290
   0.77877706  0.55762563  0.95509128
   0.89000598  0.44441948  0.04439611
   0.77690954  0.88745715  0.94762001
   0.88705775  0.77418317  0.05173870
unknown system                          
           1
     8.282211    4.782219    0.000000
    -8.313255    4.835957    0.000000
     0.000000    0.000000   30.000000
   V    Mo   W    S 
   3   3   3  18
Direct configuration=    14
   0.65494625  0.31011807  0.00021117
   0.01269929  0.69597686  0.00018983
   0.68317656  0.69601067  0.00018521
   0.34110332 -0.00037248  0.00007546
   0.65840719 -0.00041646  0.00007320
   0.00507946  0.01014750  0.00065714
   0.98567059  0.29502416 -0.00134233
   0.30933768  0.29502007 -0.00134725
   0.35301504  0.70605494  0.00125589
   0.10686559  0.21375342  0.94239144
   0.22047463  0.10427599  0.05521837
   0.10967623  0.55362104  0.95586989
   0.22395278  0.44793183  0.04527310
   0.11068891  0.88753411  0.94757202
   0.21852967  0.77927193  0.05412326
   0.44979823  0.22397723  0.94654970
   0.55767475  0.11542234  0.05409290
   0.44390057  0.55362588  0.95586500
   0.55463273  0.44456557  0.04423072
   0.44756549  0.89519840  0.94386543
   0.56068956  0.77929711  0.05412483
   0.77414317  0.22400415  0.94656599
   0.88373486  0.10426158  0.05521067
   0.77876424  0.55761742  0.95540526
   0.88984539  0.44455701  0.04421391
   0.77679744  0.88755163  0.94758311
   0.88704481  0.77418450  0.05188598
unknown system                          
           1
     8.285637    4.784232    0.000000
    -8.312046    4.829941    0.000000
     0.000000    0.000000   30.000000
   V    Mo   W    S 
   3   3   3  18
Direct configuration=    15
   0.65338194  0.30698009 -0.00022603
   0.01451813  0.69779289  0.00057706
   0.68317911  0.69772548  0.00058079
   0.34072712 -0.00014757  0.00012898
   0.65899757 -0.00010868  0.00012324
   0.00473109  0.00937421  0.00057273
   0.98465234  0.29459415 -0.00157947
   0.30992488  0.29459857 -0.00157896
   0.35302767  0.70617217  0.00145184
   0.10667491  0.21338442  0.94232355
   0.22035208  0.10442099  0.05510661
   0.10974239  0.55414726  0.95600888
   0.22353330  0.44709679  0.04502368
   0.11099314  0.88763734  0.94749930
   0.21904652  0.77965993  0.05445678
   0.44974691  0.22367554  0.94611731
   0.55765329  0.11537711  0.05427593
   0.44433327  0.55413625  0.95600019
   0.55521571  0.44474444  0.04379204
   0.44739626  0.89485766  0.94404082
   0.56055162  0.77968446  0.05447002
   0.77388645  0.22369074  0.94613528
   0.88399945  0.10440944  0.05509925
   0.77874152  0.55752947  0.95613975
   0.88945566  0.44476257  0.04377058
   0.77662498  0.88771330  0.94749333
   0.88712716  0.77430542  0.05219642
unknown system                          
           1
     8.285217    4.784005    0.000000
    -8.310673    4.828064    0.000000
     0.000000    0.000000   30.000000
   V    Mo   W    S 
   3   3   3  18
Direct configuration=    16
   0.65068309  0.30154963 -0.00104753
   0.01761615  0.70084977  0.00129376
   0.68320387  0.70089190  0.00128713
   0.34008066  0.00028994  0.00020574
   0.66003929  0.00026593  0.00020855
   0.00406582  0.00802063  0.00040563
   0.98284760  0.29394911 -0.00204215
   0.31107805  0.29396081 -0.00204782
   0.35315044  0.70633255  0.00181648
   0.10647611  0.21297146  0.94216408
   0.22014639  0.10466063  0.05499067
   0.10988796  0.55511670  0.95622593
   0.22282392  0.44569912  0.04460608
   0.11142439  0.88781666  0.94733253
   0.21996168  0.78032283  0.05512569
   0.44950195  0.22295313  0.94531679
   0.55757978  0.11526011  0.05457187
   0.44517270  0.55512089  0.95623017
   0.55628395  0.44503480  0.04302081
   0.44715419  0.89438224  0.94431124
   0.56029074  0.78033223  0.05512284
   0.77339136  0.22297276  0.94532946
   0.88444579  0.10463978  0.05497245
   0.77859550  0.55727065  0.95746614
   0.88867058  0.44503026  0.04300268
   0.77634165  0.88783315  0.94735262
   0.88730083  0.77468679  0.05277807
unknown system                          
           1
     8.284967    4.783948    0.000000
    -8.307977    4.823772    0.000000
     0.000000    0.000000   30.000000
   V    Mo   W    S 
   3   3   3  18
Direct configuration=    17
   0.65147466  0.30313721 -0.00090629
   0.01678064  0.70003206  0.00116914
   0.68320674  0.70009219  0.00116614
   0.34012689  0.00010476  0.00019282
   0.65980035  0.00005446  0.00019427
   0.00431508  0.00851898  0.00042892
   0.98321349  0.29411532 -0.00195553
   0.31087568  0.29411634 -0.00195552
   0.35317088  0.70635635  0.00174898
   0.10664906  0.21331925  0.94217184
   0.22023537  0.10474592  0.05502112
   0.10990786  0.55503031  0.95619011
   0.22297127  0.44599074  0.04466344
   0.11116002  0.88764085  0.94738744
   0.21985947  0.78019279  0.05503926
   0.44931374  0.22282386  0.94543606
   0.55757671  0.11525357  0.05442262
   0.44507757  0.55503855  0.95619332
   0.55607257  0.44485060  0.04315390
   0.44720181  0.89447733  0.94426088
   0.56027356  0.78020567  0.05503690
   0.77345439  0.22284350  0.94544987
   0.88443655  0.10471357  0.05500658
   0.77855741  0.55721283  0.95725446
   0.88869072  0.44483271  0.04313976
   0.77643152  0.88765501  0.94740817
   0.88738046  0.77485970  0.05268122
unknown system                          
           1
     8.287742    4.785489    0.000000
    -8.310489    4.824857    0.000000
     0.000000    0.000000   30.000000
   V    Mo   W    S 
   3   3   3  18
Direct configuration=    18
   0.65059192  0.30135220 -0.00134469
   0.01786642  0.70112690  0.00154423
   0.68319781  0.70110084  0.00155144
   0.33965798  0.00009808  0.00022152
   0.66023845  0.00011237  0.00021766
   0.00429999  0.00838872  0.00035625
   0.98248232  0.29387795 -0.00220734
   0.31137587  0.29390159 -0.00220459
   0.35320995  0.70651583  0.00195329
   0.10679265  0.21361082  0.94206951
   0.22023988  0.10505975  0.05497739
   0.11002552  0.55561031  0.95628613
   0.22269937  0.44545088  0.04446343
   0.11097017  0.88738453  0.94737555
   0.22029424  0.78043438  0.05535954
   0.44883504  0.22209205  0.94506128
   0.55757602  0.11524945  0.05439146
   0.44552790  0.55560647  0.95628485
   0.55648283  0.44474955  0.04283934
   0.44711200  0.89429848  0.94437797
   0.56007899  0.78045479  0.05537287
   0.77319107  0.22209304  0.94507571
   0.88474314  0.10502614  0.05495779
   0.77844139  0.55696125  0.95785043
   0.88818400  0.44473946  0.04282588
   0.77639853  0.88746228  0.94738227
   0.88770101  0.77545633  0.05296074
unknown system                          
           1
     8.288495    4.785902    0.000000
    -8.310913    4.824699    0.000000
     0.000000    0.000000   30.000000
   V    Mo   W    S 
   3   3   3  18
Direct configuration=    19
   0.65079438  0.30175207 -0.00131943
   0.01759013  0.70084403  0.00152912
   0.68321121  0.70090853  0.00152412
   0.33960521  0.00002343  0.00020895
   0.66020501 -0.00001910  0.00021137
   0.00436824  0.00854698  0.00036371
   0.98264336  0.29399896 -0.00217009
   0.31133144  0.29401697 -0.00217290
   0.35323013  0.70648160  0.00192225
   0.10684196  0.21369568  0.94204285
   0.22032098  0.10514817  0.05497982
   0.11001593  0.55558282  0.95627650
   0.22274126  0.44554042  0.04447602
   0.11085516  0.88728118  0.94739299
   0.22023047  0.78040959  0.05535338
   0.44876726  0.22203691  0.94508040
   0.55761347  0.11533365  0.05434762
   0.44552363  0.55559213  0.95628041
   0.55639280  0.44468562  0.04288937
   0.44708991  0.89426100  0.94436867
   0.56011156  0.78042854  0.05535314
   0.77320237  0.22204458  0.94509123
   0.88475063  0.10510556  0.05495431
   0.77845164  0.55699933  0.95776578
   0.88820495  0.44466224  0.04287666
   0.77638580  0.88731046  0.94742065
   0.88773552  0.77554308  0.05295300
unknown system                          
           1
     8.288264    4.785803    0.000000
    -8.310408    4.824127    0.000000
     0.000000    0.000000   30.000000
   V    Mo   W    S 
   3   3   3  18
Direct configuration=    20
   0.65072429  0.30160614 -0.00139942
   0.01761062  0.70085435  0.00159944
   0.68319499  0.70088845  0.00159840
   0.33948404  0.00000188  0.00020645
   0.66028838 -0.00001530  0.00020604
   0.00448165  0.00871877  0.00035589
   0.98259464  0.29401330 -0.00222061
   0.31139521  0.29403072 -0.00221730
   0.35321743  0.70649596  0.00195783
   0.10689531  0.21380832  0.94202418
   0.22037976  0.10528623  0.05495982
   0.11004369  0.55569345  0.95629761
   0.22272050  0.44549907  0.04444233
   0.11071375  0.88712617  0.94741807
   0.22029659  0.78044069  0.05539431
   0.44861954  0.22185977  0.94503722
   0.55765850  0.11542303  0.05429087
   0.44560089  0.55569990  0.95629817
   0.55639676  0.44457254  0.04285686
   0.44705159  0.89418417  0.94439608
   0.56007577  0.78046643  0.05539916
   0.77317242  0.22185882  0.94504925
   0.88482497  0.10523492  0.05493533
   0.77844611  0.55697621  0.95782650
   0.88809084  0.44455490  0.04284363
   0.77638540  0.88718127  0.94743988
   0.88785081  0.77575428  0.05300389
unknown system                          
           1
     8.286911    4.785084    0.000000
    -8.308880    4.823105    0.000000
     0.000000    0.000000   30.000000
   V    Mo   W    S 
   3   3   3  18
Direct configuration=    21
   0.65068367  0.30152179 -0.00144175
   0.01763841  0.70089191  0.00163847
   0.68320637  0.70093096  0.00163632
   0.33940539 -0.00002559  0.00020486
   0.66032926 -0.00004469  0.00020551
   0.00450381  0.00874529  0.00035343
   0.98257091  0.29402463 -0.00223953
   0.31143331  0.29404825 -0.00223822
   0.35322128  0.70649973  0.00197483
   0.10691827  0.21385001  0.94200577
   0.22041178  0.10535209  0.05495290
   0.11005303  0.55574936  0.95630791
   0.22270536  0.44547044  0.04442521
   0.11065334  0.88705541  0.94742979
   0.22032558  0.78046724  0.05541862
   0.44855261  0.22177216  0.94500763
   0.55767653  0.11546049  0.05426864
   0.44564927  0.55575842  0.95630975
   0.55640933  0.44453119  0.04283759
   0.44703163  0.89414771  0.94440765
   0.56007155  0.78049368  0.05542202
   0.77314917  0.22176995  0.94501871
   0.88486008  0.10529875  0.05492467
   0.77844372  0.55697298  0.95786080
   0.88803646  0.44451100  0.04282437
   0.77637390  0.88710878  0.94745515
   0.88790044  0.77585255  0.05302879
unknown system                          
           1
     8.285553    4.784447    0.000000
    -8.307080    4.821703    0.000000
     0.000000    0.000000   30.000000
   V    Mo   W    S 
   3   3   3  18
Direct configuration=    22
   0.65063988  0.30142949 -0.00151124
   0.01766826  0.70093935  0.00169937
   0.68322488  0.70097507  0.00169697
   0.33925067 -0.00009604  0.00020179
   0.66039274 -0.00011028  0.00020256
   0.00455464  0.00880287  0.00034948
   0.98255306  0.29404817 -0.00227484
   0.31147782  0.29407732 -0.00227338
   0.35322136  0.70650727  0.00200098
   0.10695431  0.21391854  0.94197610
   0.22047127  0.10546681  0.05494354
   0.11006221  0.55583884  0.95632447
   0.22268801  0.44543755  0.04440282
   0.11054086  0.88692568  0.94745029
   0.22036366  0.78050684  0.05545721
   0.44843351  0.22163103  0.94495999
   0.55770594  0.11552201  0.05423156
   0.44572992  0.55585075  0.95632706
   0.55642287  0.44446672  0.04281279
   0.44699846  0.89408607  0.94442490
   0.56007056  0.78053527  0.05545982
   0.77312400  0.22162480  0.94497032
   0.88491498  0.10540593  0.05491106
   0.77844933  0.55698267  0.95790777
   0.88795879  0.44444468  0.04279940
   0.77635916  0.88698401  0.94747891
   0.88798331  0.77601301  0.05307018
unknown system                          
           1
     8.285616    4.784471    0.000000
    -8.306714    4.820985    0.000000
     0.000000    0.000000   30.000000
   V    Mo   W    S 
   3   3   3  18
Direct configuration=    23
   0.65054775  0.30123746 -0.00166784
   0.01777111  0.70110986  0.00184107
   0.68330179  0.70116711  0.00183888
   0.33884867 -0.00030075  0.00019598
   0.66053386 -0.00032408  0.00019670
   0.00459799  0.00878650  0.00034280
   0.98251116  0.29411616 -0.00235955
   0.31159285  0.29415171 -0.00235482
   0.35321996  0.70650360  0.00205767
   0.10701368  0.21402730  0.94190079
   0.22059866  0.10571261  0.05493957
   0.11005655  0.55603165  0.95635030
   0.22265119  0.44537009  0.04437356
   0.11030477  0.88664582  0.94747295
   0.22040950  0.78058936  0.05555713
   0.44818834  0.22133887  0.94483663
   0.55776148  0.11564453  0.05416960
   0.44593438  0.55605155  0.95635498
   0.55648183  0.44439879  0.04276766
   0.44693019  0.89396096  0.94444519
   0.56010595  0.78061933  0.05555609
   0.77307278  0.22132539  0.94484645
   0.88502939  0.10562689  0.05489935
   0.77847959  0.55705076  0.95800257
   0.88782891  0.44436390  0.04275490
   0.77631696  0.88670549  0.94751301
   0.88812516  0.77630357  0.05316827
unknown system                          
           1
     8.285616    4.784471    0.000000
    -8.306714    4.820985    0.000000
     0.000000    0.000000   30.000000
   V    Mo   W    S 
   3   3   3  18
Direct configuration=    24
   0.65051363  0.30116724 -0.00170588
   0.01780723  0.70111933  0.00188787
   0.68327410  0.70115550  0.00188606
   0.33872729 -0.00033168  0.00019232
   0.66059672 -0.00033606  0.00019287
   0.00469365  0.00890693  0.00033654
   0.98249069  0.29408223 -0.00237410
   0.31158793  0.29413201 -0.00237118
   0.35322349  0.70653670  0.00207171
   0.10701317  0.21401719  0.94187894
   0.22065545  0.10583797  0.05492492
   0.11006911  0.55610534  0.95635899
   0.22263567  0.44534155  0.04435875
   0.11021777  0.88654791  0.94746966
   0.22046330  0.78062946  0.05560360
   0.44806651  0.22120879  0.94479238
   0.55777851  0.11568119  0.05412513
   0.44598888  0.55612139  0.95636344
   0.55647964  0.44434832  0.04275133
   0.44688557  0.89387771  0.94446663