<?xml version="1.0" encoding="ISO-8859-1"?>
<modeling>
 <generator>
  <i name="program" type="string">vasp </i>
  <i name="version" type="string">5.4.1  </i>
  <i name="subversion" type="string">05Feb16 (build Jul 05 2020 17:13:04) complex                          parallel </i>
  <i name="platform" type="string">IFC91_ompi </i>
  <i name="date" type="string">2024 05 08 </i>
  <i name="time" type="string">22:01:17 </i>
 </generator>
 <incar>
  <i type="int" name="ISTART">     0</i>
  <i type="string" name="PREC">normal</i>
  <i type="string" name="ALGO"> Normal</i>
  <i type="int" name="ISPIN">     1</i>
  <i type="int" name="ICHARG">     2</i>
  <i type="int" name="IBRION">     1</i>
  <i type="int" name="NSW">   100</i>
  <i type="int" name="ISIF">     3</i>
  <i type="int" name="ISYM">     0</i>
  <i name="SYMPREC">      0.00000001</i>
  <i name="POTIM">      0.50000000</i>
  <i type="logical" name="LREAL"> F  </i>
  <i type="logical" name="LPLANE"> F  </i>
  <i type="int" name="ISMEAR">     0</i>
  <i type="logical" name="LWAVE"> F  </i>
  <i type="logical" name="LCHARG"> F  </i>
  <v type="int" name="KPOINT_BSE">    -1     0     0     0</v>
 </incar>
 <kpoints>
  <generation param="Gamma">
   <v type="int" name="divisions">       8        8        1 </v>
   <v name="usershift">      0.00000000       0.00000000       0.00000000 </v>
   <v name="genvec1">      0.12500000       0.00000000       0.00000000 </v>
   <v name="genvec2">     -0.00000000       0.12500000       0.00000000 </v>
   <v name="genvec3">      0.00000000       0.00000000       1.00000000 </v>
   <v name="shift">      0.00000000       0.00000000       0.00000000 </v>
  </generation>
  <varray name="kpointlist" >
   <v>       0.00000000       0.00000000       0.00000000 </v>
   <v>       0.12500000       0.00000000       0.00000000 </v>
   <v>       0.25000000       0.00000000       0.00000000 </v>
   <v>       0.37500000       0.00000000       0.00000000 </v>
   <v>       0.50000000       0.00000000       0.00000000 </v>
   <v>       0.00000000       0.12500000       0.00000000 </v>
   <v>       0.12500000       0.12500000       0.00000000 </v>
   <v>       0.25000000       0.12500000       0.00000000 </v>
   <v>       0.37500000       0.12500000       0.00000000 </v>
   <v>       0.50000000       0.12500000       0.00000000 </v>
   <v>      -0.37500000       0.12500000       0.00000000 </v>
   <v>      -0.25000000       0.12500000       0.00000000 </v>
   <v>      -0.12500000       0.12500000       0.00000000 </v>
   <v>       0.00000000       0.25000000       0.00000000 </v>
   <v>       0.12500000       0.25000000       0.00000000 </v>
   <v>       0.25000000       0.25000000       0.00000000 </v>
   <v>       0.37500000       0.25000000       0.00000000 </v>
   <v>       0.50000000       0.25000000       0.00000000 </v>
   <v>      -0.37500000       0.25000000       0.00000000 </v>
   <v>      -0.25000000       0.25000000       0.00000000 </v>
   <v>      -0.12500000       0.25000000       0.00000000 </v>
   <v>      -0.00000000       0.37500000       0.00000000 </v>
   <v>       0.12500000       0.37500000       0.00000000 </v>
   <v>       0.25000000       0.37500000       0.00000000 </v>
   <v>       0.37500000       0.37500000       0.00000000 </v>
   <v>       0.50000000       0.37500000       0.00000000 </v>
   <v>      -0.37500000       0.37500000       0.00000000 </v>
   <v>      -0.25000000       0.37500000       0.00000000 </v>
   <v>      -0.12500000       0.37500000       0.00000000 </v>
   <v>       0.00000000       0.50000000       0.00000000 </v>
   <v>       0.12500000       0.50000000       0.00000000 </v>
   <v>       0.25000000       0.50000000       0.00000000 </v>
   <v>       0.37500000       0.50000000       0.00000000 </v>
   <v>       0.50000000       0.50000000       0.00000000 </v>
  </varray>
  <varray name="weights" >
   <v>       0.01562500 </v>
   <v>       0.03125000 </v>
   <v>       0.03125000 </v>
   <v>       0.03125000 </v>
   <v>       0.01562500 </v>
   <v>       0.03125000 </v>
   <v>       0.03125000 </v>
   <v>       0.03125000 </v>
   <v>       0.03125000 </v>
   <v>       0.03125000 </v>
   <v>       0.03125000 </v>
   <v>       0.03125000 </v>
   <v>       0.03125000 </v>
   <v>       0.03125000 </v>
   <v>       0.03125000 </v>
   <v>       0.03125000 </v>
   <v>       0.03125000 </v>
   <v>       0.03125000 </v>
   <v>       0.03125000 </v>
   <v>       0.03125000 </v>
   <v>       0.03125000 </v>
   <v>       0.03125000 </v>
   <v>       0.03125000 </v>
   <v>       0.03125000 </v>
   <v>       0.03125000 </v>
   <v>       0.03125000 </v>
   <v>       0.03125000 </v>
   <v>       0.03125000 </v>
   <v>       0.03125000 </v>
   <v>       0.01562500 </v>
   <v>       0.03125000 </v>
   <v>       0.03125000 </v>
   <v>       0.03125000 </v>
   <v>       0.01562500 </v>
  </varray>
 </kpoints>
 <parameters>
  <separator name="general" >
   <i type="string" name="SYSTEM">unknown system</i>
   <i type="logical" name="LCOMPAT"> F  </i>
  </separator>
  <separator name="electronic" >
   <i type="string" name="PREC">normal</i>
   <i name="ENMAX">    280.00000000</i>
   <i name="ENAUG">    373.43800000</i>
   <i name="EDIFF">      0.00010000</i>
   <i type="int" name="IALGO">    38</i>
   <i type="int" name="IWAVPR">    11</i>
   <i type="int" name="NBANDS">   120</i>
   <i name="NELECT">    159.00000000</i>
   <i type="int" name="TURBO">     0</i>
   <i type="int" name="IRESTART">     0</i>
   <i type="int" name="NREBOOT">     0</i>
   <i type="int" name="NMIN">     0</i>
   <i name="EREF">      0.00000000</i>
   <separator name="electronic smearing" >
    <i type="int" name="ISMEAR">     0</i>
    <i name="SIGMA">      0.20000000</i>
    <i name="KSPACING">      0.50000000</i>
    <i type="logical" name="KGAMMA"> T  </i>
   </separator>
   <separator name="electronic projectors" >
    <i type="logical" name="LREAL"> F  </i>
    <v name="ROPT">      0.00000000      0.00000000      0.00000000      0.00000000</v>
    <i type="int" name="LMAXPAW">  -100</i>
    <i type="int" name="LMAXMIX">     2</i>
    <i type="logical" name="NLSPLINE"> F  </i>
   </separator>
   <separator name="electronic startup" >
    <i type="int" name="ISTART">     0</i>
    <i type="int" name="ICHARG">     2</i>
    <i type="int" name="INIWAV">     1</i>
   </separator>
   <separator name="electronic spin" >
    <i type="int" name="ISPIN">     1</i>
    <i type="logical" name="LNONCOLLINEAR"> F  </i>
    <v name="MAGMOM">      1.00000000      1.00000000      1.00000000      1.00000000      1.00000000      1.00000000      1.00000000      1.00000000      1.00000000      1.00000000      1.00000000      1.00000000      1.00000000      1.00000000      1.00000000      1.00000000      1.00000000      1.00000000      1.00000000      1.00000000
      1.00000000      1.00000000      1.00000000      1.00000000      1.00000000      1.00000000      1.00000000</v>
    <i name="NUPDOWN">     -1.00000000</i>
    <i type="logical" name="LSORBIT"> F  </i>
    <v name="SAXIS">      0.00000000      0.00000000      1.00000000</v>
    <i type="logical" name="LSPIRAL"> F  </i>
    <v name="QSPIRAL">      0.00000000      0.00000000      0.00000000</v>
    <i type="logical" name="LZEROZ"> F  </i>
   </separator>
   <separator name="electronic exchange-correlation" >
    <i type="logical" name="LASPH"> F  </i>
    <i type="logical" name="LMETAGGA"> F  </i>
   </separator>
   <separator name="electronic convergence" >
    <i type="int" name="NELM">    60</i>
    <i type="int" name="NELMDL">    -5</i>
    <i type="int" name="NELMIN">     2</i>
    <i name="ENINI">    280.00000000</i>
    <separator name="electronic convergence detail" >
     <i type="logical" name="LDIAG"> T  </i>
     <i type="logical" name="LSUBROT"> F  </i>
     <i name="WEIMIN">      0.00100000</i>
     <i name="EBREAK">      0.00000021</i>
     <i name="DEPER">      0.30000000</i>
     <i type="int" name="NRMM">     4</i>
     <i name="TIME">      0.40000000</i>
    </separator>
   </separator>
   <separator name="electronic mixer" >
    <i name="AMIX">      0.40000000</i>
    <i name="BMIX">      1.00000000</i>
    <i name="AMIN">      0.10000000</i>
    <i name="AMIX_MAG">      1.60000000</i>
    <i name="BMIX_MAG">      1.00000000</i>
    <separator name="electronic mixer details" >
     <i type="int" name="IMIX">     4</i>
     <i type="logical" name="MIXFIRST"> F  </i>
     <i type="int" name="MAXMIX">   -45</i>
     <i name="WC">    100.00000000</i>
     <i type="int" name="INIMIX">     1</i>
     <i type="int" name="MIXPRE">     1</i>
     <i type="int" name="MREMOVE">     5</i>
    </separator>
   </separator>
   <separator name="electronic dipolcorrection" >
    <i type="logical" name="LDIPOL"> F  </i>
    <i type="logical" name="LMONO"> F  </i>
    <i type="int" name="IDIPOL">     0</i>
    <i name="EPSILON">      1.00000000</i>
    <v name="DIPOL">   -100.00000000   -100.00000000   -100.00000000</v>
    <i name="EFIELD">      0.00000000</i>
   </separator>
  </separator>
  <separator name="grids" >
   <i type="int" name="NGX">    42</i>
   <i type="int" name="NGY">    42</i>
   <i type="int" name="NGZ">   126</i>
   <i type="int" name="NGXF">    84</i>
   <i type="int" name="NGYF">    84</i>
   <i type="int" name="NGZF">   252</i>
   <i type="logical" name="ADDGRID"> F  </i>
  </separator>
  <separator name="ionic" >
   <i type="int" name="NSW">   100</i>
   <i type="int" name="IBRION">     1</i>
   <i type="int" name="ISIF">     3</i>
   <i name="PSTRESS">      0.00000000</i>
   <i name="EDIFFG">      0.00100000</i>
   <i type="int" name="NFREE">     0</i>
   <i name="POTIM">      0.50000000</i>
   <i name="SMASS">     -3.00000000</i>
   <i name="SCALEE">      1.00000000</i>
  </separator>
  <separator name="ionic md" >
   <i name="TEBEG">      0.00010000</i>
   <i name="TEEND">      0.00010000</i>
   <i type="int" name="NBLOCK">     1</i>
   <i type="int" name="KBLOCK">   100</i>
   <i type="int" name="NPACO">   256</i>
   <i name="APACO">     16.00000000</i>
  </separator>
  <separator name="symmetry" >
   <i type="int" name="ISYM">     0</i>
   <i name="SYMPREC">      0.00000001</i>
  </separator>
  <separator name="dos" >
   <i type="logical" name="LORBIT"> F  </i>
   <v name="RWIGS">     -1.00000000     -1.00000000     -1.00000000     -1.00000000</v>
   <i type="int" name="NEDOS">   301</i>
   <i name="EMIN">     10.00000000</i>
   <i name="EMAX">    -10.00000000</i>
   <i name="EFERMI">      0.00000000</i>
  </separator>
  <separator name="writing" >
   <i type="int" name="NWRITE">     2</i>
   <i type="logical" name="LWAVE"> F  </i>
   <i type="logical" name="LCHARG"> F  </i>
   <i type="logical" name="LPARD"> F  </i>
   <i type="logical" name="LVTOT"> F  </i>
   <i type="logical" name="LVHAR"> F  </i>
   <i type="logical" name="LELF"> F  </i>
   <i type="logical" name="LOPTICS"> F  </i>
   <v name="STM">      0.00000000      0.00000000      0.00000000      0.00000000      0.00000000      0.00000000      0.00000000</v>
  </separator>
  <separator name="performance" >
   <i type="int" name="NPAR">    40</i>
   <i type="int" name="NSIM">     4</i>
   <i type="int" name="NBLK">    -1</i>
   <i type="logical" name="LPLANE"> F  </i>
   <i type="logical" name="LSCALAPACK"> T  </i>
   <i type="logical" name="LSCAAWARE"> F  </i>
   <i type="logical" name="LSCALU"> F  </i>
   <i type="logical" name="LASYNC"> F  </i>
   <i type="logical" name="LORBITALREAL"> F  </i>
  </separator>
  <separator name="miscellaneous" >
   <i type="int" name="IDIOT">     3</i>
   <i type="logical" name="LMUSIC"> F  </i>
   <v name="POMASS">     50.94100000     95.94000000    183.85000000     32.06600000</v>
   <v name="DARWINR">      0.00000000      0.00000000      0.00000000      0.00000000</v>
   <v name="DARWINV">      1.00000000      1.00000000      1.00000000      1.00000000</v>
   <i type="logical" name="LCORR"> T  </i>
  </separator>
  <i type="logical" name="GGA_COMPAT"> T  </i>
  <i type="logical" name="LBERRY"> F  </i>
  <i type="int" name="ICORELEVEL">     0</i>
  <i type="logical" name="LDAU"> F  </i>
  <i type="int" name="I_CONSTRAINED_M">     0</i>
  <separator name="electronic exchange-correlation" >
   <i type="string" name="GGA">--</i>
   <i type="int" name="VOSKOWN">     0</i>
   <i type="logical" name="LHFCALC"> F  </i>
   <i type="string" name="PRECFOCK"></i>
   <i type="logical" name="LSYMGRAD"> F  </i>
   <i type="logical" name="LHFONE"> F  </i>
   <i type="logical" name="LRHFCALC"> F  </i>
   <i type="logical" name="LTHOMAS"> F  </i>
   <i type="logical" name="LMODELHF"> F  </i>
   <i name="ENCUT4O">     -1.00000000</i>
   <i type="int" name="EXXOEP">     0</i>
   <i type="int" name="FOURORBIT">     0</i>
   <i name="AEXX">      0.00000000</i>
   <i name="HFALPHA">      0.00000000</i>
   <i name="MCALPHA">      0.00000000</i>
   <i name="ALDAX">      1.00000000</i>
   <i name="AGGAX">      1.00000000</i>
   <i name="ALDAC">      1.00000000</i>
   <i name="AGGAC">      1.00000000</i>
   <i type="int" name="NKREDX">     1</i>
   <i type="int" name="NKREDY">     1</i>
   <i type="int" name="NKREDZ">     1</i>
   <i type="logical" name="SHIFTRED"> F  </i>
   <i type="logical" name="ODDONLY"> F  </i>
   <i type="logical" name="EVENONLY"> F  </i>
   <i type="int" name="LMAXFOCK">     0</i>
   <i type="int" name="NMAXFOCKAE">     0</i>
   <i type="logical" name="LFOCKAEDFT"> F  </i>
   <i name="HFSCREEN">      0.00000000</i>
   <i name="HFSCREENC">      0.00000000</i>
   <i type="int" name="NBANDSGWLOW">     0</i>
  </separator>
  <separator name="vdW DFT" >
   <i type="logical" name="LUSE_VDW"> F  </i>
   <i name="Zab_VDW">     -0.84910000</i>
   <i name="PARAM1">      0.12340000</i>
   <i name="PARAM2">      1.00000000</i>
   <i name="PARAM3">      0.00000000</i>
  </separator>
  <separator name="model GW" >
   <i type="int" name="MODEL_GW">     0</i>
   <i name="MODEL_EPS0">     58.26239943</i>
   <i name="MODEL_ALPHA">      1.00000000</i>
  </separator>
  <separator name="linear response parameters" >
   <i type="logical" name="LEPSILON"> F  </i>
   <i type="logical" name="LRPA"> F  </i>
   <i type="logical" name="LNABLA"> F  </i>
   <i type="logical" name="LVEL"> F  </i>
   <i type="int" name="KINTER">     0</i>
   <i name="CSHIFT">      0.10000000</i>
   <i name="OMEGAMAX">     -1.00000000</i>
   <i name="DEG_THRESHOLD">      0.00200000</i>
  </separator>
  <separator name="orbital magnetization" >
   <i type="logical" name="NUCIND"> F  </i>
   <v name="MAGPOS">      0.00000000      0.00000000      0.00000000</v>
   <i type="logical" name="LNICSALL"> T  </i>
   <i type="logical" name="ORBITALMAG"> F  </i>
   <i type="logical" name="LMAGBLOCH"> F  </i>
   <i type="logical" name="LCHIMAG"> F  </i>
   <i type="logical" name="LGAUGE"> T  </i>
   <i type="int" name="MAGATOM">     0</i>
   <v name="MAGDIPOL">      0.00000000      0.00000000      0.00000000</v>
   <v name="AVECCONST">      0.00000000      0.00000000      0.00000000</v>
  </separator>
  <separator name="response functions" >
   <i type="logical" name="LADDER"> F  </i>
   <i type="logical" name="LFXC"> F  </i>
   <i type="logical" name="LHARTREE"> T  </i>
   <i type="int" name="IBSE">     0</i>
   <v type="int" name="KPOINT">    -1     0     0     0</v>
   <i type="logical" name="LTCTE"> F  </i>
   <i type="logical" name="LTETE"> F  </i>
   <i type="logical" name="LTRIPLET"> F  </i>
   <i type="logical" name="LFXCEPS"> F  </i>
   <i type="logical" name="LFXHEG"> F  </i>
   <i type="int" name="NATURALO">     0</i>
   <i type="logical" name="L2ORDER"> F  </i>
   <i type="logical" name="LUSEW"> F  </i>
   <i name="ENCUTGW">     -2.00000000</i>
   <i name="ENCUTGWSOFT">     -2.00000000</i>
   <i name="ENCUTLF">     -1.00000000</i>
   <i type="int" name="LMAXMP2">    -1</i>
   <i name="SCISSOR">      0.00000000</i>
   <i type="int" name="NOMEGA">     0</i>
   <i type="int" name="NOMEGAR">     0</i>
   <i type="int" name="NBANDSGW">    -1</i>
   <i type="int" name="NBANDSO">    -1</i>
   <i type="int" name="NBANDSV">    -1</i>
   <i type="int" name="NELM">     1</i>
   <i type="int" name="NELMHF">     1</i>
   <i type="int" name="DIM">     3</i>
   <i type="int" name="ANTIRES">     0</i>
   <i name="OMEGAMAX">    -30.00000000</i>
   <i name="OMEGAMIN">    -30.00000000</i>
   <i name="OMEGATL">   -200.00000000</i>
   <i type="int" name="OMEGAGRID">     0</i>
   <i name="CSHIFT">     -0.10000000</i>
   <i type="logical" name="SELFENERGY"> F  </i>
   <i type="logical" name="LSPECTRAL"> F  </i>
   <i type="logical" name="LSPECTRALGW"> F  </i>
   <i type="logical" name="LSINGLES"> F  </i>
   <i type="logical" name="LFERMIGW"> F  </i>
   <i type="logical" name="ODDONLYGW"> F  </i>
   <i type="logical" name="EVENONLYGW"> F  </i>
   <i type="int" name="NKREDLFX">     1</i>
   <i type="int" name="NKREDLFY">     1</i>
   <i type="int" name="NKREDLFZ">     1</i>
   <i type="int" name="MAXMEM">  1800</i>
   <i type="int" name="TELESCOPE">     0</i>
   <i type="int" name="TAUPAR">     1</i>
   <i type="int" name="OMEGAPAR">    -1</i>
   <i name="LAMBDA">      1.00000000</i>
  </separator>
  <separator name="External order field" >
   <i name="OFIELD_KAPPA">      0.00000000</i>
   <v name="OFIELD_K">      0.00000000      0.00000000      0.00000000</v>
   <i name="OFIELD_Q6_NEAR">      0.00000000</i>
   <i name="OFIELD_Q6_FAR">      0.00000000</i>
   <i name="OFIELD_A">      0.00000000</i>
  </separator>
 </parameters>
 <atominfo>
  <atoms>      27 </atoms>
  <types>       4 </types>
  <array name="atoms" >
   <dimension dim="1">ion</dimension>
   <field type="string">element</field>
   <field type="int">atomtype</field>
   <set>
    <rc><c>V </c><c>   1</c></rc>
    <rc><c>V </c><c>   1</c></rc>
    <rc><c>V </c><c>   1</c></rc>
    <rc><c>Mo</c><c>   2</c></rc>
    <rc><c>Mo</c><c>   2</c></rc>
    <rc><c>Mo</c><c>   2</c></rc>
    <rc><c>W </c><c>   3</c></rc>
    <rc><c>W </c><c>   3</c></rc>
    <rc><c>W </c><c>   3</c></rc>
    <rc><c>S </c><c>   4</c></rc>
    <rc><c>S </c><c>   4</c></rc>
    <rc><c>S </c><c>   4</c></rc>
    <rc><c>S </c><c>   4</c></rc>
    <rc><c>S </c><c>   4</c></rc>
    <rc><c>S </c><c>   4</c></rc>
    <rc><c>S </c><c>   4</c></rc>
    <rc><c>S </c><c>   4</c></rc>
    <rc><c>S </c><c>   4</c></rc>
    <rc><c>S </c><c>   4</c></rc>
    <rc><c>S </c><c>   4</c></rc>
    <rc><c>S </c><c>   4</c></rc>
    <rc><c>S </c><c>   4</c></rc>
    <rc><c>S </c><c>   4</c></rc>
    <rc><c>S </c><c>   4</c></rc>
    <rc><c>S </c><c>   4</c></rc>
    <rc><c>S </c><c>   4</c></rc>
    <rc><c>S </c><c>   4</c></rc>
   </set>
  </array>
  <array name="atomtypes" >
   <dimension dim="1">type</dimension>
   <field type="int">atomspertype</field>
   <field type="string">element</field>
   <field>mass</field>
   <field>valence</field>
   <field type="string">pseudopotential</field>
   <set>
    <rc><c>   3</c><c>V </c><c>     50.94100000</c><c>      5.00000000</c><c> PAW_PBE V 08Apr2002                    </c></rc>
    <rc><c>   3</c><c>Mo</c><c>     95.94000000</c><c>      6.00000000</c><c> PAW_PBE Mo 08Apr2002                   </c></rc>
    <rc><c>   3</c><c>W </c><c>    183.85000000</c><c>      6.00000000</c><c> PAW_PBE W 08Apr2002                    </c></rc>
    <rc><c>  18</c><c>S </c><c>     32.06600000</c><c>      6.00000000</c><c>  PAW_PBE S 17Jan2003                   </c></rc>
   </set>
  </array>
 </atominfo>
 <structure name="initialpos" >
  <crystal>
   <varray name="basis" >
    <v>       8.66999996       5.03999989       0.00000000 </v>
    <v>      -8.66999982       5.04000013       0.00000000 </v>
    <v>       0.00000000       0.00000000      30.00000000 </v>
   </varray>
   <i name="volume">   2621.80797419 </i>
   <varray name="rec_basis" >
    <v>       0.05767013       0.09920635       0.00000000 </v>
    <v>      -0.05767013       0.09920635       0.00000000 </v>
    <v>       0.00000000       0.00000000       0.03333333 </v>
   </varray>
  </crystal>
  <varray name="positions" >
   <v>       0.33333334       0.66666669       0.00000000 </v>
   <v>       0.33333334       0.00000000       0.00000000 </v>
   <v>       0.66666669       0.66666669       0.00000000 </v>
   <v>       0.66666669       0.33333334       0.00000000 </v>
   <v>       0.00000000       0.66666669       0.00000000 </v>
   <v>       1.00000000       0.33333334       0.00000000 </v>
   <v>       0.00000000       0.00000000       0.00000000 </v>
   <v>       0.33333334       0.33333334       0.00000000 </v>
   <v>       0.66666669       0.00000000       0.00000000 </v>
   <v>       0.11068511       0.22244981       0.95539999 </v>
   <v>       0.22244981       0.11068511       0.04460000 </v>
   <v>       0.11068511       0.55578315       0.95539999 </v>
   <v>       0.22244981       0.44401845       0.04460000 </v>
   <v>       0.11068511       0.88911647       0.95539999 </v>
   <v>       0.22244981       0.77735180       0.04460000 </v>
   <v>       0.44401845       0.22244981       0.95539999 </v>
   <v>       0.55578315       0.11068511       0.04460000 </v>
   <v>       0.44401845       0.55578315       0.95539999 </v>
   <v>       0.55578315       0.44401845       0.04460000 </v>
   <v>       0.44401845       0.88911647       0.95539999 </v>
   <v>       0.55578315       0.77735180       0.04460000 </v>
   <v>       0.77735180       0.22244981       0.95539999 </v>
   <v>       0.88911647       0.11068511       0.04460000 </v>
   <v>       0.77735180       0.55578315       0.95539999 </v>
   <v>       0.88911647       0.44401845       0.04460000 </v>
   <v>       0.77735180       0.88911647       0.95539999 </v>
   <v>       0.88911647       0.77735180       0.04460000 </v>
  </varray>
 </structure>
 <calculation>
  <scstep>
   <time name="dav">   21.67   21.73</time>
   <time name="total">   21.72   21.78</time>
   <energy>
    <i name="alphaZ">     81.65567618 </i>
    <i name="ewald">  41890.25210247 </i>
    <i name="hartreedc"> -47722.88013598 </i>
    <i name="XCdc">   -242.92958172 </i>
    <i name="pawpsdc">   3467.42045192 </i>
    <i name="pawaedc">  -2871.19716117 </i>
    <i name="eentropy">     -0.54914408 </i>
    <i name="bandstr">   -238.88059341 </i>
    <i name="atom">   6761.44252427 </i>
    <i name="e_fr_energy">   1124.33413848 </i>
    <i name="e_wo_entrp">   1124.88328256 </i>
    <i name="e_0_energy">   1124.60871052 </i>
   </energy>
  </scstep>
  <scstep>
   <time name="dav">   27.60   27.67</time>
   <time name="total">   27.60   27.68</time>
   <energy>
    <i name="e_fr_energy">     -0.48210849 </i>
    <i name="e_wo_entrp">     -0.31201476 </i>
    <i name="e_0_energy">     -0.39706162 </i>
   </energy>
  </scstep>
  <scstep>
   <time name="dav">   27.56   27.63</time>
   <time name="total">   27.56   27.63</time>
   <energy>
    <i name="e_fr_energy">   -199.75413138 </i>
    <i name="e_wo_entrp">   -199.48285948 </i>
    <i name="e_0_energy">   -199.61849543 </i>
   </energy>
  </scstep>
  <scstep>
   <time name="dav">   29.49   29.56</time>
   <time name="total">   29.49   29.56</time>
   <energy>
    <i name="e_fr_energy">   -208.92054537 </i>
    <i name="e_wo_entrp">   -208.61084316 </i>
    <i name="e_0_energy">   -208.76569427 </i>
   </energy>
  </scstep>
  <scstep>
   <time name="dav">   28.17   28.24</time>
   <time name="total">   28.63   28.71</time>
   <energy>
    <i name="e_fr_energy">   -209.24571837 </i>
    <i name="e_wo_entrp">   -208.93923423 </i>
    <i name="e_0_energy">   -209.09247630 </i>
   </energy>
  </scstep>
  <scstep>
   <time name="dav">   31.06   31.14</time>
   <time name="total">   31.56   31.64</time>
   <energy>
    <i name="e_fr_energy">   -236.61749440 </i>
    <i name="e_wo_entrp">   -236.34309384 </i>
    <i name="e_0_energy">   -236.48029412 </i>
   </energy>
  </scstep>
  <scstep>
   <time name="dav">   32.01   32.09</time>
   <time name="total">   32.51   32.60</time>
   <energy>
    <i name="e_fr_energy">   -196.78486730 </i>
    <i name="e_wo_entrp">   -196.44544375 </i>
    <i name="e_0_energy">   -196.61515553 </i>
   </energy>
  </scstep>
  <scstep>
   <time name="dav">   28.91   28.98</time>
   <time name="total">   29.43   29.50</time>
   <energy>
    <i name="e_fr_energy">   -190.23221079 </i>
    <i name="e_wo_entrp">   -189.96441398 </i>
    <i name="e_0_energy">   -190.09831238 </i>
   </energy>
  </scstep>
  <scstep>
   <time name="dav">   29.58   29.65</time>
   <time name="total">   30.10   30.18</time>
   <energy>
    <i name="e_fr_energy">   -188.31325509 </i>
    <i name="e_wo_entrp">   -187.98324574 </i>
    <i name="e_0_energy">   -188.14825041 </i>
   </energy>
  </scstep>
  <scstep>
   <time name="dav">   32.38   32.45</time>
   <time name="total">   32.91   32.99</time>
   <energy>
    <i name="e_fr_energy">   -187.16411572 </i>
    <i name="e_wo_entrp">   -186.82232268 </i>
    <i name="e_0_energy">   -186.99321920 </i>
   </energy>
  </scstep>
  <scstep>
   <time name="dav">   30.66   30.74</time>
   <time name="total">   31.19   31.27</time>
   <energy>
    <i name="e_fr_energy">   -187.00290528 </i>
    <i name="e_wo_entrp">   -186.65432411 </i>
    <i name="e_0_energy">   -186.82861469 </i>
   </energy>
  </scstep>
  <scstep>
   <time name="dav">   32.16   32.23</time>
   <time name="total">   32.69   32.77</time>
   <energy>
    <i name="e_fr_energy">   -187.10037206 </i>
    <i name="e_wo_entrp">   -186.76791768 </i>
    <i name="e_0_energy">   -186.93414487 </i>
   </energy>
  </scstep>
  <scstep>
   <time name="dav">   32.04   32.11</time>
   <time name="total">   32.57   32.66</time>
   <energy>
    <i name="e_fr_energy">   -186.94056317 </i>
    <i name="e_wo_entrp">   -186.60541557 </i>
    <i name="e_0_energy">   -186.77298937 </i>
   </energy>
  </scstep>
  <scstep>
   <time name="dav">   31.85   31.92</time>
   <time name="total">   32.38   32.47</time>
   <energy>
    <i name="e_fr_energy">   -186.90083101 </i>
    <i name="e_wo_entrp">   -186.56008964 </i>
    <i name="e_0_energy">   -186.73046033 </i>
   </energy>
  </scstep>
  <scstep>
   <time name="dav">   31.33   31.40</time>
   <time name="total">   31.86   31.94</time>
   <energy>
    <i name="e_fr_energy">   -186.89823632 </i>
    <i name="e_wo_entrp">   -186.55501510 </i>
    <i name="e_0_energy">   -186.72662571 </i>
   </energy>
  </scstep>
  <scstep>
   <time name="dav">   31.71   31.79</time>
   <time name="total">   32.24   32.33</time>
   <energy>
    <i name="e_fr_energy">   -186.89183296 </i>
    <i name="e_wo_entrp">   -186.54859824 </i>
    <i name="e_0_energy">   -186.72021560 </i>
   </energy>
  </scstep>
  <scstep>
   <time name="dav">   31.74   31.81</time>
   <time name="total">   32.27   32.35</time>
   <energy>
    <i name="e_fr_energy">   -186.88937944 </i>
    <i name="e_wo_entrp">   -186.54721008 </i>
    <i name="e_0_energy">   -186.71829476 </i>
   </energy>
  </scstep>
  <scstep>
   <time name="dav">   31.20   31.28</time>
   <time name="total">   31.74   31.82</time>
   <energy>
    <i name="e_fr_energy">   -186.88840940 </i>
    <i name="e_wo_entrp">   -186.54735853 </i>
    <i name="e_0_energy">   -186.71788397 </i>
   </energy>
  </scstep>
  <scstep>
   <time name="dav">   28.69   28.76</time>
   <time name="total">   29.22   29.30</time>
   <energy>
    <i name="e_fr_energy">   -186.88805554 </i>
    <i name="e_wo_entrp">   -186.54636528 </i>
    <i name="e_0_energy">   -186.71721041 </i>
   </energy>
  </scstep>
  <scstep>
   <time name="dav">   23.42   23.47</time>
   <time name="total">   23.95   24.02</time>
   <energy>
    <i name="e_fr_energy">   -186.88880713 </i>
    <i name="e_wo_entrp">   -186.54745225 </i>
    <i name="e_0_energy">   -186.71812969 </i>
   </energy>
  </scstep>
  <scstep>
   <time name="dav">   21.66   21.71</time>
   <time name="total">   22.19   22.25</time>
   <energy>
    <i name="e_fr_energy">   -186.88936371 </i>
    <i name="e_wo_entrp">   -186.54794668 </i>
    <i name="e_0_energy">   -186.71865520 </i>
   </energy>
  </scstep>
  <scstep>
   <time name="dav">   20.20   20.25</time>
   <time name="total">   20.73   20.79</time>
   <energy>
    <i name="e_fr_energy">   -186.89052640 </i>
    <i name="e_wo_entrp">   -186.54907542 </i>
    <i name="e_0_energy">   -186.71980091 </i>
   </energy>
  </scstep>
  <scstep>
   <time name="dav">   20.20   20.25</time>
   <time name="total">   20.73   20.79</time>
   <energy>
    <i name="e_fr_energy">   -186.89175019 </i>
    <i name="e_wo_entrp">   -186.55040319 </i>
    <i name="e_0_energy">   -186.72107669 </i>
   </energy>
  </scstep>
  <scstep>
   <time name="dav">   18.75   18.79</time>
   <time name="total">   19.28   19.34</time>
   <energy>
    <i name="e_fr_energy">   -186.89234354 </i>
    <i name="e_wo_entrp">   -186.55096474 </i>
    <i name="e_0_energy">   -186.72165414 </i>
   </energy>
  </scstep>
  <scstep>
   <time name="dav">   16.17   16.21</time>
   <time name="total">   16.70   16.75</time>
   <energy>
    <i name="e_fr_energy">   -186.89272935 </i>
    <i name="e_wo_entrp">   -186.55131535 </i>
    <i name="e_0_energy">   -186.72202235 </i>
   </energy>
  </scstep>
  <scstep>
   <time name="dav">   18.82   18.86</time>
   <time name="total">   19.35   19.40</time>
   <energy>
    <i name="e_fr_energy">   -186.89296982 </i>
    <i name="e_wo_entrp">   -186.55157127 </i>
    <i name="e_0_energy">   -186.72227054 </i>
   </energy>
  </scstep>
  <scstep>
   <time name="dav">   19.80   19.85</time>
   <time name="total">   19.84   19.89</time>
   <energy>
    <i name="alphaZ">     81.65567618 </i>
    <i name="ewald">  41890.25210247 </i>
    <i name="hartreedc"> -47833.19591593 </i>
    <i name="XCdc">   -231.59883910 </i>
    <i name="pawpsdc">   4192.18591361 </i>
    <i name="pawaedc">  -3610.21002838 </i>
    <i name="eentropy">     -0.34139899 </i>
    <i name="bandstr">  -1437.08310363 </i>
    <i name="atom">   6761.44252427 </i>
    <i name="e_fr_energy">   -186.89306950 </i>
    <i name="e_wo_entrp">   -186.55167051 </i>
    <i name="e_0_energy">   -186.72237000 </i>
   </energy>
  </scstep>
  <structure>
   <crystal>
    <varray name="basis" >
     <v>       8.66999996       5.03999989       0.00000000 </v>
     <v>      -8.66999982       5.04000013       0.00000000 </v>
     <v>       0.00000000       0.00000000      30.00000000 </v>
    </varray>
    <i name="volume">   2621.80797419 </i>
    <varray name="rec_basis" >
     <v>       0.05767013       0.09920635       0.00000000 </v>
     <v>      -0.05767013       0.09920635       0.00000000 </v>
     <v>       0.00000000       0.00000000       0.03333333 </v>
    </varray>
   </crystal>
   <varray name="positions" >
    <v>       0.33333334       0.66666669       0.00000000 </v>
    <v>       0.33333334       0.00000000       0.00000000 </v>
    <v>       0.66666669       0.66666669       0.00000000 </v>
    <v>       0.66666669       0.33333334       0.00000000 </v>
    <v>       0.00000000       0.66666669       0.00000000 </v>
    <v>       1.00000000       0.33333334       0.00000000 </v>
    <v>       0.00000000       0.00000000       0.00000000 </v>
    <v>       0.33333334       0.33333334       0.00000000 </v>
    <v>       0.66666669       0.00000000       0.00000000 </v>
    <v>       0.11068511       0.22244981       0.95539999 </v>
    <v>       0.22244981       0.11068511       0.04460000 </v>
    <v>       0.11068511       0.55578315       0.95539999 </v>
    <v>       0.22244981       0.44401845       0.04460000 </v>
    <v>       0.11068511       0.88911647       0.95539999 </v>
    <v>       0.22244981       0.77735180       0.04460000 </v>
    <v>       0.44401845       0.22244981       0.95539999 </v>
    <v>       0.55578315       0.11068511       0.04460000 </v>
    <v>       0.44401845       0.55578315       0.95539999 </v>
    <v>       0.55578315       0.44401845       0.04460000 </v>
    <v>       0.44401845       0.88911647       0.95539999 </v>
    <v>       0.55578315       0.77735180       0.04460000 </v>
    <v>       0.77735180       0.22244981       0.95539999 </v>
    <v>       0.88911647       0.11068511       0.04460000 </v>
    <v>       0.77735180       0.55578315       0.95539999 </v>
    <v>       0.88911647       0.44401845       0.04460000 </v>
    <v>       0.77735180       0.88911647       0.95539999 </v>
    <v>       0.88911647       0.77735180       0.04460000 </v>
   </varray>
  </structure>
  <varray name="forces" >
   <v>      -0.22264221      -0.27042113       0.04602987 </v>
   <v>       0.05722027      -0.04218120       0.08646382 </v>
   <v>       0.35196899      -0.03149974      -0.06767023 </v>
   <v>       0.26850423       0.44729748      -0.13932905 </v>
   <v>       0.29277823      -0.40198156      -0.00238618 </v>
   <v>      -0.53361746      -0.02468303      -0.01807347 </v>
   <v>       0.05111428      -0.02603053       0.09012621 </v>
   <v>      -0.01545320       0.09576894      -0.05275564 </v>
   <v>      -0.28293194       0.29318447       0.05962158 </v>
   <v>       0.24835301       0.00801021      -2.85068938 </v>
   <v>       0.62465093      -0.01830370       2.17485941 </v>
   <v>       0.52724641       0.69072142      -2.17417743 </v>
   <v>      -0.36204145       0.68177184       2.14672547 </v>
   <v>       0.37080670       0.69470775      -2.12016248 </v>
   <v>       0.32390933       0.68761594       1.42541848 </v>
   <v>       0.36374715      -0.68422227      -2.11233090 </v>
   <v>      -0.36653922      -0.73325015       2.15666155 </v>
   <v>      -0.22010281       0.52922199      -1.43891952 </v>
   <v>      -0.61967367       0.53887604       2.13012377 </v>
   <v>      -0.23484629      -0.52664558      -1.41243154 </v>
   <v>       0.23780275      -0.51692094       1.35789304 </v>
   <v>       0.19279500      -0.14149708      -2.93821886 </v>
   <v>      -0.03298200      -0.11068096       2.90813160 </v>
   <v>      -0.76934834      -0.01769259      -2.14922499 </v>
   <v>      -0.10703934       0.01500951       2.94169387 </v>
   <v>       0.48100574      -0.60404994      -2.17832074 </v>
   <v>      -0.62468507      -0.53212517       2.13094173 </v>
  </varray>
  <varray name="stress" >
   <v>       7.27237945       0.05143331      -1.53929371 </v>
   <v>       0.05143311       4.50809791       0.05186758 </v>
   <v>      -1.53929358       0.05186765      30.27128393 </v>
  </varray>
  <energy>
   <i name="e_fr_energy">   -186.89306950 </i>
   <i name="e_wo_entrp">   -186.72237000 </i>
   <i name="e_0_energy">     -0.34139899 </i>
  </energy>
  <time name="totalsc">  782.19  784.27</time>
 </calculation>
 <calculation>
  <scstep>
   <time name="dav">   21.57   21.62</time>
   <time name="total">   22.12   22.17</time>
   <energy>
    <i name="alphaZ">     78.91535534 </i>
    <i name="ewald">  39377.60239053 </i>
    <i name="hartreedc"> -45335.15842550 </i>
    <i name="XCdc">   -239.05670632 </i>
    <i name="pawpsdc">   4192.16233151 </i>
    <i name="pawaedc">  -3610.18680066 </i>
    <i name="eentropy">     -0.28154339 </i>
    <i name="bandstr">  -1412.97257399 </i>
    <i name="atom">   6761.44252427 </i>
    <i name="e_fr_energy">   -187.53344822 </i>
    <i name="e_wo_entrp">   -187.25190483 </i>
    <i name="e_0_energy">   -187.39267652 </i>
   </energy>
  </scstep>
  <scstep>
   <time name="dav">   30.13   30.20</time>
   <time name="total">   30.66   30.74</time>
   <energy>
    <i name="e_fr_energy">   -189.42791693 </i>
    <i name="e_wo_entrp">   -189.10246764 </i>
    <i name="e_0_energy">   -189.26519228 </i>
   </energy>
  </scstep>
  <scstep>
   <time name="dav">   30.26   30.33</time>
   <time name="total">   30.81   30.89</time>
   <energy>
    <i name="e_fr_energy">   -189.39519925 </i>
    <i name="e_wo_entrp">   -189.12206548 </i>
    <i name="e_0_energy">   -189.25863237 </i>
   </energy>
  </scstep>
  <scstep>
   <time name="dav">   30.37   30.44</time>
   <time name="total">   30.91   30.99</time>
   <energy>
    <i name="e_fr_energy">   -188.78801903 </i>
    <i name="e_wo_entrp">   -188.50768769 </i>
    <i name="e_0_energy">   -188.64785336 </i>
   </energy>
  </scstep>
  <scstep>
   <time name="dav">   29.57   29.64</time>
   <time name="total">   30.11   30.19</time>
   <energy>
    <i name="e_fr_energy">   -188.89550638 </i>
    <i name="e_wo_entrp">   -188.60560498 </i>
    <i name="e_0_energy">   -188.75055568 </i>
   </energy>
  </scstep>
  <scstep>
   <time name="dav">   31.08   31.16</time>
   <time name="total">   31.63   31.71</time>
   <energy>
    <i name="e_fr_energy">   -188.75274680 </i>
    <i name="e_wo_entrp">   -188.47467842 </i>
    <i name="e_0_energy">   -188.61371261 </i>
   </energy>
  </scstep>
  <scstep>
   <time name="dav">   29.08   29.15</time>
   <time name="total">   29.63   29.71</time>
   <energy>
    <i name="e_fr_energy">   -188.72264205 </i>
    <i name="e_wo_entrp">   -188.44206952 </i>
    <i name="e_0_energy">   -188.58235579 </i>
   </energy>
  </scstep>
  <scstep>
   <time name="dav">   32.06   32.13</time>
   <time name="total">   32.60   32.68</time>
   <energy>
    <i name="e_fr_energy">   -188.71180765 </i>
    <i name="e_wo_entrp">   -188.43288266 </i>
    <i name="e_0_energy">   -188.57234515 </i>
   </energy>
  </scstep>
  <scstep>
   <time name="dav">   29.19   29.26</time>
   <time name="total">   29.73   29.81</time>
   <energy>
    <i name="e_fr_energy">   -188.70194603 </i>
    <i name="e_wo_entrp">   -188.42322286 </i>
    <i name="e_0_energy">   -188.56258445 </i>
   </energy>
  </scstep>
  <scstep>
   <time name="dav">   28.91   28.98</time>
   <time name="total">   29.45   29.53</time>
   <energy>
    <i name="e_fr_energy">   -188.70131188 </i>
    <i name="e_wo_entrp">   -188.42305259 </i>
    <i name="e_0_energy">   -188.56218223 </i>
   </energy>
  </scstep>
  <scstep>
   <time name="dav">   30.31   30.38</time>
   <time name="total">   30.86   30.94</time>
   <energy>
    <i name="e_fr_energy">   -188.70073462 </i>
    <i name="e_wo_entrp">   -188.42264583 </i>
    <i name="e_0_energy">   -188.56169023 </i>
   </energy>
  </scstep>
  <scstep>
   <time name="dav">   28.20   28.27</time>
   <time name="total">   28.75   28.82</time>
   <energy>
    <i name="e_fr_energy">   -188.70085351 </i>
    <i name="e_wo_entrp">   -188.42287149 </i>
    <i name="e_0_energy">   -188.56186250 </i>
   </energy>
  </scstep>
  <scstep>
   <time name="dav">   21.36   21.41</time>
   <time name="total">   21.39   21.45</time>
   <energy>
    <i name="alphaZ">     78.91535534 </i>
    <i name="ewald">  39377.60239053 </i>
    <i name="hartreedc"> -45345.90034525 </i>
    <i name="XCdc">   -237.96857020 </i>
    <i name="pawpsdc">   3950.58720726 </i>
    <i name="pawaedc">  -3365.10855347 </i>
    <i name="eentropy">     -0.27807006 </i>
    <i name="bandstr">  -1407.99272414 </i>
    <i name="atom">   6761.44252427 </i>
    <i name="e_fr_energy">   -188.70078573 </i>
    <i name="e_wo_entrp">   -188.42271567 </i>
    <i name="e_0_energy">   -188.56175070 </i>
   </energy>
  </scstep>
  <structure>
   <crystal>
    <varray name="basis" >
     <v>       8.85511223       5.10773638       0.00000000 </v>
     <v>      -8.85359623       5.10512896       0.00000000 </v>
     <v>       0.00000000       0.00000000      30.00000000 </v>
    </varray>
    <i name="volume">   2712.84976174 </i>
    <varray name="rec_basis" >
     <v>       0.05645498       0.09790733       0.00000000 </v>
     <v>      -0.05648381       0.09792410       0.00000000 </v>
     <v>       0.00000000       0.00000000       0.03333333 </v>
    </varray>
   </crystal>
   <varray name="positions" >
    <v>       0.33141969       0.66599188       0.00007402 </v>
    <v>       0.33329066      -0.00036107       0.00013904 </v>
    <v>       0.66749516       0.66553670      -0.00010882 </v>
    <v>       0.66955446       0.33472708      -0.00022405 </v>
    <v>      -0.00110932       0.66392826      -0.00000384 </v>
    <v>       0.99839726       0.33469982      -0.00002906 </v>
    <v>       0.00001763      -0.00026679       0.00014493 </v>
    <v>       0.33374870       0.33383468      -0.00008484 </v>
    <v>       0.66728270       0.00219034       0.00009588 </v>
    <v>       0.11141440       0.22179719       0.95081583 </v>
    <v>       0.22410009       0.10885963       0.04809737 </v>
    <v>       0.11545777       0.55762205       0.95190372 </v>
    <v>       0.22470550       0.44828866       0.04805212 </v>
    <v>       0.11504161       0.89140968       0.95199058 </v>
    <v>       0.22664189       0.77974154       0.04689220 </v>
    <v>       0.44175578       0.21816313       0.95200318 </v>
    <v>       0.55125406       0.10819556       0.04806810 </v>
    <v>       0.44593894       0.55892836       0.95308608 </v>
    <v>       0.55663817       0.44832153       0.04802543 </v>
    <v>       0.44084456       0.88724933       0.95312868 </v>
    <v>       0.55397079       0.77421622       0.04678361 </v>
    <v>       0.77721098       0.22123622       0.95067507 </v>
    <v>       0.88849499       0.11024715       0.04927653 </v>
    <v>       0.77512667       0.55783893       0.95194385 </v>
    <v>       0.88889050       0.44438809       0.04933050 </v>
    <v>       0.77579906       0.88488726       0.95189706 </v>
    <v>       0.88483175       0.77654303       0.04802674 </v>
   </varray>
  </structure>
  <varray name="forces" >
   <v>      -0.14799713      -0.26561109       0.09795421 </v>
   <v>      -0.05277391      -0.03816567      -0.03918573 </v>
   <v>       0.30114463      -0.01985444       0.05390241 </v>
   <v>       0.42039308       0.50433353      -0.03584466 </v>
   <v>       0.27084614      -0.52849957      -0.01139778 </v>
   <v>      -0.54108892      -0.20305112       0.00120397 </v>
   <v>      -0.04006150       0.08049242      -0.05850216 </v>
   <v>       0.00759045      -0.08565685      -0.08184700 </v>
   <v>      -0.18630062       0.50848827       0.10569983 </v>
   <v>       0.09010299      -0.00378069       0.10532126 </v>
   <v>      -0.06870285      -0.00264990       0.00562197 </v>
   <v>       0.01990967       0.07688105      -0.15168545 </v>
   <v>       0.10597212       0.04799110      -0.06351072 </v>
   <v>      -0.09805381       0.04268148       0.16116679 </v>
   <v>       0.01813606       0.02758626      -0.04786737 </v>
   <v>      -0.10751023      -0.04035554       0.13040965 </v>
   <v>       0.10243258      -0.04038004      -0.03014025 </v>
   <v>       0.05522818      -0.06617425       0.11290897 </v>
   <v>      -0.07199764      -0.05616608      -0.08464281 </v>
   <v>       0.06601764       0.07231694       0.15868085 </v>
   <v>      -0.06586990       0.07955308      -0.31610013 </v>
   <v>       0.04370010      -0.09971010      -0.27964005 </v>
   <v>       0.06282617      -0.08071080       0.02838888 </v>
   <v>      -0.04702539      -0.00058660      -0.21625199 </v>
   <v>      -0.00408631      -0.00074711       0.35292952 </v>
   <v>      -0.05795684       0.04396950       0.14730449 </v>
   <v>      -0.07487475       0.04780620      -0.04487671 </v>
  </varray>
  <varray name="stress" >
   <v>     -19.87170947      -0.00210633       0.02540451 </v>
   <v>      -0.00210629     -19.47839724      -0.00517102 </v>
   <v>       0.02540434      -0.00517100      -1.74751268 </v>
  </varray>
  <energy>
   <i name="e_fr_energy">   -188.70078573 </i>
   <i name="e_wo_entrp">   -188.56175070 </i>
   <i name="e_0_energy">     -0.27807006 </i>
  </energy>
  <time name="totalsc">  420.11  421.20</time>
 </calculation>
 <calculation>
  <scstep>
   <time name="dav">   23.21   23.26</time>
   <time name="total">   23.74   23.80</time>
   <energy>
    <i name="alphaZ">     82.32987012 </i>
    <i name="ewald">  41295.53195770 </i>
    <i name="hartreedc"> -47294.20248893 </i>
    <i name="XCdc">   -233.85795633 </i>
    <i name="pawpsdc">   3949.73288171 </i>
    <i name="pawaedc">  -3364.24654736 </i>
    <i name="eentropy">     -0.23502500 </i>
    <i name="bandstr">  -1387.11496552 </i>
    <i name="atom">   6761.44252427 </i>
    <i name="e_fr_energy">   -190.61974934 </i>
    <i name="e_wo_entrp">   -190.38472434 </i>
    <i name="e_0_energy">   -190.50223684 </i>
   </energy>
  </scstep>
  <scstep>
   <time name="dav">   27.82   27.89</time>
   <time name="total">   28.34   28.42</time>
   <energy>
    <i name="e_fr_energy">   -190.56606688 </i>
    <i name="e_wo_entrp">   -190.33220143 </i>
    <i name="e_0_energy">   -190.44913415 </i>
   </energy>
  </scstep>
  <scstep>
   <time name="dav">   30.08   30.16</time>
   <time name="total">   30.61   30.69</time>
   <energy>
    <i name="e_fr_energy">   -190.10593433 </i>
    <i name="e_wo_entrp">   -189.85534575 </i>
    <i name="e_0_energy">   -189.98064004 </i>
   </energy>
  </scstep>
  <scstep>
   <time name="dav">   31.07   31.15</time>
   <time name="total">   31.61   31.69</time>
   <energy>
    <i name="e_fr_energy">   -189.89728183 </i>
    <i name="e_wo_entrp">   -189.66376233 </i>
    <i name="e_0_energy">   -189.78052208 </i>
   </energy>
  </scstep>
  <scstep>
   <time name="dav">   29.91   29.98</time>
   <time name="total">   30.43   30.51</time>
   <energy>
    <i name="e_fr_energy">   -189.87643895 </i>
    <i name="e_wo_entrp">   -189.63807091 </i>
    <i name="e_0_energy">   -189.75725493 </i>
   </energy>
  </scstep>
  <scstep>
   <time name="dav">   30.70   30.78</time>
   <time name="total">   31.24   31.32</time>
   <energy>
    <i name="e_fr_energy">   -189.79959581 </i>
    <i name="e_wo_entrp">   -189.56231491 </i>
    <i name="e_0_energy">   -189.68095536 </i>
   </energy>
  </scstep>
  <scstep>
   <time name="dav">   28.39   28.46</time>
   <time name="total">   28.93   29.00</time>
   <energy>
    <i name="e_fr_energy">   -189.79316330 </i>
    <i name="e_wo_entrp">   -189.55643963 </i>
    <i name="e_0_energy">   -189.67480147 </i>
   </energy>
  </scstep>
  <scstep>
   <time name="dav">   29.47   29.54</time>
   <time name="total">   30.00   30.08</time>
   <energy>
    <i name="e_fr_energy">   -189.79359221 </i>
    <i name="e_wo_entrp">   -189.55690314 </i>
    <i name="e_0_energy">   -189.67524768 </i>
   </energy>
  </scstep>
  <scstep>
   <time name="dav">   26.68   26.75</time>
   <time name="total">   27.21   27.29</time>
   <energy>
    <i name="e_fr_energy">   -189.79320763 </i>
    <i name="e_wo_entrp">   -189.55642739 </i>
    <i name="e_0_energy">   -189.67481751 </i>
   </energy>
  </scstep>
  <scstep>
   <time name="dav">   24.60   24.66</time>
   <time name="total">   25.14   25.21</time>
   <energy>
    <i name="e_fr_energy">   -189.79340031 </i>
    <i name="e_wo_entrp">   -189.55652803 </i>
    <i name="e_0_energy">   -189.67496417 </i>
   </energy>
  </scstep>
  <scstep>
   <time name="dav">   22.91   22.97</time>
   <time name="total">   23.44   23.50</time>
   <energy>
    <i name="e_fr_energy">   -189.79319987 </i>
    <i name="e_wo_entrp">   -189.55634252 </i>
    <i name="e_0_energy">   -189.67477119 </i>
   </energy>
  </scstep>
  <scstep>
   <time name="dav">   19.53   19.58</time>
   <time name="total">   19.56   19.62</time>
   <energy>
    <i name="alphaZ">     82.32987012 </i>
    <i name="ewald">  41295.53195770 </i>
    <i name="hartreedc"> -47267.80603170 </i>
    <i name="XCdc">   -235.24490435 </i>
    <i name="pawpsdc">   4038.76221451 </i>
    <i name="pawaedc">  -3454.47516946 </i>
    <i name="eentropy">     -0.23686985 </i>
    <i name="bandstr">  -1410.09680827 </i>
    <i name="atom">   6761.44252427 </i>
    <i name="e_fr_energy">   -189.79321702 </i>
    <i name="e_wo_entrp">   -189.55634717 </i>
    <i name="e_0_energy">   -189.67478210 </i>
   </energy>
  </scstep>
  <structure>
   <crystal>
    <varray name="basis" >
     <v>       8.66767508       5.00174686       0.00000000 </v>
     <v>      -8.66621407       4.99923327       0.00000000 </v>
     <v>       0.00000000       0.00000000      30.00000000 </v>
    </varray>
    <i name="volume">   2600.33815959 </i>
    <varray name="rec_basis" >
     <v>       0.05767596       0.09998177       0.00000000 </v>
     <v>      -0.05770496       0.09999863       0.00000000 </v>
     <v>       0.00000000       0.00000000       0.03333333 </v>
    </varray>
   </crystal>
   <varray name="positions" >
    <v>       0.33083610       0.66569211       0.00012948 </v>
    <v>       0.33317659      -0.00037392       0.00011686 </v>
    <v>       0.66775090       0.66521477      -0.00007830 </v>
    <v>       0.67079621       0.33516257      -0.00024435 </v>
    <v>      -0.00172845       0.66278944      -0.00001029 </v>
    <v>       0.99754078       0.33488120      -0.00002838 </v>
    <v>       0.00011306      -0.00009448       0.00011181 </v>
    <v>       0.33361354       0.33368494      -0.00013117 </v>
    <v>       0.66794962       0.00321477       0.00015572 </v>
    <v>       0.11149451       0.22170446       0.95087546 </v>
    <v>       0.22402980       0.10892113       0.04810055 </v>
    <v>       0.11560471       0.55773081       0.95181784 </v>
    <v>       0.22488691       0.44826681       0.04801617 </v>
    <v>       0.11501857       0.89157473       0.95208182 </v>
    <v>       0.22670515       0.77977003       0.04686510 </v>
    <v>       0.44158559       0.21819915       0.95207701 </v>
    <v>       0.55128513       0.10803014       0.04805104 </v>
    <v>       0.44588185       0.55876532       0.95315000 </v>
    <v>       0.55647574       0.44829719       0.04797751 </v>
    <v>       0.44102812       0.88730627       0.95321851 </v>
    <v>       0.55403991       0.77441172       0.04660465 </v>
    <v>       0.77708708       0.22102846       0.95051676 </v>
    <v>       0.88842102       0.11005265       0.04929260 </v>
    <v>       0.77508060       0.55788306       0.95182142 </v>
    <v>       0.88888534       0.44439077       0.04953031 </v>
    <v>       0.77581661       0.88501599       0.95198045 </v>
    <v>       0.88483946       0.77669437       0.04800133 </v>
   </varray>
  </structure>
  <varray name="forces" >
   <v>      -0.12462574      -0.27021950       0.08712859 </v>
   <v>      -0.11321331      -0.02985676      -0.05762253 </v>
   <v>       0.30483579      -0.00697481       0.07337227 </v>
   <v>       0.46298071       0.50902541      -0.00216852 </v>
   <v>       0.24777441      -0.55338290      -0.01300087 </v>
   <v>      -0.52885964      -0.27306165       0.00317952 </v>
   <v>      -0.07208235       0.12240009      -0.07666886 </v>
   <v>       0.02333075      -0.15592363      -0.06128952 </v>
   <v>      -0.15519505       0.57432979       0.08627250 </v>
   <v>      -0.00534460      -0.00352548      -0.43484059 </v>
   <v>       0.07559238       0.00358983       0.52610431 </v>
   <v>       0.05905490       0.13540589      -0.65117664 </v>
   <v>      -0.01355392       0.09056006       0.42381014 </v>
   <v>       0.03042122       0.08129708      -0.31476667 </v>
   <v>       0.03977839       0.07500588       0.39791495 </v>
   <v>       0.02491059      -0.08124278      -0.34884852 </v>
   <v>      -0.03708740      -0.08177942       0.46851002 </v>
   <v>      -0.03272813       0.07695491      -0.34703967 </v>
   <v>      -0.04899007       0.06426804       0.39365419 </v>
   <v>       0.00237024      -0.04859863      -0.28335294 </v>
   <v>       0.00672235      -0.04165364       0.11580875 </v>
   <v>       0.00582165      -0.02931824      -0.86339307 </v>
   <v>       0.02461124       0.00241394       0.59434205 </v>
   <v>      -0.11297620       0.00347381      -0.72899310 </v>
   <v>      -0.00917687      -0.00244466       0.91881250 </v>
   <v>       0.00110142      -0.08281560      -0.34815564 </v>
   <v>      -0.05547278      -0.07792701       0.44240734 </v>
  </varray>
  <varray name="stress" >
   <v>     -10.15134309      -0.00966476       0.00189069 </v>
   <v>      -0.00966474      -9.84433033      -0.01742164 </v>
   <v>       0.00189081      -0.01742167       6.45873830 </v>
  </varray>
  <energy>
   <i name="e_fr_energy">   -189.79321702 </i>
   <i name="e_wo_entrp">   -189.67478210 </i>
   <i name="e_0_energy">     -0.23686985 </i>
  </energy>
  <time name="totalsc">  372.26  373.23</time>
 </calculation>
 <calculation>
  <scstep>
   <time name="dav">   21.51   21.56</time>
   <time name="total">   22.02   22.08</time>
   <energy>
    <i name="alphaZ">     85.80926244 </i>
    <i name="ewald">  42829.00182741 </i>
    <i name="hartreedc"> -48845.69483023 </i>
    <i name="XCdc">   -232.95111702 </i>
    <i name="pawpsdc">   4038.81018172 </i>
    <i name="pawaedc">  -3454.52095337 </i>
    <i name="eentropy">     -0.20512419 </i>
    <i name="bandstr">  -1373.06425847 </i>
    <i name="atom">   6761.44252427 </i>
    <i name="e_fr_energy">   -191.37248744 </i>
    <i name="e_wo_entrp">   -191.16736325 </i>
    <i name="e_0_energy">   -191.26992534 </i>
   </energy>
  </scstep>
  <scstep>
   <time name="dav">   31.92   32.00</time>
   <time name="total">   32.44   32.52</time>
   <energy>
    <i name="e_fr_energy">   -191.20626762 </i>
    <i name="e_wo_entrp">   -191.00108234 </i>
    <i name="e_0_energy">   -191.10367498 </i>
   </energy>
  </scstep>
  <scstep>
   <time name="dav">   29.77   29.85</time>
   <time name="total">   30.28   30.36</time>
   <energy>
    <i name="e_fr_energy">   -191.31600816 </i>
    <i name="e_wo_entrp">   -191.08757071 </i>
    <i name="e_0_energy">   -191.20178944 </i>
   </energy>
  </scstep>
  <scstep>
   <time name="dav">   30.27   30.34</time>
   <time name="total">   30.79   30.87</time>
   <energy>
    <i name="e_fr_energy">   -190.94196440 </i>
    <i name="e_wo_entrp">   -190.73330071 </i>
    <i name="e_0_energy">   -190.83763256 </i>
   </energy>
  </scstep>
  <scstep>
   <time name="dav">   30.53   30.60</time>
   <time name="total">   31.04   31.12</time>
   <energy>
    <i name="e_fr_energy">   -190.89782857 </i>
    <i name="e_wo_entrp">   -190.69080782 </i>
    <i name="e_0_energy">   -190.79431819 </i>
   </energy>
  </scstep>
  <scstep>
   <time name="dav">   29.92   29.99</time>
   <time name="total">   30.43   30.51</time>
   <energy>
    <i name="e_fr_energy">   -190.80636400 </i>
    <i name="e_wo_entrp">   -190.59557817 </i>
    <i name="e_0_energy">   -190.70097109 </i>
   </energy>
  </scstep>
  <scstep>
   <time name="dav">   30.88   30.95</time>
   <time name="total">   31.39   31.48</time>
   <energy>
    <i name="e_fr_energy">   -190.79232446 </i>
    <i name="e_wo_entrp">   -190.58235885 </i>
    <i name="e_0_energy">   -190.68734166 </i>
   </energy>
  </scstep>
  <scstep>
   <time name="dav">   28.27   28.34</time>
   <time name="total">   28.79   28.87</time>
   <energy>
    <i name="e_fr_energy">   -190.79160396 </i>
    <i name="e_wo_entrp">   -190.58170909 </i>
    <i name="e_0_energy">   -190.68665652 </i>
   </energy>
  </scstep>
  <scstep>
   <time name="dav">   28.03   28.10</time>
   <time name="total">   28.54   28.62</time>
   <energy>
    <i name="e_fr_energy">   -190.78942481 </i>
    <i name="e_wo_entrp">   -190.57960640 </i>
    <i name="e_0_energy">   -190.68451560 </i>
   </energy>
  </scstep>
  <scstep>
   <time name="dav">   28.15   28.22</time>
   <time name="total">   28.67   28.75</time>
   <energy>
    <i name="e_fr_energy">   -190.78969146 </i>
    <i name="e_wo_entrp">   -190.57981899 </i>
    <i name="e_0_energy">   -190.68475522 </i>
   </energy>
  </scstep>
  <scstep>
   <time name="dav">   24.88   24.94</time>
   <time name="total">   25.40   25.46</time>
   <energy>
    <i name="e_fr_energy">   -190.78957032 </i>
    <i name="e_wo_entrp">   -190.57970941 </i>
    <i name="e_0_energy">   -190.68463986 </i>
   </energy>
  </scstep>
  <scstep>
   <time name="dav">   19.19   19.24</time>
   <time name="total">   19.23   19.28</time>
   <energy>
    <i name="alphaZ">     85.80926244 </i>
    <i name="ewald">  42829.00182741 </i>
    <i name="hartreedc"> -48817.11714749 </i>
    <i name="XCdc">   -234.28108347 </i>
    <i name="pawpsdc">   4064.19977708 </i>
    <i name="pawaedc">  -3480.09661969 </i>
    <i name="eentropy">     -0.20990389 </i>
    <i name="bandstr">  -1399.53820405 </i>
    <i name="atom">   6761.44252427 </i>
    <i name="e_fr_energy">   -190.78956738 </i>
    <i name="e_wo_entrp">   -190.57966349 </i>
    <i name="e_0_energy">   -190.68461544 </i>
   </energy>
  </scstep>
  <structure>
   <crystal>
    <varray name="basis" >
     <v>       8.48572888       4.90128405       0.00000000 </v>
     <v>      -8.48477287       4.89964292       0.00000000 </v>
     <v>       0.00000000       0.00000000      30.00000000 </v>
    </varray>
    <i name="volume">   2494.89969794 </i>
    <varray name="rec_basis" >
     <v>       0.05891591       0.10202542       0.00000000 </v>
     <v>      -0.05893564       0.10203691       0.00000000 </v>
     <v>       0.00000000       0.00000000       0.03333333 </v>
    </varray>
   </crystal>
   <varray name="positions" >
    <v>       0.32871466       0.66440417       0.00030071 </v>
    <v>       0.33251379      -0.00004344      -0.00001821 </v>
    <v>       0.66884678       0.66409543       0.00009027 </v>
    <v>       0.67573254       0.33662819      -0.00022013 </v>
    <v>      -0.00439567       0.65839637      -0.00003858 </v>
    <v>       0.99376036       0.33488983      -0.00002011 </v>
    <v>       0.00067810       0.00108447      -0.00006248 </v>
    <v>       0.33256771       0.33242473      -0.00024060 </v>
    <v>       0.67119691       0.00749521       0.00031785 </v>
    <v>       0.11131594       0.22184021       0.94951434 </v>
    <v>       0.22454951       0.10847742       0.04963392 </v>
    <v>       0.11686965       0.55845578       0.95004331 </v>
    <v>       0.22533936       0.44916260       0.04930939 </v>
    <v>       0.11592009       0.89188529       0.95102417 </v>
    <v>       0.22746889       0.78018368       0.04806928 </v>
    <v>       0.44125541       0.21730627       0.95094592 </v>
    <v>       0.55033358       0.10774964       0.04944650 </v>
    <v>       0.44647709       0.55985142       0.95203912 </v>
    <v>       0.55703607       0.44914549       0.04920058 </v>
    <v>       0.44033755       0.88678229       0.95225482 </v>
    <v>       0.55360456       0.77371800       0.04721269 </v>
    <v>       0.77704598       0.22105466       0.94823084 </v>
    <v>       0.88867807       0.11024212       0.05100607 </v>
    <v>       0.77460891       0.55841889       0.94987441 </v>
    <v>       0.88882525       0.44441174       0.05191578 </v>
    <v>       0.77506952       0.88409022       0.95083699 </v>
    <v>       0.88386386       0.77606378       0.04933305 </v>
   </varray>
  </structure>
  <varray name="forces" >
   <v>      -0.09113158      -0.24118846       0.03764152 </v>
   <v>      -0.18349952      -0.04971141      -0.06007412 </v>
   <v>       0.30652632      -0.02159859       0.07432862 </v>
   <v>       0.46687112       0.48132984       0.03097548 </v>
   <v>       0.21783761      -0.52550633      -0.02187530 </v>
   <v>      -0.47420115      -0.33088756       0.00080773 </v>
   <v>      -0.09401108       0.17752467      -0.05074398 </v>
   <v>       0.03924520      -0.20259186      -0.01253501 </v>
   <v>      -0.14798535       0.58248237       0.02191092 </v>
   <v>      -0.11228437       0.01140460      -0.29740195 </v>
   <v>       0.04107829      -0.00756403       0.39834593 </v>
   <v>       0.00332469      -0.00726486      -0.45946852 </v>
   <v>      -0.04849254      -0.03455335       0.26801059 </v>
   <v>       0.06459426      -0.06392348      -0.18189458 </v>
   <v>      -0.02326034      -0.04559610       0.30590501 </v>
   <v>       0.06627405       0.06395847      -0.20881146 </v>
   <v>      -0.04212615       0.05110440       0.30433755 </v>
   <v>      -0.01703005       0.02834406      -0.23871250 </v>
   <v>       0.05578929       0.00716465       0.20958038 </v>
   <v>       0.02665003       0.02416172      -0.13875386 </v>
   <v>      -0.02999038       0.03974213       0.02967552 </v>
   <v>      -0.03288225       0.03379372      -0.68431251 </v>
   <v>      -0.01863407       0.08293683       0.46137831 </v>
   <v>       0.02055499      -0.01143012      -0.56288304 </v>
   <v>      -0.00132743       0.00746620       0.71429973 </v>
   <v>      -0.02849848      -0.03523057      -0.20358539 </v>
   <v>       0.03660888      -0.01436693       0.26385494 </v>
  </varray>
  <varray name="stress" >
   <v>      -5.70636361       0.08029410      -0.01541006 </v>
   <v>       0.08029437      -5.65711824       0.04350996 </v>
   <v>      -0.01541004       0.04351000       4.48868301 </v>
  </varray>
  <energy>
   <i name="e_fr_energy">   -190.78956738 </i>
   <i name="e_wo_entrp">   -190.68461544 </i>
   <i name="e_0_energy">     -0.20990389 </i>
  </energy>
  <time name="totalsc">  380.87  381.87</time>
 </calculation>
 <calculation>
  <scstep>
   <time name="dav">   21.56   21.61</time>
   <time name="total">   22.07   22.12</time>
   <energy>
    <i name="alphaZ">     90.06199604 </i>
    <i name="ewald">  44613.93907567 </i>
    <i name="hartreedc"> -50656.22034993 </i>
    <i name="XCdc">   -231.90136115 </i>
    <i name="pawpsdc">   4064.14320982 </i>
    <i name="pawaedc">  -3480.03636397 </i>
    <i name="eentropy">     -0.20322889 </i>
    <i name="bandstr">  -1353.32049879 </i>
    <i name="atom">   6761.44252427 </i>
    <i name="e_fr_energy">   -192.09499692 </i>
    <i name="e_wo_entrp">   -191.89176803 </i>
    <i name="e_0_energy">   -191.99338248 </i>
   </energy>
  </scstep>
  <scstep>
   <time name="dav">   28.30   28.37</time>
   <time name="total">   28.81   28.89</time>
   <energy>
    <i name="e_fr_energy">   -191.86225416 </i>
    <i name="e_wo_entrp">   -191.65323333 </i>
    <i name="e_0_energy">   -191.75774375 </i>
   </energy>
  </scstep>
  <scstep>
   <time name="dav">   27.74   27.81</time>
   <time name="total">   28.24   28.32</time>
   <energy>
    <i name="e_fr_energy">   -192.06213651 </i>
    <i name="e_wo_entrp">   -191.84241857 </i>
    <i name="e_0_energy">   -191.95227754 </i>
   </energy>
  </scstep>
  <scstep>
   <time name="dav">   28.35   28.42</time>
   <time name="total">   28.86   28.93</time>
   <energy>
    <i name="e_fr_energy">   -191.74742824 </i>
    <i name="e_wo_entrp">   -191.53221569 </i>
    <i name="e_0_energy">   -191.63982196 </i>
   </energy>
  </scstep>
  <scstep>
   <time name="dav">   30.10   30.18</time>
   <time name="total">   30.60   30.68</time>
   <energy>
    <i name="e_fr_energy">   -191.57257657 </i>
    <i name="e_wo_entrp">   -191.37274635 </i>
    <i name="e_0_energy">   -191.47266146 </i>
   </energy>
  </scstep>
  <scstep>
   <time name="dav">   29.96   30.03</time>
   <time name="total">   30.46   30.54</time>
   <energy>
    <i name="e_fr_energy">   -191.44738327 </i>
    <i name="e_wo_entrp">   -191.23458883 </i>
    <i name="e_0_energy">   -191.34098605 </i>
   </energy>
  </scstep>
  <scstep>
   <time name="dav">   29.99   30.07</time>
   <time name="total">   30.50   30.58</time>
   <energy>
    <i name="e_fr_energy">   -191.43313659 </i>
    <i name="e_wo_entrp">   -191.22223831 </i>
    <i name="e_0_energy">   -191.32768745 </i>
   </energy>
  </scstep>
  <scstep>
   <time name="dav">   26.83   26.89</time>
   <time name="total">   27.33   27.40</time>
   <energy>
    <i name="e_fr_energy">   -191.42898152 </i>
    <i name="e_wo_entrp">   -191.21830442 </i>
    <i name="e_0_energy">   -191.32364297 </i>
   </energy>
  </scstep>
  <scstep>
   <time name="dav">   30.90   30.98</time>
   <time name="total">   31.41   31.49</time>
   <energy>
    <i name="e_fr_energy">   -191.43038753 </i>
    <i name="e_wo_entrp">   -191.21990418 </i>
    <i name="e_0_energy">   -191.32514585 </i>
   </energy>
  </scstep>
  <scstep>
   <time name="dav">   27.75   27.81</time>
   <time name="total">   28.25   28.33</time>
   <energy>
    <i name="e_fr_energy">   -191.42889225 </i>
    <i name="e_wo_entrp">   -191.21800067 </i>
    <i name="e_0_energy">   -191.32344646 </i>
   </energy>
  </scstep>
  <scstep>
   <time name="dav">   24.54   24.59</time>
   <time name="total">   24.57   24.64</time>
   <energy>
    <i name="alphaZ">     90.06199604 </i>
    <i name="ewald">  44613.93907567 </i>
    <i name="hartreedc"> -50623.11572091 </i>
    <i name="XCdc">   -233.38639335 </i>
    <i name="pawpsdc">   4085.11232470 </i>
    <i name="pawaedc">  -3501.09923335 </i>
    <i name="eentropy">     -0.21083536 </i>
    <i name="bandstr">  -1384.17269907 </i>
    <i name="atom">   6761.44252427 </i>
    <i name="e_fr_energy">   -191.42896136 </i>
    <i name="e_wo_entrp">   -191.21812599 </i>
    <i name="e_0_energy">   -191.32354367 </i>
   </energy>
  </scstep>
  <structure>
   <crystal>
    <varray name="basis" >
     <v>       8.28364310       4.78892066       0.00000000 </v>
     <v>      -8.27824976       4.77959561       0.00000000 </v>
     <v>       0.00000000       0.00000000      30.00000000 </v>
    </varray>
    <i name="volume">   2377.09036378 </i>
    <varray name="rec_basis" >
     <v>       0.06032075       0.10447541       0.00000000 </v>
     <v>      -0.06043843       0.10454348       0.00000000 </v>
     <v>       0.00000000       0.00000000       0.03333333 </v>
    </varray>
   </crystal>
   <varray name="positions" >
    <v>       0.32509108       0.66204581       0.00046533 </v>
    <v>       0.33064602       0.00072912      -0.00027267 </v>
    <v>       0.67079982       0.66173794       0.00040297 </v>
    <v>       0.68498047       0.33919272      -0.00008230 </v>
    <v>      -0.00937785       0.65037546      -0.00012210 </v>
    <v>       0.98627764       0.33412453      -0.00001375 </v>
    <v>       0.00217246       0.00396193      -0.00029465 </v>
    <v>       0.33026911       0.32955355      -0.00029598 </v>
    <v>       0.67745345       0.01574098       0.00041967 </v>
    <v>       0.11058768       0.22279845       0.94774141 </v>
    <v>       0.22505101       0.10786390       0.05178247 </v>
    <v>       0.11732166       0.55862739       0.94763939 </v>
    <v>       0.22474239       0.44957208       0.05092444 </v>
    <v>       0.11612259       0.89082456       0.94977324 </v>
    <v>       0.22717920       0.78003017       0.04976063 </v>
    <v>       0.44232131       0.21708608       0.94958141 </v>
    <v>       0.55009959       0.10855491       0.05122078 </v>
    <v>       0.44702950       0.56096111       0.95059157 </v>
    <v>       0.55788910       0.44933842       0.05059037 </v>
    <v>       0.44022779       0.88655317       0.95120138 </v>
    <v>       0.55355279       0.77377954       0.04779361 </v>
    <v>       0.77729713       0.22181835       0.94486157 </v>
    <v>       0.88963765       0.11150688       0.05345100 </v>
    <v>       0.77441581       0.55840621       0.94706158 </v>
    <v>       0.88886982       0.44450649       0.05539989 </v>
    <v>       0.77412796       0.88329878       0.94947511 </v>
    <v>       0.88342929       0.77522590       0.05094357 </v>
   </varray>
  </structure>
  <varray name="forces" >
   <v>      -0.06828409      -0.21257610       0.00300925 </v>
   <v>      -0.23418745      -0.11831742       0.01769497 </v>
   <v>       0.30261717      -0.07225356      -0.02899113 </v>
   <v>       0.04235786       0.09287650      -0.02545356 </v>
   <v>       0.06934657      -0.14198263       0.02747088 </v>
   <v>       0.05879016      -0.10302800       0.05928884 </v>
   <v>      -0.15697738       0.27896105       0.02810140 </v>
   <v>       0.00039597      -0.23064158      -0.01026393 </v>
   <v>      -0.05884837       0.36657552      -0.05206431 </v>
   <v>      -0.19893790       0.02527813      -0.07637977 </v>
   <v>      -0.00613434      -0.03650116       0.13930623 </v>
   <v>      -0.03875893      -0.16968261      -0.08668136 </v>
   <v>      -0.03307593      -0.17731703      -0.01669192 </v>
   <v>       0.02519308      -0.22378289       0.05541420 </v>
   <v>      -0.08700288      -0.13077281      -0.00872969 </v>
   <v>       0.06867492       0.21397347       0.08933880 </v>
   <v>      -0.00352793       0.18449880      -0.03279687 </v>
   <v>       0.02371599      -0.03552463       0.03760834 </v>
   <v>       0.19083030      -0.08953027      -0.06137588 </v>
   <v>       0.03894435       0.11249367       0.13207909 </v>
   <v>      -0.06735345       0.17066715      -0.19864248 </v>
   <v>      -0.07171323       0.05309938      -0.26023514 </v>
   <v>      -0.02448728       0.12808149       0.16678834 </v>
   <v>       0.11914833      -0.04896867      -0.13883576 </v>
   <v>       0.05648194       0.02758625       0.25026813 </v>
   <v>      -0.06403441       0.05236551       0.06558947 </v>
   <v>       0.11682693       0.08442242      -0.07481613 </v>
  </varray>
  <varray name="stress" >
   <v>      -0.05703889       0.20552159       0.27065097 </v>
   <v>       0.20552173       0.30974839       0.19568686 </v>
   <v>       0.27065119       0.19568702      -0.70949278 </v>
  </varray>
  <energy>
   <i name="e_fr_energy">   -191.42896136 </i>
   <i name="e_wo_entrp">   -191.32354367 </i>
   <i name="e_0_energy">     -0.21083536 </i>
  </energy>
  <time name="totalsc">  353.18  354.11</time>
 </calculation>
 <calculation>
  <scstep>
   <time name="dav">   21.52   21.57</time>
   <time name="total">   22.03   22.08</time>
   <energy>
    <i name="alphaZ">     89.99226974 </i>
    <i name="ewald">  44567.84923859 </i>
    <i name="hartreedc"> -50576.91659637 </i>
    <i name="XCdc">   -233.49582685 </i>
    <i name="pawpsdc">   4085.30926435 </i>
    <i name="pawaedc">  -3501.29347485 </i>
    <i name="eentropy">     -0.21392350 </i>
    <i name="bandstr">  -1384.15144502 </i>
    <i name="atom">   6761.44252427 </i>
    <i name="e_fr_energy">   -191.47796963 </i>
    <i name="e_wo_entrp">   -191.26404613 </i>
    <i name="e_0_energy">   -191.37100788 </i>
   </energy>
  </scstep>
  <scstep>
   <time name="dav">   32.12   32.19</time>
   <time name="total">   32.62   32.70</time>
   <energy>
    <i name="e_fr_energy">   -191.53082054 </i>
    <i name="e_wo_entrp">   -191.30692600 </i>
    <i name="e_0_energy">   -191.41887327 </i>
   </energy>
  </scstep>
  <scstep>
   <time name="dav">   30.29   30.36</time>
   <time name="total">   30.79   30.87</time>
   <energy>
    <i name="e_fr_energy">   -191.48904211 </i>
    <i name="e_wo_entrp">   -191.27464095 </i>
    <i name="e_0_energy">   -191.38184153 </i>
   </energy>
  </scstep>
  <scstep>
   <time name="dav">   28.12   28.19</time>
   <time name="total">   28.62   28.70</time>
   <energy>
    <i name="e_fr_energy">   -191.49062391 </i>
    <i name="e_wo_entrp">   -191.27472222 </i>
    <i name="e_0_energy">   -191.38267306 </i>
   </energy>
  </scstep>
  <scstep>
   <time name="dav">   25.88   25.94</time>
   <time name="total">   26.38   26.45</time>
   <energy>
    <i name="e_fr_energy">   -191.48717550 </i>
    <i name="e_wo_entrp">   -191.27162733 </i>
    <i name="e_0_energy">   -191.37940142 </i>
   </energy>
  </scstep>
  <scstep>
   <time name="dav">   26.18   26.24</time>
   <time name="total">   26.68   26.75</time>
   <energy>
    <i name="e_fr_energy">   -191.48715850 </i>
    <i name="e_wo_entrp">   -191.27144404 </i>
    <i name="e_0_energy">   -191.37930127 </i>
   </energy>
  </scstep>
  <scstep>
   <time name="dav">   25.74   25.80</time>
   <time name="total">   26.24   26.31</time>
   <energy>
    <i name="e_fr_energy">   -191.48686391 </i>
    <i name="e_wo_entrp">   -191.27140191 </i>
    <i name="e_0_energy">   -191.37913291 </i>
   </energy>
  </scstep>
  <scstep>
   <time name="dav">   21.00   21.05</time>
   <time name="total">   21.04   21.09</time>
   <energy>
    <i name="alphaZ">     89.99226974 </i>
    <i name="ewald">  44567.84923859 </i>
    <i name="hartreedc"> -50578.36235075 </i>
    <i name="XCdc">   -233.45974512 </i>
    <i name="pawpsdc">   4082.36999232 </i>
    <i name="pawaedc">  -3498.30912427 </i>
    <i name="eentropy">     -0.21553311 </i>
    <i name="bandstr">  -1382.79413383 </i>
    <i name="atom">   6761.44252427 </i>
    <i name="e_fr_energy">   -191.48686216 </i>
    <i name="e_wo_entrp">   -191.27132904 </i>
    <i name="e_0_energy">   -191.37909560 </i>
   </energy>
  </scstep>
  <structure>
   <crystal>
    <varray name="basis" >
     <v>       8.28544385       4.79755592       0.00000000 </v>
     <v>      -8.27488761       4.77928554       0.00000000 </v>
     <v>       0.00000000       0.00000000      30.00000000 </v>
    </varray>
    <i name="volume">   2378.93214121 </i>
    <varray name="rec_basis" >
     <v>       0.06027014       0.10435213       0.00000000 </v>
     <v>      -0.06050054       0.10448525       0.00000000 </v>
     <v>       0.00000000       0.00000000       0.03333333 </v>
    </varray>
   </crystal>
   <varray name="positions" >
    <v>       0.32384377       0.66118804       0.00046945 </v>
    <v>       0.32938394       0.00081137      -0.00024336 </v>
    <v>       0.67130499       0.66050857       0.00035538 </v>
    <v>       0.68553118       0.33952528      -0.00012354 </v>
    <v>      -0.00986830       0.64949513      -0.00007790 </v>
    <v>       0.98596157       0.33344128       0.00008092 </v>
    <v>       0.00310950       0.00580272      -0.00024877 </v>
    <v>       0.32912483       0.32840854      -0.00031214 </v>
    <v>       0.67909349       0.01771518       0.00033606 </v>
    <v>       0.11014224       0.22349744       0.94762796 </v>
    <v>       0.22484773       0.10770184       0.05199502 </v>
    <v>       0.11635688       0.55788810       0.94751194 </v>
    <v>       0.22376090       0.44877659       0.05088994 </v>
    <v>       0.11507277       0.88963414       0.94986810 </v>
    <v>       0.22627293       0.77962696       0.04973875 </v>
    <v>       0.44358743       0.21796149       0.94973093 </v>
    <v>       0.55101556       0.10948661       0.05115989 </v>
    <v>       0.44691714       0.56070833       0.95065869 </v>
    <v>       0.55798812       0.44833505       0.05048535 </v>
    <v>       0.44090562       0.88700577       0.95141786 </v>
    <v>       0.55421365       0.77483113       0.04747276 </v>
    <v>       0.77735450       0.22228876       0.94446088 </v>
    <v>       0.89020414       0.11221418       0.05370616 </v>
    <v>       0.77451636       0.55781509       0.94685243 </v>
    <v>       0.88917114       0.44448074       0.05578422 </v>
    <v>       0.77420958       0.88375123       0.94958673 </v>
    <v>       0.88419279       0.77531488       0.05081620 </v>
   </varray>
  </structure>
  <varray name="forces" >
   <v>      -0.09103409      -0.23784642      -0.01186416 </v>
   <v>      -0.21092868      -0.13761575      -0.01917362 </v>
   <v>       0.32261819      -0.11380999       0.00414048 </v>
   <v>       0.09159999       0.20351025       0.03737775 </v>
   <v>       0.13345242      -0.19888635       0.03809457 </v>
   <v>       0.02194478      -0.12234736       0.01554233 </v>
   <v>      -0.20276314       0.32420778      -0.00064460 </v>
   <v>      -0.02514850      -0.23819694      -0.02846624 </v>
   <v>      -0.05546372       0.38160231      -0.03104626 </v>
   <v>      -0.10857961       0.03156494      -0.10813246 </v>
   <v>      -0.00929759      -0.02316434       0.14343393 </v>
   <v>      -0.01858242      -0.10281025      -0.05315589 </v>
   <v>      -0.00247092      -0.09397842       0.01869697 </v>
   <v>      -0.01270829      -0.13599587       0.08222990 </v>
   <v>      -0.05899140      -0.07618797      -0.01372637 </v>
   <v>       0.03427716       0.10724889       0.09375127 </v>
   <v>      -0.00444784       0.10513956      -0.05542472 </v>
   <v>       0.01942034      -0.03074586       0.06261179 </v>
   <v>       0.10547125      -0.08190412      -0.05839146 </v>
   <v>       0.01511744       0.07926081       0.17203570 </v>
   <v>      -0.03912223       0.11193407      -0.24808648 </v>
   <v>      -0.04496683       0.06603343      -0.16609682 </v>
   <v>      -0.00179777       0.06344797       0.16027105 </v>
   <v>       0.07139122      -0.01071325      -0.13075239 </v>
   <v>       0.03684917       0.00175446       0.11616028 </v>
   <v>      -0.02804587       0.06141284       0.08603382 </v>
   <v>       0.06220695       0.06708558      -0.10541837 </v>
  </varray>
  <varray name="stress" >
   <v>      -0.16140330      -0.04520477       0.17521150 </v>
   <v>      -0.04520489      -0.07515707      -0.00196804 </v>
   <v>       0.17521144      -0.00196776      -1.26758053 </v>
  </varray>
  <energy>
   <i name="e_fr_energy">   -191.48686216 </i>
   <i name="e_wo_entrp">   -191.37909560 </i>
   <i name="e_0_energy">     -0.21553311 </i>
  </energy>
  <time name="totalsc">  256.44  257.11</time>
 </calculation>
 <calculation>
  <scstep>
   <time name="dav">   21.50   21.55</time>
   <time name="total">   22.00   22.06</time>
   <energy>
    <i name="alphaZ">     90.08198289 </i>
    <i name="ewald">  44609.08129541 </i>
    <i name="hartreedc"> -50620.51585896 </i>
    <i name="XCdc">   -233.39977305 </i>
    <i name="pawpsdc">   4082.27573616 </i>
    <i name="pawaedc">  -3498.21372810 </i>
    <i name="eentropy">     -0.21723845 </i>
    <i name="bandstr">  -1382.07490838 </i>
    <i name="atom">   6761.44252427 </i>
    <i name="e_fr_energy">   -191.53996821 </i>
    <i name="e_wo_entrp">   -191.32272976 </i>
    <i name="e_0_energy">   -191.43134899 </i>
   </energy>
  </scstep>
  <scstep>
   <time name="dav">   32.83   32.91</time>
   <time name="total">   33.34   33.42</time>
   <energy>
    <i name="e_fr_energy">   -191.57502754 </i>
    <i name="e_wo_entrp">   -191.34637642 </i>
    <i name="e_0_energy">   -191.46070198 </i>
   </energy>
  </scstep>
  <scstep>
   <time name="dav">   30.27   30.34</time>
   <time name="total">   30.77   30.86</time>
   <energy>
    <i name="e_fr_energy">   -191.54688993 </i>
    <i name="e_wo_entrp">   -191.32965151 </i>
    <i name="e_0_energy">   -191.43827072 </i>
   </energy>
  </scstep>
  <scstep>
   <time name="dav">   27.50   27.57</time>
   <time name="total">   28.01   28.08</time>
   <energy>
    <i name="e_fr_energy">   -191.54655517 </i>
    <i name="e_wo_entrp">   -191.32707187 </i>
    <i name="e_0_energy">   -191.43681352 </i>
   </energy>
  </scstep>
  <scstep>
   <time name="dav">   26.68   26.74</time>
   <time name="total">   27.18   27.26</time>
   <energy>
    <i name="e_fr_energy">   -191.54510658 </i>
    <i name="e_wo_entrp">   -191.32641794 </i>
    <i name="e_0_energy">   -191.43576226 </i>
   </energy>
  </scstep>
  <scstep>
   <time name="dav">   25.28   25.34</time>
   <time name="total">   25.78   25.85</time>
   <energy>
    <i name="e_fr_energy">   -191.54447254 </i>
    <i name="e_wo_entrp">   -191.32509872 </i>
    <i name="e_0_energy">   -191.43478563 </i>
   </energy>
  </scstep>
  <scstep>
   <time name="dav">   26.24   26.31</time>
   <time name="total">   26.75   26.82</time>
   <energy>
    <i name="e_fr_energy">   -191.54430448 </i>
    <i name="e_wo_entrp">   -191.32491083 </i>
    <i name="e_0_energy">   -191.43460766 </i>
   </energy>
  </scstep>
  <scstep>
   <time name="dav">   21.99   22.04</time>
   <time name="total">   22.03   22.09</time>
   <energy>
    <i name="alphaZ">     90.08198289 </i>
    <i name="ewald">  44609.08129541 </i>
    <i name="hartreedc"> -50620.33236774 </i>
    <i name="XCdc">   -233.41632494 </i>
    <i name="pawpsdc">   4084.26547175 </i>
    <i name="pawaedc">  -3500.22866909 </i>
    <i name="eentropy">     -0.21929956 </i>
    <i name="bandstr">  -1382.21893017 </i>
    <i name="atom">   6761.44252427 </i>
    <i name="e_fr_energy">   -191.54431717 </i>
    <i name="e_wo_entrp">   -191.32501762 </i>
[...]
      <set comment="kpoint 31">
       <r>  -17.5652    1.0000 </r>
       <r>  -17.2343    1.0000 </r>
       <r>  -16.9193    1.0000 </r>
       <r>  -16.7205    1.0000 </r>
       <r>  -16.5358    1.0000 </r>
       <r>  -16.4350    1.0000 </r>
       <r>  -16.3341    1.0000 </r>
       <r>  -16.1821    1.0000 </r>
       <r>  -16.0468    1.0000 </r>
       <r>  -16.0085    1.0000 </r>
       <r>  -15.9690    1.0000 </r>
       <r>  -15.8852    1.0000 </r>
       <r>  -15.7774    1.0000 </r>
       <r>  -15.6876    1.0000 </r>
       <r>  -15.6276    1.0000 </r>
       <r>  -15.4561    1.0000 </r>
       <r>  -15.4209    1.0000 </r>
       <r>  -15.2279    1.0000 </r>
       <r>   -9.7563    1.0000 </r>
       <r>   -9.4666    1.0000 </r>
       <r>   -9.3319    1.0000 </r>
       <r>   -9.0812    1.0000 </r>
       <r>   -8.8577    1.0000 </r>
       <r>   -8.7431    1.0000 </r>
       <r>   -8.5334    1.0000 </r>
       <r>   -8.4905    1.0000 </r>
       <r>   -8.4177    1.0000 </r>
       <r>   -8.3247    1.0000 </r>
       <r>   -8.2634    1.0000 </r>
       <r>   -8.1954    1.0000 </r>
       <r>   -8.1395    1.0000 </r>
       <r>   -8.0685    1.0000 </r>
       <r>   -8.0344    1.0000 </r>
       <r>   -7.8637    1.0000 </r>
       <r>   -7.8268    1.0000 </r>
       <r>   -7.7602    1.0000 </r>
       <r>   -7.6023    1.0000 </r>
       <r>   -7.4221    1.0000 </r>
       <r>   -7.3147    1.0000 </r>
       <r>   -7.1895    1.0000 </r>
       <r>   -7.1669    1.0000 </r>
       <r>   -7.1048    1.0000 </r>
       <r>   -7.0001    1.0000 </r>
       <r>   -6.9238    1.0000 </r>
       <r>   -6.8359    1.0000 </r>
       <r>   -6.7829    1.0000 </r>
       <r>   -6.7297    1.0000 </r>
       <r>   -6.5982    1.0000 </r>
       <r>   -6.5372    1.0000 </r>
       <r>   -6.4786    1.0000 </r>
       <r>   -6.4180    1.0000 </r>
       <r>   -6.3678    1.0000 </r>
       <r>   -6.2995    1.0000 </r>
       <r>   -6.2590    1.0000 </r>
       <r>   -6.1420    1.0000 </r>
       <r>   -6.0600    1.0000 </r>
       <r>   -5.9625    1.0000 </r>
       <r>   -5.9112    1.0000 </r>
       <r>   -5.8640    1.0000 </r>
       <r>   -5.8061    1.0000 </r>
       <r>   -5.6827    1.0000 </r>
       <r>   -5.6305    1.0000 </r>
       <r>   -5.4776    1.0000 </r>
       <r>   -5.3558    1.0000 </r>
       <r>   -5.2738    1.0000 </r>
       <r>   -5.1031    1.0000 </r>
       <r>   -5.0667    1.0000 </r>
       <r>   -4.9031    1.0000 </r>
       <r>   -4.8132    1.0000 </r>
       <r>   -4.6786    1.0000 </r>
       <r>   -4.6101    1.0000 </r>
       <r>   -4.5438    1.0000 </r>
       <r>   -4.4026    1.0000 </r>
       <r>   -4.2882    1.0000 </r>
       <r>   -4.1233    1.0000 </r>
       <r>   -4.0335    1.0000 </r>
       <r>   -3.8136    0.9995 </r>
       <r>   -3.7246    0.9964 </r>
       <r>   -3.4986    0.8621 </r>
       <r>   -3.4030    0.6607 </r>
       <r>   -3.0138    0.0097 </r>
       <r>   -2.8237    0.0001 </r>
       <r>   -2.7363    0.0000 </r>
       <r>   -2.6104    0.0000 </r>
       <r>   -2.4920    0.0000 </r>
       <r>   -2.4308    0.0000 </r>
       <r>   -2.2909    0.0000 </r>
       <r>   -2.1729    0.0000 </r>
       <r>   -2.1273    0.0000 </r>
       <r>   -1.8763    0.0000 </r>
       <r>   -1.7329    0.0000 </r>
       <r>   -1.5313    0.0000 </r>
       <r>   -1.4630    0.0000 </r>
       <r>   -1.3668    0.0000 </r>
       <r>   -1.2552    0.0000 </r>
       <r>   -1.1945    0.0000 </r>
       <r>   -1.0878    0.0000 </r>
       <r>   -1.0294    0.0000 </r>
       <r>   -0.9356    0.0000 </r>
       <r>   -0.9219    0.0000 </r>
       <r>   -0.8610    0.0000 </r>
       <r>   -0.7446    0.0000 </r>
       <r>   -0.7212    0.0000 </r>
       <r>   -0.6175    0.0000 </r>
       <r>   -0.4585    0.0000 </r>
       <r>   -0.3591    0.0000 </r>
       <r>   -0.2165    0.0000 </r>
       <r>   -0.1355    0.0000 </r>
       <r>    0.1223    0.0000 </r>
       <r>    0.1680    0.0000 </r>
       <r>    0.3716    0.0000 </r>
       <r>    0.5841    0.0000 </r>
       <r>    0.6500    0.0000 </r>
       <r>    0.9698    0.0000 </r>
       <r>    1.0255    0.0000 </r>
       <r>    1.3606    0.0000 </r>
       <r>    1.3970    0.0000 </r>
       <r>    2.1276    0.0000 </r>
       <r>    2.3018    0.0000 </r>
       <r>    2.3817    0.0000 </r>
      </set>
      <set comment="kpoint 32">
       <r>  -17.5666    1.0000 </r>
       <r>  -17.1680    1.0000 </r>
       <r>  -17.0392    1.0000 </r>
       <r>  -16.7190    1.0000 </r>
       <r>  -16.4785    1.0000 </r>
       <r>  -16.3954    1.0000 </r>
       <r>  -16.3059    1.0000 </r>
       <r>  -16.2039    1.0000 </r>
       <r>  -16.1129    1.0000 </r>
       <r>  -16.0512    1.0000 </r>
       <r>  -15.9446    1.0000 </r>
       <r>  -15.8661    1.0000 </r>
       <r>  -15.7854    1.0000 </r>
       <r>  -15.6742    1.0000 </r>
       <r>  -15.6115    1.0000 </r>
       <r>  -15.4625    1.0000 </r>
       <r>  -15.4187    1.0000 </r>
       <r>  -15.2271    1.0000 </r>
       <r>   -9.6959    1.0000 </r>
       <r>   -9.5893    1.0000 </r>
       <r>   -9.4058    1.0000 </r>
       <r>   -9.0507    1.0000 </r>
       <r>   -8.7032    1.0000 </r>
       <r>   -8.6490    1.0000 </r>
       <r>   -8.5112    1.0000 </r>
       <r>   -8.4831    1.0000 </r>
       <r>   -8.4326    1.0000 </r>
       <r>   -8.3419    1.0000 </r>
       <r>   -8.2678    1.0000 </r>
       <r>   -8.2541    1.0000 </r>
       <r>   -8.1544    1.0000 </r>
       <r>   -8.0943    1.0000 </r>
       <r>   -8.0482    1.0000 </r>
       <r>   -7.9424    1.0000 </r>
       <r>   -7.8111    1.0000 </r>
       <r>   -7.7897    1.0000 </r>
       <r>   -7.5568    1.0000 </r>
       <r>   -7.4174    1.0000 </r>
       <r>   -7.3322    1.0000 </r>
       <r>   -7.2574    1.0000 </r>
       <r>   -7.1869    1.0000 </r>
       <r>   -7.1025    1.0000 </r>
       <r>   -6.9846    1.0000 </r>
       <r>   -6.8998    1.0000 </r>
       <r>   -6.8584    1.0000 </r>
       <r>   -6.7824    1.0000 </r>
       <r>   -6.7056    1.0000 </r>
       <r>   -6.5767    1.0000 </r>
       <r>   -6.5370    1.0000 </r>
       <r>   -6.4628    1.0000 </r>
       <r>   -6.4354    1.0000 </r>
       <r>   -6.3440    1.0000 </r>
       <r>   -6.2897    1.0000 </r>
       <r>   -6.2457    1.0000 </r>
       <r>   -6.1215    1.0000 </r>
       <r>   -6.0333    1.0000 </r>
       <r>   -5.9699    1.0000 </r>
       <r>   -5.8978    1.0000 </r>
       <r>   -5.8516    1.0000 </r>
       <r>   -5.7260    1.0000 </r>
       <r>   -5.7198    1.0000 </r>
       <r>   -5.5400    1.0000 </r>
       <r>   -5.4735    1.0000 </r>
       <r>   -5.4087    1.0000 </r>
       <r>   -5.2659    1.0000 </r>
       <r>   -5.2057    1.0000 </r>
       <r>   -5.0587    1.0000 </r>
       <r>   -4.9499    1.0000 </r>
       <r>   -4.8365    1.0000 </r>
       <r>   -4.6927    1.0000 </r>
       <r>   -4.6294    1.0000 </r>
       <r>   -4.4811    1.0000 </r>
       <r>   -4.4009    1.0000 </r>
       <r>   -4.3561    1.0000 </r>
       <r>   -4.1149    1.0000 </r>
       <r>   -4.0460    1.0000 </r>
       <r>   -3.8242    0.9997 </r>
       <r>   -3.6421    0.9823 </r>
       <r>   -3.4806    0.8321 </r>
       <r>   -3.3451    0.5019 </r>
       <r>   -3.0552    0.0204 </r>
       <r>   -2.8633    0.0003 </r>
       <r>   -2.7685    0.0000 </r>
       <r>   -2.6054    0.0000 </r>
       <r>   -2.5335    0.0000 </r>
       <r>   -2.4575    0.0000 </r>
       <r>   -2.2477    0.0000 </r>
       <r>   -2.1819    0.0000 </r>
       <r>   -2.0964    0.0000 </r>
       <r>   -1.9113    0.0000 </r>
       <r>   -1.7491    0.0000 </r>
       <r>   -1.5516    0.0000 </r>
       <r>   -1.4782    0.0000 </r>
       <r>   -1.3054    0.0000 </r>
       <r>   -1.2376    0.0000 </r>
       <r>   -1.1846    0.0000 </r>
       <r>   -1.0580    0.0000 </r>
       <r>   -1.0107    0.0000 </r>
       <r>   -0.9706    0.0000 </r>
       <r>   -0.9132    0.0000 </r>
       <r>   -0.8385    0.0000 </r>
       <r>   -0.7796    0.0000 </r>
       <r>   -0.6961    0.0000 </r>
       <r>   -0.5619    0.0000 </r>
       <r>   -0.5294    0.0000 </r>
       <r>   -0.3499    0.0000 </r>
       <r>   -0.2558    0.0000 </r>
       <r>   -0.1287    0.0000 </r>
       <r>    0.1230    0.0000 </r>
       <r>    0.2745    0.0000 </r>
       <r>    0.3466    0.0000 </r>
       <r>    0.5398    0.0000 </r>
       <r>    0.6595    0.0000 </r>
       <r>    0.9970    0.0000 </r>
       <r>    1.0202    0.0000 </r>
       <r>    1.2747    0.0000 </r>
       <r>    1.4283    0.0000 </r>
       <r>    2.1034    0.0000 </r>
       <r>    2.2655    0.0000 </r>
       <r>    2.5645    0.0000 </r>
      </set>
      <set comment="kpoint 33">
       <r>  -17.5477    1.0000 </r>
       <r>  -17.2595    1.0000 </r>
       <r>  -16.9191    1.0000 </r>
       <r>  -16.7170    1.0000 </r>
       <r>  -16.5079    1.0000 </r>
       <r>  -16.4601    1.0000 </r>
       <r>  -16.3260    1.0000 </r>
       <r>  -16.1940    1.0000 </r>
       <r>  -16.1322    1.0000 </r>
       <r>  -16.0220    1.0000 </r>
       <r>  -15.9022    1.0000 </r>
       <r>  -15.8293    1.0000 </r>
       <r>  -15.7868    1.0000 </r>
       <r>  -15.6774    1.0000 </r>
       <r>  -15.6187    1.0000 </r>
       <r>  -15.4731    1.0000 </r>
       <r>  -15.4260    1.0000 </r>
       <r>  -15.2294    1.0000 </r>
       <r>   -9.7795    1.0000 </r>
       <r>   -9.4760    1.0000 </r>
       <r>   -9.3731    1.0000 </r>
       <r>   -9.0380    1.0000 </r>
       <r>   -8.7737    1.0000 </r>
       <r>   -8.7309    1.0000 </r>
       <r>   -8.6377    1.0000 </r>
       <r>   -8.5727    1.0000 </r>
       <r>   -8.3879    1.0000 </r>
       <r>   -8.2796    1.0000 </r>
       <r>   -8.2422    1.0000 </r>
       <r>   -8.1541    1.0000 </r>
       <r>   -8.1081    1.0000 </r>
       <r>   -8.0831    1.0000 </r>
       <r>   -7.9912    1.0000 </r>
       <r>   -7.9277    1.0000 </r>
       <r>   -7.8275    1.0000 </r>
       <r>   -7.7715    1.0000 </r>
       <r>   -7.5175    1.0000 </r>
       <r>   -7.4634    1.0000 </r>
       <r>   -7.4055    1.0000 </r>
       <r>   -7.3412    1.0000 </r>
       <r>   -7.1434    1.0000 </r>
       <r>   -7.0580    1.0000 </r>
       <r>   -6.9656    1.0000 </r>
       <r>   -6.8887    1.0000 </r>
       <r>   -6.8693    1.0000 </r>
       <r>   -6.7711    1.0000 </r>
       <r>   -6.6884    1.0000 </r>
       <r>   -6.6143    1.0000 </r>
       <r>   -6.5363    1.0000 </r>
       <r>   -6.4876    1.0000 </r>
       <r>   -6.4271    1.0000 </r>
       <r>   -6.3471    1.0000 </r>
       <r>   -6.2783    1.0000 </r>
       <r>   -6.1422    1.0000 </r>
       <r>   -6.1102    1.0000 </r>
       <r>   -6.0326    1.0000 </r>
       <r>   -5.9803    1.0000 </r>
       <r>   -5.9320    1.0000 </r>
       <r>   -5.8841    1.0000 </r>
       <r>   -5.7845    1.0000 </r>
       <r>   -5.6500    1.0000 </r>
       <r>   -5.5994    1.0000 </r>
       <r>   -5.5272    1.0000 </r>
       <r>   -5.4245    1.0000 </r>
       <r>   -5.2907    1.0000 </r>
       <r>   -5.1863    1.0000 </r>
       <r>   -5.0964    1.0000 </r>
       <r>   -4.8401    1.0000 </r>
       <r>   -4.7697    1.0000 </r>
       <r>   -4.7065    1.0000 </r>
       <r>   -4.6150    1.0000 </r>
       <r>   -4.4413    1.0000 </r>
       <r>   -4.4118    1.0000 </r>
       <r>   -4.3644    1.0000 </r>
       <r>   -4.1511    1.0000 </r>
       <r>   -4.0507    1.0000 </r>
       <r>   -3.9008    1.0000 </r>
       <r>   -3.5752    0.9486 </r>
       <r>   -3.4534    0.7793 </r>
       <r>   -3.3050    0.3900 </r>
       <r>   -3.0876    0.0346 </r>
       <r>   -2.9169    0.0013 </r>
       <r>   -2.8112    0.0001 </r>
       <r>   -2.6055    0.0000 </r>
       <r>   -2.5701    0.0000 </r>
       <r>   -2.4805    0.0000 </r>
       <r>   -2.2030    0.0000 </r>
       <r>   -2.1781    0.0000 </r>
       <r>   -2.0782    0.0000 </r>
       <r>   -1.9092    0.0000 </r>
       <r>   -1.7624    0.0000 </r>
       <r>   -1.5597    0.0000 </r>
       <r>   -1.4732    0.0000 </r>
       <r>   -1.3010    0.0000 </r>
       <r>   -1.1907    0.0000 </r>
       <r>   -1.1632    0.0000 </r>
       <r>   -1.0543    0.0000 </r>
       <r>   -1.0185    0.0000 </r>
       <r>   -0.9524    0.0000 </r>
       <r>   -0.9240    0.0000 </r>
       <r>   -0.8634    0.0000 </r>
       <r>   -0.7408    0.0000 </r>
       <r>   -0.6734    0.0000 </r>
       <r>   -0.5982    0.0000 </r>
       <r>   -0.4964    0.0000 </r>
       <r>   -0.4326    0.0000 </r>
       <r>   -0.3619    0.0000 </r>
       <r>   -0.0388    0.0000 </r>
       <r>    0.0957    0.0000 </r>
       <r>    0.2545    0.0000 </r>
       <r>    0.4682    0.0000 </r>
       <r>    0.5210    0.0000 </r>
       <r>    0.6752    0.0000 </r>
       <r>    1.0107    0.0000 </r>
       <r>    1.0492    0.0000 </r>
       <r>    1.1850    0.0000 </r>
       <r>    1.4808    0.0000 </r>
       <r>    2.1394    0.0000 </r>
       <r>    2.2939    0.0000 </r>
       <r>    2.3970    0.0000 </r>
      </set>
      <set comment="kpoint 34">
       <r>  -17.5298    1.0000 </r>
       <r>  -17.3143    1.0000 </r>
       <r>  -16.7879    1.0000 </r>
       <r>  -16.7167    1.0000 </r>
       <r>  -16.6331    1.0000 </r>
       <r>  -16.4739    1.0000 </r>
       <r>  -16.3204    1.0000 </r>
       <r>  -16.1944    1.0000 </r>
       <r>  -16.1385    1.0000 </r>
       <r>  -16.0040    1.0000 </r>
       <r>  -15.8649    1.0000 </r>
       <r>  -15.8156    1.0000 </r>
       <r>  -15.7740    1.0000 </r>
       <r>  -15.6807    1.0000 </r>
       <r>  -15.6370    1.0000 </r>
       <r>  -15.4785    1.0000 </r>
       <r>  -15.4336    1.0000 </r>
       <r>  -15.2308    1.0000 </r>
       <r>   -9.8197    1.0000 </r>
       <r>   -9.3725    1.0000 </r>
       <r>   -9.3304    1.0000 </r>
       <r>   -9.0563    1.0000 </r>
       <r>   -8.8845    1.0000 </r>
       <r>   -8.8013    1.0000 </r>
       <r>   -8.6717    1.0000 </r>
       <r>   -8.6062    1.0000 </r>
       <r>   -8.3578    1.0000 </r>
       <r>   -8.2821    1.0000 </r>
       <r>   -8.2269    1.0000 </r>
       <r>   -8.1383    1.0000 </r>
       <r>   -8.0803    1.0000 </r>
       <r>   -8.0621    1.0000 </r>
       <r>   -7.9319    1.0000 </r>
       <r>   -7.8734    1.0000 </r>
       <r>   -7.7731    1.0000 </r>
       <r>   -7.7550    1.0000 </r>
       <r>   -7.6281    1.0000 </r>
       <r>   -7.4773    1.0000 </r>
       <r>   -7.4256    1.0000 </r>
       <r>   -7.3520    1.0000 </r>
       <r>   -7.0961    1.0000 </r>
       <r>   -7.0456    1.0000 </r>
       <r>   -6.9844    1.0000 </r>
       <r>   -6.8998    1.0000 </r>
       <r>   -6.8137    1.0000 </r>
       <r>   -6.7578    1.0000 </r>
       <r>   -6.6803    1.0000 </r>
       <r>   -6.6066    1.0000 </r>
       <r>   -6.5627    1.0000 </r>
       <r>   -6.5005    1.0000 </r>
       <r>   -6.4587    1.0000 </r>
       <r>   -6.3309    1.0000 </r>
       <r>   -6.2781    1.0000 </r>
       <r>   -6.1912    1.0000 </r>
       <r>   -6.1344    1.0000 </r>
       <r>   -6.0180    1.0000 </r>
       <r>   -5.9862    1.0000 </r>
       <r>   -5.9334    1.0000 </r>
       <r>   -5.8178    1.0000 </r>
       <r>   -5.7435    1.0000 </r>
       <r>   -5.7293    1.0000 </r>
       <r>   -5.5869    1.0000 </r>
       <r>   -5.5603    1.0000 </r>
       <r>   -5.4979    1.0000 </r>
       <r>   -5.3082    1.0000 </r>
       <r>   -5.1382    1.0000 </r>
       <r>   -5.1099    1.0000 </r>
       <r>   -4.8090    1.0000 </r>
       <r>   -4.7246    1.0000 </r>
       <r>   -4.6958    1.0000 </r>
       <r>   -4.5295    1.0000 </r>
       <r>   -4.4321    1.0000 </r>
       <r>   -4.4232    1.0000 </r>
       <r>   -4.3580    1.0000 </r>
       <r>   -4.2116    1.0000 </r>
       <r>   -4.0539    1.0000 </r>
       <r>   -3.9485    1.0000 </r>
       <r>   -3.5488    0.9258 </r>
       <r>   -3.4311    0.7300 </r>
       <r>   -3.3054    0.3913 </r>
       <r>   -3.0944    0.0385 </r>
       <r>   -2.9382    0.0020 </r>
       <r>   -2.8372    0.0002 </r>
       <r>   -2.5979    0.0000 </r>
       <r>   -2.5910    0.0000 </r>
       <r>   -2.4901    0.0000 </r>
       <r>   -2.1892    0.0000 </r>
       <r>   -2.1646    0.0000 </r>
       <r>   -2.0802    0.0000 </r>
       <r>   -1.8961    0.0000 </r>
       <r>   -1.7700    0.0000 </r>
       <r>   -1.5592    0.0000 </r>
       <r>   -1.4628    0.0000 </r>
       <r>   -1.2981    0.0000 </r>
       <r>   -1.1732    0.0000 </r>
       <r>   -1.1469    0.0000 </r>
       <r>   -1.0732    0.0000 </r>
       <r>   -1.0532    0.0000 </r>
       <r>   -0.9250    0.0000 </r>
       <r>   -0.9126    0.0000 </r>
       <r>   -0.8745    0.0000 </r>
       <r>   -0.6854    0.0000 </r>
       <r>   -0.6718    0.0000 </r>
       <r>   -0.6348    0.0000 </r>
       <r>   -0.4993    0.0000 </r>
       <r>   -0.4714    0.0000 </r>
       <r>   -0.4045    0.0000 </r>
       <r>   -0.0024    0.0000 </r>
       <r>    0.0789    0.0000 </r>
       <r>    0.2380    0.0000 </r>
       <r>    0.5169    0.0000 </r>
       <r>    0.5303    0.0000 </r>
       <r>    0.6908    0.0000 </r>
       <r>    1.0205    0.0000 </r>
       <r>    1.0617    0.0000 </r>
       <r>    1.1461    0.0000 </r>
       <r>    1.5066    0.0000 </r>
       <r>    2.2220    0.0000 </r>
       <r>    2.2534    0.0000 </r>
       <r>    2.3826    0.0000 </r>
      </set>
     </set>
    </set>
   </array>
  </eigenvalues>
  <separator name="orbital magnetization" >
   <v name="MAGDIPOLOUT">      0.00000000      0.00000000      0.00000000</v>
  </separator>
 </calculation>
 <structure name="finalpos" >
  <crystal>
   <varray name="basis" >
    <v>       8.33633213       4.83755398       0.00000000 </v>
    <v>      -8.32741060       4.82211013       0.00000000 </v>
    <v>       0.00000000       0.00000000      30.00000000 </v>
   </varray>
   <i name="volume">   2414.49029432 </i>
   <varray name="rec_basis" >
    <v>       0.05991463       0.10346793       0.00000000 </v>
    <v>      -0.06010652       0.10357878       0.00000000 </v>
    <v>       0.00000000       0.00000000       0.03333333 </v>
   </varray>
  </crystal>
  <varray name="positions" >
   <v>       0.30599539       0.64862986       0.00021803 </v>
   <v>       0.29736221      -0.01908361       0.00156554 </v>
   <v>       0.66079198       0.63128395      -0.00128171 </v>
   <v>       0.70170490       0.34867300      -0.00025645 </v>
   <v>      -0.00889165       0.64023505      -0.00067454 </v>
   <v>       0.99917016       0.33529809      -0.00011439 </v>
   <v>       0.01546160       0.03559987       0.00044378 </v>
   <v>       0.31068904       0.32459807      -0.00010373 </v>
   <v>       0.70032437       0.03578730       0.00026261 </v>
   <v>       0.11227886       0.22989548       0.94348540 </v>
   <v>       0.22261292       0.11022678       0.05464244 </v>
   <v>       0.11620410       0.55947559       0.94514231 </v>
   <v>       0.22820980       0.45127379       0.05355216 </v>
   <v>       0.10293836       0.88834973       0.95051078 </v>
   <v>       0.21948515       0.77352974       0.05158178 </v>
   <v>       0.44547009       0.21590271       0.95682191 </v>
   <v>       0.55142874       0.10988307       0.04797191 </v>
   <v>       0.44241865       0.55709809       0.95071511 </v>
   <v>       0.55595556       0.43798284       0.04988824 </v>
   <v>       0.44347468       0.89139990       0.95742097 </v>
   <v>       0.55691702       0.77680785       0.04097628 </v>
   <v>       0.78585098       0.22993322       0.94321869 </v>
   <v>       0.89686422       0.11958570       0.05667049 </v>
   <v>       0.77684233       0.55388641       0.94442850 </v>
   <v>       0.89623152       0.44476370       0.05660789 </v>
   <v>       0.77768883       0.88679082       0.95245173 </v>
   <v>       0.88473464       0.78040744       0.04385415 </v>
  </varray>
 </structure>
</modeling>
