   27   27  100    1
  0.9710400E+02  0.1002848E-08  0.1002848E-08  0.3000000E-08  0.5000000E-15
  1.000000000000000E-004
  CAR 
 unknown system                          
    159     34    120
 
  0.0000000E+00  0.0000000E+00  0.0000000E+00  0.1562500E-01
    1      -17.806404   1.000000
    2      -16.643633   1.000000
    3      -16.575954   1.000000
    4      -16.542139   1.000000
    5      -16.501809   1.000000
    6      -16.446444   1.000000
    7      -16.404816   1.000000
    8      -16.274433   1.000000
    9      -16.138225   1.000000
   10      -16.111606   1.000000
   11      -16.073655   1.000000
   12      -15.942017   1.000000
   13      -15.935626   1.000000
   14      -15.776330   1.000000
   15      -15.573354   1.000000
   16      -15.532595   1.000000
   17      -15.461551   1.000000
   18      -15.351544   1.000000
   19       -9.279722   1.000000
   20       -8.878592   1.000000
   21       -8.864567   1.000000
   22       -8.770483   1.000000
   23       -8.762242   1.000000
   24       -8.634378   1.000000
   25       -8.625432   1.000000
   26       -8.535283   1.000000
   27       -8.446957   1.000000
   28       -8.424276   1.000000
   29       -8.393810   1.000000
   30       -8.366368   1.000000
   31       -8.236670   1.000000
   32       -8.226072   1.000000
   33       -8.138331   1.000000
   34       -8.036230   1.000000
   35       -7.870975   1.000000
   36       -7.794757   1.000000
   37       -7.755174   1.000000
   38       -7.569498   1.000000
   39       -7.494141   1.000000
   40       -7.458874   1.000000
   41       -7.379729   1.000000
   42       -7.267689   1.000000
   43       -7.070505   1.000000
   44       -6.869284   1.000000
   45       -6.816533   1.000000
   46       -6.784753   1.000000
   47       -6.763485   1.000000
   48       -6.671293   1.000000
   49       -6.550530   1.000000
   50       -6.546035   1.000000
   51       -6.498014   1.000000
   52       -6.468720   1.000000
   53       -6.363510   1.000000
   54       -6.342678   1.000000
   55       -6.105684   1.000000
   56       -6.052683   1.000000
   57       -6.009453   1.000000
   58       -5.798587   1.000000
   59       -5.723934   1.000000
   60       -5.594000   1.000000
   61       -5.565909   1.000000
   62       -5.464989   1.000000
   63       -5.295993   1.000000
   64       -5.208879   1.000000
   65       -4.949336   1.000000
   66       -4.884138   1.000000
   67       -4.832613   1.000000
   68       -4.767556   1.000000
   69       -4.661995   1.000000
   70       -4.618561   1.000000
   71       -4.588321   1.000000
   72       -4.491183   1.000000
   73       -4.438163   1.000000
   74       -4.368666   1.000000
   75       -4.152859   1.000000
   76       -4.008400   1.000000
   77       -3.567917   0.997487
   78       -3.527275   0.994099
   79       -3.447565   0.974673
   80       -3.332183   0.872551
   81       -3.233001   0.669021
   82       -2.656530   0.000137
   83       -2.566160   0.000009
   84       -2.530455   0.000003
   85       -2.385244   0.000000
   86       -2.336792   0.000000
   87       -2.274613   0.000000
   88       -2.243397   0.000000
   89       -2.121216   0.000000
   90       -2.034436   0.000000
   91       -1.778299   0.000000
   92       -1.644546   0.000000
   93       -1.531363   0.000000
   94       -1.513651   0.000000
   95       -1.401958   0.000000
   96       -1.331342   0.000000
   97       -1.246044   0.000000
   98       -1.188200   0.000000
   99       -0.687714   0.000000
  100       -0.498234   0.000000
  101       -0.462877   0.000000
  102       -0.413262   0.000000
  103       -0.335322   0.000000
  104       -0.255594   0.000000
  105       -0.213285   0.000000
  106        0.113747   0.000000
  107        0.125475   0.000000
  108        0.168330   0.000000
  109        0.214163   0.000000
  110        0.258154   0.000000
  111        0.410541   0.000000
  112        0.724721   0.000000
  113        0.792256   0.000000
  114        0.899903   0.000000
  115        0.965172   0.000000
  116        1.010672   0.000000
  117        1.079674   0.000000
  118        1.675390   0.000000
  119        1.843351   0.000000
  120        2.187367   0.000000
 
  0.1250000E+00  0.2775558E-16  0.0000000E+00  0.3125000E-01
    1      -17.780112   1.000000
    2      -16.717643   1.000000
    3      -16.651536   1.000000
    4      -16.577550   1.000000
    5      -16.536803   1.000000
    6      -16.420573   1.000000
    7      -16.281975   1.000000
    8      -16.267428   1.000000
    9      -16.178662   1.000000
   10      -16.135108   1.000000
   11      -15.970755   1.000000
   12      -15.943820   1.000000
   13      -15.910766   1.000000
   14      -15.747782   1.000000
   15      -15.587994   1.000000
   16      -15.536515   1.000000
   17      -15.465805   1.000000
   18      -15.367688   1.000000
   19       -9.254358   1.000000
   20       -9.145652   1.000000
   21       -8.927544   1.000000
   22       -8.891065   1.000000
   23       -8.755595   1.000000
   24       -8.692749   1.000000
   25       -8.616360   1.000000
   26       -8.497590   1.000000
   27       -8.468267   1.000000
   28       -8.432711   1.000000
   29       -8.389705   1.000000
   30       -8.289806   1.000000
   31       -8.140014   1.000000
   32       -8.124308   1.000000
   33       -8.104143   1.000000
   34       -7.871496   1.000000
   35       -7.816321   1.000000
   36       -7.736447   1.000000
   37       -7.681242   1.000000
   38       -7.591182   1.000000
   39       -7.502568   1.000000
   40       -7.454047   1.000000
   41       -7.328639   1.000000
   42       -7.252238   1.000000
   43       -7.086166   1.000000
   44       -6.925944   1.000000
   45       -6.858282   1.000000
   46       -6.820629   1.000000
   47       -6.777142   1.000000
   48       -6.690272   1.000000
   49       -6.643372   1.000000
   50       -6.550738   1.000000
   51       -6.485186   1.000000
   52       -6.399546   1.000000
   53       -6.324279   1.000000
   54       -6.289340   1.000000
   55       -6.180246   1.000000
   56       -6.072887   1.000000
   57       -5.983791   1.000000
   58       -5.742467   1.000000
   59       -5.720438   1.000000
   60       -5.639146   1.000000
   61       -5.466148   1.000000
   62       -5.393112   1.000000
   63       -5.321636   1.000000
   64       -5.245129   1.000000
   65       -5.121410   1.000000
   66       -5.034776   1.000000
   67       -4.913379   1.000000
   68       -4.809135   1.000000
   69       -4.721535   1.000000
   70       -4.675635   1.000000
   71       -4.579209   1.000000
   72       -4.406600   1.000000
   73       -4.304097   1.000000
   74       -4.223524   1.000000
   75       -4.015892   1.000000
   76       -3.926167   1.000000
   77       -3.739525   0.999971
   78       -3.659185   0.999721
   79       -3.538703   0.995323
   80       -3.202283   0.587064
   81       -3.145801   0.428817
   82       -2.667395   0.000184
   83       -2.622845   0.000053
   84       -2.541979   0.000004
   85       -2.384462   0.000000
   86       -2.345549   0.000000
   87       -2.274175   0.000000
   88       -2.207156   0.000000
   89       -2.132495   0.000000
   90       -2.022891   0.000000
   91       -1.778567   0.000000
   92       -1.670675   0.000000
   93       -1.545467   0.000000
   94       -1.466079   0.000000
   95       -1.378525   0.000000
   96       -1.312918   0.000000
   97       -1.217253   0.000000
   98       -1.117449   0.000000
   99       -0.706098   0.000000
  100       -0.579331   0.000000
  101       -0.528186   0.000000
  102       -0.474392   0.000000
  103       -0.417083   0.000000
  104       -0.319935   0.000000
  105       -0.114917   0.000000
  106       -0.037817   0.000000
  107        0.032343   0.000000
  108        0.070961   0.000000
  109        0.180877   0.000000
  110        0.279330   0.000000
  111        0.578281   0.000000
  112        0.725442   0.000000
  113        0.846510   0.000000
  114        0.887834   0.000000
  115        0.964860   0.000000
  116        1.040529   0.000000
  117        1.147191   0.000000
  118        1.719465   0.000000
  119        1.880960   0.000000
  120        2.222857   0.000000
 
  0.2500000E+00  0.5551115E-16  0.0000000E+00  0.3125000E-01
    1      -17.702304   1.000000
    2      -16.948888   1.000000
    3      -16.697761   1.000000
    4      -16.612764   1.000000
    5      -16.557260   1.000000
    6      -16.349454   1.000000
    7      -16.316452   1.000000
    8      -16.206799   1.000000
    9      -16.148519   1.000000
   10      -16.092858   1.000000
   11      -15.961568   1.000000
   12      -15.898855   1.000000
   13      -15.830074   1.000000
   14      -15.674652   1.000000
   15      -15.609295   1.000000
   16      -15.545111   1.000000
   17      -15.486055   1.000000
   18      -15.406516   1.000000
   19       -9.482885   1.000000
   20       -9.205547   1.000000
   21       -9.053182   1.000000
   22       -9.036980   1.000000
   23       -8.863695   1.000000
   24       -8.796930   1.000000
   25       -8.607384   1.000000
   26       -8.509268   1.000000
   27       -8.447694   1.000000
   28       -8.367483   1.000000
   29       -8.323713   1.000000
   30       -8.164556   1.000000
   31       -8.116130   1.000000
   32       -8.021366   1.000000
   33       -7.949776   1.000000
   34       -7.810766   1.000000
   35       -7.754605   1.000000
   36       -7.709061   1.000000
   37       -7.590361   1.000000
   38       -7.466542   1.000000
   39       -7.426709   1.000000
   40       -7.326577   1.000000
   41       -7.265155   1.000000
   42       -7.190059   1.000000
   43       -7.051154   1.000000
   44       -6.973055   1.000000
   45       -6.943998   1.000000
   46       -6.840417   1.000000
   47       -6.785245   1.000000
   48       -6.729594   1.000000
   49       -6.702222   1.000000
   50       -6.548589   1.000000
   51       -6.496034   1.000000
   52       -6.435275   1.000000
   53       -6.262867   1.000000
   54       -6.166265   1.000000
   55       -6.136924   1.000000
   56       -6.068445   1.000000
   57       -5.997468   1.000000
   58       -5.742656   1.000000
   59       -5.697068   1.000000
   60       -5.615430   1.000000
   61       -5.591974   1.000000
   62       -5.483762   1.000000
   63       -5.450160   1.000000
   64       -5.315543   1.000000
   65       -5.240696   1.000000
   66       -5.151228   1.000000
   67       -5.026928   1.000000
   68       -4.889975   1.000000
   69       -4.696489   1.000000
   70       -4.658353   1.000000
   71       -4.567537   1.000000
   72       -4.264437   1.000000
   73       -4.206862   1.000000
   74       -4.105000   1.000000
   75       -4.021713   1.000000
   76       -3.890445   1.000000
   77       -3.811845   0.999997
   78       -3.689115   0.999875
   79       -3.525127   0.993840
   80       -3.138429   0.408458
   81       -3.075410   0.249164
   82       -2.764176   0.002002
   83       -2.665456   0.000174
   84       -2.539851   0.000004
   85       -2.447075   0.000000
   86       -2.336863   0.000000
   87       -2.275235   0.000000
   88       -2.167844   0.000000
   89       -2.091290   0.000000
   90       -1.993349   0.000000
   91       -1.784009   0.000000
   92       -1.690909   0.000000
   93       -1.552874   0.000000
   94       -1.412846   0.000000
   95       -1.336037   0.000000
   96       -1.287225   0.000000
   97       -1.132759   0.000000
   98       -0.964806   0.000000
   99       -0.786457   0.000000
  100       -0.760080   0.000000
  101       -0.654433   0.000000
  102       -0.566098   0.000000
  103       -0.489857   0.000000
  104       -0.426306   0.000000
  105       -0.264624   0.000000
  106       -0.177076   0.000000
  107       -0.157805   0.000000
  108       -0.031142   0.000000
  109        0.163167   0.000000
  110        0.343563   0.000000
  111        0.613770   0.000000
  112        0.757265   0.000000
  113        0.849132   0.000000
  114        0.914882   0.000000
  115        1.008401   0.000000
  116        1.170120   0.000000
  117        1.334071   0.000000
  118        1.842308   0.000000
  119        1.989754   0.000000
  120        2.328269   0.000000
 
  0.3750000E+00  0.0000000E+00  0.0000000E+00  0.3125000E-01
    1      -17.577249   1.000000
    2      -17.180121   1.000000
    3      -16.739840   1.000000
    4      -16.644250   1.000000
    5      -16.527419   1.000000
    6      -16.401306   1.000000
    7      -16.298081   1.000000
    8      -16.180683   1.000000
    9      -16.082948   1.000000
   10      -16.027113   1.000000
   11      -15.978856   1.000000
   12      -15.870305   1.000000
   13      -15.747155   1.000000
   14      -15.646925   1.000000
   15      -15.623975   1.000000
   16      -15.540364   1.000000
   17      -15.514599   1.000000
   18      -15.429686   1.000000
   19       -9.718731   1.000000
   20       -9.247262   1.000000
   21       -9.168261   1.000000
   22       -9.031563   1.000000
   23       -8.949149   1.000000
   24       -8.820091   1.000000
   25       -8.599995   1.000000
   26       -8.521286   1.000000
   27       -8.403278   1.000000
   28       -8.295632   1.000000
   29       -8.274865   1.000000
   30       -8.194797   1.000000
   31       -8.095423   1.000000
   32       -7.981650   1.000000
   33       -7.913377   1.000000
   34       -7.777087   1.000000
   35       -7.746852   1.000000
   36       -7.680091   1.000000
   37       -7.508088   1.000000
   38       -7.469317   1.000000
   39       -7.358592   1.000000
   40       -7.289039   1.000000
   41       -7.214141   1.000000
   42       -7.113749   1.000000
   43       -6.991944   1.000000
   44       -6.962251   1.000000
   45       -6.891320   1.000000
   46       -6.747436   1.000000
   47       -6.725185   1.000000
   48       -6.689967   1.000000
   49       -6.627240   1.000000
   50       -6.564929   1.000000
   51       -6.425099   1.000000
   52       -6.304500   1.000000
   53       -6.243323   1.000000
   54       -6.186626   1.000000
   55       -6.021225   1.000000
   56       -6.000163   1.000000
   57       -5.991307   1.000000
   58       -5.949671   1.000000
   59       -5.873170   1.000000
   60       -5.761719   1.000000
   61       -5.687301   1.000000
   62       -5.648893   1.000000
   63       -5.607277   1.000000
   64       -5.498324   1.000000
   65       -5.174263   1.000000
   66       -5.086162   1.000000
   67       -4.963115   1.000000
   68       -4.881938   1.000000
   69       -4.798471   1.000000
   70       -4.680259   1.000000
   71       -4.588925   1.000000
   72       -4.436896   1.000000
   73       -4.210668   1.000000
   74       -4.048160   1.000000
   75       -3.951994   1.000000
   76       -3.819956   0.999998
   77       -3.730355   0.999962
   78       -3.518893   0.993029
   79       -3.449541   0.975488
   80       -3.147045   0.432273
   81       -3.079715   0.258917
   82       -2.895591   0.025669
   83       -2.666645   0.000180
   84       -2.537679   0.000004
   85       -2.522440   0.000002
   86       -2.334800   0.000000
   87       -2.275400   0.000000
   88       -2.091941   0.000000
   89       -2.050894   0.000000
   90       -1.949697   0.000000
   91       -1.802156   0.000000
   92       -1.677224   0.000000
   93       -1.555098   0.000000
   94       -1.398051   0.000000
   95       -1.321726   0.000000
   96       -1.277433   0.000000
   97       -1.036717   0.000000
   98       -0.944053   0.000000
   99       -0.846645   0.000000
  100       -0.820691   0.000000
  101       -0.720348   0.000000
  102       -0.654062   0.000000
  103       -0.569707   0.000000
  104       -0.550691   0.000000
  105       -0.387082   0.000000
  106       -0.340939   0.000000
  107       -0.303317   0.000000
  108       -0.070896   0.000000
  109        0.135618   0.000000
  110        0.373723   0.000000
  111        0.499488   0.000000
  112        0.821040   0.000000
  113        0.886887   0.000000
  114        0.940405   0.000000
  115        1.077437   0.000000
  116        1.282218   0.000000
  117        1.514325   0.000000
  118        2.027547   0.000000
  119        2.163488   0.000000
  120        2.501153   0.000000
 
  0.5000000E+00  0.1110223E-15  0.0000000E+00  0.1562500E-01
    1      -17.449141   1.000000
    2      -17.345303   1.000000
    3      -16.755027   1.000000
    4      -16.656480   1.000000
    5      -16.491651   1.000000
    6      -16.448632   1.000000
    7      -16.295544   1.000000
    8      -16.159158   1.000000
    9      -16.030650   1.000000
   10      -16.025084   1.000000
   11      -16.000414   1.000000
   12      -15.841117   1.000000
   13      -15.708499   1.000000
   14      -15.652842   1.000000
   15      -15.620997   1.000000
   16      -15.588639   1.000000
   17      -15.506490   1.000000
   18      -15.420718   1.000000
   19       -9.803024   1.000000
   20       -9.280620   1.000000
   21       -9.214564   1.000000
   22       -9.008252   1.000000
   23       -8.981316   1.000000
   24       -8.742659   1.000000
   25       -8.668468   1.000000
   26       -8.554354   1.000000
   27       -8.353628   1.000000
   28       -8.330887   1.000000
   29       -8.187258   1.000000
   30       -8.163013   1.000000
   31       -8.144079   1.000000
   32       -7.968236   1.000000
   33       -7.846628   1.000000
   34       -7.836965   1.000000
   35       -7.771228   1.000000
   36       -7.586802   1.000000
   37       -7.569242   1.000000
   38       -7.539175   1.000000
   39       -7.354319   1.000000
   40       -7.332056   1.000000
   41       -7.168736   1.000000
   42       -7.025572   1.000000
   43       -6.907298   1.000000
   44       -6.901429   1.000000
   45       -6.797113   1.000000
   46       -6.748049   1.000000
   47       -6.683049   1.000000
   48       -6.610977   1.000000
   49       -6.579089   1.000000
   50       -6.515363   1.000000
   51       -6.464677   1.000000
   52       -6.354276   1.000000
   53       -6.282011   1.000000
   54       -6.174135   1.000000
   55       -6.096158   1.000000
   56       -6.027474   1.000000
   57       -5.922384   1.000000
   58       -5.904447   1.000000
   59       -5.813083   1.000000
   60       -5.789395   1.000000
   61       -5.744703   1.000000
   62       -5.742190   1.000000
   63       -5.558474   1.000000
   64       -5.543005   1.000000
   65       -5.487062   1.000000
   66       -5.036978   1.000000
   67       -4.988484   1.000000
   68       -4.862374   1.000000
   69       -4.844498   1.000000
   70       -4.703846   1.000000
   71       -4.495263   1.000000
   72       -4.459000   1.000000
   73       -4.333629   1.000000
   74       -3.989646   1.000000
   75       -3.887371   1.000000
   76       -3.756354   0.999982
   77       -3.710880   0.999932
   78       -3.530970   0.994523
   79       -3.294688   0.808779
   80       -3.158288   0.463711
   81       -3.133240   0.394270
   82       -2.964636   0.072088
   83       -2.658320   0.000144
   84       -2.556697   0.000007
   85       -2.539334   0.000004
   86       -2.332856   0.000000
   87       -2.272788   0.000000
   88       -2.059582   0.000000
   89       -2.025447   0.000000
   90       -1.929898   0.000000
   91       -1.811401   0.000000
   92       -1.658513   0.000000
   93       -1.565620   0.000000
   94       -1.402933   0.000000
   95       -1.328837   0.000000
   96       -1.275324   0.000000
   97       -1.000450   0.000000
   98       -0.994875   0.000000
   99       -0.839726   0.000000
  100       -0.815547   0.000000
  101       -0.730926   0.000000
  102       -0.678547   0.000000
  103       -0.625373   0.000000
  104       -0.597767   0.000000
  105       -0.444679   0.000000
  106       -0.379377   0.000000
  107       -0.355134   0.000000
  108       -0.098097   0.000000
  109        0.124477   0.000000
  110        0.383188   0.000000
  111        0.454148   0.000000
  112        0.827084   0.000000
  113        0.899242   0.000000
  114        0.972289   0.000000
  115        1.103477   0.000000
  116        1.325717   0.000000
  117        1.579933   0.000000
  118        2.251525   0.000000
  119        2.278487   0.000000
  120        2.400335   0.000000
 
  0.0000000E+00  0.1250000E+00  0.0000000E+00  0.3125000E-01
    1      -17.780619   1.000000
    2      -16.736034   1.000000
    3      -16.635771   1.000000
    4      -16.591620   1.000000
    5      -16.508032   1.000000
    6      -16.412667   1.000000
    7      -16.311239   1.000000
    8      -16.263095   1.000000
    9      -16.165512   1.000000
   10      -16.116895   1.000000
   11      -16.019803   1.000000
   12      -15.927834   1.000000
   13      -15.896906   1.000000
   14      -15.755170   1.000000
   15      -15.581029   1.000000
   16      -15.550117   1.000000
   17      -15.468943   1.000000
   18      -15.357992   1.000000
   19       -9.275850   1.000000
   20       -9.086400   1.000000
   21       -8.971193   1.000000
   22       -8.869164   1.000000
   23       -8.778707   1.000000
   24       -8.657140   1.000000
   25       -8.624457   1.000000
   26       -8.515931   1.000000
   27       -8.479483   1.000000
   28       -8.464956   1.000000
   29       -8.336288   1.000000
   30       -8.236170   1.000000
   31       -8.228664   1.000000
   32       -8.150674   1.000000
   33       -8.032719   1.000000
   34       -7.878946   1.000000
   35       -7.779672   1.000000
   36       -7.742814   1.000000
   37       -7.706889   1.000000
   38       -7.609636   1.000000
   39       -7.525939   1.000000
   40       -7.437547   1.000000
   41       -7.351271   1.000000
   42       -7.242146   1.000000
   43       -7.055273   1.000000
   44       -6.989911   1.000000
   45       -6.837355   1.000000
   46       -6.804248   1.000000
   47       -6.779891   1.000000
   48       -6.662250   1.000000
   49       -6.591140   1.000000
   50       -6.538970   1.000000
   51       -6.513193   1.000000
   52       -6.407170   1.000000
   53       -6.365279   1.000000
   54       -6.310505   1.000000
   55       -6.123104   1.000000
   56       -6.103138   1.000000
   57       -5.986802   1.000000
   58       -5.775760   1.000000
   59       -5.728056   1.000000
   60       -5.578806   1.000000
   61       -5.494595   1.000000
   62       -5.410193   1.000000
   63       -5.328269   1.000000
   64       -5.237139   1.000000
   65       -5.117072   1.000000
   66       -5.019734   1.000000
   67       -4.900382   1.000000
   68       -4.816589   1.000000
   69       -4.760090   1.000000
   70       -4.648423   1.000000
   71       -4.587218   1.000000
   72       -4.410686   1.000000
   73       -4.306771   1.000000
   74       -4.126331   1.000000
   75       -4.069137   1.000000
   76       -3.939814   1.000000
   77       -3.774400   0.999990
   78       -3.663732   0.999752
   79       -3.509394   0.991612
   80       -3.222368   0.641331
   81       -3.091009   0.285417
   82       -2.669848   0.000196
   83       -2.598467   0.000026
   84       -2.574697   0.000012
   85       -2.401566   0.000000
   86       -2.348993   0.000000
   87       -2.264236   0.000000
   88       -2.208260   0.000000
   89       -2.135671   0.000000
   90       -2.031326   0.000000
   91       -1.739947   0.000000
   92       -1.648802   0.000000
   93       -1.552642   0.000000
   94       -1.506383   0.000000
   95       -1.373136   0.000000
   96       -1.306284   0.000000
   97       -1.216587   0.000000
   98       -1.140004   0.000000
   99       -0.698533   0.000000
  100       -0.583895   0.000000
  101       -0.536366   0.000000
  102       -0.468056   0.000000
  103       -0.439342   0.000000
  104       -0.307384   0.000000
  105       -0.170192   0.000000
  106       -0.020904   0.000000
  107        0.059228   0.000000
  108        0.142412   0.000000
  109        0.162237   0.000000
  110        0.232007   0.000000
  111        0.500692   0.000000
  112        0.790340   0.000000
  113        0.860103   0.000000
  114        0.878500   0.000000
  115        1.007987   0.000000
  116        1.049302   0.000000
  117        1.121562   0.000000
  118        1.718030   0.000000
  119        1.882020   0.000000
  120        2.222508   0.000000
 
  0.1250000E+00  0.1250000E+00  0.0000000E+00  0.3125000E-01
    1      -17.728565   1.000000
    2      -16.855093   1.000000
    3      -16.773317   1.000000
    4      -16.588520   1.000000
    5      -16.466328   1.000000
    6      -16.390216   1.000000
    7      -16.307845   1.000000
    8      -16.220018   1.000000
    9      -16.172909   1.000000
   10      -16.104244   1.000000
   11      -15.968537   1.000000
   12      -15.933040   1.000000
   13      -15.816984   1.000000
   14      -15.710093   1.000000
   15      -15.599321   1.000000
   16      -15.555843   1.000000
   17      -15.476276   1.000000
   18      -15.388627   1.000000
   19       -9.356698   1.000000
   20       -9.266796   1.000000
   21       -9.101622   1.000000
   22       -8.961163   1.000000
   23       -8.790930   1.000000
   24       -8.733915   1.000000
   25       -8.582828   1.000000
   26       -8.525177   1.000000
   27       -8.401388   1.000000
   28       -8.395500   1.000000
   29       -8.325740   1.000000
   30       -8.276002   1.000000
   31       -8.165727   1.000000
   32       -8.067869   1.000000
   33       -7.973748   1.000000
   34       -7.867938   1.000000
   35       -7.755178   1.000000
   36       -7.646042   1.000000
   37       -7.592826   1.000000
   38       -7.490182   1.000000
   39       -7.400655   1.000000
   40       -7.364606   1.000000
   41       -7.296292   1.000000
   42       -7.216209   1.000000
   43       -7.092083   1.000000
   44       -7.037241   1.000000
   45       -6.895245   1.000000
   46       -6.857458   1.000000
   47       -6.797812   1.000000
   48       -6.723391   1.000000
   49       -6.646970   1.000000
   50       -6.551801   1.000000
   51       -6.509856   1.000000
   52       -6.391332   1.000000
   53       -6.288586   1.000000
   54       -6.214060   1.000000
   55       -6.169516   1.000000
   56       -6.093487   1.000000
   57       -5.967286   1.000000
   58       -5.771830   1.000000
   59       -5.677039   1.000000
   60       -5.607051   1.000000
   61       -5.509526   1.000000
   62       -5.435499   1.000000
   63       -5.388511   1.000000
   64       -5.309027   1.000000
   65       -5.196162   1.000000
   66       -5.096449   1.000000
   67       -5.036434   1.000000
   68       -4.973255   1.000000
   69       -4.763472   1.000000
   70       -4.623911   1.000000
   71       -4.502974   1.000000
   72       -4.328361   1.000000
   73       -4.158575   1.000000
   74       -4.077315   1.000000
   75       -4.030203   1.000000
   76       -3.917470   1.000000
   77       -3.855127   0.999999
   78       -3.740519   0.999972
   79       -3.494476   0.988876
   80       -3.135573   0.400631
   81       -3.072137   0.241879
   82       -2.707396   0.000520
   83       -2.658165   0.000143
   84       -2.578040   0.000014
   85       -2.405899   0.000000
   86       -2.361692   0.000000
   87       -2.255756   0.000000
   88       -2.198138   0.000000
   89       -2.118347   0.000000
   90       -2.012968   0.000000
   91       -1.738099   0.000000
   92       -1.683993   0.000000
   93       -1.560674   0.000000
   94       -1.444831   0.000000
   95       -1.350449   0.000000
   96       -1.272357   0.000000
   97       -1.179576   0.000000
   98       -1.015089   0.000000
   99       -0.751419   0.000000
  100       -0.709579   0.000000
  101       -0.626596   0.000000
  102       -0.531081   0.000000
  103       -0.501758   0.000000
  104       -0.418659   0.000000
  105       -0.213579   0.000000
  106       -0.145625   0.000000
  107       -0.088268   0.000000
  108        0.051780   0.000000
  109        0.159318   0.000000
  110        0.265792   0.000000
  111        0.616558   0.000000
  112        0.761728   0.000000
  113        0.828065   0.000000
  114        0.930037   0.000000
  115        1.035799   0.000000
  116        1.108857   0.000000
  117        1.279547   0.000000
  118        1.801880   0.000000
  119        1.955100   0.000000
  120        2.293017   0.000000
 
  0.2500000E+00  0.1250000E+00  0.0000000E+00  0.3125000E-01
    1      -17.626823   1.000000
    2      -17.057976   1.000000
    3      -16.877488   1.000000
    4      -16.557611   1.000000
    5      -16.466260   1.000000
    6      -16.367058   1.000000
    7      -16.314184   1.000000
    8      -16.209896   1.000000
    9      -16.121973   1.000000
   10      -16.047481   1.000000
   11      -15.960129   1.000000
   12      -15.921214   1.000000
   13      -15.763893   1.000000
   14      -15.653264   1.000000
   15      -15.603104   1.000000
   16      -15.553748   1.000000
   17      -15.501961   1.000000
   18      -15.417532   1.000000
   19       -9.608733   1.000000
   20       -9.368234   1.000000
   21       -9.184726   1.000000
   22       -9.024062   1.000000
   23       -8.803304   1.000000
   24       -8.729360   1.000000
   25       -8.579122   1.000000
   26       -8.474153   1.000000
   27       -8.407318   1.000000
   28       -8.351573   1.000000
   29       -8.284898   1.000000
   30       -8.186084   1.000000
   31       -8.128906   1.000000
   32       -8.038511   1.000000
   33       -8.027024   1.000000
   34       -7.890167   1.000000
   35       -7.802108   1.000000
   36       -7.554287   1.000000
   37       -7.462988   1.000000
   38       -7.394197   1.000000
   39       -7.348242   1.000000
   40       -7.286482   1.000000
   41       -7.212154   1.000000
   42       -7.172802   1.000000
   43       -7.064906   1.000000
   44       -6.995057   1.000000
   45       -6.870108   1.000000
   46       -6.813365   1.000000
   47       -6.743324   1.000000