<?xml version="1.0" encoding="ISO-8859-1"?>
<modeling>
 <generator>
  <i name="program" type="string">vasp </i>
  <i name="version" type="string">5.4.1  </i>
  <i name="subversion" type="string">05Feb16 (build Jul 05 2020 17:13:04) complex                          parallel </i>
  <i name="platform" type="string">IFC91_ompi </i>
  <i name="date" type="string">2024 04 20 </i>
  <i name="time" type="string">02:34:47 </i>
 </generator>
 <incar>
  <i type="int" name="ISTART">     0</i>
  <i type="string" name="PREC">normal</i>
  <i type="string" name="ALGO"> Normal</i>
  <i type="int" name="ISPIN">     1</i>
  <i type="int" name="ICHARG">     2</i>
  <i type="int" name="IBRION">     1</i>
  <i type="int" name="NSW">   100</i>
  <i type="int" name="ISIF">     3</i>
  <i type="int" name="ISYM">     0</i>
  <i name="SYMPREC">      0.00000001</i>
  <i name="POTIM">      0.50000000</i>
  <i type="logical" name="LREAL"> F  </i>
  <i type="logical" name="LPLANE"> F  </i>
  <i type="int" name="ISMEAR">     0</i>
  <i type="logical" name="LWAVE"> F  </i>
  <i type="logical" name="LCHARG"> F  </i>
  <v type="int" name="KPOINT_BSE">    -1     0     0     0</v>
 </incar>
 <kpoints>
  <generation param="Gamma">
   <v type="int" name="divisions">       8        8        1 </v>
   <v name="usershift">      0.00000000       0.00000000       0.00000000 </v>
   <v name="genvec1">      0.12500000       0.00000000       0.00000000 </v>
   <v name="genvec2">     -0.00000000       0.12500000       0.00000000 </v>
   <v name="genvec3">      0.00000000       0.00000000       1.00000000 </v>
   <v name="shift">      0.00000000       0.00000000       0.00000000 </v>
  </generation>
  <varray name="kpointlist" >
   <v>       0.00000000       0.00000000       0.00000000 </v>
   <v>       0.12500000       0.00000000       0.00000000 </v>
   <v>       0.25000000       0.00000000       0.00000000 </v>
   <v>       0.37500000       0.00000000       0.00000000 </v>
   <v>       0.50000000       0.00000000       0.00000000 </v>
   <v>       0.00000000       0.12500000       0.00000000 </v>
   <v>       0.12500000       0.12500000       0.00000000 </v>
   <v>       0.25000000       0.12500000       0.00000000 </v>
   <v>       0.37500000       0.12500000       0.00000000 </v>
   <v>       0.50000000       0.12500000       0.00000000 </v>
   <v>      -0.37500000       0.12500000       0.00000000 </v>
   <v>      -0.25000000       0.12500000       0.00000000 </v>
   <v>      -0.12500000       0.12500000       0.00000000 </v>
   <v>       0.00000000       0.25000000       0.00000000 </v>
   <v>       0.12500000       0.25000000       0.00000000 </v>
   <v>       0.25000000       0.25000000       0.00000000 </v>
   <v>       0.37500000       0.25000000       0.00000000 </v>
   <v>       0.50000000       0.25000000       0.00000000 </v>
   <v>      -0.37500000       0.25000000       0.00000000 </v>
   <v>      -0.25000000       0.25000000       0.00000000 </v>
   <v>      -0.12500000       0.25000000       0.00000000 </v>
   <v>      -0.00000000       0.37500000       0.00000000 </v>
   <v>       0.12500000       0.37500000       0.00000000 </v>
   <v>       0.25000000       0.37500000       0.00000000 </v>
   <v>       0.37500000       0.37500000       0.00000000 </v>
   <v>       0.50000000       0.37500000       0.00000000 </v>
   <v>      -0.37500000       0.37500000       0.00000000 </v>
   <v>      -0.25000000       0.37500000       0.00000000 </v>
   <v>      -0.12500000       0.37500000       0.00000000 </v>
   <v>       0.00000000       0.50000000       0.00000000 </v>
   <v>       0.12500000       0.50000000       0.00000000 </v>
   <v>       0.25000000       0.50000000       0.00000000 </v>
   <v>       0.37500000       0.50000000       0.00000000 </v>
   <v>       0.50000000       0.50000000       0.00000000 </v>
  </varray>
  <varray name="weights" >
   <v>       0.01562500 </v>
   <v>       0.03125000 </v>
   <v>       0.03125000 </v>
   <v>       0.03125000 </v>
   <v>       0.01562500 </v>
   <v>       0.03125000 </v>
   <v>       0.03125000 </v>
   <v>       0.03125000 </v>
   <v>       0.03125000 </v>
   <v>       0.03125000 </v>
   <v>       0.03125000 </v>
   <v>       0.03125000 </v>
   <v>       0.03125000 </v>
   <v>       0.03125000 </v>
   <v>       0.03125000 </v>
   <v>       0.03125000 </v>
   <v>       0.03125000 </v>
   <v>       0.03125000 </v>
   <v>       0.03125000 </v>
   <v>       0.03125000 </v>
   <v>       0.03125000 </v>
   <v>       0.03125000 </v>
   <v>       0.03125000 </v>
   <v>       0.03125000 </v>
   <v>       0.03125000 </v>
   <v>       0.03125000 </v>
   <v>       0.03125000 </v>
   <v>       0.03125000 </v>
   <v>       0.03125000 </v>
   <v>       0.01562500 </v>
   <v>       0.03125000 </v>
   <v>       0.03125000 </v>
   <v>       0.03125000 </v>
   <v>       0.01562500 </v>
  </varray>
 </kpoints>
 <parameters>
  <separator name="general" >
   <i type="string" name="SYSTEM">unknown system</i>
   <i type="logical" name="LCOMPAT"> F  </i>
  </separator>
  <separator name="electronic" >
   <i type="string" name="PREC">normal</i>
   <i name="ENMAX">    280.00000000</i>
   <i name="ENAUG">    373.43800000</i>
   <i name="EDIFF">      0.00010000</i>
   <i type="int" name="IALGO">    38</i>
   <i type="int" name="IWAVPR">    11</i>
   <i type="int" name="NBANDS">   120</i>
   <i name="NELECT">    159.00000000</i>
   <i type="int" name="TURBO">     0</i>
   <i type="int" name="IRESTART">     0</i>
   <i type="int" name="NREBOOT">     0</i>
   <i type="int" name="NMIN">     0</i>
   <i name="EREF">      0.00000000</i>
   <separator name="electronic smearing" >
    <i type="int" name="ISMEAR">     0</i>
    <i name="SIGMA">      0.20000000</i>
    <i name="KSPACING">      0.50000000</i>
    <i type="logical" name="KGAMMA"> T  </i>
   </separator>
   <separator name="electronic projectors" >
    <i type="logical" name="LREAL"> F  </i>
    <v name="ROPT">      0.00000000      0.00000000      0.00000000      0.00000000</v>
    <i type="int" name="LMAXPAW">  -100</i>
    <i type="int" name="LMAXMIX">     2</i>
    <i type="logical" name="NLSPLINE"> F  </i>
   </separator>
   <separator name="electronic startup" >
    <i type="int" name="ISTART">     0</i>
    <i type="int" name="ICHARG">     2</i>
    <i type="int" name="INIWAV">     1</i>
   </separator>
   <separator name="electronic spin" >
    <i type="int" name="ISPIN">     1</i>
    <i type="logical" name="LNONCOLLINEAR"> F  </i>
    <v name="MAGMOM">      1.00000000      1.00000000      1.00000000      1.00000000      1.00000000      1.00000000      1.00000000      1.00000000      1.00000000      1.00000000      1.00000000      1.00000000      1.00000000      1.00000000      1.00000000      1.00000000      1.00000000      1.00000000      1.00000000      1.00000000
      1.00000000      1.00000000      1.00000000      1.00000000      1.00000000      1.00000000      1.00000000</v>
    <i name="NUPDOWN">     -1.00000000</i>
    <i type="logical" name="LSORBIT"> F  </i>
    <v name="SAXIS">      0.00000000      0.00000000      1.00000000</v>
    <i type="logical" name="LSPIRAL"> F  </i>
    <v name="QSPIRAL">      0.00000000      0.00000000      0.00000000</v>
    <i type="logical" name="LZEROZ"> F  </i>
   </separator>
   <separator name="electronic exchange-correlation" >
    <i type="logical" name="LASPH"> F  </i>
    <i type="logical" name="LMETAGGA"> F  </i>
   </separator>
   <separator name="electronic convergence" >
    <i type="int" name="NELM">    60</i>
    <i type="int" name="NELMDL">    -5</i>
    <i type="int" name="NELMIN">     2</i>
    <i name="ENINI">    280.00000000</i>
    <separator name="electronic convergence detail" >
     <i type="logical" name="LDIAG"> T  </i>
     <i type="logical" name="LSUBROT"> F  </i>
     <i name="WEIMIN">      0.00100000</i>
     <i name="EBREAK">      0.00000021</i>
     <i name="DEPER">      0.30000000</i>
     <i type="int" name="NRMM">     4</i>
     <i name="TIME">      0.40000000</i>
    </separator>
   </separator>
   <separator name="electronic mixer" >
    <i name="AMIX">      0.40000000</i>
    <i name="BMIX">      1.00000000</i>
    <i name="AMIN">      0.10000000</i>
    <i name="AMIX_MAG">      1.60000000</i>
    <i name="BMIX_MAG">      1.00000000</i>
    <separator name="electronic mixer details" >
     <i type="int" name="IMIX">     4</i>
     <i type="logical" name="MIXFIRST"> F  </i>
     <i type="int" name="MAXMIX">   -45</i>
     <i name="WC">    100.00000000</i>
     <i type="int" name="INIMIX">     1</i>
     <i type="int" name="MIXPRE">     1</i>
     <i type="int" name="MREMOVE">     5</i>
    </separator>
   </separator>
   <separator name="electronic dipolcorrection" >
    <i type="logical" name="LDIPOL"> F  </i>
    <i type="logical" name="LMONO"> F  </i>
    <i type="int" name="IDIPOL">     0</i>
    <i name="EPSILON">      1.00000000</i>
    <v name="DIPOL">   -100.00000000   -100.00000000   -100.00000000</v>
    <i name="EFIELD">      0.00000000</i>
   </separator>
  </separator>
  <separator name="grids" >
   <i type="int" name="NGX">    42</i>
   <i type="int" name="NGY">    42</i>
   <i type="int" name="NGZ">   126</i>
   <i type="int" name="NGXF">    84</i>
   <i type="int" name="NGYF">    84</i>
   <i type="int" name="NGZF">   252</i>
   <i type="logical" name="ADDGRID"> F  </i>
  </separator>
  <separator name="ionic" >
   <i type="int" name="NSW">   100</i>
   <i type="int" name="IBRION">     1</i>
   <i type="int" name="ISIF">     3</i>
   <i name="PSTRESS">      0.00000000</i>
   <i name="EDIFFG">      0.00100000</i>
   <i type="int" name="NFREE">     0</i>
   <i name="POTIM">      0.50000000</i>
   <i name="SMASS">     -3.00000000</i>
   <i name="SCALEE">      1.00000000</i>
  </separator>
  <separator name="ionic md" >
   <i name="TEBEG">      0.00010000</i>
   <i name="TEEND">      0.00010000</i>
   <i type="int" name="NBLOCK">     1</i>
   <i type="int" name="KBLOCK">   100</i>
   <i type="int" name="NPACO">   256</i>
   <i name="APACO">     16.00000000</i>
  </separator>
  <separator name="symmetry" >
   <i type="int" name="ISYM">     0</i>
   <i name="SYMPREC">      0.00000001</i>
  </separator>
  <separator name="dos" >
   <i type="logical" name="LORBIT"> F  </i>
   <v name="RWIGS">     -1.00000000     -1.00000000     -1.00000000     -1.00000000</v>
   <i type="int" name="NEDOS">   301</i>
   <i name="EMIN">     10.00000000</i>
   <i name="EMAX">    -10.00000000</i>
   <i name="EFERMI">      0.00000000</i>
  </separator>
  <separator name="writing" >
   <i type="int" name="NWRITE">     2</i>
   <i type="logical" name="LWAVE"> F  </i>
   <i type="logical" name="LCHARG"> F  </i>
   <i type="logical" name="LPARD"> F  </i>
   <i type="logical" name="LVTOT"> F  </i>
   <i type="logical" name="LVHAR"> F  </i>
   <i type="logical" name="LELF"> F  </i>
   <i type="logical" name="LOPTICS"> F  </i>
   <v name="STM">      0.00000000      0.00000000      0.00000000      0.00000000      0.00000000      0.00000000      0.00000000</v>
  </separator>
  <separator name="performance" >
   <i type="int" name="NPAR">    40</i>
   <i type="int" name="NSIM">     4</i>
   <i type="int" name="NBLK">    -1</i>
   <i type="logical" name="LPLANE"> F  </i>
   <i type="logical" name="LSCALAPACK"> T  </i>
   <i type="logical" name="LSCAAWARE"> F  </i>
   <i type="logical" name="LSCALU"> F  </i>
   <i type="logical" name="LASYNC"> F  </i>
   <i type="logical" name="LORBITALREAL"> F  </i>
  </separator>
  <separator name="miscellaneous" >
   <i type="int" name="IDIOT">     3</i>
   <i type="logical" name="LMUSIC"> F  </i>
   <v name="POMASS">     50.94100000     95.94000000    183.85000000     32.06600000</v>
   <v name="DARWINR">      0.00000000      0.00000000      0.00000000      0.00000000</v>
   <v name="DARWINV">      1.00000000      1.00000000      1.00000000      1.00000000</v>
   <i type="logical" name="LCORR"> T  </i>
  </separator>
  <i type="logical" name="GGA_COMPAT"> T  </i>
  <i type="logical" name="LBERRY"> F  </i>
  <i type="int" name="ICORELEVEL">     0</i>
  <i type="logical" name="LDAU"> F  </i>
  <i type="int" name="I_CONSTRAINED_M">     0</i>
  <separator name="electronic exchange-correlation" >
   <i type="string" name="GGA">--</i>
   <i type="int" name="VOSKOWN">     0</i>
   <i type="logical" name="LHFCALC"> F  </i>
   <i type="string" name="PRECFOCK"></i>
   <i type="logical" name="LSYMGRAD"> F  </i>
   <i type="logical" name="LHFONE"> F  </i>
   <i type="logical" name="LRHFCALC"> F  </i>
   <i type="logical" name="LTHOMAS"> F  </i>
   <i type="logical" name="LMODELHF"> F  </i>
   <i name="ENCUT4O">     -1.00000000</i>
   <i type="int" name="EXXOEP">     0</i>
   <i type="int" name="FOURORBIT">     0</i>
   <i name="AEXX">      0.00000000</i>
   <i name="HFALPHA">      0.00000000</i>
   <i name="MCALPHA">      0.00000000</i>
   <i name="ALDAX">      1.00000000</i>
   <i name="AGGAX">      1.00000000</i>
   <i name="ALDAC">      1.00000000</i>
   <i name="AGGAC">      1.00000000</i>
   <i type="int" name="NKREDX">     1</i>
   <i type="int" name="NKREDY">     1</i>
   <i type="int" name="NKREDZ">     1</i>
   <i type="logical" name="SHIFTRED"> F  </i>
   <i type="logical" name="ODDONLY"> F  </i>
   <i type="logical" name="EVENONLY"> F  </i>
   <i type="int" name="LMAXFOCK">     0</i>
   <i type="int" name="NMAXFOCKAE">     0</i>
   <i type="logical" name="LFOCKAEDFT"> F  </i>
   <i name="HFSCREEN">      0.00000000</i>
   <i name="HFSCREENC">      0.00000000</i>
   <i type="int" name="NBANDSGWLOW">     0</i>
  </separator>
  <separator name="vdW DFT" >
   <i type="logical" name="LUSE_VDW"> F  </i>
   <i name="Zab_VDW">     -0.84910000</i>
   <i name="PARAM1">      0.12340000</i>
   <i name="PARAM2">      1.00000000</i>
   <i name="PARAM3">      0.00000000</i>
  </separator>
  <separator name="model GW" >
   <i type="int" name="MODEL_GW">     0</i>
   <i name="MODEL_EPS0">     58.26239943</i>
   <i name="MODEL_ALPHA">      1.00000000</i>
  </separator>
  <separator name="linear response parameters" >
   <i type="logical" name="LEPSILON"> F  </i>
   <i type="logical" name="LRPA"> F  </i>
   <i type="logical" name="LNABLA"> F  </i>
   <i type="logical" name="LVEL"> F  </i>
   <i type="int" name="KINTER">     0</i>
   <i name="CSHIFT">      0.10000000</i>
   <i name="OMEGAMAX">     -1.00000000</i>
   <i name="DEG_THRESHOLD">      0.00200000</i>
  </separator>
  <separator name="orbital magnetization" >
   <i type="logical" name="NUCIND"> F  </i>
   <v name="MAGPOS">      0.00000000      0.00000000      0.00000000</v>
   <i type="logical" name="LNICSALL"> T  </i>
   <i type="logical" name="ORBITALMAG"> F  </i>
   <i type="logical" name="LMAGBLOCH"> F  </i>
   <i type="logical" name="LCHIMAG"> F  </i>
   <i type="logical" name="LGAUGE"> T  </i>
   <i type="int" name="MAGATOM">     0</i>
   <v name="MAGDIPOL">      0.00000000      0.00000000      0.00000000</v>
   <v name="AVECCONST">      0.00000000      0.00000000      0.00000000</v>
  </separator>
  <separator name="response functions" >
   <i type="logical" name="LADDER"> F  </i>
   <i type="logical" name="LFXC"> F  </i>
   <i type="logical" name="LHARTREE"> T  </i>
   <i type="int" name="IBSE">     0</i>
   <v type="int" name="KPOINT">    -1     0     0     0</v>
   <i type="logical" name="LTCTE"> F  </i>
   <i type="logical" name="LTETE"> F  </i>
   <i type="logical" name="LTRIPLET"> F  </i>
   <i type="logical" name="LFXCEPS"> F  </i>
   <i type="logical" name="LFXHEG"> F  </i>
   <i type="int" name="NATURALO">     0</i>
   <i type="logical" name="L2ORDER"> F  </i>
   <i type="logical" name="LUSEW"> F  </i>
   <i name="ENCUTGW">     -2.00000000</i>
   <i name="ENCUTGWSOFT">     -2.00000000</i>
   <i name="ENCUTLF">     -1.00000000</i>
   <i type="int" name="LMAXMP2">    -1</i>
   <i name="SCISSOR">      0.00000000</i>
   <i type="int" name="NOMEGA">     0</i>
   <i type="int" name="NOMEGAR">     0</i>
   <i type="int" name="NBANDSGW">    -1</i>
   <i type="int" name="NBANDSO">    -1</i>
   <i type="int" name="NBANDSV">    -1</i>
   <i type="int" name="NELM">     1</i>
   <i type="int" name="NELMHF">     1</i>
   <i type="int" name="DIM">     3</i>
   <i type="int" name="ANTIRES">     0</i>
   <i name="OMEGAMAX">    -30.00000000</i>
   <i name="OMEGAMIN">    -30.00000000</i>
   <i name="OMEGATL">   -200.00000000</i>
   <i type="int" name="OMEGAGRID">     0</i>
   <i name="CSHIFT">     -0.10000000</i>
   <i type="logical" name="SELFENERGY"> F  </i>
   <i type="logical" name="LSPECTRAL"> F  </i>
   <i type="logical" name="LSPECTRALGW"> F  </i>
   <i type="logical" name="LSINGLES"> F  </i>
   <i type="logical" name="LFERMIGW"> F  </i>
   <i type="logical" name="ODDONLYGW"> F  </i>
   <i type="logical" name="EVENONLYGW"> F  </i>
   <i type="int" name="NKREDLFX">     1</i>
   <i type="int" name="NKREDLFY">     1</i>
   <i type="int" name="NKREDLFZ">     1</i>
   <i type="int" name="MAXMEM">  1800</i>
   <i type="int" name="TELESCOPE">     0</i>
   <i type="int" name="TAUPAR">     1</i>
   <i type="int" name="OMEGAPAR">    -1</i>
   <i name="LAMBDA">      1.00000000</i>
  </separator>
  <separator name="External order field" >
   <i name="OFIELD_KAPPA">      0.00000000</i>
   <v name="OFIELD_K">      0.00000000      0.00000000      0.00000000</v>
   <i name="OFIELD_Q6_NEAR">      0.00000000</i>
   <i name="OFIELD_Q6_FAR">      0.00000000</i>
   <i name="OFIELD_A">      0.00000000</i>
  </separator>
 </parameters>
 <atominfo>
  <atoms>      27 </atoms>
  <types>       4 </types>
  <array name="atoms" >
   <dimension dim="1">ion</dimension>
   <field type="string">element</field>
   <field type="int">atomtype</field>
   <set>
    <rc><c>V </c><c>   1</c></rc>
    <rc><c>V </c><c>   1</c></rc>
    <rc><c>V </c><c>   1</c></rc>
    <rc><c>Mo</c><c>   2</c></rc>
    <rc><c>Mo</c><c>   2</c></rc>
    <rc><c>Mo</c><c>   2</c></rc>
    <rc><c>W </c><c>   3</c></rc>
    <rc><c>W </c><c>   3</c></rc>
    <rc><c>W </c><c>   3</c></rc>
    <rc><c>S </c><c>   4</c></rc>
    <rc><c>S </c><c>   4</c></rc>
    <rc><c>S </c><c>   4</c></rc>
    <rc><c>S </c><c>   4</c></rc>
    <rc><c>S </c><c>   4</c></rc>
    <rc><c>S </c><c>   4</c></rc>
    <rc><c>S </c><c>   4</c></rc>
    <rc><c>S </c><c>   4</c></rc>
    <rc><c>S </c><c>   4</c></rc>
    <rc><c>S </c><c>   4</c></rc>
    <rc><c>S </c><c>   4</c></rc>
    <rc><c>S </c><c>   4</c></rc>
    <rc><c>S </c><c>   4</c></rc>
    <rc><c>S </c><c>   4</c></rc>
    <rc><c>S </c><c>   4</c></rc>
    <rc><c>S </c><c>   4</c></rc>
    <rc><c>S </c><c>   4</c></rc>
    <rc><c>S </c><c>   4</c></rc>
   </set>
  </array>
  <array name="atomtypes" >
   <dimension dim="1">type</dimension>
   <field type="int">atomspertype</field>
   <field type="string">element</field>
   <field>mass</field>
   <field>valence</field>
   <field type="string">pseudopotential</field>
   <set>
    <rc><c>   3</c><c>V </c><c>     50.94100000</c><c>      5.00000000</c><c> PAW_PBE V 08Apr2002                    </c></rc>
    <rc><c>   3</c><c>Mo</c><c>     95.94000000</c><c>      6.00000000</c><c> PAW_PBE Mo 08Apr2002                   </c></rc>
    <rc><c>   3</c><c>W </c><c>    183.85000000</c><c>      6.00000000</c><c> PAW_PBE W 08Apr2002                    </c></rc>
    <rc><c>  18</c><c>S </c><c>     32.06600000</c><c>      6.00000000</c><c>  PAW_PBE S 17Jan2003                   </c></rc>
   </set>
  </array>
 </atominfo>
 <structure name="initialpos" >
  <crystal>
   <varray name="basis" >
    <v>       8.66999996       5.03999989       0.00000000 </v>
    <v>      -8.66999982       5.04000013       0.00000000 </v>
    <v>       0.00000000       0.00000000      30.00000000 </v>
   </varray>
   <i name="volume">   2621.80797419 </i>
   <varray name="rec_basis" >
    <v>       0.05767013       0.09920635       0.00000000 </v>
    <v>      -0.05767013       0.09920635       0.00000000 </v>
    <v>       0.00000000       0.00000000       0.03333333 </v>
   </varray>
  </crystal>
  <varray name="positions" >
   <v>       1.00000000       0.33333334       0.00000000 </v>
   <v>       0.66666669       0.00000000       0.00000000 </v>
   <v>       0.33333334       0.33333334       0.00000000 </v>
   <v>       0.33333334       0.00000000       0.00000000 </v>
   <v>       0.66666669       0.66666669       0.00000000 </v>
   <v>       0.00000000       0.00000000       0.00000000 </v>
   <v>       0.00000000       0.66666669       0.00000000 </v>
   <v>       0.33333334       0.66666669       0.00000000 </v>
   <v>       0.66666669       0.33333334       0.00000000 </v>
   <v>       0.11068511       0.22244981       0.95539999 </v>
   <v>       0.22244981       0.11068511       0.04460000 </v>
   <v>       0.11068511       0.55578315       0.95539999 </v>
   <v>       0.22244981       0.44401845       0.04460000 </v>
   <v>       0.11068511       0.88911647       0.95539999 </v>
   <v>       0.22244981       0.77735180       0.04460000 </v>
   <v>       0.44401845       0.22244981       0.95539999 </v>
   <v>       0.55578315       0.11068511       0.04460000 </v>
   <v>       0.44401845       0.55578315       0.95539999 </v>
   <v>       0.55578315       0.44401845       0.04460000 </v>
   <v>       0.44401845       0.88911647       0.95539999 </v>
   <v>       0.55578315       0.77735180       0.04460000 </v>
   <v>       0.77735180       0.22244981       0.95539999 </v>
   <v>       0.88911647       0.11068511       0.04460000 </v>
   <v>       0.77735180       0.55578315       0.95539999 </v>
   <v>       0.88911647       0.44401845       0.04460000 </v>
   <v>       0.77735180       0.88911647       0.95539999 </v>
   <v>       0.88911647       0.77735180       0.04460000 </v>
  </varray>
 </structure>
 <calculation>
  <scstep>
   <time name="dav">   21.75   21.80</time>
   <time name="total">   21.79   21.85</time>
   <energy>
    <i name="alphaZ">     81.65567618 </i>
    <i name="ewald">  41890.23011097 </i>
    <i name="hartreedc"> -47722.86568071 </i>
    <i name="XCdc">   -242.92868366 </i>
    <i name="pawpsdc">   3467.42045192 </i>
    <i name="pawaedc">  -2871.19716117 </i>
    <i name="eentropy">     -0.52447986 </i>
    <i name="bandstr">   -238.77671148 </i>
    <i name="atom">   6761.44252427 </i>
    <i name="e_fr_energy">   1124.45604646 </i>
    <i name="e_wo_entrp">   1124.98052632 </i>
    <i name="e_0_energy">   1124.71828639 </i>
   </energy>
  </scstep>
  <scstep>
   <time name="dav">   28.23   28.30</time>
   <time name="total">   28.23   28.31</time>
   <energy>
    <i name="e_fr_energy">     -2.48696951 </i>
    <i name="e_wo_entrp">     -2.29239055 </i>
    <i name="e_0_energy">     -2.38968003 </i>
   </energy>
  </scstep>
  <scstep>
   <time name="dav">   27.51   27.57</time>
   <time name="total">   27.51   27.58</time>
   <energy>
    <i name="e_fr_energy">   -199.73070326 </i>
    <i name="e_wo_entrp">   -199.46559705 </i>
    <i name="e_0_energy">   -199.59815016 </i>
   </energy>
  </scstep>
  <scstep>
   <time name="dav">   30.03   30.10</time>
   <time name="total">   30.03   30.11</time>
   <energy>
    <i name="e_fr_energy">   -208.96078132 </i>
    <i name="e_wo_entrp">   -208.66425037 </i>
    <i name="e_0_energy">   -208.81251584 </i>
   </energy>
  </scstep>
  <scstep>
   <time name="dav">   28.33   28.39</time>
   <time name="total">   28.79   28.87</time>
   <energy>
    <i name="e_fr_energy">   -209.29084868 </i>
    <i name="e_wo_entrp">   -208.99737215 </i>
    <i name="e_0_energy">   -209.14411042 </i>
   </energy>
  </scstep>
  <scstep>
   <time name="dav">   30.84   30.92</time>
   <time name="total">   31.34   31.43</time>
   <energy>
    <i name="e_fr_energy">   -236.98808536 </i>
    <i name="e_wo_entrp">   -236.71029320 </i>
    <i name="e_0_energy">   -236.84918928 </i>
   </energy>
  </scstep>
  <scstep>
   <time name="dav">   32.65   32.73</time>
   <time name="total">   33.16   33.25</time>
   <energy>
    <i name="e_fr_energy">   -196.52488490 </i>
    <i name="e_wo_entrp">   -196.21008024 </i>
    <i name="e_0_energy">   -196.36748257 </i>
   </energy>
  </scstep>
  <scstep>
   <time name="dav">   29.88   29.96</time>
   <time name="total">   30.39   30.47</time>
   <energy>
    <i name="e_fr_energy">   -189.54646177 </i>
    <i name="e_wo_entrp">   -189.25865813 </i>
    <i name="e_0_energy">   -189.40255995 </i>
   </energy>
  </scstep>
  <scstep>
   <time name="dav">   30.86   30.94</time>
   <time name="total">   31.38   31.47</time>
   <energy>
    <i name="e_fr_energy">   -188.23988995 </i>
    <i name="e_wo_entrp">   -187.91240434 </i>
    <i name="e_0_energy">   -188.07614715 </i>
   </energy>
  </scstep>
  <scstep>
   <time name="dav">   32.48   32.56</time>
   <time name="total">   33.01   33.10</time>
   <energy>
    <i name="e_fr_energy">   -187.04914977 </i>
    <i name="e_wo_entrp">   -186.69854099 </i>
    <i name="e_0_energy">   -186.87384538 </i>
   </energy>
  </scstep>
  <scstep>
   <time name="dav">   33.02   33.10</time>
   <time name="total">   33.56   33.65</time>
   <energy>
    <i name="e_fr_energy">   -187.02267661 </i>
    <i name="e_wo_entrp">   -186.67742425 </i>
    <i name="e_0_energy">   -186.85005043 </i>
   </energy>
  </scstep>
  <scstep>
   <time name="dav">   30.42   30.49</time>
   <time name="total">   30.95   31.03</time>
   <energy>
    <i name="e_fr_energy">   -187.17753012 </i>
    <i name="e_wo_entrp">   -186.84088621 </i>
    <i name="e_0_energy">   -187.00920816 </i>
   </energy>
  </scstep>
  <scstep>
   <time name="dav">   31.57   31.65</time>
   <time name="total">   32.10   32.19</time>
   <energy>
    <i name="e_fr_energy">   -186.92777332 </i>
    <i name="e_wo_entrp">   -186.59090528 </i>
    <i name="e_0_energy">   -186.75933930 </i>
   </energy>
  </scstep>
  <scstep>
   <time name="dav">   32.11   32.19</time>
   <time name="total">   32.64   32.73</time>
   <energy>
    <i name="e_fr_energy">   -186.87886070 </i>
    <i name="e_wo_entrp">   -186.53557192 </i>
    <i name="e_0_energy">   -186.70721631 </i>
   </energy>
  </scstep>
  <scstep>
   <time name="dav">   29.03   29.10</time>
   <time name="total">   29.56   29.64</time>
   <energy>
    <i name="e_fr_energy">   -186.87984765 </i>
    <i name="e_wo_entrp">   -186.53411044 </i>
    <i name="e_0_energy">   -186.70697905 </i>
   </energy>
  </scstep>
  <scstep>
   <time name="dav">   31.57   31.64</time>
   <time name="total">   32.10   32.19</time>
   <energy>
    <i name="e_fr_energy">   -186.87093568 </i>
    <i name="e_wo_entrp">   -186.52478183 </i>
    <i name="e_0_energy">   -186.69785876 </i>
   </energy>
  </scstep>
  <scstep>
   <time name="dav">   30.44   30.51</time>
   <time name="total">   30.97   31.05</time>
   <energy>
    <i name="e_fr_energy">   -186.86766176 </i>
    <i name="e_wo_entrp">   -186.52359394 </i>
    <i name="e_0_energy">   -186.69562785 </i>
   </energy>
  </scstep>
  <scstep>
   <time name="dav">   30.36   30.44</time>
   <time name="total">   30.90   30.98</time>
   <energy>
    <i name="e_fr_energy">   -186.86711328 </i>
    <i name="e_wo_entrp">   -186.52254657 </i>
    <i name="e_0_energy">   -186.69482992 </i>
   </energy>
  </scstep>
  <scstep>
   <time name="dav">   26.86   26.92</time>
   <time name="total">   27.39   27.46</time>
   <energy>
    <i name="e_fr_energy">   -186.86766837 </i>
    <i name="e_wo_entrp">   -186.52331171 </i>
    <i name="e_0_energy">   -186.69549004 </i>
   </energy>
  </scstep>
  <scstep>
   <time name="dav">   21.31   21.36</time>
   <time name="total">   21.84   21.90</time>
   <energy>
    <i name="e_fr_energy">   -186.86800661 </i>
    <i name="e_wo_entrp">   -186.52374116 </i>
    <i name="e_0_energy">   -186.69587388 </i>
   </energy>
  </scstep>
  <scstep>
   <time name="dav">   20.68   20.73</time>
   <time name="total">   21.22   21.27</time>
   <energy>
    <i name="e_fr_energy">   -186.86884048 </i>
    <i name="e_wo_entrp">   -186.52454744 </i>
    <i name="e_0_energy">   -186.69669396 </i>
   </energy>
  </scstep>
  <scstep>
   <time name="dav">   20.09   20.14</time>
   <time name="total">   20.62   20.68</time>
   <energy>
    <i name="e_fr_energy">   -186.86962684 </i>
    <i name="e_wo_entrp">   -186.52531392 </i>
    <i name="e_0_energy">   -186.69747038 </i>
   </energy>
  </scstep>
  <scstep>
   <time name="dav">   20.31   20.36</time>
   <time name="total">   20.85   20.91</time>
   <energy>
    <i name="e_fr_energy">   -186.87086806 </i>
    <i name="e_wo_entrp">   -186.52660585 </i>
    <i name="e_0_energy">   -186.69873695 </i>
   </energy>
  </scstep>
  <scstep>
   <time name="dav">   18.81   18.85</time>
   <time name="total">   19.34   19.40</time>
   <energy>
    <i name="e_fr_energy">   -186.87144354 </i>
    <i name="e_wo_entrp">   -186.52717373 </i>
    <i name="e_0_energy">   -186.69930864 </i>
   </energy>
  </scstep>
  <scstep>
   <time name="dav">   16.37   16.41</time>
   <time name="total">   16.90   16.95</time>
   <energy>
    <i name="e_fr_energy">   -186.87187435 </i>
    <i name="e_wo_entrp">   -186.52756529 </i>
    <i name="e_0_energy">   -186.69971982 </i>
   </energy>
  </scstep>
  <scstep>
   <time name="dav">   19.04   19.09</time>
   <time name="total">   19.58   19.63</time>
   <energy>
    <i name="e_fr_energy">   -186.87206914 </i>
    <i name="e_wo_entrp">   -186.52778010 </i>
    <i name="e_0_energy">   -186.69992462 </i>
   </energy>
  </scstep>
  <scstep>
   <time name="dav">   19.51   19.55</time>
   <time name="total">   19.54   19.60</time>
   <energy>
    <i name="alphaZ">     81.65567618 </i>
    <i name="ewald">  41890.23011097 </i>
    <i name="hartreedc"> -47832.99588051 </i>
    <i name="XCdc">   -231.60041203 </i>
    <i name="pawpsdc">   4192.12288745 </i>
    <i name="pawaedc">  -3610.14190921 </i>
    <i name="eentropy">     -0.34428824 </i>
    <i name="bandstr">  -1437.24086220 </i>
    <i name="atom">   6761.44252427 </i>
    <i name="e_fr_energy">   -186.87215332 </i>
    <i name="e_wo_entrp">   -186.52786508 </i>
    <i name="e_0_energy">   -186.70000920 </i>
   </energy>
  </scstep>
  <structure>
   <crystal>
    <varray name="basis" >
     <v>       8.66999996       5.03999989       0.00000000 </v>
     <v>      -8.66999982       5.04000013       0.00000000 </v>
     <v>       0.00000000       0.00000000      30.00000000 </v>
    </varray>
    <i name="volume">   2621.80797419 </i>
    <varray name="rec_basis" >
     <v>       0.05767013       0.09920635       0.00000000 </v>
     <v>      -0.05767013       0.09920635       0.00000000 </v>
     <v>       0.00000000       0.00000000       0.03333333 </v>
    </varray>
   </crystal>
   <varray name="positions" >
    <v>       1.00000000       0.33333334       0.00000000 </v>
    <v>       0.66666669       0.00000000       0.00000000 </v>
    <v>       0.33333334       0.33333334       0.00000000 </v>
    <v>       0.33333334       0.00000000       0.00000000 </v>
    <v>       0.66666669       0.66666669       0.00000000 </v>
    <v>       0.00000000       0.00000000       0.00000000 </v>
    <v>       0.00000000       0.66666669       0.00000000 </v>
    <v>       0.33333334       0.66666669       0.00000000 </v>
    <v>       0.66666669       0.33333334       0.00000000 </v>
    <v>       0.11068511       0.22244981       0.95539999 </v>
    <v>       0.22244981       0.11068511       0.04460000 </v>
    <v>       0.11068511       0.55578315       0.95539999 </v>
    <v>       0.22244981       0.44401845       0.04460000 </v>
    <v>       0.11068511       0.88911647       0.95539999 </v>
    <v>       0.22244981       0.77735180       0.04460000 </v>
    <v>       0.44401845       0.22244981       0.95539999 </v>
    <v>       0.55578315       0.11068511       0.04460000 </v>
    <v>       0.44401845       0.55578315       0.95539999 </v>
    <v>       0.55578315       0.44401845       0.04460000 </v>
    <v>       0.44401845       0.88911647       0.95539999 </v>
    <v>       0.55578315       0.77735180       0.04460000 </v>
    <v>       0.77735180       0.22244981       0.95539999 </v>
    <v>       0.88911647       0.11068511       0.04460000 </v>
    <v>       0.77735180       0.55578315       0.95539999 </v>
    <v>       0.88911647       0.44401845       0.04460000 </v>
    <v>       0.77735180       0.88911647       0.95539999 </v>
    <v>       0.88911647       0.77735180       0.04460000 </v>
   </varray>
  </structure>
  <varray name="forces" >
   <v>       0.28753704      -0.15311808      -0.00422799 </v>
   <v>       0.22617001      -0.05006680      -0.08379754 </v>
   <v>       0.14483618      -0.16671984       0.08522622 </v>
   <v>      -0.26349522      -0.15648568      -0.05475022 </v>
   <v>       0.00159730       0.29023783       0.06074618 </v>
   <v>       0.17596109      -0.09495349       0.00869896 </v>
   <v>      -0.56316035       0.29801749      -0.00303568 </v>
   <v>       0.08363208       0.29681463      -0.01468512 </v>
   <v>      -0.22019375      -0.20226779       0.00659266 </v>
   <v>      -0.32367511       0.66446920      -1.41483663 </v>
   <v>      -0.54411098       0.71733803       2.16203426 </v>
   <v>       0.46174537      -0.56949042      -2.12398203 </v>
   <v>       0.26436078      -0.52954118       1.43086122 </v>
   <v>       0.23378703      -0.14447867      -2.95163587 </v>
   <v>      -0.04383977      -0.16402608       2.88793309 </v>
   <v>      -0.64307537       0.14358920      -2.13035124 </v>
   <v>       0.66308801       0.15914548       2.06729165 </v>
   <v>       0.36257074      -0.70555553      -2.11523484 </v>
   <v>      -0.37106394      -0.71215589       2.18850031 </v>
   <v>       0.61927573       0.56164146      -2.18334498 </v>
   <v>      -0.59907669       0.53853096       2.17321708 </v>
   <v>       0.75887825      -0.02312971      -1.47693632 </v>
   <v>      -0.89392626      -0.00284774       1.45417653 </v>
   <v>       0.31024966       0.01192287      -2.88350778 </v>
   <v>       0.59512906       0.01110677       2.08164137 </v>
   <v>      -0.77691920       0.00830859      -2.12330664 </v>
   <v>       0.05371829      -0.02628558       2.95671335 </v>
  </varray>
  <varray name="stress" >
   <v>       7.35625200      -0.03826705      -1.53298452 </v>
   <v>      -0.03826706       4.39891098       0.03602453 </v>
   <v>      -1.53298438       0.03602450      30.31833408 </v>
  </varray>
  <energy>
   <i name="e_fr_energy">   -186.87215332 </i>
   <i name="e_wo_entrp">   -186.70000920 </i>
   <i name="e_0_energy">     -0.34428824 </i>
  </energy>
  <time name="totalsc">  778.62  780.72</time>
 </calculation>
 <calculation>
  <scstep>
   <time name="dav">   21.76   21.81</time>
   <time name="total">   22.30   22.35</time>
   <energy>
    <i name="alphaZ">     78.92127716 </i>
    <i name="ewald">  39379.49728839 </i>
    <i name="hartreedc"> -45337.01376513 </i>
    <i name="XCdc">   -239.05843760 </i>
    <i name="pawpsdc">   4192.09440045 </i>
    <i name="pawaedc">  -3610.11411645 </i>
    <i name="eentropy">     -0.28106299 </i>
    <i name="bandstr">  -1412.99891839 </i>
    <i name="atom">   6761.44252427 </i>
    <i name="e_fr_energy">   -187.51081028 </i>
    <i name="e_wo_entrp">   -187.22974729 </i>
    <i name="e_0_energy">   -187.37027878 </i>
   </energy>
  </scstep>
  <scstep>
   <time name="dav">   30.23   30.31</time>
   <time name="total">   30.77   30.85</time>
   <energy>
    <i name="e_fr_energy">   -189.61134314 </i>
    <i name="e_wo_entrp">   -189.27141334 </i>
    <i name="e_0_energy">   -189.44137824 </i>
   </energy>
  </scstep>
  <scstep>
   <time name="dav">   30.36   30.44</time>
   <time name="total">   30.91   30.99</time>
   <energy>
    <i name="e_fr_energy">   -189.32825613 </i>
    <i name="e_wo_entrp">   -189.06291780 </i>
    <i name="e_0_energy">   -189.19558696 </i>
   </energy>
  </scstep>
  <scstep>
   <time name="dav">   28.70   28.77</time>
   <time name="total">   29.25   29.33</time>
   <energy>
    <i name="e_fr_energy">   -188.79609649 </i>
    <i name="e_wo_entrp">   -188.51158027 </i>
    <i name="e_0_energy">   -188.65383838 </i>
   </energy>
  </scstep>
  <scstep>
   <time name="dav">   30.48   30.56</time>
   <time name="total">   31.02   31.10</time>
   <energy>
    <i name="e_fr_energy">   -188.88881113 </i>
    <i name="e_wo_entrp">   -188.60312357 </i>
    <i name="e_0_energy">   -188.74596735 </i>
   </energy>
  </scstep>
  <scstep>
   <time name="dav">   30.95   31.03</time>
   <time name="total">   31.50   31.58</time>
   <energy>
    <i name="e_fr_energy">   -188.75829880 </i>
    <i name="e_wo_entrp">   -188.47311533 </i>
    <i name="e_0_energy">   -188.61570707 </i>
   </energy>
  </scstep>
  <scstep>
   <time name="dav">   28.36   28.43</time>
   <time name="total">   28.90   28.98</time>
   <energy>
    <i name="e_fr_energy">   -188.71861350 </i>
    <i name="e_wo_entrp">   -188.43432542 </i>
    <i name="e_0_energy">   -188.57646946 </i>
   </energy>
  </scstep>
  <scstep>
   <time name="dav">   31.53   31.60</time>
   <time name="total">   32.07   32.16</time>
   <energy>
    <i name="e_fr_energy">   -188.71129166 </i>
    <i name="e_wo_entrp">   -188.42896942 </i>
    <i name="e_0_energy">   -188.57013054 </i>
   </energy>
  </scstep>
  <scstep>
   <time name="dav">   28.63   28.70</time>
   <time name="total">   29.17   29.25</time>
   <energy>
    <i name="e_fr_energy">   -188.68393764 </i>
    <i name="e_wo_entrp">   -188.40161703 </i>
    <i name="e_0_energy">   -188.54277733 </i>
   </energy>
  </scstep>
  <scstep>
   <time name="dav">   27.34   27.41</time>
   <time name="total">   27.88   27.96</time>
   <energy>
    <i name="e_fr_energy">   -188.68211253 </i>
    <i name="e_wo_entrp">   -188.40072360 </i>
    <i name="e_0_energy">   -188.54141807 </i>
   </energy>
  </scstep>
  <scstep>
   <time name="dav">   31.11   31.18</time>
   <time name="total">   31.65   31.74</time>
   <energy>
    <i name="e_fr_energy">   -188.68161744 </i>
    <i name="e_wo_entrp">   -188.40131221 </i>
    <i name="e_0_energy">   -188.54146482 </i>
   </energy>
  </scstep>
  <scstep>
   <time name="dav">   27.98   28.04</time>
   <time name="total">   28.01   28.09</time>
   <energy>
    <i name="alphaZ">     78.92127716 </i>
    <i name="ewald">  39379.49728839 </i>
    <i name="hartreedc"> -45347.91753625 </i>
    <i name="XCdc">   -237.96803757 </i>
    <i name="pawpsdc">   3952.82114361 </i>
    <i name="pawaedc">  -3367.36240814 </i>
    <i name="eentropy">     -0.28033327 </i>
    <i name="bandstr">  -1407.83557690 </i>
    <i name="atom">   6761.44252427 </i>
    <i name="e_fr_energy">   -188.68165870 </i>
    <i name="e_wo_entrp">   -188.40132543 </i>
    <i name="e_0_energy">   -188.54149206 </i>
   </energy>
  </scstep>
  <structure>
   <crystal>
    <varray name="basis" >
     <v>       8.85591655       5.10385347       0.00000000 </v>
     <v>      -8.85704424       5.10579384       0.00000000 </v>
     <v>       0.00000000       0.00000000      30.00000000 </v>
    </varray>
    <i name="volume">   2712.64620451 </i>
    <varray name="rec_basis" >
     <v>       0.05646657       0.09795281       0.00000000 </v>
     <v>      -0.05644511       0.09794034       0.00000000 </v>
     <v>       0.00000000       0.00000000       0.03333333 </v>
    </varray>
   </crystal>
   <varray name="positions" >
    <v>       1.00006715       0.33180055      -0.00000680 </v>
    <v>       0.66705631      -0.00086886      -0.00013475 </v>
    <v>       0.33293838       0.33213247       0.00013705 </v>
    <v>       0.33185132      -0.00001585      -0.00008804 </v>
    <v>       0.66806020       0.66805131       0.00009769 </v>
    <v>       0.00003511      -0.00094400       0.00001399 </v>
    <v>      -0.00014050       0.66965979      -0.00000488 </v>
    <v>       0.33498657       0.66785456      -0.00002361 </v>
    <v>       0.66508602       0.33297791       0.00001060 </v>
    <v>       0.11296473       0.22653046       0.95312481 </v>
    <v>       0.22436917       0.11563208       0.04807674 </v>
    <v>       0.10924419       0.55177293       0.95198444 </v>
    <v>       0.22065093       0.44074859       0.04690095 </v>
    <v>       0.11064407       0.88777456       0.95065350 </v>
    <v>       0.22154281       0.77668874       0.04924405 </v>
    <v>       0.44291653       0.22492616       0.95197420 </v>
    <v>       0.55838964       0.10960196       0.04792439 </v>
    <v>       0.44165041       0.55139765       0.95199851 </v>
    <v>       0.55134243       0.44164245       0.04811930 </v>
    <v>       0.44842938       0.89008155       0.95188898 </v>
    <v>       0.55669382       0.78159592       0.04809472 </v>
    <v>       0.77935242       0.22022779       0.95302495 </v>
    <v>       0.88661579       0.11315853       0.04693844 </v>
    <v>       0.77827202       0.55497705       0.95076305 </v>
    <v>       0.89082537       0.44241587       0.04794746 </v>
    <v>       0.77523005       0.89131774       0.95198553 </v>
    <v>       0.88914012       0.77707654       0.04935466 </v>
   </varray>
  </structure>
  <varray name="forces" >
   <v>       0.20755113      -0.12410179      -0.00412171 </v>
   <v>       0.17005981      -0.08767383      -0.02879752 </v>
   <v>       0.16163827      -0.09598652       0.02969191 </v>
   <v>      -0.20280423      -0.31789122       0.06117904 </v>
   <v>       0.17408207       0.32476907      -0.05881336 </v>
   <v>       0.49114521      -0.28738001      -0.00168090 </v>
   <v>      -0.63483135       0.36002159       0.00444509 </v>
   <v>      -0.01720693       0.29171407      -0.11204025 </v>
   <v>      -0.26213456      -0.11414703       0.11366287 </v>
   <v>       0.00445441       0.03546546       0.07239756 </v>
   <v>      -0.04585499       0.06994211       0.08995981 </v>
   <v>      -0.06181477       0.07349603       0.26303621 </v>
   <v>      -0.03792400       0.07686576      -0.11670354 </v>
   <v>       0.04333829      -0.09948242      -0.27742085 </v>
   <v>       0.07480971      -0.11503174      -0.01153939 </v>
   <v>       0.00592656       0.09602716      -0.07348064 </v>
   <v>      -0.02195180       0.11146933      -0.13857254 </v>
   <v>      -0.10787392      -0.05280732       0.15219437 </v>
   <v>       0.10186912      -0.05926570      -0.00029773 </v>
   <v>       0.08358130      -0.04181298      -0.00384019 </v>
   <v>      -0.07611645      -0.03731207       0.05845437 </v>
   <v>      -0.09943383      -0.02217501       0.14281268 </v>
   <v>      -0.02526694      -0.00362731      -0.09010980 </v>
   <v>       0.11597402       0.00337250      -0.00419397 </v>
   <v>      -0.10585833       0.00004079      -0.24017279 </v>
   <v>      -0.06169433       0.01337161      -0.09886168 </v>
   <v>       0.12633651       0.00213944       0.27281297 </v>
  </varray>
  <varray name="stress" >
   <v>     -20.01162048       0.00181594       0.06392370 </v>
   <v>       0.00181593     -19.56378856       0.03603282 </v>
   <v>       0.06392364       0.03603284      -1.76423505 </v>
  </varray>
  <energy>
   <i name="e_fr_energy">   -188.68165870 </i>
   <i name="e_wo_entrp">   -188.54149206 </i>
   <i name="e_0_energy">     -0.28033327 </i>
  </energy>
  <time name="totalsc">  395.91  396.96</time>
 </calculation>
 <calculation>
  <scstep>
   <time name="dav">   24.07   24.12</time>
   <time name="total">   24.60   24.66</time>
   <energy>
    <i name="alphaZ">     82.34955560 </i>
    <i name="ewald">  41304.95456882 </i>
    <i name="hartreedc"> -47303.94709827 </i>
    <i name="XCdc">   -233.84410205 </i>
    <i name="pawpsdc">   3950.39318136 </i>
    <i name="pawaedc">  -3364.90580124 </i>
    <i name="eentropy">     -0.23486761 </i>
    <i name="bandstr">  -1386.81695840 </i>
    <i name="atom">   6761.44252427 </i>
    <i name="e_fr_energy">   -190.60899753 </i>
    <i name="e_wo_entrp">   -190.37412991 </i>
    <i name="e_0_energy">   -190.49156372 </i>
   </energy>
  </scstep>
  <scstep>
   <time name="dav">   28.07   28.13</time>
   <time name="total">   28.59   28.67</time>
   <energy>
    <i name="e_fr_energy">   -190.56117267 </i>
    <i name="e_wo_entrp">   -190.32866209 </i>
    <i name="e_0_energy">   -190.44491738 </i>
   </energy>
  </scstep>
  <scstep>
   <time name="dav">   30.11   30.19</time>
   <time name="total">   30.64   30.73</time>
   <energy>
    <i name="e_fr_energy">   -190.08810040 </i>
    <i name="e_wo_entrp">   -189.83793157 </i>
    <i name="e_0_energy">   -189.96301598 </i>
   </energy>
  </scstep>
  <scstep>
   <time name="dav">   31.24   31.31</time>
   <time name="total">   31.77   31.86</time>
   <energy>
    <i name="e_fr_energy">   -189.87731345 </i>
    <i name="e_wo_entrp">   -189.64401994 </i>
    <i name="e_0_energy">   -189.76066670 </i>
   </energy>
  </scstep>
  <scstep>
   <time name="dav">   29.18   29.25</time>
   <time name="total">   29.71   29.79</time>
   <energy>
    <i name="e_fr_energy">   -189.78770701 </i>
    <i name="e_wo_entrp">   -189.55132062 </i>
    <i name="e_0_energy">   -189.66951382 </i>
   </energy>
  </scstep>
  <scstep>
   <time name="dav">   26.70   26.77</time>
   <time name="total">   27.24   27.31</time>
   <energy>
    <i name="e_fr_energy">   -189.77414045 </i>
    <i name="e_wo_entrp">   -189.53598381 </i>
    <i name="e_0_energy">   -189.65506213 </i>
   </energy>
  </scstep>
  <scstep>
   <time name="dav">   29.99   30.07</time>
   <time name="total">   30.53   30.61</time>
   <energy>
    <i name="e_fr_energy">   -189.77479579 </i>
    <i name="e_wo_entrp">   -189.53876134 </i>
    <i name="e_0_energy">   -189.65677856 </i>
   </energy>
  </scstep>
  <scstep>
   <time name="dav">   29.12   29.19</time>
   <time name="total">   29.66   29.74</time>
   <energy>
    <i name="e_fr_energy">   -189.77370297 </i>
    <i name="e_wo_entrp">   -189.53651758 </i>
    <i name="e_0_energy">   -189.65511027 </i>
   </energy>
  </scstep>
  <scstep>
   <time name="dav">   27.07   27.13</time>
   <time name="total">   27.60   27.67</time>
   <energy>
    <i name="e_fr_energy">   -189.77411432 </i>
    <i name="e_wo_entrp">   -189.53723828 </i>
    <i name="e_0_energy">   -189.65567630 </i>
   </energy>
  </scstep>
  <scstep>
   <time name="dav">   27.89   27.95</time>
   <time name="total">   28.42   28.50</time>
   <energy>
    <i name="e_fr_energy">   -189.77420506 </i>
    <i name="e_wo_entrp">   -189.53688907 </i>
    <i name="e_0_energy">   -189.65554706 </i>
   </energy>
  </scstep>
  <scstep>
   <time name="dav">   23.65   23.71</time>
   <time name="total">   24.19   24.25</time>
   <energy>
    <i name="e_fr_energy">   -189.77385021 </i>
    <i name="e_wo_entrp">   -189.53675461 </i>
    <i name="e_0_energy">   -189.65530241 </i>
   </energy>
  </scstep>
  <scstep>
   <time name="dav">   17.71   17.75</time>
   <time name="total">   17.74   17.79</time>
   <energy>
    <i name="alphaZ">     82.34955560 </i>
    <i name="ewald">  41304.95456882 </i>
    <i name="hartreedc"> -47277.17879252 </i>
    <i name="XCdc">   -235.23878766 </i>
    <i name="pawpsdc">   4038.68174777 </i>
    <i name="pawaedc">  -3454.39044851 </i>
    <i name="eentropy">     -0.23714318 </i>
    <i name="bandstr">  -1410.15707088 </i>
    <i name="atom">   6761.44252427 </i>
    <i name="e_fr_energy">   -189.77384629 </i>
    <i name="e_wo_entrp">   -189.53670311 </i>
    <i name="e_0_energy">   -189.65527470 </i>
   </energy>
  </scstep>
  <structure>
   <crystal>
    <varray name="basis" >
     <v>       8.66751949       4.99771757       0.00000000 </v>
     <v>      -8.66860348       4.99958340       0.00000000 </v>
     <v>       0.00000000       0.00000000      30.00000000 </v>
    </varray>
    <i name="volume">   2599.71655430 </i>
    <varray name="rec_basis" >
     <v>       0.05769379       0.10003325       0.00000000 </v>
     <v>      -0.05767226       0.10002074       0.00000000 </v>
     <v>       0.00000000       0.00000000       0.03333333 </v>
    </varray>
   </crystal>
   <varray name="positions" >
    <v>       1.00005976       0.33139587      -0.00000913 </v>
    <v>       0.66707351      -0.00117718      -0.00015103 </v>
    <v>       0.33293372       0.33181841       0.00015383 </v>
    <v>       0.33112927      -0.00034962      -0.00005347 </v>
    <v>       0.66876618       0.66842399       0.00006445 </v>
    <v>       0.00002805      -0.00189118       0.00001304 </v>
    <v>      -0.00015036       0.67086509      -0.00000237 </v>
    <v>       0.33545453       0.66835540      -0.00008693 </v>
    <v>       0.66464552       0.33303922       0.00007483 </v>
    <v>       0.11302789       0.22658509       0.95316572 </v>
    <v>       0.22444142       0.11579209       0.04812758 </v>
    <v>       0.10930707       0.55195412       0.95213309 </v>
    <v>       0.22074227       0.44091251       0.04683500 </v>
    <v>       0.11052035       0.88756790       0.95049672 </v>
    <v>       0.22142340       0.77642615       0.04923753 </v>
    <v>       0.44308167       0.22507994       0.95193267 </v>
    <v>       0.55855373       0.10980806       0.04784608 </v>
    <v>       0.44145945       0.55141320       0.95208451 </v>
    <v>       0.55134153       0.44144656       0.04811913 </v>
    <v>       0.44843996       0.88993213       0.95188681 </v>
    <v>       0.55655899       0.78160681       0.04812776 </v>
    <v>       0.77922040       0.22028612       0.95310565 </v>
    <v>       0.88658558       0.11317668       0.04688752 </v>
    <v>       0.77838865       0.55487167       0.95076068 </v>
    <v>       0.89072410       0.44251723       0.04781174 </v>
    <v>       0.77519319       0.89139899       0.95192966 </v>
    <v>       0.88926461       0.77695920       0.04950883 </v>
   </varray>
  </structure>
  <varray name="forces" >
   <v>       0.16997104      -0.10291539      -0.00200568 </v>
   <v>       0.14085404      -0.12397266      -0.00624278 </v>
   <v>       0.18002245      -0.06229601       0.00760962 </v>
   <v>      -0.18105104      -0.36473788       0.06194535 </v>
   <v>       0.22166646       0.32582465      -0.06222617 </v>
   <v>       0.57879583      -0.33273918      -0.00258250 </v>
   <v>      -0.63802475       0.36828635       0.00304474 </v>
   <v>      -0.06025550       0.28009409      -0.10405458 </v>
   <v>      -0.27264897      -0.07938274       0.10588090 </v>
   <v>      -0.02213981       0.08468322      -0.36606853 </v>
   <v>      -0.09191895       0.12066011       0.58641266 </v>
   <v>      -0.00663826      -0.05093758      -0.21308260 </v>
   <v>       0.03195746      -0.04441450       0.33457942 </v>
   <v>      -0.00562634      -0.02160689      -0.86514271 </v>
   <v>       0.04363929      -0.05901050       0.54361721 </v>
   <v>      -0.10709967       0.01654731      -0.57126674 </v>
   <v>       0.09067678       0.03233329       0.34546471 </v>
   <v>       0.01697712      -0.11129851      -0.33363281 </v>
   <v>      -0.03764038      -0.11337178       0.50832342 </v>
   <v>       0.06188927       0.10407509      -0.50969368 </v>
   <v>      -0.06757511       0.09955672       0.55999725 </v>
   <v>       0.04621148      -0.02022726      -0.31268588 </v>
   <v>      -0.08327373      -0.00342181       0.34902611 </v>
   <v>       0.05611285       0.00087112      -0.55919457 </v>
   <v>       0.03092493       0.01814849       0.23518813 </v>
   <v>      -0.12745655       0.02941592      -0.59674518 </v>
   <v>       0.03165005       0.00983632       0.86353488 </v>
  </varray>
  <varray name="stress" >
   <v>     -10.16107759      -0.00809455       0.03517615 </v>
   <v>      -0.00809444      -9.84972895       0.02936942 </v>
   <v>       0.03517608       0.02936946       6.52100864 </v>
  </varray>
  <energy>
   <i name="e_fr_energy">   -189.77384629 </i>
   <i name="e_wo_entrp">   -189.65527470 </i>
   <i name="e_0_energy">     -0.23714318 </i>
  </energy>
  <time name="totalsc">  373.31  374.31</time>
 </calculation>
 <calculation>
  <scstep>
   <time name="dav">   21.76   21.81</time>
   <time name="total">   22.28   22.34</time>
   <energy>
    <i name="alphaZ">     85.81101459 </i>
    <i name="ewald">  42828.04153259 </i>
    <i name="hartreedc"> -48844.60086167 </i>
    <i name="XCdc">   -232.96796422 </i>
    <i name="pawpsdc">   4038.92535401 </i>
    <i name="pawaedc">  -3454.63292061 </i>
    <i name="eentropy">     -0.20004280 </i>
    <i name="bandstr">  -1373.15060944 </i>
    <i name="atom">   6761.44252427 </i>
    <i name="e_fr_energy">   -191.33197326 </i>
    <i name="e_wo_entrp">   -191.13193046 </i>
    <i name="e_0_energy">   -191.23195186 </i>
   </energy>
  </scstep>
  <scstep>
   <time name="dav">   32.11   32.18</time>
   <time name="total">   32.62   32.71</time>
   <energy>
    <i name="e_fr_energy">   -191.20075636 </i>
    <i name="e_wo_entrp">   -190.99369426 </i>
    <i name="e_0_energy">   -191.09722531 </i>
   </energy>
  </scstep>
  <scstep>
   <time name="dav">   29.07   29.14</time>
   <time name="total">   29.58   29.66</time>
   <energy>
    <i name="e_fr_energy">   -191.30421440 </i>
    <i name="e_wo_entrp">   -191.08603826 </i>
    <i name="e_0_energy">   -191.19512633 </i>
   </energy>
  </scstep>
  <scstep>
   <time name="dav">   29.90   29.97</time>
   <time name="total">   30.42   30.50</time>
   <energy>
    <i name="e_fr_energy">   -190.97476093 </i>
    <i name="e_wo_entrp">   -190.75173262 </i>
    <i name="e_0_energy">   -190.86324678 </i>
   </energy>
  </scstep>
  <scstep>
   <time name="dav">   27.89   27.96</time>
   <time name="total">   28.41   28.49</time>
   <energy>
    <i name="e_fr_energy">   -190.94356895 </i>
    <i name="e_wo_entrp">   -190.74990016 </i>
    <i name="e_0_energy">   -190.84673456 </i>
   </energy>
  </scstep>
  <scstep>
   <time name="dav">   29.21   29.28</time>
   <time name="total">   29.73   29.81</time>
   <energy>
    <i name="e_fr_energy">   -190.76050826 </i>
    <i name="e_wo_entrp">   -190.55445259 </i>
    <i name="e_0_energy">   -190.65748042 </i>
   </energy>
  </scstep>
  <scstep>
   <time name="dav">   27.96   28.03</time>
   <time name="total">   28.48   28.56</time>
   <energy>
    <i name="e_fr_energy">   -190.75564784 </i>
    <i name="e_wo_entrp">   -190.54967789 </i>
    <i name="e_0_energy">   -190.65266286 </i>
   </energy>
  </scstep>
  <scstep>
   <time name="dav">   25.96   26.02</time>
   <time name="total">   26.48   26.55</time>
   <energy>
    <i name="e_fr_energy">   -190.75279375 </i>
    <i name="e_wo_entrp">   -190.54643317 </i>
    <i name="e_0_energy">   -190.64961346 </i>
   </energy>
  </scstep>
  <scstep>
   <time name="dav">   29.38   29.45</time>
   <time name="total">   29.90   29.98</time>
   <energy>
    <i name="e_fr_energy">   -190.75302911 </i>
    <i name="e_wo_entrp">   -190.54676235 </i>
    <i name="e_0_energy">   -190.64989573 </i>
   </energy>
  </scstep>
  <scstep>
   <time name="dav">   26.31   26.37</time>
   <time name="total">   26.83   26.90</time>
   <energy>
    <i name="e_fr_energy">   -190.75294295 </i>
    <i name="e_wo_entrp">   -190.54677582 </i>
    <i name="e_0_energy">   -190.64985938 </i>
   </energy>
  </scstep>
  <scstep>
   <time name="dav">   26.35   26.41</time>
   <time name="total">   26.87   26.94</time>
   <energy>
    <i name="e_fr_energy">   -190.75276747 </i>
    <i name="e_wo_entrp">   -190.54658078 </i>
    <i name="e_0_energy">   -190.64967413 </i>
   </energy>
  </scstep>
  <scstep>
   <time name="dav">   18.84   18.89</time>
   <time name="total">   18.88   18.93</time>
   <energy>
    <i name="alphaZ">     85.81101459 </i>
    <i name="ewald">  42828.04153259 </i>
    <i name="hartreedc"> -48816.13382696 </i>
    <i name="XCdc">   -234.29067460 </i>
    <i name="pawpsdc">   4063.54289494 </i>
    <i name="pawaedc">  -3479.42913101 </i>
    <i name="eentropy">     -0.20629764 </i>
    <i name="bandstr">  -1399.53079320 </i>
    <i name="atom">   6761.44252427 </i>
    <i name="e_fr_energy">   -190.75275701 </i>
    <i name="e_wo_entrp">   -190.54645936 </i>
    <i name="e_0_energy">   -190.64960819 </i>
   </energy>
  </scstep>
  <structure>
   <crystal>
    <varray name="basis" >
     <v>       8.48681544       4.89771375       0.00000000 </v>
     <v>      -8.48833172       4.90033116       0.00000000 </v>
     <v>       0.00000000       0.00000000      30.00000000 </v>
    </varray>
    <i name="volume">   2494.84875516 </i>
    <varray name="rec_basis" >
     <v>       0.05892539       0.10207030       0.00000000 </v>
     <v>      -0.05889392       0.10205206       0.00000000 </v>
     <v>       0.00000000       0.00000000       0.03333333 </v>
    </varray>
   </crystal>
   <varray name="positions" >
    <v>       1.00002814       0.33024595      -0.00001148 </v>
    <v>       0.66667441      -0.00250850      -0.00014486 </v>
    <v>       0.33330354       0.33083716       0.00015089 </v>
    <v>       0.32811030      -0.00212468       0.00007516 </v>
    <v>       0.67167387       0.66959635      -0.00006700 </v>
    <v>       0.00004803      -0.00629660       0.00000694 </v>
    <v>      -0.00013292       0.67549333       0.00000274 </v>
    <v>       0.33689811       0.67035662      -0.00029516 </v>
    <v>       0.66323697       0.33362739       0.00028701 </v>
    <v>       0.11356172       0.22735466       0.95203881 </v>
    <v>       0.22492436       0.11706980       0.04975874 </v>
    <v>       0.10873455       0.55127160       0.95129043 </v>
    <v>       0.22037865       0.44011839       0.04790768 </v>
    <v>       0.11048827       0.88771658       0.94821255 </v>
    <v>       0.22130633       0.77608359       0.05082989 </v>
    <v>       0.44243959       0.22553396       0.95033167 </v>
    <v>       0.55904770       0.10932553       0.04896894 </v>
    <v>       0.44085822       0.55033217       0.95098459 </v>
    <v>       0.55016272       0.44093876       0.04959925 </v>
    <v>       0.44964526       0.89075302       0.95040620 </v>
    <v>       0.55728994       0.78280059       0.04970865 </v>
    <v>       0.77947398       0.21978942       0.95207464 </v>
    <v>       0.88618127       0.11353908       0.04797979 </v>
    <v>       0.77850458       0.55475425       0.94913627 </v>
    <v>       0.89118994       0.44236840       0.04869942 </v>
    <v>       0.77486308       0.89217644       0.95027594 </v>
    <v>       0.88932383       0.77706121       0.05179222 </v>
   </varray>
  </structure>
  <varray name="forces" >
   <v>       0.19900552      -0.12080922       0.00102200 </v>
   <v>       0.12046919      -0.12555099       0.04300569 </v>
   <v>       0.16532384      -0.04213351      -0.04175966 </v>
   <v>      -0.17556344      -0.40415732       0.02718593 </v>
   <v>       0.25669226       0.34274487      -0.02900118 </v>
   <v>       0.58379774      -0.33666816       0.00232208 </v>
   <v>      -0.62999427       0.35862997      -0.00405187 </v>
   <v>      -0.06466797       0.25609529      -0.05898088 </v>
   <v>      -0.25598246      -0.05767032       0.05710485 </v>
   <v>       0.06596645      -0.03821193      -0.25889388 </v>
   <v>      -0.04811367      -0.02161106       0.42541335 </v>
   <v>      -0.07934768       0.00750769      -0.07895776 </v>
   <v>       0.01860308       0.01645395       0.24144714 </v>
   <v>      -0.02668366       0.02585982      -0.69725048 </v>
   <v>      -0.01175657      -0.03782618       0.36775926 </v>
   <v>      -0.03657756      -0.04110843      -0.34331160 </v>
   <v>      -0.00231917      -0.04121888       0.17940083 </v>
   <v>       0.04228707       0.01295110      -0.17733612 </v>
   <v>      -0.09873959      -0.01217598       0.37393928 </v>
   <v>      -0.03729041       0.09237897      -0.37136204 </v>
   <v>       0.01290071       0.06411483       0.33933520 </v>
   <v>       0.00013465      -0.03207981      -0.23617801 </v>
   <v>       0.06173340      -0.02535193       0.25143121 </v>
   <v>       0.02617655       0.03007406      -0.36816400 </v>
   <v>      -0.05524967       0.06504481       0.08857998 </v>
   <v>       0.00918516       0.05244758      -0.42744263 </v>
   <v>      -0.03998948       0.01227079       0.69474331 </v>
  </varray>
  <varray name="stress" >
   <v>      -5.71940045      -0.07784787      -0.12553514 </v>
   <v>      -0.07784799      -5.81303261      -0.09507937 </v>
   <v>      -0.12553513      -0.09507946       4.51425974 </v>
  </varray>
  <energy>
   <i name="e_fr_energy">   -190.75275701 </i>
   <i name="e_wo_entrp">   -190.64960819 </i>
   <i name="e_0_energy">     -0.20629764 </i>
  </energy>
  <time name="totalsc">  373.10  374.09</time>
 </calculation>
 <calculation>
  <scstep>
   <time name="dav">   21.76   21.81</time>
   <time name="total">   22.27   22.32</time>
   <energy>
    <i name="alphaZ">     90.15497427 </i>
    <i name="ewald">  44658.70976950 </i>
    <i name="hartreedc"> -50701.89551778 </i>
    <i name="XCdc">   -231.82973126 </i>
    <i name="pawpsdc">   4063.58892063 </i>
    <i name="pawaedc">  -3479.47069196 </i>
    <i name="eentropy">     -0.19313084 </i>
    <i name="bandstr">  -1352.61216734 </i>
    <i name="atom">   6761.44252427 </i>
    <i name="e_fr_energy">   -192.10505052 </i>
    <i name="e_wo_entrp">   -191.91191968 </i>
    <i name="e_0_energy">   -192.00848510 </i>
   </energy>
  </scstep>
  <scstep>
   <time name="dav">   29.34   29.41</time>
   <time name="total">   29.84   29.92</time>
   <energy>
    <i name="e_fr_energy">   -191.92428945 </i>
    <i name="e_wo_entrp">   -191.71572638 </i>
    <i name="e_0_energy">   -191.82000792 </i>
   </energy>
  </scstep>
  <scstep>
   <time name="dav">   30.02   30.10</time>
   <time name="total">   30.53   30.61</time>
   <energy>
    <i name="e_fr_energy">   -192.36863689 </i>
    <i name="e_wo_entrp">   -192.15974681 </i>
    <i name="e_0_energy">   -192.26419185 </i>
   </energy>
  </scstep>
  <scstep>
   <time name="dav">   29.89   29.96</time>
   <time name="total">   30.40   30.48</time>
   <energy>
    <i name="e_fr_energy">   -191.58925386 </i>
    <i name="e_wo_entrp">   -191.38189323 </i>
    <i name="e_0_energy">   -191.48557355 </i>
   </energy>
  </scstep>
  <scstep>
   <time name="dav">   29.79   29.86</time>
   <time name="total">   30.30   30.38</time>
   <energy>
    <i name="e_fr_energy">   -191.41366314 </i>
    <i name="e_wo_entrp">   -191.21618413 </i>
    <i name="e_0_energy">   -191.31492364 </i>
   </energy>
  </scstep>
  <scstep>
   <time name="dav">   30.62   30.69</time>
   <time name="total">   31.12   31.21</time>
   <energy>
    <i name="e_fr_energy">   -191.41612557 </i>
    <i name="e_wo_entrp">   -191.20623471 </i>
    <i name="e_0_energy">   -191.31118014 </i>
   </energy>
  </scstep>
  <scstep>
   <time name="dav">   29.88   29.95</time>
   <time name="total">   30.39   30.47</time>
   <energy>
    <i name="e_fr_energy">   -191.39502156 </i>
    <i name="e_wo_entrp">   -191.19507766 </i>
    <i name="e_0_energy">   -191.29504961 </i>
   </energy>
  </scstep>
  <scstep>
   <time name="dav">   28.84   28.91</time>
   <time name="total">   29.35   29.43</time>
   <energy>
    <i name="e_fr_energy">   -191.38560246 </i>
    <i name="e_wo_entrp">   -191.18365633 </i>
    <i name="e_0_energy">   -191.28462940 </i>
   </energy>
  </scstep>
  <scstep>
   <time name="dav">   29.83   29.90</time>
   <time name="total">   30.33   30.41</time>
   <energy>
    <i name="e_fr_energy">   -191.38622486 </i>
    <i name="e_wo_entrp">   -191.18432787 </i>
    <i name="e_0_energy">   -191.28527636 </i>
   </energy>
  </scstep>
  <scstep>
   <time name="dav">   28.57   28.64</time>
   <time name="total">   29.08   29.16</time>
   <energy>
    <i name="e_fr_energy">   -191.38623817 </i>
    <i name="e_wo_entrp">   -191.18420976 </i>
    <i name="e_0_energy">   -191.28522396 </i>
   </energy>
  </scstep>
  <scstep>
   <time name="dav">   25.60   25.66</time>
   <time name="total">   26.10   26.17</time>
   <energy>
    <i name="e_fr_energy">   -191.38585235 </i>
    <i name="e_wo_entrp">   -191.18366519 </i>
    <i name="e_0_energy">   -191.28475877 </i>
   </energy>
  </scstep>
  <scstep>
   <time name="dav">   17.76   17.81</time>
   <time name="total">   17.80   17.85</time>
   <energy>
    <i name="alphaZ">     90.15497427 </i>
    <i name="ewald">  44658.70976950 </i>
    <i name="hartreedc"> -50668.19803364 </i>
    <i name="XCdc">   -233.34749765 </i>
    <i name="pawpsdc">   4086.05354980 </i>
    <i name="pawaedc">  -3502.04722437 </i>
    <i name="eentropy">     -0.20219280 </i>
    <i name="bandstr">  -1383.95167760 </i>
    <i name="atom">   6761.44252427 </i>
    <i name="e_fr_energy">   -191.38580820 </i>
    <i name="e_wo_entrp">   -191.18361540 </i>
    <i name="e_0_energy">   -191.28471180 </i>
   </energy>
  </scstep>
  <structure>
   <crystal>
    <varray name="basis" >
     <v>       8.27989965       4.77265847       0.00000000 </v>
     <v>      -8.28620001       4.78356343       0.00000000 </v>
     <v>       0.00000000       0.00000000      30.00000000 </v>
    </varray>
    <i name="volume">   2374.63883342 </i>
    <varray name="rec_basis" >
     <v>       0.06043315       0.10468371       0.00000000 </v>
     <v>      -0.06029538       0.10460411       0.00000000 </v>
     <v>       0.00000000       0.00000000       0.03333333 </v>
    </varray>
   </crystal>
   <varray name="positions" >
    <v>       0.99995604       0.32753878      -0.00000694 </v>
    <v>       0.66585787      -0.00497090       0.00002280 </v>
    <v>       0.33406441       0.32917116      -0.00001127 </v>
    <v>       0.32187763      -0.00593483       0.00020281 </v>
    <v>       0.67770978       0.67191036      -0.00020366 </v>
    <v>       0.00006890      -0.01481210       0.00001274 </v>
    <v>      -0.00016825       0.68439345      -0.00001105 </v>
    <v>       0.33951792       0.67402437      -0.00054666 </v>
    <v>       0.66075027       0.33482774       0.00053317 </v>
    <v>       0.11377588       0.22689119       0.95052098 </v>
    <v>       0.22458113       0.11764251       0.05202635 </v>
    <v>       0.10797267       0.55131152       0.95043997 </v>
    <v>       0.22039218       0.43961256       0.04936095 </v>
    <v>       0.11070052       0.88842790       0.94476705 </v>
    <v>       0.22088652       0.77582779       0.05293244 </v>
    <v>       0.44129053       0.22540979       0.94835514 </v>
    <v>       0.55869504       0.10845691       0.05024498 </v>
    <v>       0.44112600       0.54963751       0.94972020 </v>
    <v>       0.54882095       0.44133835       0.05165916 </v>
    <v>       0.45100923       0.89252731       0.94835719 </v>
    <v>       0.55855505       0.78400779       0.05166911 </v>
    <v>       0.77939139       0.21913623       0.95064708 </v>
    <v>       0.88611033       0.11306233       0.04946342 </v>
    <v>       0.77893254       0.55495278       0.94702424 </v>
    <v>       0.89187870       0.44322276       0.04959416 </v>
    <v>       0.77534021       0.89300054       0.94799444 </v>
    <v>       0.88912103       0.77760061       0.05523110 </v>
   </varray>
  </structure>
  <varray name="forces" >
   <v>       0.29002095      -0.17440022      -0.00335429 </v>
   <v>       0.11193026      -0.05648485      -0.01919703 </v>
   <v>       0.10041953      -0.06647339       0.01522549 </v>
   <v>      -0.05872774      -0.18146858      -0.05466920 </v>
   <v>       0.12241240       0.13654269       0.06167123 </v>
   <v>       0.06083737      -0.03476593      -0.00204891 </v>
   <v>      -0.16928657       0.09154211       0.00496744 </v>
   <v>      -0.09904587       0.16340147      -0.03330269 </v>
   <v>      -0.19755651       0.01979771       0.03762198 </v>
   <v>       0.14844443      -0.15090379      -0.03301386 </v>
   <v>       0.01649214      -0.17172773       0.07456431 </v>
   <v>      -0.20999744       0.07156194       0.19927303 </v>
   <v>       0.01677609       0.08071902      -0.03647222 </v>
   <v>      -0.00480079       0.04450055      -0.32998237 </v>
   <v>      -0.06004107      -0.08282061       0.08803190 </v>
   <v>       0.03040152      -0.07791482      -0.04218269 </v>
   <v>      -0.13366748      -0.11695715      -0.09944572 </v>
   <v>       0.03645098       0.17286089       0.08883803 </v>
   <v>      -0.10349181       0.07697234       0.06741541 </v>
   <v>      -0.11442280       0.05052260      -0.06645851 </v>
   <v>       0.08312189       0.01593825       0.04950644 </v>
   <v>      -0.05817633      -0.05121118       0.03299327 </v>
   <v>       0.20641945      -0.05416720       0.04215907 </v>
   <v>       0.04173061       0.09103935      -0.09653573 </v>
   <v>      -0.16650126       0.15110528      -0.19853417 </v>
   <v>       0.15494776       0.07184721      -0.07097135 </v>
   <v>      -0.04468971      -0.01905597       0.32390110 </v>
  </varray>
  <varray name="stress" >
   <v>       0.27936904      -0.23075387      -0.23295958 </v>
   <v>      -0.23075394       0.05882613      -0.38157146 </v>
   <v>      -0.23295949      -0.38157149      -0.48770217 </v>
  </varray>
  <energy>
   <i name="e_fr_energy">   -191.38580820 </i>
   <i name="e_wo_entrp">   -191.28471180 </i>
   <i name="e_0_energy">     -0.20219280 </i>
  </energy>
  <time name="totalsc">  380.47  381.49</time>
 </calculation>
 <calculation>
  <scstep>
   <time name="dav">   21.75   21.80</time>
   <time name="total">   22.25   22.31</time>
   <energy>
    <i name="alphaZ">     90.03708479 </i>
    <i name="ewald">  44586.54123204 </i>
    <i name="hartreedc"> -50595.49374682 </i>
    <i name="XCdc">   -233.50571520 </i>
    <i name="pawpsdc">   4085.96290760 </i>
    <i name="pawaedc">  -3501.95165119 </i>
    <i name="eentropy">     -0.20538462 </i>
    <i name="bandstr">  -1384.24991521 </i>
    <i name="atom">   6761.44252427 </i>
    <i name="e_fr_energy">   -191.42266435 </i>
    <i name="e_wo_entrp">   -191.21727973 </i>
    <i name="e_0_energy">   -191.31997204 </i>
   </energy>
  </scstep>
  <scstep>
   <time name="dav">   30.98   31.05</time>
   <time name="total">   31.48   31.57</time>
   <energy>
    <i name="e_fr_energy">   -191.44796469 </i>
    <i name="e_wo_entrp">   -191.23831875 </i>
    <i name="e_0_energy">   -191.34314172 </i>
   </energy>
  </scstep>
  <scstep>
   <time name="dav">   30.04   30.11</time>
   <time name="total">   30.54   30.63</time>
   <energy>
    <i name="e_fr_energy">   -191.43281238 </i>
    <i name="e_wo_entrp">   -191.22862092 </i>
    <i name="e_0_energy">   -191.33071665 </i>
   </energy>
  </scstep>
  <scstep>
   <time name="dav">   27.72   27.79</time>
   <time name="total">   28.23   28.30</time>
   <energy>
    <i name="e_fr_energy">   -191.43317484 </i>
    <i name="e_wo_entrp">   -191.22586608 </i>
    <i name="e_0_energy">   -191.32952046 </i>
   </energy>
  </scstep>
  <scstep>
   <time name="dav">   27.47   27.53</time>
   <time name="total">   27.97   28.05</time>
   <energy>
    <i name="e_fr_energy">   -191.43112386 </i>
    <i name="e_wo_entrp">   -191.22520494 </i>
    <i name="e_0_energy">   -191.32816440 </i>
   </energy>
  </scstep>
  <scstep>
   <time name="dav">   27.44   27.51</time>
   <time name="total">   27.95   28.02</time>
   <energy>
    <i name="e_fr_energy">   -191.43082542 </i>
    <i name="e_wo_entrp">   -191.22496168 </i>
    <i name="e_0_energy">   -191.32789355 </i>
   </energy>
  </scstep>
  <scstep>
   <time name="dav">   25.18   25.24</time>
   <time name="total">   25.68   25.75</time>
   <energy>
    <i name="e_fr_energy">   -191.43070316 </i>
    <i name="e_wo_entrp">   -191.22488561 </i>
    <i name="e_0_energy">   -191.32779438 </i>
   </energy>
  </scstep>
  <scstep>
   <time name="dav">   19.30   19.34</time>
   <time name="total">   19.33   19.39</time>
   <energy>
    <i name="alphaZ">     90.03708479 </i>
    <i name="ewald">  44586.54123204 </i>
    <i name="hartreedc"> -50597.30912296 </i>
    <i name="XCdc">   -233.44817089 </i>
    <i name="pawpsdc">   4081.99114929 </i>
    <i name="pawaedc">  -3497.92835549 </i>
    <i name="eentropy">     -0.20589228 </i>
    <i name="bandstr">  -1382.55115034 </i>
    <i name="atom">   6761.44252427 </i>
    <i name="e_fr_energy">   -191.43070156 </i>
    <i name="e_wo_entrp">   -191.22480928 </i>
    <i name="e_0_energy">   -191.32775542 </i>
   </energy>
  </scstep>
  <structure>
   <crystal>
    <varray name="basis" >
     <v>       8.28483373       4.76957524       0.00000000 </v>
     <v>      -8.29676077       4.79022814       0.00000000 </v>
     <v>       0.00000000       0.00000000      30.00000000 </v>
    </varray>
    <i name="volume">   2377.74805169 </i>
    <varray name="rec_basis" >
     <v>       0.06043821       0.10468007       0.00000000 </v>
     <v>      -0.06017764       0.10452958       0.00000000 </v>
     <v>       0.00000000       0.00000000       0.03333333 </v>
    </varray>
   </crystal>
   <varray name="positions" >
    <v>       0.99992282       0.32589854      -0.00001227 </v>
    <v>       0.66591169      -0.00552762      -0.00000980 </v>
    <v>       0.33400985       0.32858486       0.00001501 </v>
    <v>       0.32091323      -0.00660157       0.00011500 </v>
    <v>       0.67863720       0.67220024      -0.00010472 </v>
    <v>       0.00007016      -0.01502284       0.00000948 </v>
    <v>      -0.00019843       0.68518710      -0.00000308 </v>
    <v>       0.34000132       0.67505194      -0.00059485 </v>
    <v>       0.66032407       0.33546577       0.00058819 </v>
    <v>       0.11344948       0.22573057       0.95049735 </v>
    <v>       0.22378540       0.11673743       0.05210279 </v>
    <v>       0.10774286       0.55226437       0.95077070 </v>
    <v>       0.22084016       0.43997558       0.04927662 </v>
    <v>       0.11090178       0.88864738       0.94430926 </v>
    <v>       0.22031345       0.77559333       0.05303183 </v>
    <v>       0.44101496       0.22494112       0.94832539 </v>
    <v>       0.55774334       0.10827780       0.05006395 </v>
    <v>       0.44207813       0.55040054       0.94988440 </v>
    <v>       0.54893127       0.44200566       0.05172759 </v>
    <v>       0.45090689       0.89306913       0.94829009 </v>
    <v>       0.55884635       0.78382687       0.05171059 </v>
    <v>       0.77897217       0.21906193       0.95072552 </v>
    <v>       0.88643331       0.11221535       0.04950194 </v>
    <v>       0.77949389       0.55527901       0.94691175 </v>
    <v>       0.89213589       0.44442817       0.04926385 </v>
    <v>       0.77612909       0.89289954       0.94792390 </v>
    <v>       0.88890409       0.77762426       0.05567943 </v>
   </varray>
  </structure>
  <varray name="forces" >
   <v>       0.32958835      -0.20330261      -0.00159006 </v>
   <v>       0.15188787      -0.04895736      -0.02204065 </v>
   <v>       0.10907290      -0.10333206       0.02286336 </v>
   <v>      -0.05787356      -0.22266152      -0.03565574 </v>
   <v>       0.15145200       0.15774000       0.03357849 </v>
   <v>       0.12276066      -0.07457588       0.00043503 </v>
   <v>      -0.28137911       0.15653496      -0.00521845 </v>
   <v>      -0.13858295       0.18850258      -0.02752505 </v>
   <v>      -0.22829359       0.04994328       0.02597765 </v>
   <v>       0.09330702      -0.07594632      -0.04990483 </v>
   <v>       0.02154992      -0.09128759       0.04943734 </v>
   <v>      -0.12040940       0.02719071       0.19557924 </v>
   <v>       0.01482272       0.05677843      -0.06696152 </v>
   <v>      -0.01810501       0.00474872      -0.17932988 </v>
   <v>      -0.03259876      -0.03890933       0.05188315 </v>
   <v>       0.00604100      -0.04409744      -0.02564183 </v>
   <v>      -0.08886028      -0.05985546      -0.13001846 </v>
   <v>       0.00945951       0.10836448       0.11844830 </v>
   <v>      -0.08303537       0.03894478       0.05513314 </v>
   <v>      -0.07074273       0.05348053      -0.05048001 </v>
   <v>       0.03822211       0.02351450       0.03203215 </v>
   <v>      -0.03899076      -0.04160219       0.06634563 </v>
   <v>       0.11019903      -0.04397404       0.05108237 </v>
   <v>       0.01602255       0.04685641      -0.05459661 </v>
   <v>      -0.08293621       0.09501863      -0.18844482 </v>
   <v>       0.08685725       0.02645675      -0.04752436 </v>
   <v>      -0.01943516       0.01442703       0.18213645 </v>
  </varray>
  <varray name="stress" >
   <v>      -0.22458649       0.03396163      -0.09028133 </v>
   <v>       0.03396173      -0.18315217      -0.12076239 </v>
   <v>      -0.09028131      -0.12076243      -1.16259205 </v>
  </varray>
  <energy>
   <i name="e_fr_energy">   -191.43070156 </i>
   <i name="e_wo_entrp">   -191.32775542 </i>
   <i name="e_0_energy">     -0.20589228 </i>
  </energy>
  <time name="totalsc">  255.56  256.24</time>
 </calculation>
 <calculation>
  <scstep>
   <time name="dav">   21.75   21.80</time>
   <time name="total">   22.25   22.31</time>
   <energy>
    <i name="alphaZ">     90.21718437 </i>
    <i name="ewald">  44663.09175369 </i>
    <i name="hartreedc"> -50675.94173155 </i>
    <i name="XCdc">   -233.34672094 </i>
    <i name="pawpsdc">   4081.93298265 </i>
    <i name="pawaedc">  -3497.86940287 </i>
    <i name="eentropy">     -0.20731903 </i>
    <i name="bandstr">  -1380.79627531 </i>
    <i name="atom">   6761.44252427 </i>
    <i name="e_fr_energy">   -191.47700471 </i>
    <i name="e_wo_entrp">   -191.26968568 </i>
    <i name="e_0_energy">   -191.37334519 </i>
   </energy>
  </scstep>
  <scstep>
   <time name="dav">   31.88   31.96</time>
   <time name="total">   32.39   32.48</time>
   <energy>
    <i name="e_fr_energy">   -191.49572516 </i>
    <i name="e_wo_entrp">   -191.28346600 </i>
    <i name="e_0_energy">   -191.38959558 </i>
   </energy>
  </scstep>
  <scstep>
   <time name="dav">   29.30   29.37</time>
   <time name="total">   29.80   29.88</time>
   <energy>
    <i name="e_fr_energy">   -191.48886308 </i>
    <i name="e_wo_entrp">   -191.28367877 </i>
    <i name="e_0_energy">   -191.38627092 </i>
   </energy>
  </scstep>
  <scstep>
   <time name="dav">   29.12   29.19</time>
   <time name="total">   29.62   29.70</time>
   <energy>
    <i name="e_fr_energy">   -191.48465079 </i>
    <i name="e_wo_entrp">   -191.27588500 </i>
    <i name="e_0_energy">   -191.38026789 </i>
   </energy>
  </scstep>
  <scstep>
   <time name="dav">   27.80   27.86</time>
   <time name="total">   28.30   28.38</time>
   <energy>
    <i name="e_fr_energy">   -191.48327339 </i>
    <i name="e_wo_entrp">   -191.27485012 </i>
    <i name="e_0_energy">   -191.37906175 </i>
   </energy>
  </scstep>
  <scstep>
   <time name="dav">   27.74   27.80</time>
   <time name="total">   28.24   28.32</time>
   <energy>
    <i name="e_fr_energy">   -191.48198602 </i>
    <i name="e_wo_entrp">   -191.27360883 </i>
    <i name="e_0_energy">   -191.37779742 </i>
   </energy>
  </scstep>
  <scstep>
   <time name="dav">   26.01   26.07</time>
   <time name="total">   26.51   26.59</time>
   <energy>
    <i name="e_fr_energy">   -191.48188468 </i>
    <i name="e_wo_entrp">   -191.27327730 </i>
    <i name="e_0_energy">   -191.37758099 </i>
   </energy>
  </scstep>
  <scstep>
   <time name="dav">   23.35   23.41</time>
   <time name="total">   23.38   23.45</time>
   <energy>
    <i name="alphaZ">     90.21718437 </i>
    <i name="ewald">  44663.09175369 </i>
    <i name="hartreedc"> -50674.98306912 </i>
    <i name="XCdc">   -233.38754959 </i>
    <i name="pawpsdc">   4083.87568337 </i>
    <i name="pawaedc">  -3499.83840996 </i>
    <i name="eentropy">     -0.20865140 </i>
    <i name="bandstr">  -1381.69135960 </i>
    <i name="atom">   6761.44252427 </i>
    <i name="e_fr_energy">   -191.48189397 </i>
    <i name="e_wo_entrp">   -191.27324257 </i>
[...]
      <set comment="kpoint 31">
       <r>  -17.4934    1.0000 </r>
       <r>  -17.2714    1.0000 </r>
       <r>  -16.9089    1.0000 </r>
       <r>  -16.5257    1.0000 </r>
       <r>  -16.4606    1.0000 </r>
       <r>  -16.4189    1.0000 </r>
       <r>  -16.2776    1.0000 </r>
       <r>  -16.1401    1.0000 </r>
       <r>  -16.1056    1.0000 </r>
       <r>  -16.0138    1.0000 </r>
       <r>  -15.9586    1.0000 </r>
       <r>  -15.8544    1.0000 </r>
       <r>  -15.8347    1.0000 </r>
       <r>  -15.6787    1.0000 </r>
       <r>  -15.6311    1.0000 </r>
       <r>  -15.5546    1.0000 </r>
       <r>  -15.4714    1.0000 </r>
       <r>  -15.4020    1.0000 </r>
       <r>   -9.7369    1.0000 </r>
       <r>   -9.4532    1.0000 </r>
       <r>   -9.2729    1.0000 </r>
       <r>   -8.9379    1.0000 </r>
       <r>   -8.8078    1.0000 </r>
       <r>   -8.7333    1.0000 </r>
       <r>   -8.5432    1.0000 </r>
       <r>   -8.4273    1.0000 </r>
       <r>   -8.3987    1.0000 </r>
       <r>   -8.3388    1.0000 </r>
       <r>   -8.2511    1.0000 </r>
       <r>   -8.2164    1.0000 </r>
       <r>   -8.1419    1.0000 </r>
       <r>   -8.1068    1.0000 </r>
       <r>   -7.9725    1.0000 </r>
       <r>   -7.9044    1.0000 </r>
       <r>   -7.8058    1.0000 </r>
       <r>   -7.5959    1.0000 </r>
       <r>   -7.5037    1.0000 </r>
       <r>   -7.3985    1.0000 </r>
       <r>   -7.3031    1.0000 </r>
       <r>   -7.2153    1.0000 </r>
       <r>   -7.1370    1.0000 </r>
       <r>   -7.0778    1.0000 </r>
       <r>   -6.9703    1.0000 </r>
       <r>   -6.9327    1.0000 </r>
       <r>   -6.8135    1.0000 </r>
       <r>   -6.7909    1.0000 </r>
       <r>   -6.7673    1.0000 </r>
       <r>   -6.6461    1.0000 </r>
       <r>   -6.5889    1.0000 </r>
       <r>   -6.5261    1.0000 </r>
       <r>   -6.4336    1.0000 </r>
       <r>   -6.3179    1.0000 </r>
       <r>   -6.2607    1.0000 </r>
       <r>   -6.1686    1.0000 </r>
       <r>   -6.1263    1.0000 </r>
       <r>   -6.0130    1.0000 </r>
       <r>   -5.9745    1.0000 </r>
       <r>   -5.9014    1.0000 </r>
       <r>   -5.8234    1.0000 </r>
       <r>   -5.8136    1.0000 </r>
       <r>   -5.6927    1.0000 </r>
       <r>   -5.6453    1.0000 </r>
       <r>   -5.6222    1.0000 </r>
       <r>   -5.4915    1.0000 </r>
       <r>   -5.3020    1.0000 </r>
       <r>   -5.1639    1.0000 </r>
       <r>   -5.0479    1.0000 </r>
       <r>   -4.9615    1.0000 </r>
       <r>   -4.8121    1.0000 </r>
       <r>   -4.7040    1.0000 </r>
       <r>   -4.4478    1.0000 </r>
       <r>   -4.3992    1.0000 </r>
       <r>   -4.2676    1.0000 </r>
       <r>   -4.2132    1.0000 </r>
       <r>   -3.9225    1.0000 </r>
       <r>   -3.7584    1.0000 </r>
       <r>   -3.6116    0.9991 </r>
       <r>   -3.5114    0.9919 </r>
       <r>   -3.2656    0.7479 </r>
       <r>   -3.1754    0.5119 </r>
       <r>   -3.0172    0.1381 </r>
       <r>   -2.7730    0.0024 </r>
       <r>   -2.7326    0.0010 </r>
       <r>   -2.6161    0.0000 </r>
       <r>   -2.4790    0.0000 </r>
       <r>   -2.3990    0.0000 </r>
       <r>   -2.2338    0.0000 </r>
       <r>   -2.1799    0.0000 </r>
       <r>   -2.0558    0.0000 </r>
       <r>   -1.9814    0.0000 </r>
       <r>   -1.6450    0.0000 </r>
       <r>   -1.5865    0.0000 </r>
       <r>   -1.5716    0.0000 </r>
       <r>   -1.4927    0.0000 </r>
       <r>   -1.3126    0.0000 </r>
       <r>   -1.2348    0.0000 </r>
       <r>   -1.1047    0.0000 </r>
       <r>   -0.9941    0.0000 </r>
       <r>   -0.8937    0.0000 </r>
       <r>   -0.8703    0.0000 </r>
       <r>   -0.8021    0.0000 </r>
       <r>   -0.7314    0.0000 </r>
       <r>   -0.6152    0.0000 </r>
       <r>   -0.5919    0.0000 </r>
       <r>   -0.4680    0.0000 </r>
       <r>   -0.3266    0.0000 </r>
       <r>   -0.1824    0.0000 </r>
       <r>   -0.1046    0.0000 </r>
       <r>    0.0009    0.0000 </r>
       <r>    0.1958    0.0000 </r>
       <r>    0.5979    0.0000 </r>
       <r>    0.7697    0.0000 </r>
       <r>    0.9053    0.0000 </r>
       <r>    1.0996    0.0000 </r>
       <r>    1.2105    0.0000 </r>
       <r>    1.2992    0.0000 </r>
       <r>    1.4722    0.0000 </r>
       <r>    2.1567    0.0000 </r>
       <r>    2.3007    0.0000 </r>
       <r>    2.4199    0.0000 </r>
      </set>
      <set comment="kpoint 32">
       <r>  -17.5125    1.0000 </r>
       <r>  -17.1718    1.0000 </r>
       <r>  -17.0455    1.0000 </r>
       <r>  -16.5269    1.0000 </r>
       <r>  -16.4223    1.0000 </r>
       <r>  -16.3317    1.0000 </r>
       <r>  -16.2310    1.0000 </r>
       <r>  -16.2007    1.0000 </r>
       <r>  -16.1294    1.0000 </r>
       <r>  -16.0069    1.0000 </r>
       <r>  -15.9855    1.0000 </r>
       <r>  -15.8887    1.0000 </r>
       <r>  -15.8263    1.0000 </r>
       <r>  -15.6880    1.0000 </r>
       <r>  -15.6396    1.0000 </r>
       <r>  -15.5291    1.0000 </r>
       <r>  -15.4900    1.0000 </r>
       <r>  -15.3755    1.0000 </r>
       <r>   -9.6400    1.0000 </r>
       <r>   -9.5914    1.0000 </r>
       <r>   -9.3605    1.0000 </r>
       <r>   -8.9034    1.0000 </r>
       <r>   -8.7090    1.0000 </r>
       <r>   -8.5781    1.0000 </r>
       <r>   -8.4954    1.0000 </r>
       <r>   -8.3815    1.0000 </r>
       <r>   -8.3746    1.0000 </r>
       <r>   -8.3446    1.0000 </r>
       <r>   -8.2965    1.0000 </r>
       <r>   -8.2222    1.0000 </r>
       <r>   -8.2088    1.0000 </r>
       <r>   -8.1579    1.0000 </r>
       <r>   -8.1468    1.0000 </r>
       <r>   -7.8832    1.0000 </r>
       <r>   -7.8706    1.0000 </r>
       <r>   -7.4898    1.0000 </r>
       <r>   -7.4634    1.0000 </r>
       <r>   -7.3766    1.0000 </r>
       <r>   -7.3072    1.0000 </r>
       <r>   -7.2271    1.0000 </r>
       <r>   -7.2013    1.0000 </r>
       <r>   -7.0426    1.0000 </r>
       <r>   -7.0153    1.0000 </r>
       <r>   -6.8983    1.0000 </r>
       <r>   -6.8735    1.0000 </r>
       <r>   -6.8095    1.0000 </r>
       <r>   -6.7632    1.0000 </r>
       <r>   -6.6760    1.0000 </r>
       <r>   -6.5272    1.0000 </r>
       <r>   -6.5255    1.0000 </r>
       <r>   -6.4478    1.0000 </r>
       <r>   -6.3079    1.0000 </r>
       <r>   -6.2707    1.0000 </r>
       <r>   -6.2595    1.0000 </r>
       <r>   -6.1279    1.0000 </r>
       <r>   -6.0087    1.0000 </r>
       <r>   -5.9354    1.0000 </r>
       <r>   -5.8859    1.0000 </r>
       <r>   -5.8247    1.0000 </r>
       <r>   -5.6812    1.0000 </r>
       <r>   -5.6677    1.0000 </r>
       <r>   -5.5232    1.0000 </r>
       <r>   -5.5193    1.0000 </r>
       <r>   -5.4142    1.0000 </r>
       <r>   -5.3990    1.0000 </r>
       <r>   -5.2374    1.0000 </r>
       <r>   -5.2157    1.0000 </r>
       <r>   -5.0077    1.0000 </r>
       <r>   -4.9075    1.0000 </r>
       <r>   -4.6429    1.0000 </r>
       <r>   -4.4718    1.0000 </r>
       <r>   -4.3528    1.0000 </r>
       <r>   -4.3138    1.0000 </r>
       <r>   -4.0577    1.0000 </r>
       <r>   -4.0507    1.0000 </r>
       <r>   -3.7307    1.0000 </r>
       <r>   -3.6437    0.9996 </r>
       <r>   -3.4830    0.9863 </r>
       <r>   -3.2741    0.7667 </r>
       <r>   -3.1474    0.4332 </r>
       <r>   -2.8963    0.0260 </r>
       <r>   -2.8587    0.0136 </r>
       <r>   -2.7717    0.0024 </r>
       <r>   -2.5982    0.0000 </r>
       <r>   -2.4774    0.0000 </r>
       <r>   -2.4068    0.0000 </r>
       <r>   -2.2223    0.0000 </r>
       <r>   -2.2085    0.0000 </r>
       <r>   -2.0566    0.0000 </r>
       <r>   -1.9786    0.0000 </r>
       <r>   -1.6291    0.0000 </r>
       <r>   -1.6057    0.0000 </r>
       <r>   -1.5733    0.0000 </r>
       <r>   -1.4898    0.0000 </r>
       <r>   -1.3133    0.0000 </r>
       <r>   -1.2576    0.0000 </r>
       <r>   -1.0520    0.0000 </r>
       <r>   -0.9964    0.0000 </r>
       <r>   -0.9298    0.0000 </r>
       <r>   -0.8918    0.0000 </r>
       <r>   -0.7933    0.0000 </r>
       <r>   -0.6852    0.0000 </r>
       <r>   -0.6494    0.0000 </r>
       <r>   -0.5203    0.0000 </r>
       <r>   -0.4989    0.0000 </r>
       <r>   -0.2789    0.0000 </r>
       <r>   -0.1740    0.0000 </r>
       <r>   -0.1021    0.0000 </r>
       <r>   -0.0664    0.0000 </r>
       <r>    0.2243    0.0000 </r>
       <r>    0.5623    0.0000 </r>
       <r>    0.8120    0.0000 </r>
       <r>    0.8703    0.0000 </r>
       <r>    1.1005    0.0000 </r>
       <r>    1.2009    0.0000 </r>
       <r>    1.3143    0.0000 </r>
       <r>    1.4158    0.0000 </r>
       <r>    2.1243    0.0000 </r>
       <r>    2.2689    0.0000 </r>
       <r>    2.5995    0.0000 </r>
      </set>
      <set comment="kpoint 33">
       <r>  -17.4924    1.0000 </r>
       <r>  -17.2747    1.0000 </r>
       <r>  -16.9062    1.0000 </r>
       <r>  -16.5267    1.0000 </r>
       <r>  -16.4609    1.0000 </r>
       <r>  -16.4158    1.0000 </r>
       <r>  -16.2785    1.0000 </r>
       <r>  -16.1421    1.0000 </r>
       <r>  -16.0959    1.0000 </r>
       <r>  -16.0165    1.0000 </r>
       <r>  -15.9683    1.0000 </r>
       <r>  -15.8582    1.0000 </r>
       <r>  -15.8245    1.0000 </r>
       <r>  -15.6907    1.0000 </r>
       <r>  -15.6264    1.0000 </r>
       <r>  -15.5354    1.0000 </r>
       <r>  -15.4903    1.0000 </r>
       <r>  -15.3985    1.0000 </r>
       <r>   -9.7369    1.0000 </r>
       <r>   -9.4536    1.0000 </r>
       <r>   -9.2733    1.0000 </r>
       <r>   -8.9355    1.0000 </r>
       <r>   -8.8114    1.0000 </r>
       <r>   -8.7260    1.0000 </r>
       <r>   -8.5450    1.0000 </r>
       <r>   -8.4320    1.0000 </r>
       <r>   -8.4000    1.0000 </r>
       <r>   -8.3380    1.0000 </r>
       <r>   -8.2465    1.0000 </r>
       <r>   -8.2171    1.0000 </r>
       <r>   -8.1463    1.0000 </r>
       <r>   -8.1016    1.0000 </r>
       <r>   -7.9742    1.0000 </r>
       <r>   -7.9041    1.0000 </r>
       <r>   -7.8092    1.0000 </r>
       <r>   -7.5951    1.0000 </r>
       <r>   -7.4921    1.0000 </r>
       <r>   -7.4000    1.0000 </r>
       <r>   -7.2998    1.0000 </r>
       <r>   -7.2134    1.0000 </r>
       <r>   -7.1409    1.0000 </r>
       <r>   -7.0836    1.0000 </r>
       <r>   -6.9760    1.0000 </r>
       <r>   -6.9360    1.0000 </r>
       <r>   -6.8185    1.0000 </r>
       <r>   -6.7888    1.0000 </r>
       <r>   -6.7586    1.0000 </r>
       <r>   -6.6405    1.0000 </r>
       <r>   -6.5781    1.0000 </r>
       <r>   -6.5184    1.0000 </r>
       <r>   -6.4339    1.0000 </r>
       <r>   -6.3247    1.0000 </r>
       <r>   -6.2653    1.0000 </r>
       <r>   -6.1746    1.0000 </r>
       <r>   -6.1220    1.0000 </r>
       <r>   -6.0331    1.0000 </r>
       <r>   -5.9787    1.0000 </r>
       <r>   -5.8956    1.0000 </r>
       <r>   -5.8320    1.0000 </r>
       <r>   -5.8216    1.0000 </r>
       <r>   -5.6820    1.0000 </r>
       <r>   -5.6473    1.0000 </r>
       <r>   -5.6303    1.0000 </r>
       <r>   -5.4951    1.0000 </r>
       <r>   -5.2930    1.0000 </r>
       <r>   -5.1579    1.0000 </r>
       <r>   -5.0473    1.0000 </r>
       <r>   -4.9575    1.0000 </r>
       <r>   -4.8180    1.0000 </r>
       <r>   -4.6968    1.0000 </r>
       <r>   -4.4459    1.0000 </r>
       <r>   -4.3878    1.0000 </r>
       <r>   -4.2607    1.0000 </r>
       <r>   -4.2143    1.0000 </r>
       <r>   -3.9200    1.0000 </r>
       <r>   -3.7549    1.0000 </r>
       <r>   -3.6315    0.9994 </r>
       <r>   -3.5206    0.9933 </r>
       <r>   -3.2865    0.7926 </r>
       <r>   -3.1558    0.4568 </r>
       <r>   -3.0154    0.1353 </r>
       <r>   -2.7706    0.0023 </r>
       <r>   -2.7337    0.0010 </r>
       <r>   -2.6060    0.0000 </r>
       <r>   -2.4933    0.0000 </r>
       <r>   -2.3937    0.0000 </r>
       <r>   -2.2398    0.0000 </r>
       <r>   -2.1635    0.0000 </r>
       <r>   -2.0557    0.0000 </r>
       <r>   -1.9795    0.0000 </r>
       <r>   -1.6421    0.0000 </r>
       <r>   -1.6058    0.0000 </r>
       <r>   -1.5532    0.0000 </r>
       <r>   -1.4785    0.0000 </r>
       <r>   -1.3151    0.0000 </r>
       <r>   -1.2522    0.0000 </r>
       <r>   -1.0999    0.0000 </r>
       <r>   -0.9939    0.0000 </r>
       <r>   -0.9038    0.0000 </r>
       <r>   -0.8800    0.0000 </r>
       <r>   -0.8021    0.0000 </r>
       <r>   -0.7317    0.0000 </r>
       <r>   -0.6174    0.0000 </r>
       <r>   -0.5891    0.0000 </r>
       <r>   -0.4507    0.0000 </r>
       <r>   -0.3247    0.0000 </r>
       <r>   -0.1836    0.0000 </r>
       <r>   -0.1006    0.0000 </r>
       <r>    0.0025    0.0000 </r>
       <r>    0.1966    0.0000 </r>
       <r>    0.5967    0.0000 </r>
       <r>    0.7505    0.0000 </r>
       <r>    0.8973    0.0000 </r>
       <r>    1.1124    0.0000 </r>
       <r>    1.2180    0.0000 </r>
       <r>    1.3023    0.0000 </r>
       <r>    1.4618    0.0000 </r>
       <r>    2.1559    0.0000 </r>
       <r>    2.2997    0.0000 </r>
       <r>    2.4180    0.0000 </r>
      </set>
      <set comment="kpoint 34">
       <r>  -17.4599    1.0000 </r>
       <r>  -17.3490    1.0000 </r>
       <r>  -16.7444    1.0000 </r>
       <r>  -16.6272    1.0000 </r>
       <r>  -16.5183    1.0000 </r>
       <r>  -16.4330    1.0000 </r>
       <r>  -16.2684    1.0000 </r>
       <r>  -16.1504    1.0000 </r>
       <r>  -16.0692    1.0000 </r>
       <r>  -16.0240    1.0000 </r>
       <r>  -15.9501    1.0000 </r>
       <r>  -15.8448    1.0000 </r>
       <r>  -15.8018    1.0000 </r>
       <r>  -15.6905    1.0000 </r>
       <r>  -15.6061    1.0000 </r>
       <r>  -15.5537    1.0000 </r>
       <r>  -15.4845    1.0000 </r>
       <r>  -15.4270    1.0000 </r>
       <r>   -9.7792    1.0000 </r>
       <r>   -9.3354    1.0000 </r>
       <r>   -9.1261    1.0000 </r>
       <r>   -9.0435    1.0000 </r>
       <r>   -8.9527    1.0000 </r>
       <r>   -8.8087    1.0000 </r>
       <r>   -8.5889    1.0000 </r>
       <r>   -8.4374    1.0000 </r>
       <r>   -8.3865    1.0000 </r>
       <r>   -8.3752    1.0000 </r>
       <r>   -8.2383    1.0000 </r>
       <r>   -8.1911    1.0000 </r>
       <r>   -8.1359    1.0000 </r>
       <r>   -7.9697    1.0000 </r>
       <r>   -7.9420    1.0000 </r>
       <r>   -7.8923    1.0000 </r>
       <r>   -7.7286    1.0000 </r>
       <r>   -7.6269    1.0000 </r>
       <r>   -7.4982    1.0000 </r>
       <r>   -7.4609    1.0000 </r>
       <r>   -7.3144    1.0000 </r>
       <r>   -7.2351    1.0000 </r>
       <r>   -7.1935    1.0000 </r>
       <r>   -7.0666    1.0000 </r>
       <r>   -6.9530    1.0000 </r>
       <r>   -6.9205    1.0000 </r>
       <r>   -6.8059    1.0000 </r>
       <r>   -6.7309    1.0000 </r>
       <r>   -6.6641    1.0000 </r>
       <r>   -6.6234    1.0000 </r>
       <r>   -6.5755    1.0000 </r>
       <r>   -6.5308    1.0000 </r>
       <r>   -6.4310    1.0000 </r>
       <r>   -6.3820    1.0000 </r>
       <r>   -6.2646    1.0000 </r>
       <r>   -6.1471    1.0000 </r>
       <r>   -6.1294    1.0000 </r>
       <r>   -6.0987    1.0000 </r>
       <r>   -6.0407    1.0000 </r>
       <r>   -5.9127    1.0000 </r>
       <r>   -5.8452    1.0000 </r>
       <r>   -5.8015    1.0000 </r>
       <r>   -5.7589    1.0000 </r>
       <r>   -5.6726    1.0000 </r>
       <r>   -5.6181    1.0000 </r>
       <r>   -5.5874    1.0000 </r>
       <r>   -5.3287    1.0000 </r>
       <r>   -5.0932    1.0000 </r>
       <r>   -4.9284    1.0000 </r>
       <r>   -4.8940    1.0000 </r>
       <r>   -4.7271    1.0000 </r>
       <r>   -4.6814    1.0000 </r>
       <r>   -4.5268    1.0000 </r>
       <r>   -4.3641    1.0000 </r>
       <r>   -4.3280    1.0000 </r>
       <r>   -4.1965    1.0000 </r>
       <r>   -3.8749    1.0000 </r>
       <r>   -3.7765    1.0000 </r>
       <r>   -3.6075    0.9990 </r>
       <r>   -3.5649    0.9973 </r>
       <r>   -3.2898    0.7993 </r>
       <r>   -3.1813    0.5286 </r>
       <r>   -3.0666    0.2299 </r>
       <r>   -2.7597    0.0018 </r>
       <r>   -2.6716    0.0002 </r>
       <r>   -2.6272    0.0001 </r>
       <r>   -2.4983    0.0000 </r>
       <r>   -2.3882    0.0000 </r>
       <r>   -2.2357    0.0000 </r>
       <r>   -2.1391    0.0000 </r>
       <r>   -2.0581    0.0000 </r>
       <r>   -1.9815    0.0000 </r>
       <r>   -1.6517    0.0000 </r>
       <r>   -1.6080    0.0000 </r>
       <r>   -1.5160    0.0000 </r>
       <r>   -1.4906    0.0000 </r>
       <r>   -1.3086    0.0000 </r>
       <r>   -1.2418    0.0000 </r>
       <r>   -1.1452    0.0000 </r>
       <r>   -0.9801    0.0000 </r>
       <r>   -0.9234    0.0000 </r>
       <r>   -0.8562    0.0000 </r>
       <r>   -0.8048    0.0000 </r>
       <r>   -0.7410    0.0000 </r>
       <r>   -0.6294    0.0000 </r>
       <r>   -0.5934    0.0000 </r>
       <r>   -0.4352    0.0000 </r>
       <r>   -0.3962    0.0000 </r>
       <r>   -0.1859    0.0000 </r>
       <r>   -0.0808    0.0000 </r>
       <r>    0.0743    0.0000 </r>
       <r>    0.1498    0.0000 </r>
       <r>    0.6248    0.0000 </r>
       <r>    0.7204    0.0000 </r>
       <r>    0.8974    0.0000 </r>
       <r>    1.1233    0.0000 </r>
       <r>    1.2422    0.0000 </r>
       <r>    1.2945    0.0000 </r>
       <r>    1.4995    0.0000 </r>
       <r>    2.2379    0.0000 </r>
       <r>    2.2705    0.0000 </r>
       <r>    2.3728    0.0000 </r>
      </set>
     </set>
    </set>
   </array>
  </eigenvalues>
  <separator name="orbital magnetization" >
   <v name="MAGDIPOLOUT">      0.00000000      0.00000000      0.00000000</v>
  </separator>
 </calculation>
 <structure name="finalpos" >
  <crystal>
   <varray name="basis" >
    <v>       8.31915471       4.77998012       0.00000000 </v>
    <v>      -8.33549475       4.80825891       0.00000000 </v>
    <v>       0.00000000       0.00000000      30.00000000 </v>
   </varray>
   <i name="volume">   2395.32446819 </i>
   <varray name="rec_basis" >
    <v>       0.06022055       0.10439706       0.00000000 </v>
    <v>      -0.05986638       0.10419242       0.00000000 </v>
    <v>       0.00000000       0.00000000       0.03333333 </v>
   </varray>
  </crystal>
  <varray name="positions" >
   <v>       1.00216222       0.30403571       0.00022630 </v>
   <v>       0.66062474      -0.00044401      -0.00044805 </v>
   <v>       0.34066180       0.33806067       0.00031637 </v>
   <v>       0.31978707      -0.00827272      -0.00058353 </v>
   <v>       0.68030047       0.66968584       0.00064573 </v>
   <v>      -0.00053565      -0.01821763      -0.00005317 </v>
   <v>       0.00032049       0.69438503       0.00000138 </v>
   <v>       0.35310379       0.68422730      -0.00053028 </v>
   <v>       0.64403526       0.33045582       0.00047558 </v>
   <v>       0.11628546       0.22199083       0.94918464 </v>
   <v>       0.22375231       0.11623275       0.05098661 </v>
   <v>       0.10747822       0.55079245       0.95554534 </v>
   <v>       0.22268276       0.44189413       0.04857654 </v>
   <v>       0.11009566       0.88857865       0.94288267 </v>
   <v>       0.21986035       0.77513834       0.05240686 </v>
   <v>       0.43715285       0.22520200       0.94710907 </v>
   <v>       0.55311614       0.10868576       0.05029931 </v>
   <v>       0.44672050       0.55533648       0.94981082 </v>
   <v>       0.54803643       0.44400984       0.05336491 </v>
   <v>       0.45138947       0.89566334       0.94701163 </v>
   <v>       0.56218244       0.78752726       0.05237689 </v>
   <v>       0.77804149       0.22026382       0.95187437 </v>
   <v>       0.88374142       0.10571728       0.05072671 </v>
   <v>       0.78012627       0.55471323       0.94757534 </v>
   <v>       0.89202094       0.44291176       0.04397785 </v>
   <v>       0.77536518       0.89154806       0.94913328 </v>
   <v>       0.88970638       0.77809247       0.05710674 </v>
  </varray>
 </structure>
</modeling>
