<?xml version="1.0" encoding="ISO-8859-1"?>
<modeling>
 <generator>
  <i name="program" type="string">vasp </i>
  <i name="version" type="string">5.4.1  </i>
  <i name="subversion" type="string">05Feb16 (build Jul 05 2020 17:13:04) complex                          parallel </i>
  <i name="platform" type="string">IFC91_ompi </i>
  <i name="date" type="string">2024 05 11 </i>
  <i name="time" type="string">05:39:06 </i>
 </generator>
 <incar>
  <i type="int" name="ISTART">     0</i>
  <i type="string" name="PREC">normal</i>
  <i type="string" name="ALGO"> Normal</i>
  <i type="int" name="ISPIN">     1</i>
  <i type="int" name="ICHARG">     2</i>
  <i type="int" name="IBRION">     1</i>
  <i type="int" name="NSW">   100</i>
  <i type="int" name="ISIF">     3</i>
  <i type="int" name="ISYM">     0</i>
  <i name="SYMPREC">      0.00000001</i>
  <i name="POTIM">      0.50000000</i>
  <i type="logical" name="LREAL"> F  </i>
  <i type="logical" name="LPLANE"> F  </i>
  <i type="int" name="ISMEAR">     0</i>
  <i type="logical" name="LWAVE"> F  </i>
  <i type="logical" name="LCHARG"> F  </i>
  <v type="int" name="KPOINT_BSE">    -1     0     0     0</v>
 </incar>
 <kpoints>
  <generation param="Gamma">
   <v type="int" name="divisions">       8        8        1 </v>
   <v name="usershift">      0.00000000       0.00000000       0.00000000 </v>
   <v name="genvec1">      0.12500000       0.00000000       0.00000000 </v>
   <v name="genvec2">     -0.00000000       0.12500000       0.00000000 </v>
   <v name="genvec3">      0.00000000       0.00000000       1.00000000 </v>
   <v name="shift">      0.00000000       0.00000000       0.00000000 </v>
  </generation>
  <varray name="kpointlist" >
   <v>       0.00000000       0.00000000       0.00000000 </v>
   <v>       0.12500000       0.00000000       0.00000000 </v>
   <v>       0.25000000       0.00000000       0.00000000 </v>
   <v>       0.37500000       0.00000000       0.00000000 </v>
   <v>       0.50000000       0.00000000       0.00000000 </v>
   <v>       0.00000000       0.12500000       0.00000000 </v>
   <v>       0.12500000       0.12500000       0.00000000 </v>
   <v>       0.25000000       0.12500000       0.00000000 </v>
   <v>       0.37500000       0.12500000       0.00000000 </v>
   <v>       0.50000000       0.12500000       0.00000000 </v>
   <v>      -0.37500000       0.12500000       0.00000000 </v>
   <v>      -0.25000000       0.12500000       0.00000000 </v>
   <v>      -0.12500000       0.12500000       0.00000000 </v>
   <v>       0.00000000       0.25000000       0.00000000 </v>
   <v>       0.12500000       0.25000000       0.00000000 </v>
   <v>       0.25000000       0.25000000       0.00000000 </v>
   <v>       0.37500000       0.25000000       0.00000000 </v>
   <v>       0.50000000       0.25000000       0.00000000 </v>
   <v>      -0.37500000       0.25000000       0.00000000 </v>
   <v>      -0.25000000       0.25000000       0.00000000 </v>
   <v>      -0.12500000       0.25000000       0.00000000 </v>
   <v>      -0.00000000       0.37500000       0.00000000 </v>
   <v>       0.12500000       0.37500000       0.00000000 </v>
   <v>       0.25000000       0.37500000       0.00000000 </v>
   <v>       0.37500000       0.37500000       0.00000000 </v>
   <v>       0.50000000       0.37500000       0.00000000 </v>
   <v>      -0.37500000       0.37500000       0.00000000 </v>
   <v>      -0.25000000       0.37500000       0.00000000 </v>
   <v>      -0.12500000       0.37500000       0.00000000 </v>
   <v>       0.00000000       0.50000000       0.00000000 </v>
   <v>       0.12500000       0.50000000       0.00000000 </v>
   <v>       0.25000000       0.50000000       0.00000000 </v>
   <v>       0.37500000       0.50000000       0.00000000 </v>
   <v>       0.50000000       0.50000000       0.00000000 </v>
  </varray>
  <varray name="weights" >
   <v>       0.01562500 </v>
   <v>       0.03125000 </v>
   <v>       0.03125000 </v>
   <v>       0.03125000 </v>
   <v>       0.01562500 </v>
   <v>       0.03125000 </v>
   <v>       0.03125000 </v>
   <v>       0.03125000 </v>
   <v>       0.03125000 </v>
   <v>       0.03125000 </v>
   <v>       0.03125000 </v>
   <v>       0.03125000 </v>
   <v>       0.03125000 </v>
   <v>       0.03125000 </v>
   <v>       0.03125000 </v>
   <v>       0.03125000 </v>
   <v>       0.03125000 </v>
   <v>       0.03125000 </v>
   <v>       0.03125000 </v>
   <v>       0.03125000 </v>
   <v>       0.03125000 </v>
   <v>       0.03125000 </v>
   <v>       0.03125000 </v>
   <v>       0.03125000 </v>
   <v>       0.03125000 </v>
   <v>       0.03125000 </v>
   <v>       0.03125000 </v>
   <v>       0.03125000 </v>
   <v>       0.03125000 </v>
   <v>       0.01562500 </v>
   <v>       0.03125000 </v>
   <v>       0.03125000 </v>
   <v>       0.03125000 </v>
   <v>       0.01562500 </v>
  </varray>
 </kpoints>
 <parameters>
  <separator name="general" >
   <i type="string" name="SYSTEM">unknown system</i>
   <i type="logical" name="LCOMPAT"> F  </i>
  </separator>
  <separator name="electronic" >
   <i type="string" name="PREC">normal</i>
   <i name="ENMAX">    280.00000000</i>
   <i name="ENAUG">    373.43800000</i>
   <i name="EDIFF">      0.00010000</i>
   <i type="int" name="IALGO">    38</i>
   <i type="int" name="IWAVPR">    11</i>
   <i type="int" name="NBANDS">   120</i>
   <i name="NELECT">    159.00000000</i>
   <i type="int" name="TURBO">     0</i>
   <i type="int" name="IRESTART">     0</i>
   <i type="int" name="NREBOOT">     0</i>
   <i type="int" name="NMIN">     0</i>
   <i name="EREF">      0.00000000</i>
   <separator name="electronic smearing" >
    <i type="int" name="ISMEAR">     0</i>
    <i name="SIGMA">      0.20000000</i>
    <i name="KSPACING">      0.50000000</i>
    <i type="logical" name="KGAMMA"> T  </i>
   </separator>
   <separator name="electronic projectors" >
    <i type="logical" name="LREAL"> F  </i>
    <v name="ROPT">      0.00000000      0.00000000      0.00000000      0.00000000</v>
    <i type="int" name="LMAXPAW">  -100</i>
    <i type="int" name="LMAXMIX">     2</i>
    <i type="logical" name="NLSPLINE"> F  </i>
   </separator>
   <separator name="electronic startup" >
    <i type="int" name="ISTART">     0</i>
    <i type="int" name="ICHARG">     2</i>
    <i type="int" name="INIWAV">     1</i>
   </separator>
   <separator name="electronic spin" >
    <i type="int" name="ISPIN">     1</i>
    <i type="logical" name="LNONCOLLINEAR"> F  </i>
    <v name="MAGMOM">      1.00000000      1.00000000      1.00000000      1.00000000      1.00000000      1.00000000      1.00000000      1.00000000      1.00000000      1.00000000      1.00000000      1.00000000      1.00000000      1.00000000      1.00000000      1.00000000      1.00000000      1.00000000      1.00000000      1.00000000
      1.00000000      1.00000000      1.00000000      1.00000000      1.00000000      1.00000000      1.00000000</v>
    <i name="NUPDOWN">     -1.00000000</i>
    <i type="logical" name="LSORBIT"> F  </i>
    <v name="SAXIS">      0.00000000      0.00000000      1.00000000</v>
    <i type="logical" name="LSPIRAL"> F  </i>
    <v name="QSPIRAL">      0.00000000      0.00000000      0.00000000</v>
    <i type="logical" name="LZEROZ"> F  </i>
   </separator>
   <separator name="electronic exchange-correlation" >
    <i type="logical" name="LASPH"> F  </i>
    <i type="logical" name="LMETAGGA"> F  </i>
   </separator>
   <separator name="electronic convergence" >
    <i type="int" name="NELM">    60</i>
    <i type="int" name="NELMDL">    -5</i>
    <i type="int" name="NELMIN">     2</i>
    <i name="ENINI">    280.00000000</i>
    <separator name="electronic convergence detail" >
     <i type="logical" name="LDIAG"> T  </i>
     <i type="logical" name="LSUBROT"> F  </i>
     <i name="WEIMIN">      0.00100000</i>
     <i name="EBREAK">      0.00000021</i>
     <i name="DEPER">      0.30000000</i>
     <i type="int" name="NRMM">     4</i>
     <i name="TIME">      0.40000000</i>
    </separator>
   </separator>
   <separator name="electronic mixer" >
    <i name="AMIX">      0.40000000</i>
    <i name="BMIX">      1.00000000</i>
    <i name="AMIN">      0.10000000</i>
    <i name="AMIX_MAG">      1.60000000</i>
    <i name="BMIX_MAG">      1.00000000</i>
    <separator name="electronic mixer details" >
     <i type="int" name="IMIX">     4</i>
     <i type="logical" name="MIXFIRST"> F  </i>
     <i type="int" name="MAXMIX">   -45</i>
     <i name="WC">    100.00000000</i>
     <i type="int" name="INIMIX">     1</i>
     <i type="int" name="MIXPRE">     1</i>
     <i type="int" name="MREMOVE">     5</i>
    </separator>
   </separator>
   <separator name="electronic dipolcorrection" >
    <i type="logical" name="LDIPOL"> F  </i>
    <i type="logical" name="LMONO"> F  </i>
    <i type="int" name="IDIPOL">     0</i>
    <i name="EPSILON">      1.00000000</i>
    <v name="DIPOL">   -100.00000000   -100.00000000   -100.00000000</v>
    <i name="EFIELD">      0.00000000</i>
   </separator>
  </separator>
  <separator name="grids" >
   <i type="int" name="NGX">    42</i>
   <i type="int" name="NGY">    42</i>
   <i type="int" name="NGZ">   126</i>
   <i type="int" name="NGXF">    84</i>
   <i type="int" name="NGYF">    84</i>
   <i type="int" name="NGZF">   252</i>
   <i type="logical" name="ADDGRID"> F  </i>
  </separator>
  <separator name="ionic" >
   <i type="int" name="NSW">   100</i>
   <i type="int" name="IBRION">     1</i>
   <i type="int" name="ISIF">     3</i>
   <i name="PSTRESS">      0.00000000</i>
   <i name="EDIFFG">      0.00100000</i>
   <i type="int" name="NFREE">     0</i>
   <i name="POTIM">      0.50000000</i>
   <i name="SMASS">     -3.00000000</i>
   <i name="SCALEE">      1.00000000</i>
  </separator>
  <separator name="ionic md" >
   <i name="TEBEG">      0.00010000</i>
   <i name="TEEND">      0.00010000</i>
   <i type="int" name="NBLOCK">     1</i>
   <i type="int" name="KBLOCK">   100</i>
   <i type="int" name="NPACO">   256</i>
   <i name="APACO">     16.00000000</i>
  </separator>
  <separator name="symmetry" >
   <i type="int" name="ISYM">     0</i>
   <i name="SYMPREC">      0.00000001</i>
  </separator>
  <separator name="dos" >
   <i type="logical" name="LORBIT"> F  </i>
   <v name="RWIGS">     -1.00000000     -1.00000000     -1.00000000     -1.00000000</v>
   <i type="int" name="NEDOS">   301</i>
   <i name="EMIN">     10.00000000</i>
   <i name="EMAX">    -10.00000000</i>
   <i name="EFERMI">      0.00000000</i>
  </separator>
  <separator name="writing" >
   <i type="int" name="NWRITE">     2</i>
   <i type="logical" name="LWAVE"> F  </i>
   <i type="logical" name="LCHARG"> F  </i>
   <i type="logical" name="LPARD"> F  </i>
   <i type="logical" name="LVTOT"> F  </i>
   <i type="logical" name="LVHAR"> F  </i>
   <i type="logical" name="LELF"> F  </i>
   <i type="logical" name="LOPTICS"> F  </i>
   <v name="STM">      0.00000000      0.00000000      0.00000000      0.00000000      0.00000000      0.00000000      0.00000000</v>
  </separator>
  <separator name="performance" >
   <i type="int" name="NPAR">    40</i>
   <i type="int" name="NSIM">     4</i>
   <i type="int" name="NBLK">    -1</i>
   <i type="logical" name="LPLANE"> F  </i>
   <i type="logical" name="LSCALAPACK"> T  </i>
   <i type="logical" name="LSCAAWARE"> F  </i>
   <i type="logical" name="LSCALU"> F  </i>
   <i type="logical" name="LASYNC"> F  </i>
   <i type="logical" name="LORBITALREAL"> F  </i>
  </separator>
  <separator name="miscellaneous" >
   <i type="int" name="IDIOT">     3</i>
   <i type="logical" name="LMUSIC"> F  </i>
   <v name="POMASS">     50.94100000     95.94000000    183.85000000     32.06600000</v>
   <v name="DARWINR">      0.00000000      0.00000000      0.00000000      0.00000000</v>
   <v name="DARWINV">      1.00000000      1.00000000      1.00000000      1.00000000</v>
   <i type="logical" name="LCORR"> T  </i>
  </separator>
  <i type="logical" name="GGA_COMPAT"> T  </i>
  <i type="logical" name="LBERRY"> F  </i>
  <i type="int" name="ICORELEVEL">     0</i>
  <i type="logical" name="LDAU"> F  </i>
  <i type="int" name="I_CONSTRAINED_M">     0</i>
  <separator name="electronic exchange-correlation" >
   <i type="string" name="GGA">--</i>
   <i type="int" name="VOSKOWN">     0</i>
   <i type="logical" name="LHFCALC"> F  </i>
   <i type="string" name="PRECFOCK"></i>
   <i type="logical" name="LSYMGRAD"> F  </i>
   <i type="logical" name="LHFONE"> F  </i>
   <i type="logical" name="LRHFCALC"> F  </i>
   <i type="logical" name="LTHOMAS"> F  </i>
   <i type="logical" name="LMODELHF"> F  </i>
   <i name="ENCUT4O">     -1.00000000</i>
   <i type="int" name="EXXOEP">     0</i>
   <i type="int" name="FOURORBIT">     0</i>
   <i name="AEXX">      0.00000000</i>
   <i name="HFALPHA">      0.00000000</i>
   <i name="MCALPHA">      0.00000000</i>
   <i name="ALDAX">      1.00000000</i>
   <i name="AGGAX">      1.00000000</i>
   <i name="ALDAC">      1.00000000</i>
   <i name="AGGAC">      1.00000000</i>
   <i type="int" name="NKREDX">     1</i>
   <i type="int" name="NKREDY">     1</i>
   <i type="int" name="NKREDZ">     1</i>
   <i type="logical" name="SHIFTRED"> F  </i>
   <i type="logical" name="ODDONLY"> F  </i>
   <i type="logical" name="EVENONLY"> F  </i>
   <i type="int" name="LMAXFOCK">     0</i>
   <i type="int" name="NMAXFOCKAE">     0</i>
   <i type="logical" name="LFOCKAEDFT"> F  </i>
   <i name="HFSCREEN">      0.00000000</i>
   <i name="HFSCREENC">      0.00000000</i>
   <i type="int" name="NBANDSGWLOW">     0</i>
  </separator>
  <separator name="vdW DFT" >
   <i type="logical" name="LUSE_VDW"> F  </i>
   <i name="Zab_VDW">     -0.84910000</i>
   <i name="PARAM1">      0.12340000</i>
   <i name="PARAM2">      1.00000000</i>
   <i name="PARAM3">      0.00000000</i>
  </separator>
  <separator name="model GW" >
   <i type="int" name="MODEL_GW">     0</i>
   <i name="MODEL_EPS0">     58.26239943</i>
   <i name="MODEL_ALPHA">      1.00000000</i>
  </separator>
  <separator name="linear response parameters" >
   <i type="logical" name="LEPSILON"> F  </i>
   <i type="logical" name="LRPA"> F  </i>
   <i type="logical" name="LNABLA"> F  </i>
   <i type="logical" name="LVEL"> F  </i>
   <i type="int" name="KINTER">     0</i>
   <i name="CSHIFT">      0.10000000</i>
   <i name="OMEGAMAX">     -1.00000000</i>
   <i name="DEG_THRESHOLD">      0.00200000</i>
  </separator>
  <separator name="orbital magnetization" >
   <i type="logical" name="NUCIND"> F  </i>
   <v name="MAGPOS">      0.00000000      0.00000000      0.00000000</v>
   <i type="logical" name="LNICSALL"> T  </i>
   <i type="logical" name="ORBITALMAG"> F  </i>
   <i type="logical" name="LMAGBLOCH"> F  </i>
   <i type="logical" name="LCHIMAG"> F  </i>
   <i type="logical" name="LGAUGE"> T  </i>
   <i type="int" name="MAGATOM">     0</i>
   <v name="MAGDIPOL">      0.00000000      0.00000000      0.00000000</v>
   <v name="AVECCONST">      0.00000000      0.00000000      0.00000000</v>
  </separator>
  <separator name="response functions" >
   <i type="logical" name="LADDER"> F  </i>
   <i type="logical" name="LFXC"> F  </i>
   <i type="logical" name="LHARTREE"> T  </i>
   <i type="int" name="IBSE">     0</i>
   <v type="int" name="KPOINT">    -1     0     0     0</v>
   <i type="logical" name="LTCTE"> F  </i>
   <i type="logical" name="LTETE"> F  </i>
   <i type="logical" name="LTRIPLET"> F  </i>
   <i type="logical" name="LFXCEPS"> F  </i>
   <i type="logical" name="LFXHEG"> F  </i>
   <i type="int" name="NATURALO">     0</i>
   <i type="logical" name="L2ORDER"> F  </i>
   <i type="logical" name="LUSEW"> F  </i>
   <i name="ENCUTGW">     -2.00000000</i>
   <i name="ENCUTGWSOFT">     -2.00000000</i>
   <i name="ENCUTLF">     -1.00000000</i>
   <i type="int" name="LMAXMP2">    -1</i>
   <i name="SCISSOR">      0.00000000</i>
   <i type="int" name="NOMEGA">     0</i>
   <i type="int" name="NOMEGAR">     0</i>
   <i type="int" name="NBANDSGW">    -1</i>
   <i type="int" name="NBANDSO">    -1</i>
   <i type="int" name="NBANDSV">    -1</i>
   <i type="int" name="NELM">     1</i>
   <i type="int" name="NELMHF">     1</i>
   <i type="int" name="DIM">     3</i>
   <i type="int" name="ANTIRES">     0</i>
   <i name="OMEGAMAX">    -30.00000000</i>
   <i name="OMEGAMIN">    -30.00000000</i>
   <i name="OMEGATL">   -200.00000000</i>
   <i type="int" name="OMEGAGRID">     0</i>
   <i name="CSHIFT">     -0.10000000</i>
   <i type="logical" name="SELFENERGY"> F  </i>
   <i type="logical" name="LSPECTRAL"> F  </i>
   <i type="logical" name="LSPECTRALGW"> F  </i>
   <i type="logical" name="LSINGLES"> F  </i>
   <i type="logical" name="LFERMIGW"> F  </i>
   <i type="logical" name="ODDONLYGW"> F  </i>
   <i type="logical" name="EVENONLYGW"> F  </i>
   <i type="int" name="NKREDLFX">     1</i>
   <i type="int" name="NKREDLFY">     1</i>
   <i type="int" name="NKREDLFZ">     1</i>
   <i type="int" name="MAXMEM">  1800</i>
   <i type="int" name="TELESCOPE">     0</i>
   <i type="int" name="TAUPAR">     1</i>
   <i type="int" name="OMEGAPAR">    -1</i>
   <i name="LAMBDA">      1.00000000</i>
  </separator>
  <separator name="External order field" >
   <i name="OFIELD_KAPPA">      0.00000000</i>
   <v name="OFIELD_K">      0.00000000      0.00000000      0.00000000</v>
   <i name="OFIELD_Q6_NEAR">      0.00000000</i>
   <i name="OFIELD_Q6_FAR">      0.00000000</i>
   <i name="OFIELD_A">      0.00000000</i>
  </separator>
 </parameters>
 <atominfo>
  <atoms>      27 </atoms>
  <types>       4 </types>
  <array name="atoms" >
   <dimension dim="1">ion</dimension>
   <field type="string">element</field>
   <field type="int">atomtype</field>
   <set>
    <rc><c>V </c><c>   1</c></rc>
    <rc><c>V </c><c>   1</c></rc>
    <rc><c>V </c><c>   1</c></rc>
    <rc><c>Mo</c><c>   2</c></rc>
    <rc><c>Mo</c><c>   2</c></rc>
    <rc><c>Mo</c><c>   2</c></rc>
    <rc><c>W </c><c>   3</c></rc>
    <rc><c>W </c><c>   3</c></rc>
    <rc><c>W </c><c>   3</c></rc>
    <rc><c>S </c><c>   4</c></rc>
    <rc><c>S </c><c>   4</c></rc>
    <rc><c>S </c><c>   4</c></rc>
    <rc><c>S </c><c>   4</c></rc>
    <rc><c>S </c><c>   4</c></rc>
    <rc><c>S </c><c>   4</c></rc>
    <rc><c>S </c><c>   4</c></rc>
    <rc><c>S </c><c>   4</c></rc>
    <rc><c>S </c><c>   4</c></rc>
    <rc><c>S </c><c>   4</c></rc>
    <rc><c>S </c><c>   4</c></rc>
    <rc><c>S </c><c>   4</c></rc>
    <rc><c>S </c><c>   4</c></rc>
    <rc><c>S </c><c>   4</c></rc>
    <rc><c>S </c><c>   4</c></rc>
    <rc><c>S </c><c>   4</c></rc>
    <rc><c>S </c><c>   4</c></rc>
    <rc><c>S </c><c>   4</c></rc>
   </set>
  </array>
  <array name="atomtypes" >
   <dimension dim="1">type</dimension>
   <field type="int">atomspertype</field>
   <field type="string">element</field>
   <field>mass</field>
   <field>valence</field>
   <field type="string">pseudopotential</field>
   <set>
    <rc><c>   3</c><c>V </c><c>     50.94100000</c><c>      5.00000000</c><c> PAW_PBE V 08Apr2002                    </c></rc>
    <rc><c>   3</c><c>Mo</c><c>     95.94000000</c><c>      6.00000000</c><c> PAW_PBE Mo 08Apr2002                   </c></rc>
    <rc><c>   3</c><c>W </c><c>    183.85000000</c><c>      6.00000000</c><c> PAW_PBE W 08Apr2002                    </c></rc>
    <rc><c>  18</c><c>S </c><c>     32.06600000</c><c>      6.00000000</c><c>  PAW_PBE S 17Jan2003                   </c></rc>
   </set>
  </array>
 </atominfo>
 <structure name="initialpos" >
  <crystal>
   <varray name="basis" >
    <v>       8.66999996       5.03999989       0.00000000 </v>
    <v>      -8.66999982       5.04000013       0.00000000 </v>
    <v>       0.00000000       0.00000000      30.00000000 </v>
   </varray>
   <i name="volume">   2621.80797419 </i>
   <varray name="rec_basis" >
    <v>       0.05767013       0.09920635       0.00000000 </v>
    <v>      -0.05767013       0.09920635       0.00000000 </v>
    <v>       0.00000000       0.00000000       0.03333333 </v>
   </varray>
  </crystal>
  <varray name="positions" >
   <v>       0.66666669       0.66666669       0.00000000 </v>
   <v>       0.66666669       0.33333334       0.00000000 </v>
   <v>       0.33333334       0.33333334       0.00000000 </v>
   <v>       0.00000000       0.66666669       0.00000000 </v>
   <v>       0.66666669       0.00000000       0.00000000 </v>
   <v>       0.33333334       0.00000000       0.00000000 </v>
   <v>       0.00000000       0.00000000       0.00000000 </v>
   <v>       1.00000000       0.33333334       0.00000000 </v>
   <v>       0.33333334       0.66666669       0.00000000 </v>
   <v>       0.11068511       0.22244981       0.95539999 </v>
   <v>       0.22244981       0.11068511       0.04460000 </v>
   <v>       0.11068511       0.55578315       0.95539999 </v>
   <v>       0.22244981       0.44401845       0.04460000 </v>
   <v>       0.11068511       0.88911647       0.95539999 </v>
   <v>       0.22244981       0.77735180       0.04460000 </v>
   <v>       0.44401845       0.22244981       0.95539999 </v>
   <v>       0.55578315       0.11068511       0.04460000 </v>
   <v>       0.44401845       0.55578315       0.95539999 </v>
   <v>       0.55578315       0.44401845       0.04460000 </v>
   <v>       0.44401845       0.88911647       0.95539999 </v>
   <v>       0.55578315       0.77735180       0.04460000 </v>
   <v>       0.77735180       0.22244981       0.95539999 </v>
   <v>       0.88911647       0.11068511       0.04460000 </v>
   <v>       0.77735180       0.55578315       0.95539999 </v>
   <v>       0.88911647       0.44401845       0.04460000 </v>
   <v>       0.77735180       0.88911647       0.95539999 </v>
   <v>       0.88911647       0.77735180       0.04460000 </v>
  </varray>
 </structure>
 <calculation>
  <scstep>
   <time name="dav">   21.71   21.76</time>
   <time name="total">   21.75   21.81</time>
   <energy>
    <i name="alphaZ">     81.65567618 </i>
    <i name="ewald">  41891.17178794 </i>
    <i name="hartreedc"> -47723.81657773 </i>
    <i name="XCdc">   -242.92509158 </i>
    <i name="pawpsdc">   3467.42045192 </i>
    <i name="pawaedc">  -2871.19716117 </i>
    <i name="eentropy">     -0.53171138 </i>
    <i name="bandstr">   -239.65821003 </i>
    <i name="atom">   6761.44252427 </i>
    <i name="e_fr_energy">   1123.56168843 </i>
    <i name="e_wo_entrp">   1124.09339981 </i>
    <i name="e_0_energy">   1123.82754412 </i>
   </energy>
  </scstep>
  <scstep>
   <time name="dav">   28.31   28.38</time>
   <time name="total">   28.31   28.39</time>
   <energy>
    <i name="e_fr_energy">     -3.30429794 </i>
    <i name="e_wo_entrp">     -3.09500587 </i>
    <i name="e_0_energy">     -3.19965190 </i>
   </energy>
  </scstep>
  <scstep>
   <time name="dav">   27.50   27.57</time>
   <time name="total">   27.50   27.57</time>
   <energy>
    <i name="e_fr_energy">   -199.88679262 </i>
    <i name="e_wo_entrp">   -199.62230288 </i>
    <i name="e_0_energy">   -199.75454775 </i>
   </energy>
  </scstep>
  <scstep>
   <time name="dav">   30.17   30.24</time>
   <time name="total">   30.17   30.25</time>
   <energy>
    <i name="e_fr_energy">   -208.99119698 </i>
    <i name="e_wo_entrp">   -208.69830165 </i>
    <i name="e_0_energy">   -208.84474931 </i>
   </energy>
  </scstep>
  <scstep>
   <time name="dav">   27.72   27.79</time>
   <time name="total">   28.19   28.26</time>
   <energy>
    <i name="e_fr_energy">   -209.29957433 </i>
    <i name="e_wo_entrp">   -209.00943787 </i>
    <i name="e_0_energy">   -209.15450610 </i>
   </energy>
  </scstep>
  <scstep>
   <time name="dav">   30.61   30.68</time>
   <time name="total">   31.12   31.20</time>
   <energy>
    <i name="e_fr_energy">   -237.72587103 </i>
    <i name="e_wo_entrp">   -237.46523313 </i>
    <i name="e_0_energy">   -237.59555208 </i>
   </energy>
  </scstep>
  <scstep>
   <time name="dav">   32.74   32.82</time>
   <time name="total">   33.24   33.33</time>
   <energy>
    <i name="e_fr_energy">   -196.62789122 </i>
    <i name="e_wo_entrp">   -196.30405675 </i>
    <i name="e_0_energy">   -196.46597399 </i>
   </energy>
  </scstep>
  <scstep>
   <time name="dav">   29.64   29.71</time>
   <time name="total">   30.16   30.24</time>
   <energy>
    <i name="e_fr_energy">   -189.65428504 </i>
    <i name="e_wo_entrp">   -189.34722553 </i>
    <i name="e_0_energy">   -189.50075528 </i>
   </energy>
  </scstep>
  <scstep>
   <time name="dav">   31.67   31.74</time>
   <time name="total">   32.19   32.27</time>
   <energy>
    <i name="e_fr_energy">   -188.22096021 </i>
    <i name="e_wo_entrp">   -187.89151230 </i>
    <i name="e_0_energy">   -188.05623625 </i>
   </energy>
  </scstep>
  <scstep>
   <time name="dav">   32.60   32.68</time>
   <time name="total">   33.14   33.22</time>
   <energy>
    <i name="e_fr_energy">   -186.95523200 </i>
    <i name="e_wo_entrp">   -186.60264239 </i>
    <i name="e_0_energy">   -186.77893720 </i>
   </energy>
  </scstep>
  <scstep>
   <time name="dav">   32.52   32.60</time>
   <time name="total">   33.05   33.14</time>
   <energy>
    <i name="e_fr_energy">   -187.02460143 </i>
    <i name="e_wo_entrp">   -186.68286011 </i>
    <i name="e_0_energy">   -186.85373077 </i>
   </energy>
  </scstep>
  <scstep>
   <time name="dav">   31.48   31.55</time>
   <time name="total">   32.02   32.11</time>
   <energy>
    <i name="e_fr_energy">   -186.94198145 </i>
    <i name="e_wo_entrp">   -186.60523420 </i>
    <i name="e_0_energy">   -186.77360783 </i>
   </energy>
  </scstep>
  <scstep>
   <time name="dav">   31.55   31.63</time>
   <time name="total">   32.08   32.17</time>
   <energy>
    <i name="e_fr_energy">   -186.88490358 </i>
    <i name="e_wo_entrp">   -186.54813970 </i>
    <i name="e_0_energy">   -186.71652164 </i>
   </energy>
  </scstep>
  <scstep>
   <time name="dav">   31.41   31.49</time>
   <time name="total">   31.96   32.04</time>
   <energy>
    <i name="e_fr_energy">   -186.84533691 </i>
    <i name="e_wo_entrp">   -186.50013241 </i>
    <i name="e_0_energy">   -186.67273466 </i>
   </energy>
  </scstep>
  <scstep>
   <time name="dav">   30.58   30.65</time>
   <time name="total">   31.11   31.19</time>
   <energy>
    <i name="e_fr_energy">   -186.84144210 </i>
    <i name="e_wo_entrp">   -186.49633375 </i>
    <i name="e_0_energy">   -186.66888792 </i>
   </energy>
  </scstep>
  <scstep>
   <time name="dav">   32.96   33.04</time>
   <time name="total">   33.51   33.59</time>
   <energy>
    <i name="e_fr_energy">   -186.84044400 </i>
    <i name="e_wo_entrp">   -186.49599325 </i>
    <i name="e_0_energy">   -186.66821862 </i>
   </energy>
  </scstep>
  <scstep>
   <time name="dav">   30.78   30.86</time>
   <time name="total">   31.32   31.40</time>
   <energy>
    <i name="e_fr_energy">   -186.83796215 </i>
    <i name="e_wo_entrp">   -186.49486555 </i>
    <i name="e_0_energy">   -186.66641385 </i>
   </energy>
  </scstep>
  <scstep>
   <time name="dav">   30.12   30.19</time>
   <time name="total">   30.67   30.75</time>
   <energy>
    <i name="e_fr_energy">   -186.83767580 </i>
    <i name="e_wo_entrp">   -186.49399545 </i>
    <i name="e_0_energy">   -186.66583563 </i>
   </energy>
  </scstep>
  <scstep>
   <time name="dav">   25.09   25.15</time>
   <time name="total">   25.13   25.20</time>
   <energy>
    <i name="alphaZ">     81.65567618 </i>
    <i name="ewald">  41891.17178794 </i>
    <i name="hartreedc"> -47818.58768134 </i>
    <i name="XCdc">   -231.69449734 </i>
    <i name="pawpsdc">   4194.33775882 </i>
    <i name="pawaedc">  -3612.35689952 </i>
    <i name="eentropy">     -0.34367884 </i>
    <i name="bandstr">  -1452.46261747 </i>
    <i name="atom">   6761.44252427 </i>
    <i name="e_fr_energy">   -186.83762730 </i>
    <i name="e_wo_entrp">   -186.49394845 </i>
    <i name="e_0_energy">   -186.66578788 </i>
   </energy>
  </scstep>
  <structure>
   <crystal>
    <varray name="basis" >
     <v>       8.66999996       5.03999989       0.00000000 </v>
     <v>      -8.66999982       5.04000013       0.00000000 </v>
     <v>       0.00000000       0.00000000      30.00000000 </v>
    </varray>
    <i name="volume">   2621.80797419 </i>
    <varray name="rec_basis" >
     <v>       0.05767013       0.09920635       0.00000000 </v>
     <v>      -0.05767013       0.09920635       0.00000000 </v>
     <v>       0.00000000       0.00000000       0.03333333 </v>
    </varray>
   </crystal>
   <varray name="positions" >
    <v>       0.66666669       0.66666669       0.00000000 </v>
    <v>       0.66666669       0.33333334       0.00000000 </v>
    <v>       0.33333334       0.33333334       0.00000000 </v>
    <v>       0.00000000       0.66666669       0.00000000 </v>
    <v>       0.66666669       0.00000000       0.00000000 </v>
    <v>       0.33333334       0.00000000       0.00000000 </v>
    <v>       0.00000000       0.00000000       0.00000000 </v>
    <v>       1.00000000       0.33333334       0.00000000 </v>
    <v>       0.33333334       0.66666669       0.00000000 </v>
    <v>       0.11068511       0.22244981       0.95539999 </v>
    <v>       0.22244981       0.11068511       0.04460000 </v>
    <v>       0.11068511       0.55578315       0.95539999 </v>
    <v>       0.22244981       0.44401845       0.04460000 </v>
    <v>       0.11068511       0.88911647       0.95539999 </v>
    <v>       0.22244981       0.77735180       0.04460000 </v>
    <v>       0.44401845       0.22244981       0.95539999 </v>
    <v>       0.55578315       0.11068511       0.04460000 </v>
    <v>       0.44401845       0.55578315       0.95539999 </v>
    <v>       0.55578315       0.44401845       0.04460000 </v>
    <v>       0.44401845       0.88911647       0.95539999 </v>
    <v>       0.55578315       0.77735180       0.04460000 </v>
    <v>       0.77735180       0.22244981       0.95539999 </v>
    <v>       0.88911647       0.11068511       0.04460000 </v>
    <v>       0.77735180       0.55578315       0.95539999 </v>
    <v>       0.88911647       0.44401845       0.04460000 </v>
    <v>       0.77735180       0.88911647       0.95539999 </v>
    <v>       0.88911647       0.77735180       0.04460000 </v>
   </varray>
  </structure>
  <varray name="forces" >
   <v>       0.11085799       0.10974477      -0.01543851 </v>
   <v>       0.02864340      -0.11283261      -0.00026581 </v>
   <v>       0.29871743       0.01189455       0.00992535 </v>
   <v>      -0.01844639       0.22703027       0.03745537 </v>
   <v>      -0.28054370      -0.15139006      -0.05812757 </v>
   <v>       0.24709876      -0.08745765       0.10319536 </v>
   <v>       0.30430553      -0.18630126      -0.10911348 </v>
   <v>      -0.32581559      -0.15958495      -0.09345296 </v>
   <v>      -0.44097142       0.33092815       0.09669499 </v>
   <v>       0.45267028       0.54704998      -2.16692520 </v>
   <v>      -0.59342299       0.55467263       2.14148680 </v>
   <v>       0.30220292      -0.03049463      -2.87266256 </v>
   <v>       0.59635347       0.01777658       2.07997750 </v>
   <v>      -0.07950003       0.00617111      -2.88051419 </v>
   <v>       0.05923254      -0.00367463       2.97242744 </v>
   <v>      -0.32724717       0.68146969      -1.40645151 </v>
   <v>      -0.53866434       0.68462166       2.14816549 </v>
   <v>       0.76151537      -0.00275285      -1.42654759 </v>
   <v>      -0.06628364      -0.00655747       0.77776036 </v>
   <v>       0.23065484      -0.11977174      -2.92367123 </v>
   <v>       0.66433325      -0.17437735       2.09722155 </v>
   <v>      -0.63980223       0.15866866      -2.14926175 </v>
   <v>      -0.05408174       0.13513639       2.83997309 </v>
   <v>      -0.32576952      -0.66935116      -1.38633528 </v>
   <v>      -0.37494939      -0.68272825       2.16269483 </v>
   <v>       0.60653536      -0.52272505      -2.15030135 </v>
   <v>      -0.59762299      -0.55516477       2.17209085 </v>
  </varray>
  <varray name="stress" >
   <v>       7.45149519      -0.08617131      -1.53917155 </v>
   <v>      -0.08617137       4.53958476      -0.06465372 </v>
   <v>      -1.53917174      -0.06465367      31.15586718 </v>
  </varray>
  <energy>
   <i name="e_fr_energy">   -186.83762730 </i>
   <i name="e_wo_entrp">   -186.66578788 </i>
   <i name="e_0_energy">     -0.34367884 </i>
  </energy>
  <time name="totalsc">  618.53  620.16</time>
 </calculation>
 <calculation>
  <scstep>
   <time name="dav">   21.73   21.79</time>
   <time name="total">   22.29   22.35</time>
   <energy>
    <i name="alphaZ">     78.86774453 </i>
    <i name="ewald">  39350.32659795 </i>
    <i name="hartreedc"> -45297.70933967 </i>
    <i name="XCdc">   -239.17967455 </i>
    <i name="pawpsdc">   4193.11966583 </i>
    <i name="pawaedc">  -3611.12144910 </i>
    <i name="eentropy">     -0.28166953 </i>
    <i name="bandstr">  -1422.95644670 </i>
    <i name="atom">   6761.44252427 </i>
    <i name="e_fr_energy">   -187.49204696 </i>
    <i name="e_wo_entrp">   -187.21037743 </i>
    <i name="e_0_energy">   -187.35121219 </i>
   </energy>
  </scstep>
  <scstep>
   <time name="dav">   29.35   29.42</time>
   <time name="total">   29.88   29.97</time>
   <energy>
    <i name="e_fr_energy">   -189.51327452 </i>
    <i name="e_wo_entrp">   -189.17695343 </i>
    <i name="e_0_energy">   -189.34511398 </i>
   </energy>
  </scstep>
  <scstep>
   <time name="dav">   30.03   30.10</time>
   <time name="total">   30.59   30.67</time>
   <energy>
    <i name="e_fr_energy">   -189.32887801 </i>
    <i name="e_wo_entrp">   -189.06738243 </i>
    <i name="e_0_energy">   -189.19813022 </i>
   </energy>
  </scstep>
  <scstep>
   <time name="dav">   29.83   29.91</time>
   <time name="total">   30.38   30.46</time>
   <energy>
    <i name="e_fr_energy">   -188.78456263 </i>
    <i name="e_wo_entrp">   -188.50125569 </i>
    <i name="e_0_energy">   -188.64290916 </i>
   </energy>
  </scstep>
  <scstep>
   <time name="dav">   27.21   27.27</time>
   <time name="total">   27.77   27.86</time>
   <energy>
    <i name="e_fr_energy">   -188.82943295 </i>
    <i name="e_wo_entrp">   -188.54213462 </i>
    <i name="e_0_energy">   -188.68578378 </i>
   </energy>
  </scstep>
  <scstep>
   <time name="dav">   30.11   30.18</time>
   <time name="total">   30.65   30.73</time>
   <energy>
    <i name="e_fr_energy">   -188.71326127 </i>
    <i name="e_wo_entrp">   -188.42965731 </i>
    <i name="e_0_energy">   -188.57145929 </i>
   </energy>
  </scstep>
  <scstep>
   <time name="dav">   29.58   29.65</time>
   <time name="total">   30.14   30.22</time>
   <energy>
    <i name="e_fr_energy">   -188.70199330 </i>
    <i name="e_wo_entrp">   -188.41659369 </i>
    <i name="e_0_energy">   -188.55929350 </i>
   </energy>
  </scstep>
  <scstep>
   <time name="dav">   28.96   29.03</time>
   <time name="total">   29.51   29.59</time>
   <energy>
    <i name="e_fr_energy">   -188.66975565 </i>
    <i name="e_wo_entrp">   -188.38597809 </i>
    <i name="e_0_energy">   -188.52786687 </i>
   </energy>
  </scstep>
  <scstep>
   <time name="dav">   28.82   28.89</time>
   <time name="total">   29.37   29.45</time>
   <energy>
    <i name="e_fr_energy">   -188.64681469 </i>
    <i name="e_wo_entrp">   -188.36459116 </i>
    <i name="e_0_energy">   -188.50570292 </i>
   </energy>
  </scstep>
  <scstep>
   <time name="dav">   26.62   26.68</time>
   <time name="total">   27.16   27.23</time>
   <energy>
    <i name="e_fr_energy">   -188.64389043 </i>
    <i name="e_wo_entrp">   -188.36251822 </i>
    <i name="e_0_energy">   -188.50320432 </i>
   </energy>
  </scstep>
  <scstep>
   <time name="dav">   31.67   31.75</time>
   <time name="total">   32.23   32.32</time>
   <energy>
    <i name="e_fr_energy">   -188.64338924 </i>
    <i name="e_wo_entrp">   -188.36325110 </i>
    <i name="e_0_energy">   -188.50332017 </i>
   </energy>
  </scstep>
  <scstep>
   <time name="dav">   27.48   27.55</time>
   <time name="total">   28.02   28.10</time>
   <energy>
    <i name="e_fr_energy">   -188.64340328 </i>
    <i name="e_wo_entrp">   -188.36330808 </i>
    <i name="e_0_energy">   -188.50335568 </i>
   </energy>
  </scstep>
  <scstep>
   <time name="dav">   19.09   19.14</time>
   <time name="total">   19.65   19.71</time>
   <energy>
    <i name="e_fr_energy">   -188.64353939 </i>
    <i name="e_wo_entrp">   -188.36317277 </i>
    <i name="e_0_energy">   -188.50335608 </i>
   </energy>
  </scstep>
  <scstep>
   <time name="dav">   19.10   19.14</time>
   <time name="total">   19.64   19.70</time>
   <energy>
    <i name="e_fr_energy">   -188.64377491 </i>
    <i name="e_wo_entrp">   -188.36342927 </i>
    <i name="e_0_energy">   -188.50360209 </i>
   </energy>
  </scstep>
  <scstep>
   <time name="dav">   21.84   21.89</time>
   <time name="total">   21.87   21.93</time>
   <energy>
    <i name="alphaZ">     78.86774453 </i>
    <i name="ewald">  39350.32659795 </i>
    <i name="hartreedc"> -45315.66973039 </i>
    <i name="XCdc">   -238.03164123 </i>
    <i name="pawpsdc">   3948.18886231 </i>
    <i name="pawaedc">  -3362.66695455 </i>
    <i name="eentropy">     -0.28038774 </i>
    <i name="bandstr">  -1410.82085390 </i>
    <i name="atom">   6761.44252427 </i>
    <i name="e_fr_energy">   -188.64383875 </i>
    <i name="e_wo_entrp">   -188.36345101 </i>
    <i name="e_0_energy">   -188.50364488 </i>
   </energy>
  </scstep>
  <structure>
   <crystal>
    <varray name="basis" >
     <v>       8.85762502       5.10471211       0.00000000 </v>
     <v>      -8.86016458       5.10908122       0.00000000 </v>
     <v>       0.00000000       0.00000000      30.00000000 </v>
    </varray>
    <i name="volume">   2714.48745239 </i>
    <varray name="rec_basis" >
     <v>       0.05646460       0.09792086       0.00000000 </v>
     <v>      -0.05641631       0.09789279       0.00000000 </v>
     <v>       0.00000000       0.00000000       0.03333333 </v>
    </varray>
   </crystal>
   <varray name="positions" >
    <v>       0.66750035       0.66688350      -0.00002483 </v>
    <v>       0.66620636       0.33271364      -0.00000043 </v>
    <v>       0.33422135       0.33255919       0.00001596 </v>
    <v>       0.00103524       0.66780457       0.00006023 </v>
    <v>       0.66516162       0.00005597      -0.00009347 </v>
    <v>       0.33360224      -0.00110604       0.00016595 </v>
    <v>      -0.00004501      -0.00173826      -0.00017546 </v>
    <v>       0.99832976       0.33347604      -0.00015028 </v>
    <v>       0.33369030       0.66947735       0.00015549 </v>
    <v>       0.11456268       0.22380858       0.95191538 </v>
    <v>       0.22345346       0.11499076       0.04804370 </v>
    <v>       0.11137994       0.55479643       0.95078049 </v>
    <v>       0.22419404       0.44244438       0.04794479 </v>
    <v>       0.11049346       0.88936718       0.95076787 </v>
    <v>       0.22259702       0.77716942       0.04937993 </v>
    <v>       0.44636950       0.22662176       0.95313829 </v>
    <v>       0.55756109       0.11546034       0.04805444 </v>
    <v>       0.44612394       0.55365132       0.95310598 </v>
    <v>       0.55556736       0.44417148       0.04585071 </v>
    <v>       0.44408695       0.88790152       0.95069847 </v>
    <v>       0.55679687       0.77466895       0.04797252 </v>
    <v>       0.77633115       0.22498923       0.95194379 </v>
    <v>       0.88961276       0.11148233       0.04916693 </v>
    <v>       0.77324195       0.55348600       0.95317064 </v>
    <v>       0.88480577       0.44179410       0.04807780 </v>
    <v>       0.77653752       0.88492724       0.95194212 </v>
    <v>       0.88479678       0.77635747       0.04809291 </v>
   </varray>
  </structure>
  <varray name="forces" >
   <v>       0.05908781       0.15215662      -0.09992648 </v>
   <v>       0.12514357      -0.08404865      -0.01154307 </v>
   <v>       0.18386041      -0.06066590      -0.01531671 </v>
   <v>       0.12330390       0.47002265      -0.05195454 </v>
   <v>      -0.24647115      -0.12371367       0.06493200 </v>
   <v>       0.40746476      -0.37331116       0.03945766 </v>
   <v>       0.23430320      -0.13084655      -0.03635508 </v>
   <v>      -0.22282081      -0.18580776       0.06889512 </v>
   <v>      -0.62340462       0.31022724       0.05263389 </v>
   <v>      -0.05695794      -0.07705495       0.13653979 </v>
   <v>      -0.06259284      -0.05645112      -0.04823115 </v>
   <v>       0.12502188       0.00298874       0.00269293 </v>
   <v>      -0.10709206       0.00800116      -0.24011049 </v>
   <v>      -0.13433256       0.01666277      -0.12885715 </v>
   <v>       0.14067772       0.01213844       0.30334310 </v>
   <v>       0.00212848       0.05408506       0.08671701 </v>
   <v>      -0.04377032       0.06971068       0.07379334 </v>
   <v>      -0.09654264       0.00610053       0.27486778 </v>
   <v>      -0.00353419       0.00230800      -0.13735460 </v>
   <v>       0.05122572      -0.09940109      -0.22068307 </v>
   <v>      -0.02309693      -0.11905492      -0.02564298 </v>
   <v>      -0.00065361       0.10078865      -0.10850559 </v>
   <v>       0.07678784       0.10886737      -0.15949654 </v>
   <v>      -0.01416709      -0.05130914       0.15119005 </v>
   <v>       0.09679755      -0.05016876      -0.04018311 </v>
   <v>       0.07982497       0.05404063       0.02169633 </v>
   <v>      -0.07019105       0.04373512       0.04740158 </v>
  </varray>
  <varray name="stress" >
   <v>     -19.98534694       0.00511901       0.04155788 </v>
   <v>       0.00511900     -19.57551153       0.01760924 </v>
   <v>       0.04155789       0.01760909      -1.69392256 </v>
  </varray>
  <energy>
   <i name="e_fr_energy">   -188.64383875 </i>
   <i name="e_wo_entrp">   -188.50364488 </i>
   <i name="e_0_energy">     -0.28038774 </i>
  </energy>
  <time name="totalsc">  451.30  452.51</time>
 </calculation>
 <calculation>
  <scstep>
   <time name="dav">   23.82   23.88</time>
   <time name="total">   24.35   24.41</time>
   <energy>
    <i name="alphaZ">     82.31593360 </i>
    <i name="ewald">  41287.71142237 </i>
    <i name="hartreedc"> -47284.07900318 </i>
    <i name="XCdc">   -233.87273101 </i>
    <i name="pawpsdc">   3948.11365834 </i>
    <i name="pawaedc">  -3362.59188704 </i>
    <i name="eentropy">     -0.23478674 </i>
    <i name="bandstr">  -1389.40044073 </i>
    <i name="atom">   6761.44252427 </i>
    <i name="e_fr_energy">   -190.59531012 </i>
    <i name="e_wo_entrp">   -190.36052338 </i>
    <i name="e_0_energy">   -190.47791675 </i>
   </energy>
  </scstep>
  <scstep>
   <time name="dav">   29.73   29.80</time>
   <time name="total">   30.26   30.34</time>
   <energy>
    <i name="e_fr_energy">   -190.53294012 </i>
    <i name="e_wo_entrp">   -190.30944985 </i>
    <i name="e_0_energy">   -190.42119498 </i>
   </energy>
  </scstep>
  <scstep>
   <time name="dav">   30.20   30.27</time>
   <time name="total">   30.72   30.80</time>
   <energy>
    <i name="e_fr_energy">   -190.07247578 </i>
    <i name="e_wo_entrp">   -189.82095609 </i>
    <i name="e_0_energy">   -189.94671593 </i>
   </energy>
  </scstep>
  <scstep>
   <time name="dav">   31.91   31.99</time>
   <time name="total">   32.47   32.54</time>
   <energy>
    <i name="e_fr_energy">   -189.85667812 </i>
    <i name="e_wo_entrp">   -189.62930582 </i>
    <i name="e_0_energy">   -189.74299197 </i>
   </energy>
  </scstep>
  <scstep>
   <time name="dav">   30.08   30.15</time>
   <time name="total">   30.61   30.69</time>
   <energy>
    <i name="e_fr_energy">   -189.80783738 </i>
    <i name="e_wo_entrp">   -189.56574217 </i>
    <i name="e_0_energy">   -189.68678977 </i>
   </energy>
  </scstep>
  <scstep>
   <time name="dav">   30.52   30.59</time>
   <time name="total">   31.06   31.14</time>
   <energy>
    <i name="e_fr_energy">   -189.75586094 </i>
    <i name="e_wo_entrp">   -189.52185007 </i>
    <i name="e_0_energy">   -189.63885551 </i>
   </energy>
  </scstep>
  <scstep>
   <time name="dav">   29.43   29.50</time>
   <time name="total">   29.96   30.04</time>
   <energy>
    <i name="e_fr_energy">   -189.75031477 </i>
    <i name="e_wo_entrp">   -189.51392216 </i>
    <i name="e_0_energy">   -189.63211847 </i>
   </energy>
  </scstep>
  <scstep>
   <time name="dav">   28.83   28.90</time>
   <time name="total">   29.37   29.44</time>
   <energy>
    <i name="e_fr_energy">   -189.75122611 </i>
    <i name="e_wo_entrp">   -189.51567978 </i>
    <i name="e_0_energy">   -189.63345295 </i>
   </energy>
  </scstep>
  <scstep>
   <time name="dav">   28.84   28.91</time>
   <time name="total">   29.37   29.45</time>
   <energy>
    <i name="e_fr_energy">   -189.74991919 </i>
    <i name="e_wo_entrp">   -189.51396813 </i>
    <i name="e_0_energy">   -189.63194366 </i>
   </energy>
  </scstep>
  <scstep>
   <time name="dav">   26.08   26.14</time>
   <time name="total">   26.62   26.69</time>
   <energy>
    <i name="e_fr_energy">   -189.75030977 </i>
    <i name="e_wo_entrp">   -189.51438918 </i>
    <i name="e_0_energy">   -189.63234947 </i>
   </energy>
  </scstep>
  <scstep>
   <time name="dav">   26.67   26.73</time>
   <time name="total">   27.20   27.27</time>
   <energy>
    <i name="e_fr_energy">   -189.75003448 </i>
    <i name="e_wo_entrp">   -189.51393580 </i>
    <i name="e_0_energy">   -189.63198514 </i>
   </energy>
  </scstep>
  <scstep>
   <time name="dav">   19.16   19.20</time>
   <time name="total">   19.19   19.25</time>
   <energy>
    <i name="alphaZ">     82.31593360 </i>
    <i name="ewald">  41287.71142237 </i>
    <i name="hartreedc"> -47259.00809466 </i>
    <i name="XCdc">   -235.26740498 </i>
    <i name="pawpsdc">   4038.30630505 </i>
    <i name="pawaedc">  -3454.00005261 </i>
    <i name="eentropy">     -0.23609529 </i>
    <i name="bandstr">  -1411.01461939 </i>
    <i name="atom">   6761.44252427 </i>
    <i name="e_fr_energy">   -189.75008164 </i>
    <i name="e_wo_entrp">   -189.51398635 </i>
    <i name="e_0_energy">   -189.63203400 </i>
   </energy>
  </scstep>
  <structure>
   <crystal>
    <varray name="basis" >
     <v>       8.66820447       4.99781906       0.00000000 </v>
     <v>      -8.67063375       5.00199958       0.00000000 </v>
     <v>       0.00000000       0.00000000      30.00000000 </v>
    </varray>
    <i name="volume">   2600.77841025 </i>
    <varray name="rec_basis" >
     <v>       0.05769811       0.10001583       0.00000000 </v>
     <v>      -0.05764988       0.09998781       0.00000000 </v>
     <v>       0.00000000       0.00000000       0.03333333 </v>
    </varray>
   </crystal>
   <varray name="positions" >
    <v>       0.66781135       0.66708068      -0.00008163 </v>
    <v>       0.66618651       0.33245291      -0.00000699 </v>
    <v>       0.33429709       0.33228100       0.00000725 </v>
    <v>       0.00193893       0.66847066       0.00003070 </v>
    <v>       0.66471766       0.00008657      -0.00005656 </v>
    <v>       0.33337119      -0.00212135       0.00018838 </v>
    <v>      -0.00003789      -0.00218216      -0.00019613 </v>
    <v>       0.99780488       0.33338022      -0.00011111 </v>
    <v>       0.33360806       0.67059512       0.00018542 </v>
    <v>       0.11437915       0.22373473       0.95199300 </v>
    <v>       0.22329891       0.11495674       0.04801628 </v>
    <v>       0.11150533       0.55468113       0.95078203 </v>
    <v>       0.22410427       0.44256078       0.04780828 </v>
    <v>       0.11039193       0.88952425       0.95069461 </v>
    <v>       0.22275276       0.77705432       0.04955237 </v>
    <v>       0.44646187       0.22671001       0.95318759 </v>
    <v>       0.55763535       0.11561884       0.04809639 </v>
    <v>       0.44604115       0.55375440       0.95326224 </v>
    <v>       0.55556781       0.44417873       0.04577262 </v>
    <v>       0.44397027       0.88768628       0.95057301 </v>
    <v>       0.55657580       0.77449240       0.04795794 </v>
    <v>       0.77649884       0.22515813       0.95188210 </v>
    <v>       0.88986852       0.11159021       0.04907625 </v>
    <v>       0.77314262       0.55341396       0.95325659 </v>
    <v>       0.88481521       0.44161721       0.04805496 </v>
    <v>       0.77670465       0.88494066       0.95195445 </v>
    <v>       0.88480222       0.77649803       0.04811986 </v>
   </varray>
  </structure>
  <varray name="forces" >
   <v>       0.02767146       0.19871039      -0.09923806 </v>
   <v>       0.19903184      -0.07402183      -0.01678342 </v>
   <v>       0.13410513      -0.11605893      -0.02104745 </v>
   <v>       0.16548220       0.54854879      -0.05185158 </v>
   <v>      -0.23743065      -0.10886762       0.06729319 </v>
   <v>       0.45110946      -0.47084664       0.01396316 </v>
   <v>       0.20407471      -0.11029476      -0.00128882 </v>
   <v>      -0.18641839      -0.19292914       0.08794249 </v>
   <v>      -0.68606006       0.28573151       0.01948985 </v>
   <v>       0.01474694       0.04682762      -0.36858489 </v>
   <v>      -0.04712411       0.06822725       0.44260515 </v>
   <v>       0.06030855       0.01557846      -0.54797250 </v>
   <v>       0.02986904       0.02190988       0.23976118 </v>
   <v>      -0.03972571       0.03228691      -0.69435792 </v>
   <v>       0.04638875       0.01182461       0.90799652 </v>
   <v>      -0.01667338       0.09984775      -0.35101616 </v>
   <v>      -0.09736280       0.13183827       0.56926313 </v>
   <v>       0.03080972       0.00684631      -0.16039759 </v>
   <v>      -0.00032895       0.01108646       0.28140682 </v>
   <v>       0.00657383      -0.02637298      -0.78906045 </v>
   <v>       0.09542362      -0.04994662       0.47479321 </v>
   <v>      -0.12641761       0.01709562      -0.62772184 </v>
   <v>       0.05196451       0.03808511       0.37712478 </v>
   <v>      -0.03832868      -0.10652474      -0.28213434 </v>
   <v>      -0.04798975      -0.10497023       0.45600523 </v>
   <v>       0.06419383      -0.08099040      -0.47583328 </v>
   <v>      -0.05789351      -0.09262107       0.54964359 </v>
  </varray>
  <varray name="stress" >
   <v>     -10.22714089       0.01775681       0.01597542 </v>
   <v>       0.01775687      -9.92472459       0.02971361 </v>
   <v>       0.01597547       0.02971355       6.47663712 </v>
  </varray>
  <energy>
   <i name="e_fr_energy">   -189.75008164 </i>
   <i name="e_wo_entrp">   -189.63203400 </i>
   <i name="e_0_energy">     -0.23609529 </i>
  </energy>
  <time name="totalsc">  383.19  384.19</time>
 </calculation>
 <calculation>
  <scstep>
   <time name="dav">   21.69   21.75</time>
   <time name="total">   22.21   22.26</time>
   <energy>
    <i name="alphaZ">     85.84294923 </i>
    <i name="ewald">  42846.28730074 </i>
    <i name="hartreedc"> -48862.51176151 </i>
    <i name="XCdc">   -232.92652786 </i>
    <i name="pawpsdc">   4038.32028258 </i>
    <i name="pawaedc">  -3454.01131551 </i>
    <i name="eentropy">     -0.19685595 </i>
    <i name="bandstr">  -1373.60469492 </i>
    <i name="atom">   6761.44252427 </i>
    <i name="e_fr_energy">   -191.35809892 </i>
    <i name="e_wo_entrp">   -191.16124298 </i>
    <i name="e_0_energy">   -191.25967095 </i>
   </energy>
  </scstep>
  <scstep>
   <time name="dav">   31.70   31.77</time>
   <time name="total">   32.22   32.31</time>
   <energy>
    <i name="e_fr_energy">   -191.17567529 </i>
    <i name="e_wo_entrp">   -190.98103563 </i>
    <i name="e_0_energy">   -191.07835546 </i>
   </energy>
  </scstep>
  <scstep>
   <time name="dav">   29.92   29.99</time>
   <time name="total">   30.42   30.51</time>
   <energy>
    <i name="e_fr_energy">   -191.32498001 </i>
    <i name="e_wo_entrp">   -191.10747709 </i>
    <i name="e_0_energy">   -191.21622855 </i>
   </energy>
  </scstep>
  <scstep>
   <time name="dav">   29.93   30.00</time>
   <time name="total">   30.46   30.54</time>
   <energy>
    <i name="e_fr_energy">   -190.95273243 </i>
    <i name="e_wo_entrp">   -190.74202621 </i>
    <i name="e_0_energy">   -190.84737932 </i>
   </energy>
  </scstep>
  <scstep>
   <time name="dav">   27.91   27.98</time>
   <time name="total">   28.42   28.50</time>
   <energy>
    <i name="e_fr_energy">   -190.93260858 </i>
    <i name="e_wo_entrp">   -190.74469700 </i>
    <i name="e_0_energy">   -190.83865279 </i>
   </energy>
  </scstep>
  <scstep>
   <time name="dav">   28.26   28.33</time>
   <time name="total">   28.78   28.86</time>
   <energy>
    <i name="e_fr_energy">   -190.75750940 </i>
    <i name="e_wo_entrp">   -190.55584318 </i>
    <i name="e_0_energy">   -190.65667629 </i>
   </energy>
  </scstep>
  <scstep>
   <time name="dav">   30.82   30.89</time>
   <time name="total">   31.33   31.41</time>
   <energy>
    <i name="e_fr_energy">   -190.75567427 </i>
    <i name="e_wo_entrp">   -190.55338650 </i>
    <i name="e_0_energy">   -190.65453038 </i>
   </energy>
  </scstep>
  <scstep>
   <time name="dav">   29.66   29.74</time>
   <time name="total">   30.19   30.27</time>
   <energy>
    <i name="e_fr_energy">   -190.75414763 </i>
    <i name="e_wo_entrp">   -190.55193700 </i>
    <i name="e_0_energy">   -190.65304232 </i>
   </energy>
  </scstep>
  <scstep>
   <time name="dav">   27.56   27.63</time>
   <time name="total">   28.08   28.15</time>
   <energy>
    <i name="e_fr_energy">   -190.74914936 </i>
    <i name="e_wo_entrp">   -190.54714982 </i>
    <i name="e_0_energy">   -190.64814959 </i>
   </energy>
  </scstep>
  <scstep>
   <time name="dav">   26.70   26.76</time>
   <time name="total">   27.23   27.30</time>
   <energy>
    <i name="e_fr_energy">   -190.74950997 </i>
    <i name="e_wo_entrp">   -190.54750397 </i>
    <i name="e_0_energy">   -190.64850697 </i>
   </energy>
  </scstep>
  <scstep>
   <time name="dav">   27.07   27.13</time>
   <time name="total">   27.58   27.65</time>
   <energy>
    <i name="e_fr_energy">   -190.74929811 </i>
    <i name="e_wo_entrp">   -190.54719207 </i>
    <i name="e_0_energy">   -190.64824509 </i>
   </energy>
  </scstep>
  <scstep>
   <time name="dav">   18.53   18.57</time>
   <time name="total">   18.56   18.61</time>
   <energy>
    <i name="alphaZ">     85.84294923 </i>
    <i name="ewald">  42846.28730074 </i>
    <i name="hartreedc"> -48834.03261096 </i>
    <i name="XCdc">   -234.27512948 </i>
    <i name="pawpsdc">   4064.41443692 </i>
    <i name="pawaedc">  -3480.30402068 </i>
    <i name="eentropy">     -0.20222607 </i>
    <i name="bandstr">  -1399.92254543 </i>
    <i name="atom">   6761.44252427 </i>
    <i name="e_fr_energy">   -190.74932145 </i>
    <i name="e_wo_entrp">   -190.54709538 </i>
    <i name="e_0_energy">   -190.64820842 </i>
   </energy>
  </scstep>
  <structure>
   <crystal>
    <varray name="basis" >
     <v>       8.48474500       4.89708248       0.00000000 </v>
     <v>      -8.48627115       4.89970155       0.00000000 </v>
     <v>       0.00000000       0.00000000      30.00000000 </v>
    </varray>
    <i name="volume">   2493.92064052 </i>
    <varray name="rec_basis" >
     <v>       0.05893974       0.10208349       0.00000000 </v>
     <v>      -0.05890824       0.10206514       0.00000000 </v>
     <v>       0.00000000       0.00000000       0.03333333 </v>
    </varray>
   </crystal>
   <varray name="positions" >
    <v>       0.66923017       0.66838944      -0.00028689 </v>
    <v>       0.66657455       0.33118658      -0.00004627 </v>
    <v>       0.33384371       0.33100045      -0.00004129 </v>
    <v>       0.00623929       0.67144999      -0.00007677 </v>
    <v>       0.66322453       0.00028674       0.00008504 </v>
    <v>       0.33186820      -0.00701590       0.00019561 </v>
    <v>       0.00001672      -0.00351780      -0.00016891 </v>
    <v>       0.99595333       0.33277377       0.00008754 </v>
    <v>       0.33276498       0.67490016       0.00019759 </v>
    <v>       0.11514029       0.22418192       0.95079786 </v>
    <v>       0.22389108       0.11584526       0.04935278 </v>
    <v>       0.11175963       0.55468552       0.94917596 </v>
    <v>       0.22458260       0.44242740       0.04871469 </v>
    <v>       0.11062646       0.88977326       0.94877226 </v>
    <v>       0.22285806       0.77709591       0.05195125 </v>
    <v>       0.44711571       0.22753865       0.95208634 </v>
    <v>       0.55818850       0.11703142       0.04969956 </v>
    <v>       0.44638149       0.55350398       0.95255848 </v>
    <v>       0.55566282       0.44426685       0.04671331 </v>
    <v>       0.44394693       0.88774423       0.94845177 </v>
    <v>       0.55695210       0.77383564       0.04936939 </v>
    <v>       0.77575708       0.22569484       0.95013743 </v>
    <v>       0.89008270       0.11149977       0.05031596 </v>
    <v>       0.77216194       0.55278079       0.95230197 </v>
    <v>       0.88363614       0.44120383       0.04942382 </v>
    <v>       0.77606803       0.88388457       0.95054332 </v>
    <v>       0.88368741       0.77576717       0.04968811 </v>
   </varray>
  </structure>
  <varray name="forces" >
   <v>       0.01977901       0.18666545      -0.06502938 </v>
   <v>       0.23097386      -0.07524740      -0.02268081 </v>
   <v>       0.11492803      -0.13958314      -0.03122075 </v>
   <v>       0.17304739       0.62377457      -0.01468587 </v>
   <v>      -0.22636697      -0.06538941       0.04369818 </v>
   <v>       0.42610206      -0.53230747      -0.02382082 </v>
   <v>       0.19357927      -0.07129733       0.04479814 </v>
   <v>      -0.13144208      -0.23443595       0.06769405 </v>
   <v>      -0.67918599       0.25452113      -0.02854682 </v>
   <v>       0.00645587      -0.00611936      -0.26009199 </v>
   <v>       0.06411666       0.00575776       0.28994245 </v>
   <v>       0.01924739       0.03403622      -0.34283136 </v>
   <v>      -0.04405406       0.06230923       0.09814408 </v>
   <v>       0.02948253       0.05006356      -0.52034978 </v>
   <v>      -0.02889632       0.01106791       0.79999353 </v>
   <v>       0.06941813      -0.03104903      -0.24401570 </v>
   <v>      -0.08329706      -0.00249491       0.40597673 </v>
   <v>      -0.07209504       0.01985711      -0.07567551 </v>
   <v>       0.01596229       0.01647291       0.26277494 </v>
   <v>      -0.01391509       0.02878321      -0.58469852 </v>
   <v>      -0.00649705      -0.03140472       0.30436496 </v>
   <v>      -0.07250718      -0.02942412      -0.45502759 </v>
   <v>       0.02421603      -0.04388255       0.23354044 </v>
   <v>       0.04901591       0.03363179      -0.18532796 </v>
   <v>      -0.10495688      -0.00070132       0.27936047 </v>
   <v>      -0.00568036      -0.02232867      -0.32921936 </v>
   <v>       0.03256966      -0.04127549       0.35293426 </v>
  </varray>
  <varray name="stress" >
   <v>      -5.66982143      -0.09644722      -0.13902104 </v>
   <v>      -0.09644738      -5.73263647      -0.10327615 </v>
   <v>      -0.13902129      -0.10327617       4.62597088 </v>
  </varray>
  <energy>
   <i name="e_fr_energy">   -190.74932145 </i>
   <i name="e_wo_entrp">   -190.64820842 </i>
   <i name="e_0_energy">     -0.20222607 </i>
  </energy>
  <time name="totalsc">  377.45  378.45</time>
 </calculation>
 <calculation>
  <scstep>
   <time name="dav">   21.68   21.73</time>
   <time name="total">   22.19   22.24</time>
   <energy>
    <i name="alphaZ">     90.09099481 </i>
    <i name="ewald">  44630.73711693 </i>
    <i name="hartreedc"> -50672.54339122 </i>
    <i name="XCdc">   -231.89403855 </i>
    <i name="pawpsdc">   4064.41098258 </i>
    <i name="pawaedc">  -3480.29662829 </i>
    <i name="eentropy">     -0.18676643 </i>
    <i name="bandstr">  -1353.83530026 </i>
    <i name="atom">   6761.44252427 </i>
    <i name="e_fr_energy">   -192.07450615 </i>
    <i name="e_wo_entrp">   -191.88773972 </i>
    <i name="e_0_energy">   -191.98112294 </i>
   </energy>
  </scstep>
  <scstep>
   <time name="dav">   28.54   28.61</time>
   <time name="total">   29.06   29.14</time>
   <energy>
    <i name="e_fr_energy">   -191.85844419 </i>
    <i name="e_wo_entrp">   -191.65819294 </i>
    <i name="e_0_energy">   -191.75831857 </i>
   </energy>
  </scstep>
  <scstep>
   <time name="dav">   29.45   29.52</time>
   <time name="total">   29.95   30.03</time>
   <energy>
    <i name="e_fr_energy">   -192.34497086 </i>
    <i name="e_wo_entrp">   -192.15958617 </i>
    <i name="e_0_energy">   -192.25227852 </i>
   </energy>
  </scstep>
  <scstep>
   <time name="dav">   29.13   29.20</time>
   <time name="total">   29.65   29.73</time>
   <energy>
    <i name="e_fr_energy">   -191.63882477 </i>
    <i name="e_wo_entrp">   -191.44489827 </i>
    <i name="e_0_energy">   -191.54186152 </i>
   </energy>
  </scstep>
  <scstep>
   <time name="dav">   29.72   29.79</time>
   <time name="total">   30.23   30.32</time>
   <energy>
    <i name="e_fr_energy">   -191.59117094 </i>
    <i name="e_wo_entrp">   -191.38872956 </i>
    <i name="e_0_energy">   -191.48995025 </i>
   </energy>
  </scstep>
  <scstep>
   <time name="dav">   30.60   30.67</time>
   <time name="total">   31.12   31.20</time>
   <energy>
    <i name="e_fr_energy">   -191.42375399 </i>
    <i name="e_wo_entrp">   -191.23390656 </i>
    <i name="e_0_energy">   -191.32883028 </i>
   </energy>
  </scstep>
  <scstep>
   <time name="dav">   30.48   30.56</time>
   <time name="total">   30.99   31.07</time>
   <energy>
    <i name="e_fr_energy">   -191.40995005 </i>
    <i name="e_wo_entrp">   -191.20708391 </i>
    <i name="e_0_energy">   -191.30851698 </i>
   </energy>
  </scstep>
  <scstep>
   <time name="dav">   28.48   28.55</time>
   <time name="total">   29.00   29.08</time>
   <energy>
    <i name="e_fr_energy">   -191.39779480 </i>
    <i name="e_wo_entrp">   -191.20369489 </i>
    <i name="e_0_energy">   -191.30074485 </i>
   </energy>
  </scstep>
  <scstep>
   <time name="dav">   29.01   29.08</time>
   <time name="total">   29.51   29.59</time>
   <energy>
    <i name="e_fr_energy">   -191.39210817 </i>
    <i name="e_wo_entrp">   -191.19663962 </i>
    <i name="e_0_energy">   -191.29437390 </i>
   </energy>
  </scstep>
  <scstep>
   <time name="dav">   29.67   29.74</time>
   <time name="total">   30.19   30.27</time>
   <energy>
    <i name="e_fr_energy">   -191.39209794 </i>
    <i name="e_wo_entrp">   -191.19587534 </i>
    <i name="e_0_energy">   -191.29398664 </i>
   </energy>
  </scstep>
  <scstep>
   <time name="dav">   27.43   27.50</time>
   <time name="total">   27.47   27.54</time>
   <energy>
    <i name="alphaZ">     90.09099481 </i>
    <i name="ewald">  44630.73711693 </i>
    <i name="hartreedc"> -50639.44642346 </i>
    <i name="XCdc">   -233.38344349 </i>
    <i name="pawpsdc">   4085.27684924 </i>
    <i name="pawaedc">  -3501.25843811 </i>
    <i name="eentropy">     -0.19630895 </i>
    <i name="bandstr">  -1384.65503228 </i>
    <i name="atom">   6761.44252427 </i>
    <i name="e_fr_energy">   -191.39216105 </i>
    <i name="e_wo_entrp">   -191.19585210 </i>
    <i name="e_0_energy">   -191.29400657 </i>
   </energy>
  </scstep>
  <structure>
   <crystal>
    <varray name="basis" >
     <v>       8.28114596       4.77491470       0.00000000 </v>
     <v>      -8.28781535       4.78644254       0.00000000 </v>
     <v>       0.00000000       0.00000000      30.00000000 </v>
    </varray>
    <i name="volume">   2376.32521867 </i>
    <varray name="rec_basis" >
     <v>       0.06042661       0.10462981       0.00000000 </v>
     <v>      -0.06028108       0.10454561       0.00000000 </v>
     <v>       0.00000000       0.00000000       0.03333333 </v>
    </varray>
   </crystal>
   <varray name="positions" >
    <v>       0.67171361       0.67068432      -0.00055823 </v>
    <v>       0.66739057       0.32862500      -0.00013687 </v>
    <v>       0.33278680       0.32847516      -0.00016353 </v>
    <v>       0.01508332       0.67777368      -0.00015333 </v>
    <v>       0.66084628       0.00103687       0.00027036 </v>
    <v>       0.32835301      -0.01662040       0.00009789 </v>
    <v>       0.00045804      -0.00568127       0.00001560 </v>
    <v>       0.99228276       0.33091067       0.00038075 </v>
    <v>       0.33098857       0.68274773       0.00007945 </v>
    <v>       0.11566392       0.22437081       0.94924670 </v>
    <v>       0.22477305       0.11599608       0.05103001 </v>
    <v>       0.11224129       0.55503136       0.94720815 </v>
    <v>       0.22528706       0.44316575       0.04962581 </v>
    <v>       0.11153370       0.89009747       0.94611235 </v>
    <v>       0.22270994       0.77751021       0.05570758 </v>
    <v>       0.44745205       0.22713352       0.95066258 </v>
    <v>       0.55787154       0.11806645       0.05184042 </v>
    <v>       0.44640120       0.55392309       0.95180686 </v>
    <v>       0.55597686       0.44437971       0.04814675 </v>
    <v>       0.44425756       0.88835253       0.94552180 </v>
    <v>       0.55697715       0.77338133       0.05112129 </v>
    <v>       0.77449202       0.22593786       0.94777743 </v>
    <v>       0.88964522       0.11075477       0.05181126 </v>
    <v>       0.77240589       0.55258552       0.95111716 </v>
    <v>       0.88240090       0.44178094       0.05107714 </v>
    <v>       0.77533073       0.88314625       0.94870930 </v>
    <v>       0.88289142       0.77464903       0.05164525 </v>
   </varray>
  </structure>
  <varray name="forces" >
   <v>       0.03059707       0.07716741      -0.01858973 </v>
   <v>       0.15212984      -0.11199133       0.02375303 </v>
   <v>       0.15092886      -0.07761400      -0.00840076 </v>
   <v>      -0.00473345       0.27083445       0.07123649 </v>
   <v>      -0.13556579       0.08020526      -0.01281063 </v>
   <v>       0.01404414      -0.12506336      -0.01654933 </v>
   <v>       0.14754379       0.01797844      -0.02336033 </v>
   <v>      -0.01774255      -0.28406881       0.02148641 </v>
   <v>      -0.20724160       0.09897016       0.04464049 </v>
   <v>      -0.03766195      -0.09608632      -0.00112722 </v>
   <v>       0.17611640      -0.07308406       0.02117364 </v>
   <v>      -0.00912992       0.04335453      -0.01505606 </v>
   <v>      -0.15689949       0.10010860      -0.18831190 </v>
   <v>       0.05007772       0.07138681      -0.17042481 </v>
   <v>      -0.02511160       0.00026331       0.35978942 </v>
   <v>       0.14934336      -0.18128116      -0.00675218 </v>
   <v>      -0.06165673      -0.17314031       0.05927681 </v>
   <v>      -0.24803782       0.02188438       0.14180145 </v>
   <v>       0.03444409       0.01214978       0.01211985 </v>
   <v>      -0.02179515       0.07194413      -0.23905045 </v>
   <v>      -0.13219238      -0.04242703      -0.01286784 </v>
   <v>       0.01164668      -0.04035418      -0.14680542 </v>
   <v>       0.01842994      -0.11349160       0.03378133 </v>
   <v>       0.15585370       0.21440785       0.07517311 </v>
   <v>      -0.08804801       0.12036127      -0.05361173 </v>
   <v>      -0.05567765       0.08016294      -0.00801855 </v>
   <v>       0.11033851       0.03742284       0.05750491 </v>
  </varray>
  <varray name="stress" >
   <v>      -0.11262198      -0.19290456      -0.13150998 </v>
   <v>      -0.19290444       0.02611286      -0.34650790 </v>
   <v>      -0.13150997      -0.34650800      -0.36786570 </v>
  </varray>
  <energy>
   <i name="e_fr_energy">   -191.39216105 </i>
   <i name="e_wo_entrp">   -191.29400657 </i>
   <i name="e_0_energy">     -0.19630895 </i>
  </energy>
  <time name="totalsc">  361.38  362.34</time>
 </calculation>
 <calculation>
  <scstep>
   <time name="dav">   21.71   21.77</time>
   <time name="total">   22.24   22.29</time>
   <energy>
    <i name="alphaZ">     90.14296249 </i>
    <i name="ewald">  44630.95397736 </i>
    <i name="hartreedc"> -50641.26979420 </i>
    <i name="XCdc">   -233.44219699 </i>
    <i name="pawpsdc">   4085.62545037 </i>
    <i name="pawaedc">  -3501.60435639 </i>
    <i name="eentropy">     -0.19928221 </i>
    <i name="bandstr">  -1383.08070810 </i>
    <i name="atom">   6761.44252427 </i>
    <i name="e_fr_energy">   -191.43142339 </i>
    <i name="e_wo_entrp">   -191.23214119 </i>
    <i name="e_0_energy">   -191.33178229 </i>
   </energy>
  </scstep>
  <scstep>
   <time name="dav">   31.44   31.51</time>
   <time name="total">   31.94   32.02</time>
   <energy>
    <i name="e_fr_energy">   -191.47186275 </i>
    <i name="e_wo_entrp">   -191.26326495 </i>
    <i name="e_0_energy">   -191.36756385 </i>
   </energy>
  </scstep>
  <scstep>
   <time name="dav">   30.47   30.55</time>
   <time name="total">   30.99   31.08</time>
   <energy>
    <i name="e_fr_energy">   -191.44313468 </i>
    <i name="e_wo_entrp">   -191.24397707 </i>
    <i name="e_0_energy">   -191.34355588 </i>
   </energy>
  </scstep>
  <scstep>
   <time name="dav">   27.50   27.57</time>
   <time name="total">   28.01   28.09</time>
   <energy>
    <i name="e_fr_energy">   -191.44305696 </i>
    <i name="e_wo_entrp">   -191.24271887 </i>
    <i name="e_0_energy">   -191.34288791 </i>
   </energy>
  </scstep>
  <scstep>
   <time name="dav">   27.57   27.64</time>
   <time name="total">   28.09   28.17</time>
   <energy>
    <i name="e_fr_energy">   -191.44111777 </i>
    <i name="e_wo_entrp">   -191.24018426 </i>
    <i name="e_0_energy">   -191.34065101 </i>
   </energy>
  </scstep>
  <scstep>
   <time name="dav">   28.40   28.47</time>
   <time name="total">   28.91   28.98</time>
   <energy>
    <i name="e_fr_energy">   -191.44106774 </i>
    <i name="e_wo_entrp">   -191.24000389 </i>
    <i name="e_0_energy">   -191.34053581 </i>
   </energy>
  </scstep>
  <scstep>
   <time name="dav">   26.42   26.48</time>
   <time name="total">   26.94   27.01</time>
   <energy>
    <i name="e_fr_energy">   -191.44145261 </i>
    <i name="e_wo_entrp">   -191.24164237 </i>
    <i name="e_0_energy">   -191.34154749 </i>
   </energy>
  </scstep>
  <scstep>
   <time name="dav">   23.32   23.38</time>
   <time name="total">   23.83   23.89</time>
   <energy>
    <i name="e_fr_energy">   -191.44074392 </i>
    <i name="e_wo_entrp">   -191.23997854 </i>
    <i name="e_0_energy">   -191.34036123 </i>
   </energy>
  </scstep>
  <scstep>
   <time name="dav">   16.68   16.72</time>
   <time name="total">   16.72   16.76</time>
   <energy>
    <i name="alphaZ">     90.14296249 </i>
    <i name="ewald">  44630.95397736 </i>
    <i name="hartreedc"> -50641.92719112 </i>
    <i name="XCdc">   -233.44269829 </i>
    <i name="pawpsdc">   4082.40174355 </i>
    <i name="pawaedc">  -3498.33122568 </i>
    <i name="eentropy">     -0.20071850 </i>
    <i name="bandstr">  -1382.48015998 </i>
    <i name="atom">   6761.44252427 </i>
    <i name="e_fr_energy">   -191.44078590 </i>
    <i name="e_wo_entrp">   -191.24006740 </i>
    <i name="e_0_energy">   -191.34042665 </i>
   </energy>
  </scstep>
  <structure>
   <crystal>
    <varray name="basis" >
     <v>       8.27470169       4.77005770       0.00000000 </v>
     <v>      -8.28641196       4.79032522       0.00000000 </v>
     <v>       0.00000000       0.00000000      30.00000000 </v>
    </varray>
    <i name="volume">   2374.95526014 </i>
    <varray name="rec_basis" >
     <v>       0.06051051       0.10467244       0.00000000 </v>
     <v>      -0.06025450       0.10452452       0.00000000 </v>
     <v>       0.00000000       0.00000000       0.03333333 </v>
    </varray>
   </crystal>
   <varray name="positions" >
    <v>       0.67223377       0.67102069      -0.00059223 </v>
    <v>       0.66727728       0.32756471      -0.00009900 </v>
    <v>       0.33282149       0.32759593      -0.00017883 </v>
    <v>       0.01657501       0.67926033      -0.00003749 </v>
    <v>       0.66082665       0.00186125       0.00025173 </v>
    <v>       0.32770643      -0.01742648       0.00006948 </v>
    <v>       0.00099482      -0.00605307      -0.00002040 </v>
    <v>       0.99072146       0.32947815       0.00041987 </v>
    <v>       0.33085889       0.68396990       0.00015123 </v>
    <v>       0.11506788       0.22399284       0.94922120 </v>
    <v>       0.22493458       0.11510329       0.05109004 </v>
    <v>       0.11244294       0.55528655       0.94715388 </v>
    <v>       0.22534690       0.44415338       0.04933239 </v>
    <v>       0.11206262       0.89031973       0.94579453 </v>
    <v>       0.22263405       0.77759191       0.05634976 </v>
    <v>       0.44696845       0.22575562       0.95062997 </v>
    <v>       0.55679445       0.11737494       0.05196878 </v>
    <v>       0.44577847       0.55477458       0.95202651 </v>
    <v>       0.55614589       0.44434162       0.04818774 </v>
    <v>       0.44456778       0.88879657       0.94508784 </v>
    <v>       0.55636926       0.77354870       0.05112651 </v>
    <v>       0.77429966       0.22569931       0.94750245 </v>
    <v>       0.88910920       0.11010611       0.05189008 </v>
    <v>       0.77397326       0.55322214       0.95122206 </v>
    <v>       0.88273961       0.44266794       0.05101425 </v>
    <v>       0.77556535       0.88371084       0.94866891 </v>
    <v>       0.88339832       0.77449698       0.05176865 </v>
   </varray>
  </structure>
  <varray name="forces" >
   <v>       0.04190956       0.06479020      -0.04107432 </v>
   <v>       0.13947450      -0.13194832       0.02534986 </v>
   <v>       0.18590456      -0.04889031      -0.00334950 </v>
   <v>      -0.04472974       0.27797117       0.01876357 </v>
   <v>      -0.15523670       0.08254794      -0.03577635 </v>
   <v>       0.05092459      -0.14679704      -0.00876512 </v>
   <v>       0.17495515       0.00916960      -0.03241519 </v>
   <v>      -0.01836521      -0.31974023       0.01825509 </v>
   <v>      -0.25014296       0.17197335      -0.00668165 </v>
   <v>      -0.02518900      -0.06887457       0.02045877 </v>
   <v>       0.08936170      -0.04519657       0.02770535 </v>
   <v>      -0.00819039       0.00875409       0.08150305 </v>
   <v>      -0.10443749       0.03985647      -0.19615007 </v>
   <v>       0.02312409       0.03572263      -0.10703998 </v>
   <v>      -0.02080705       0.02742713       0.20278470 </v>
   <v>       0.08792579      -0.09988170      -0.01825944 </v>
   <v>      -0.04289318      -0.09598476       0.04061968 </v>
   <v>      -0.14873611       0.00712834       0.15292833 </v>
   <v>       0.02376836       0.00407810      -0.03304603 </v>
   <v>      -0.01188380       0.03732114      -0.09082287 </v>
   <v>      -0.08383148       0.00431384      -0.02275742 </v>
   <v>      -0.00356416      -0.03190328      -0.12461513 </v>
   <v>       0.02918775      -0.07921972       0.01589651 </v>
   <v>       0.10811300       0.13503418       0.11460416 </v>
   <v>      -0.05469441       0.06733385      -0.07596422 </v>
   <v>      -0.03316412       0.05871394       0.03704700 </v>
   <v>       0.05121675       0.03630052       0.04080121 </v>
  </varray>
  <varray name="stress" >
   <v>      -0.11129478       0.02345273      -0.10792635 </v>
   <v>       0.02345272      -0.05600236      -0.12845496 </v>
   <v>      -0.10792656      -0.12845480      -1.24254489 </v>
  </varray>
  <energy>
   <i name="e_fr_energy">   -191.44078590 </i>
   <i name="e_wo_entrp">   -191.34042665 </i>
   <i name="e_0_energy">     -0.20071850 </i>
  </energy>
  <time name="totalsc">  279.99  280.73</time>
 </calculation>
 <calculation>
  <scstep>
   <time name="dav">   21.69   21.75</time>
   <time name="total">   22.19   22.25</time>
   <energy>
    <i name="alphaZ">     90.24055763 </i>
    <i name="ewald">  44674.27728377 </i>
    <i name="hartreedc"> -50686.33536862 </i>
    <i name="XCdc">   -233.38169852 </i>
    <i name="pawpsdc">   4082.38692640 </i>
    <i name="pawaedc">  -3498.31614161 </i>
    <i name="eentropy">     -0.20346798 </i>
    <i name="bandstr">  -1381.59476575 </i>
    <i name="atom">   6761.44252427 </i>
    <i name="e_fr_energy">   -191.48415041 </i>
    <i name="e_wo_entrp">   -191.28068243 </i>
    <i name="e_0_energy">   -191.38241642 </i>
   </energy>
  </scstep>
  <scstep>
   <time name="dav">   32.54   32.62</time>
   <time name="total">   33.08   33.16</time>
   <energy>
    <i name="e_fr_energy">   -191.53635448 </i>
    <i name="e_wo_entrp">   -191.31900433 </i>
    <i name="e_0_energy">   -191.42767941 </i>
   </energy>
  </scstep>
  <scstep>
   <time name="dav">   30.55   30.62</time>
   <time name="total">   31.05   31.13</time>
   <energy>
    <i name="e_fr_energy">   -191.49423214 </i>
    <i name="e_wo_entrp">   -191.29071722 </i>
    <i name="e_0_energy">   -191.39247468 </i>
   </energy>
  </scstep>
  <scstep>
   <time name="dav">   27.43   27.50</time>
   <time name="total">   27.95   28.03</time>
   <energy>
    <i name="e_fr_energy">   -191.49339589 </i>
    <i name="e_wo_entrp">   -191.28852072 </i>
    <i name="e_0_energy">   -191.39095830 </i>
   </energy>
  </scstep>
  <scstep>
   <time name="dav">   28.02   28.09</time>
   <time name="total">   28.52   28.60</time>
   <energy>
    <i name="e_fr_energy">   -191.49138043 </i>
    <i name="e_wo_entrp">   -191.28559908 </i>
    <i name="e_0_energy">   -191.38848976 </i>
   </energy>
  </scstep>
  <scstep>
   <time name="dav">   28.20   28.27</time>
   <time name="total">   28.72   28.79</time>
   <energy>
    <i name="e_fr_energy">   -191.49096958 </i>
    <i name="e_wo_entrp">   -191.28480053 </i>
    <i name="e_0_energy">   -191.38788506 </i>
   </energy>
  </scstep>
  <scstep>
   <time name="dav">   27.97   28.04</time>
   <time name="total">   28.47   28.55</time>
   <energy>
    <i name="e_fr_energy">   -191.49147435 </i>
    <i name="e_wo_entrp">   -191.28714625 </i>
    <i name="e_0_energy">   -191.38931030 </i>
   </energy>
  </scstep>
  <scstep>
   <time name="dav">   24.61   24.66</time>
   <time name="total">   25.12   25.19</time>
   <energy>
    <i name="e_fr_energy">   -191.49045788 </i>
    <i name="e_wo_entrp">   -191.28471002 </i>
    <i name="e_0_energy">   -191.38758395 </i>
   </energy>
  </scstep>
  <scstep>
   <time name="dav">   16.50   16.54</time>
   <time name="total">   16.54   16.58</time>
   <energy>
    <i name="alphaZ">     90.24055763 </i>
    <i name="ewald">  44674.27728377 </i>
    <i name="hartreedc"> -50686.30151891 </i>
    <i name="XCdc">   -233.38970051 </i>
    <i name="pawpsdc">   4084.79214092 </i>
    <i name="pawaedc">  -3500.75545518 </i>
    <i name="eentropy">     -0.20563208 </i>
    <i name="bandstr">  -1381.59068954 </i>
    <i name="atom">   6761.44252427 </i>
    <i name="e_fr_energy">   -191.49048964 </i>
    <i name="e_wo_entrp">   -191.28485756 </i>
    <i name="e_0_energy">   -191.38767360 </i>
   </energy>
  </scstep>
  <structure>
   <crystal>
    <varray name="basis" >
     <v>       8.26967538       4.76846573       0.00000000 </v>
     <v>      -8.28079646       4.78771684       0.00000000 </v>
     <v>       0.00000000       0.00000000      30.00000000 </v>
    </varray>
    <i name="volume">   2372.38674683 </i>
    <varray name="rec_basis" >
     <v>       0.06054304       0.10471475       0.00000000 </v>
     <v>      -0.06029960       0.10457412       0.00000000 </v>
     <v>       0.00000000       0.00000000       0.03333333 </v>
    </varray>
   </crystal>
   <varray name="positions" >
    <v>       0.67289770       0.67134737      -0.00068702 </v>
    <v>       0.66693975       0.32604693      -0.00004450 </v>
    <v>       0.33320147       0.32646671      -0.00018858 </v>
    <v>       0.01848468       0.68147475       0.00000499 </v>
    <v>       0.66073683       0.00306666       0.00017691 </v>
    <v>       0.32682890      -0.01881176       0.00004797 </v>
    <v>       0.00176809      -0.00672305      -0.00008850 </v>
[...]
      <set comment="kpoint 31">
       <r>  -17.5084    1.0000 </r>
       <r>  -17.2467    1.0000 </r>
       <r>  -16.9364    1.0000 </r>
       <r>  -16.6204    1.0000 </r>
       <r>  -16.5351    1.0000 </r>
       <r>  -16.4034    1.0000 </r>
       <r>  -16.2849    1.0000 </r>
       <r>  -16.1613    1.0000 </r>
       <r>  -16.1146    1.0000 </r>
       <r>  -16.0380    1.0000 </r>
       <r>  -15.9062    1.0000 </r>
       <r>  -15.8379    1.0000 </r>
       <r>  -15.7896    1.0000 </r>
       <r>  -15.7567    1.0000 </r>
       <r>  -15.6455    1.0000 </r>
       <r>  -15.5214    1.0000 </r>
       <r>  -15.4363    1.0000 </r>
       <r>  -15.3109    1.0000 </r>
       <r>   -9.7104    1.0000 </r>
       <r>   -9.3953    1.0000 </r>
       <r>   -9.3521    1.0000 </r>
       <r>   -9.0119    1.0000 </r>
       <r>   -8.8493    1.0000 </r>
       <r>   -8.7445    1.0000 </r>
       <r>   -8.5307    1.0000 </r>
       <r>   -8.4786    1.0000 </r>
       <r>   -8.3844    1.0000 </r>
       <r>   -8.3561    1.0000 </r>
       <r>   -8.2371    1.0000 </r>
       <r>   -8.1909    1.0000 </r>
       <r>   -8.1393    1.0000 </r>
       <r>   -8.0732    1.0000 </r>
       <r>   -8.0029    1.0000 </r>
       <r>   -7.9029    1.0000 </r>
       <r>   -7.7627    1.0000 </r>
       <r>   -7.7354    1.0000 </r>
       <r>   -7.6400    1.0000 </r>
       <r>   -7.4669    1.0000 </r>
       <r>   -7.2855    1.0000 </r>
       <r>   -7.2492    1.0000 </r>
       <r>   -7.1199    1.0000 </r>
       <r>   -7.1088    1.0000 </r>
       <r>   -7.0481    1.0000 </r>
       <r>   -6.9803    1.0000 </r>
       <r>   -6.8305    1.0000 </r>
       <r>   -6.7734    1.0000 </r>
       <r>   -6.6731    1.0000 </r>
       <r>   -6.6010    1.0000 </r>
       <r>   -6.5550    1.0000 </r>
       <r>   -6.4723    1.0000 </r>
       <r>   -6.4268    1.0000 </r>
       <r>   -6.3422    1.0000 </r>
       <r>   -6.2532    1.0000 </r>
       <r>   -6.2174    1.0000 </r>
       <r>   -6.1803    1.0000 </r>
       <r>   -6.0615    1.0000 </r>
       <r>   -6.0339    1.0000 </r>
       <r>   -5.9359    1.0000 </r>
       <r>   -5.8261    1.0000 </r>
       <r>   -5.7972    1.0000 </r>
       <r>   -5.7166    1.0000 </r>
       <r>   -5.6668    1.0000 </r>
       <r>   -5.5470    1.0000 </r>
       <r>   -5.4141    1.0000 </r>
       <r>   -5.2635    1.0000 </r>
       <r>   -5.2005    1.0000 </r>
       <r>   -4.9730    1.0000 </r>
       <r>   -4.9172    1.0000 </r>
       <r>   -4.8305    1.0000 </r>
       <r>   -4.6190    1.0000 </r>
       <r>   -4.5785    1.0000 </r>
       <r>   -4.5016    1.0000 </r>
       <r>   -4.3498    1.0000 </r>
       <r>   -4.2927    1.0000 </r>
       <r>   -4.2093    1.0000 </r>
       <r>   -3.9918    1.0000 </r>
       <r>   -3.9657    1.0000 </r>
       <r>   -3.6843    0.9929 </r>
       <r>   -3.4778    0.8397 </r>
       <r>   -3.4169    0.7131 </r>
       <r>   -3.0269    0.0141 </r>
       <r>   -2.7814    0.0000 </r>
       <r>   -2.6881    0.0000 </r>
       <r>   -2.5469    0.0000 </r>
       <r>   -2.4522    0.0000 </r>
       <r>   -2.3568    0.0000 </r>
       <r>   -2.1750    0.0000 </r>
       <r>   -2.1084    0.0000 </r>
       <r>   -1.9717    0.0000 </r>
       <r>   -1.8904    0.0000 </r>
       <r>   -1.7971    0.0000 </r>
       <r>   -1.6641    0.0000 </r>
       <r>   -1.5401    0.0000 </r>
       <r>   -1.3809    0.0000 </r>
       <r>   -1.2776    0.0000 </r>
       <r>   -1.2146    0.0000 </r>
       <r>   -1.1132    0.0000 </r>
       <r>   -1.0513    0.0000 </r>
       <r>   -1.0004    0.0000 </r>
       <r>   -0.9263    0.0000 </r>
       <r>   -0.8175    0.0000 </r>
       <r>   -0.7326    0.0000 </r>
       <r>   -0.6913    0.0000 </r>
       <r>   -0.6065    0.0000 </r>
       <r>   -0.4541    0.0000 </r>
       <r>   -0.4305    0.0000 </r>
       <r>   -0.2806    0.0000 </r>
       <r>   -0.0857    0.0000 </r>
       <r>   -0.0581    0.0000 </r>
       <r>    0.1457    0.0000 </r>
       <r>    0.3660    0.0000 </r>
       <r>    0.6178    0.0000 </r>
       <r>    0.8170    0.0000 </r>
       <r>    0.8872    0.0000 </r>
       <r>    1.0648    0.0000 </r>
       <r>    1.2392    0.0000 </r>
       <r>    1.3323    0.0000 </r>
       <r>    2.1115    0.0000 </r>
       <r>    2.2891    0.0000 </r>
       <r>    2.3742    0.0000 </r>
      </set>
      <set comment="kpoint 32">
       <r>  -17.5147    1.0000 </r>
       <r>  -17.1779    1.0000 </r>
       <r>  -17.0519    1.0000 </r>
       <r>  -16.6230    1.0000 </r>
       <r>  -16.4410    1.0000 </r>
       <r>  -16.3595    1.0000 </r>
       <r>  -16.2936    1.0000 </r>
       <r>  -16.2009    1.0000 </r>
       <r>  -16.1553    1.0000 </r>
       <r>  -16.0379    1.0000 </r>
       <r>  -15.9310    1.0000 </r>
       <r>  -15.8254    1.0000 </r>
       <r>  -15.7813    1.0000 </r>
       <r>  -15.7427    1.0000 </r>
       <r>  -15.6480    1.0000 </r>
       <r>  -15.5321    1.0000 </r>
       <r>  -15.4357    1.0000 </r>
       <r>  -15.3012    1.0000 </r>
       <r>   -9.6439    1.0000 </r>
       <r>   -9.5398    1.0000 </r>
       <r>   -9.3918    1.0000 </r>
       <r>   -8.9404    1.0000 </r>
       <r>   -8.7491    1.0000 </r>
       <r>   -8.6347    1.0000 </r>
       <r>   -8.5274    1.0000 </r>
       <r>   -8.4833    1.0000 </r>
       <r>   -8.4109    1.0000 </r>
       <r>   -8.3410    1.0000 </r>
       <r>   -8.3168    1.0000 </r>
       <r>   -8.2177    1.0000 </r>
       <r>   -8.1236    1.0000 </r>
       <r>   -8.1066    1.0000 </r>
       <r>   -8.0491    1.0000 </r>
       <r>   -7.9290    1.0000 </r>
       <r>   -7.8361    1.0000 </r>
       <r>   -7.6737    1.0000 </r>
       <r>   -7.5559    1.0000 </r>
       <r>   -7.4845    1.0000 </r>
       <r>   -7.3389    1.0000 </r>
       <r>   -7.2744    1.0000 </r>
       <r>   -7.1393    1.0000 </r>
       <r>   -7.1213    1.0000 </r>
       <r>   -7.0168    1.0000 </r>
       <r>   -6.9336    1.0000 </r>
       <r>   -6.8574    1.0000 </r>
       <r>   -6.7828    1.0000 </r>
       <r>   -6.6644    1.0000 </r>
       <r>   -6.6024    1.0000 </r>
       <r>   -6.5452    1.0000 </r>
       <r>   -6.4929    1.0000 </r>
       <r>   -6.3785    1.0000 </r>
       <r>   -6.3353    1.0000 </r>
       <r>   -6.2494    1.0000 </r>
       <r>   -6.2440    1.0000 </r>
       <r>   -6.1852    1.0000 </r>
       <r>   -6.0347    1.0000 </r>
       <r>   -6.0070    1.0000 </r>
       <r>   -5.9528    1.0000 </r>
       <r>   -5.8503    1.0000 </r>
       <r>   -5.7346    1.0000 </r>
       <r>   -5.7062    1.0000 </r>
       <r>   -5.6036    1.0000 </r>
       <r>   -5.5019    1.0000 </r>
       <r>   -5.3925    1.0000 </r>
       <r>   -5.3170    1.0000 </r>
       <r>   -5.2276    1.0000 </r>
       <r>   -5.0651    1.0000 </r>
       <r>   -4.9415    1.0000 </r>
       <r>   -4.8747    1.0000 </r>
       <r>   -4.5821    1.0000 </r>
       <r>   -4.5570    1.0000 </r>
       <r>   -4.4823    1.0000 </r>
       <r>   -4.3903    1.0000 </r>
       <r>   -4.3563    1.0000 </r>
       <r>   -4.1969    1.0000 </r>
       <r>   -3.9597    1.0000 </r>
       <r>   -3.9426    1.0000 </r>
       <r>   -3.6287    0.9803 </r>
       <r>   -3.4847    0.8513 </r>
       <r>   -3.4284    0.7401 </r>
       <r>   -3.0265    0.0140 </r>
       <r>   -2.8015    0.0001 </r>
       <r>   -2.6831    0.0000 </r>
       <r>   -2.5622    0.0000 </r>
       <r>   -2.4249    0.0000 </r>
       <r>   -2.3568    0.0000 </r>
       <r>   -2.1424    0.0000 </r>
       <r>   -2.1140    0.0000 </r>
       <r>   -2.0145    0.0000 </r>
       <r>   -1.9338    0.0000 </r>
       <r>   -1.7881    0.0000 </r>
       <r>   -1.6687    0.0000 </r>
       <r>   -1.5468    0.0000 </r>
       <r>   -1.3831    0.0000 </r>
       <r>   -1.2671    0.0000 </r>
       <r>   -1.2142    0.0000 </r>
       <r>   -1.1395    0.0000 </r>
       <r>   -1.0810    0.0000 </r>
       <r>   -1.0143    0.0000 </r>
       <r>   -0.9078    0.0000 </r>
       <r>   -0.8235    0.0000 </r>
       <r>   -0.7386    0.0000 </r>
       <r>   -0.6475    0.0000 </r>
       <r>   -0.5333    0.0000 </r>
       <r>   -0.4472    0.0000 </r>
       <r>   -0.3715    0.0000 </r>
       <r>   -0.2762    0.0000 </r>
       <r>   -0.1172    0.0000 </r>
       <r>   -0.0189    0.0000 </r>
       <r>    0.1079    0.0000 </r>
       <r>    0.3708    0.0000 </r>
       <r>    0.5705    0.0000 </r>
       <r>    0.7379    0.0000 </r>
       <r>    0.8613    0.0000 </r>
       <r>    1.0852    0.0000 </r>
       <r>    1.2522    0.0000 </r>
       <r>    1.3445    0.0000 </r>
       <r>    2.0836    0.0000 </r>
       <r>    2.2552    0.0000 </r>
       <r>    2.5507    0.0000 </r>
      </set>
      <set comment="kpoint 33">
       <r>  -17.4843    1.0000 </r>
       <r>  -17.2975    1.0000 </r>
       <r>  -16.9077    1.0000 </r>
       <r>  -16.6263    1.0000 </r>
       <r>  -16.4893    1.0000 </r>
       <r>  -16.4092    1.0000 </r>
       <r>  -16.3088    1.0000 </r>
       <r>  -16.2026    1.0000 </r>
       <r>  -16.1276    1.0000 </r>
       <r>  -16.0477    1.0000 </r>
       <r>  -15.8820    1.0000 </r>
       <r>  -15.8260    1.0000 </r>
       <r>  -15.7603    1.0000 </r>
       <r>  -15.7320    1.0000 </r>
       <r>  -15.6496    1.0000 </r>
       <r>  -15.5411    1.0000 </r>
       <r>  -15.4514    1.0000 </r>
       <r>  -15.3098    1.0000 </r>
       <r>   -9.7187    1.0000 </r>
       <r>   -9.4569    1.0000 </r>
       <r>   -9.2988    1.0000 </r>
       <r>   -8.9178    1.0000 </r>
       <r>   -8.8325    1.0000 </r>
       <r>   -8.7242    1.0000 </r>
       <r>   -8.5990    1.0000 </r>
       <r>   -8.5315    1.0000 </r>
       <r>   -8.4504    1.0000 </r>
       <r>   -8.3488    1.0000 </r>
       <r>   -8.2866    1.0000 </r>
       <r>   -8.2054    1.0000 </r>
       <r>   -8.0943    1.0000 </r>
       <r>   -8.0597    1.0000 </r>
       <r>   -7.9795    1.0000 </r>
       <r>   -7.8640    1.0000 </r>
       <r>   -7.8087    1.0000 </r>
       <r>   -7.7194    1.0000 </r>
       <r>   -7.5886    1.0000 </r>
       <r>   -7.4333    1.0000 </r>
       <r>   -7.3326    1.0000 </r>
       <r>   -7.3071    1.0000 </r>
       <r>   -7.1379    1.0000 </r>
       <r>   -7.0856    1.0000 </r>
       <r>   -6.9581    1.0000 </r>
       <r>   -6.9134    1.0000 </r>
       <r>   -6.8622    1.0000 </r>
       <r>   -6.7731    1.0000 </r>
       <r>   -6.6795    1.0000 </r>
       <r>   -6.6269    1.0000 </r>
       <r>   -6.5662    1.0000 </r>
       <r>   -6.4995    1.0000 </r>
       <r>   -6.4083    1.0000 </r>
       <r>   -6.3455    1.0000 </r>
       <r>   -6.2773    1.0000 </r>
       <r>   -6.2221    1.0000 </r>
       <r>   -6.1610    1.0000 </r>
       <r>   -6.0720    1.0000 </r>
       <r>   -5.9933    1.0000 </r>
       <r>   -5.9163    1.0000 </r>
       <r>   -5.8957    1.0000 </r>
       <r>   -5.8443    1.0000 </r>
       <r>   -5.7100    1.0000 </r>
       <r>   -5.6622    1.0000 </r>
       <r>   -5.5008    1.0000 </r>
       <r>   -5.3442    1.0000 </r>
       <r>   -5.2649    1.0000 </r>
       <r>   -5.1785    1.0000 </r>
       <r>   -5.0467    1.0000 </r>
       <r>   -4.9146    1.0000 </r>
       <r>   -4.8710    1.0000 </r>
       <r>   -4.6453    1.0000 </r>
       <r>   -4.5892    1.0000 </r>
       <r>   -4.4995    1.0000 </r>
       <r>   -4.3658    1.0000 </r>
       <r>   -4.2916    1.0000 </r>
       <r>   -4.1610    1.0000 </r>
       <r>   -3.9425    1.0000 </r>
       <r>   -3.9291    1.0000 </r>
       <r>   -3.6257    0.9793 </r>
       <r>   -3.5616    0.9436 </r>
       <r>   -3.4424    0.7712 </r>
       <r>   -2.9980    0.0082 </r>
       <r>   -2.8281    0.0002 </r>
       <r>   -2.6661    0.0000 </r>
       <r>   -2.5871    0.0000 </r>
       <r>   -2.4198    0.0000 </r>
       <r>   -2.3649    0.0000 </r>
       <r>   -2.1447    0.0000 </r>
       <r>   -2.1143    0.0000 </r>
       <r>   -1.9894    0.0000 </r>
       <r>   -1.9425    0.0000 </r>
       <r>   -1.7957    0.0000 </r>
       <r>   -1.6573    0.0000 </r>
       <r>   -1.5719    0.0000 </r>
       <r>   -1.3540    0.0000 </r>
       <r>   -1.2830    0.0000 </r>
       <r>   -1.2216    0.0000 </r>
       <r>   -1.1737    0.0000 </r>
       <r>   -1.1124    0.0000 </r>
       <r>   -1.0472    0.0000 </r>
       <r>   -0.8460    0.0000 </r>
       <r>   -0.8204    0.0000 </r>
       <r>   -0.7364    0.0000 </r>
       <r>   -0.6039    0.0000 </r>
       <r>   -0.4992    0.0000 </r>
       <r>   -0.4324    0.0000 </r>
       <r>   -0.3568    0.0000 </r>
       <r>   -0.3179    0.0000 </r>
       <r>   -0.0925    0.0000 </r>
       <r>   -0.0162    0.0000 </r>
       <r>    0.1330    0.0000 </r>
       <r>    0.3217    0.0000 </r>
       <r>    0.4742    0.0000 </r>
       <r>    0.7171    0.0000 </r>
       <r>    0.8667    0.0000 </r>
       <r>    1.1116    0.0000 </r>
       <r>    1.2378    0.0000 </r>
       <r>    1.4429    0.0000 </r>
       <r>    2.1155    0.0000 </r>
       <r>    2.2845    0.0000 </r>
       <r>    2.3858    0.0000 </r>
      </set>
      <set comment="kpoint 34">
       <r>  -17.4197    1.0000 </r>
       <r>  -17.4017    1.0000 </r>
       <r>  -16.7403    1.0000 </r>
       <r>  -16.6739    1.0000 </r>
       <r>  -16.6119    1.0000 </r>
       <r>  -16.4159    1.0000 </r>
       <r>  -16.2785    1.0000 </r>
       <r>  -16.2326    1.0000 </r>
       <r>  -16.1076    1.0000 </r>
       <r>  -16.0434    1.0000 </r>
       <r>  -15.8493    1.0000 </r>
       <r>  -15.8295    1.0000 </r>
       <r>  -15.7488    1.0000 </r>
       <r>  -15.7240    1.0000 </r>
       <r>  -15.6475    1.0000 </r>
       <r>  -15.5394    1.0000 </r>
       <r>  -15.4729    1.0000 </r>
       <r>  -15.3171    1.0000 </r>
       <r>   -9.7592    1.0000 </r>
       <r>   -9.3574    1.0000 </r>
       <r>   -9.2205    1.0000 </r>
       <r>   -8.9849    1.0000 </r>
       <r>   -8.8707    1.0000 </r>
       <r>   -8.7989    1.0000 </r>
       <r>   -8.6673    1.0000 </r>
       <r>   -8.5714    1.0000 </r>
       <r>   -8.4748    1.0000 </r>
       <r>   -8.3364    1.0000 </r>
       <r>   -8.2381    1.0000 </r>
       <r>   -8.1925    1.0000 </r>
       <r>   -8.0750    1.0000 </r>
       <r>   -7.9983    1.0000 </r>
       <r>   -7.9252    1.0000 </r>
       <r>   -7.8813    1.0000 </r>
       <r>   -7.8180    1.0000 </r>
       <r>   -7.7007    1.0000 </r>
       <r>   -7.5942    1.0000 </r>
       <r>   -7.4292    1.0000 </r>
       <r>   -7.3871    1.0000 </r>
       <r>   -7.2612    1.0000 </r>
       <r>   -7.0777    1.0000 </r>
       <r>   -7.0272    1.0000 </r>
       <r>   -6.9845    1.0000 </r>
       <r>   -6.9631    1.0000 </r>
       <r>   -6.8270    1.0000 </r>
       <r>   -6.7159    1.0000 </r>
       <r>   -6.6857    1.0000 </r>
       <r>   -6.6441    1.0000 </r>
       <r>   -6.6019    1.0000 </r>
       <r>   -6.5172    1.0000 </r>
       <r>   -6.4211    1.0000 </r>
       <r>   -6.4034    1.0000 </r>
       <r>   -6.3022    1.0000 </r>
       <r>   -6.2004    1.0000 </r>
       <r>   -6.1222    1.0000 </r>
       <r>   -6.0724    1.0000 </r>
       <r>   -6.0311    1.0000 </r>
       <r>   -5.9756    1.0000 </r>
       <r>   -5.8913    1.0000 </r>
       <r>   -5.8201    1.0000 </r>
       <r>   -5.7721    1.0000 </r>
       <r>   -5.6714    1.0000 </r>
       <r>   -5.4722    1.0000 </r>
       <r>   -5.3868    1.0000 </r>
       <r>   -5.2672    1.0000 </r>
       <r>   -5.1324    1.0000 </r>
       <r>   -4.9687    1.0000 </r>
       <r>   -4.8725    1.0000 </r>
       <r>   -4.8467    1.0000 </r>
       <r>   -4.7208    1.0000 </r>
       <r>   -4.6072    1.0000 </r>
       <r>   -4.5179    1.0000 </r>
       <r>   -4.3338    1.0000 </r>
       <r>   -4.2610    1.0000 </r>
       <r>   -4.1055    1.0000 </r>
       <r>   -3.9538    1.0000 </r>
       <r>   -3.9355    1.0000 </r>
       <r>   -3.6667    0.9901 </r>
       <r>   -3.5731    0.9522 </r>
       <r>   -3.4571    0.8013 </r>
       <r>   -2.9816    0.0059 </r>
       <r>   -2.8412    0.0002 </r>
       <r>   -2.6515    0.0000 </r>
       <r>   -2.6029    0.0000 </r>
       <r>   -2.4322    0.0000 </r>
       <r>   -2.3611    0.0000 </r>
       <r>   -2.1627    0.0000 </r>
       <r>   -2.1058    0.0000 </r>
       <r>   -1.9742    0.0000 </r>
       <r>   -1.9247    0.0000 </r>
       <r>   -1.7988    0.0000 </r>
       <r>   -1.6772    0.0000 </r>
       <r>   -1.5521    0.0000 </r>
       <r>   -1.3397    0.0000 </r>
       <r>   -1.2817    0.0000 </r>
       <r>   -1.2567    0.0000 </r>
       <r>   -1.1785    0.0000 </r>
       <r>   -1.1208    0.0000 </r>
       <r>   -1.0690    0.0000 </r>
       <r>   -0.8387    0.0000 </r>
       <r>   -0.7906    0.0000 </r>
       <r>   -0.7177    0.0000 </r>
       <r>   -0.5849    0.0000 </r>
       <r>   -0.5352    0.0000 </r>
       <r>   -0.4128    0.0000 </r>
       <r>   -0.3515    0.0000 </r>
       <r>   -0.3448    0.0000 </r>
       <r>   -0.1035    0.0000 </r>
       <r>    0.0650    0.0000 </r>
       <r>    0.1148    0.0000 </r>
       <r>    0.2717    0.0000 </r>
       <r>    0.4236    0.0000 </r>
       <r>    0.7278    0.0000 </r>
       <r>    0.8781    0.0000 </r>
       <r>    1.1333    0.0000 </r>
       <r>    1.2290    0.0000 </r>
       <r>    1.4939    0.0000 </r>
       <r>    2.1820    0.0000 </r>
       <r>    2.2551    0.0000 </r>
       <r>    2.3632    0.0000 </r>
      </set>
     </set>
    </set>
   </array>
  </eigenvalues>
  <separator name="orbital magnetization" >
   <v name="MAGDIPOLOUT">      0.00000000      0.00000000      0.00000000</v>
  </separator>
 </calculation>
 <structure name="finalpos" >
  <crystal>
   <varray name="basis" >
    <v>       8.36980534       4.81295113       0.00000000 </v>
    <v>      -8.38895015       4.84579626       0.00000000 </v>
    <v>       0.00000000       0.00000000      30.00000000 </v>
   </varray>
   <i name="volume">   2428.01935614 </i>
   <varray name="rec_basis" >
    <v>       0.05987345       0.10365177       0.00000000 </v>
    <v>      -0.05946762       0.10341522       0.00000000 </v>
    <v>       0.00000000       0.00000000       0.03333333 </v>
   </varray>
  </crystal>
  <varray name="positions" >
   <v>       0.68057842       0.64463920      -0.00022786 </v>
   <v>       0.65840023       0.31257832      -0.00062962 </v>
   <v>       0.34441256       0.31632775       0.00018117 </v>
   <v>       0.02094048       0.70479481       0.00069293 </v>
   <v>       0.65048333       0.01915721       0.00005447 </v>
   <v>       0.32695133      -0.00698706      -0.00019798 </v>
   <v>       0.01501237      -0.00817057      -0.00032871 </v>
   <v>       0.96848894       0.29391988      -0.00175467 </v>
   <v>       0.33834932       0.70587840       0.00156166 </v>
   <v>       0.11656930       0.22137590       0.94904489 </v>
   <v>       0.22228347       0.11655900       0.05335446 </v>
   <v>       0.11025893       0.55341135       0.95356536 </v>
   <v>       0.22128648       0.44443820       0.04163518 </v>
   <v>       0.11755810       0.89737592       0.94315254 </v>
   <v>       0.22235703       0.78724109       0.05745124 </v>
   <v>       0.45006667       0.22865987       0.94774111 </v>
   <v>       0.55043425       0.11986933       0.05431319 </v>
   <v>       0.44610190       0.55754475       0.95751240 </v>
   <v>       0.55861105       0.43813428       0.04983145 </v>
   <v>       0.44280895       0.89514496       0.94400416 </v>
   <v>       0.55732690       0.77695115       0.04846415 </v>
   <v>       0.76941078       0.22243086       0.94369375 </v>
   <v>       0.87802575       0.09782746       0.05186730 </v>
   <v>       0.78516151       0.55259014       0.95061810 </v>
   <v>       0.89116830       0.44692637       0.04401799 </v>
   <v>       0.77051722       0.88259498       0.95688936 </v>
   <v>       0.88465087       0.77700092       0.05349189 </v>
  </varray>
 </structure>
</modeling>
