   27   27  100    1
  0.9710400E+02  0.1002848E-08  0.1002848E-08  0.3000000E-08  0.5000000E-15
  1.000000000000000E-004
  CAR 
 unknown system                          
    159     34    120
 
  0.0000000E+00  0.0000000E+00  0.0000000E+00  0.1562500E-01
    1      -17.802605   1.000000
    2      -16.706313   1.000000
    3      -16.644376   1.000000
    4      -16.610121   1.000000
    5      -16.505268   1.000000
    6      -16.440209   1.000000
    7      -16.410178   1.000000
    8      -16.272490   1.000000
    9      -16.160115   1.000000
   10      -16.130440   1.000000
   11      -16.044406   1.000000
   12      -15.897276   1.000000
   13      -15.880225   1.000000
   14      -15.681505   1.000000
   15      -15.574771   1.000000
   16      -15.521786   1.000000
   17      -15.418467   1.000000
   18      -15.325342   1.000000
   19       -9.386538   1.000000
   20       -9.048181   1.000000
   21       -8.947162   1.000000
   22       -8.873887   1.000000
   23       -8.721619   1.000000
   24       -8.664050   1.000000
   25       -8.607564   1.000000
   26       -8.531812   1.000000
   27       -8.466673   1.000000
   28       -8.438227   1.000000
   29       -8.423403   1.000000
   30       -8.338472   1.000000
   31       -8.258327   1.000000
   32       -8.158261   1.000000
   33       -8.066424   1.000000
   34       -8.011764   1.000000
   35       -7.894547   1.000000
   36       -7.729735   1.000000
   37       -7.717008   1.000000
   38       -7.537819   1.000000
   39       -7.480544   1.000000
   40       -7.452897   1.000000
   41       -7.394877   1.000000
   42       -7.161908   1.000000
   43       -7.116939   1.000000
   44       -6.962383   1.000000
   45       -6.841465   1.000000
   46       -6.790663   1.000000
   47       -6.742701   1.000000
   48       -6.707419   1.000000
   49       -6.628344   1.000000
   50       -6.457609   1.000000
   51       -6.424558   1.000000
   52       -6.408750   1.000000
   53       -6.250307   1.000000
   54       -6.200050   1.000000
   55       -6.189422   1.000000
   56       -6.085098   1.000000
   57       -5.977212   1.000000
   58       -5.905882   1.000000
   59       -5.756962   1.000000
   60       -5.568577   1.000000
   61       -5.461403   1.000000
   62       -5.437784   1.000000
   63       -5.218096   1.000000
   64       -5.150387   1.000000
   65       -5.078351   1.000000
   66       -5.038842   1.000000
   67       -4.895202   1.000000
   68       -4.840869   1.000000
   69       -4.817469   1.000000
   70       -4.783002   1.000000
   71       -4.649189   1.000000
   72       -4.545910   1.000000
   73       -4.503752   1.000000
   74       -4.481894   1.000000
   75       -4.196544   1.000000
   76       -4.047201   0.999999
   77       -3.819965   0.999027
   78       -3.718390   0.991348
   79       -3.638046   0.965013
   80       -3.395522   0.538708
   81       -3.233647   0.147447
   82       -2.729707   0.000002
   83       -2.644465   0.000000
   84       -2.579672   0.000000
   85       -2.563575   0.000000
   86       -2.512038   0.000000
   87       -2.352822   0.000000
   88       -2.288731   0.000000
   89       -2.250214   0.000000
   90       -2.157939   0.000000
   91       -1.730360   0.000000
   92       -1.696602   0.000000
   93       -1.570461   0.000000
   94       -1.299619   0.000000
   95       -1.184943   0.000000
   96       -1.045902   0.000000
   97       -0.944945   0.000000
   98       -0.877688   0.000000
   99       -0.728883   0.000000
  100       -0.651289   0.000000
  101       -0.593049   0.000000
  102       -0.553032   0.000000
  103       -0.499158   0.000000
  104       -0.474401   0.000000
  105       -0.227347   0.000000
  106       -0.063842   0.000000
  107       -0.027610   0.000000
  108        0.008354   0.000000
  109        0.148115   0.000000
  110        0.383288   0.000000
  111        0.423768   0.000000
  112        0.433936   0.000000
  113        0.542520   0.000000
  114        0.721650   0.000000
  115        0.780429   0.000000
  116        0.987539   0.000000
  117        1.203419   0.000000
  118        1.639375   0.000000
  119        1.833399   0.000000
  120        2.148851   0.000000
 
  0.1250000E+00  0.2775558E-16  0.0000000E+00  0.3125000E-01
    1      -17.778640   1.000000
    2      -16.773190   1.000000
    3      -16.691571   1.000000
    4      -16.622080   1.000000
    5      -16.551176   1.000000
    6      -16.413723   1.000000
    7      -16.358751   1.000000
    8      -16.275438   1.000000
    9      -16.155058   1.000000
   10      -16.099302   1.000000
   11      -15.982452   1.000000
   12      -15.902817   1.000000
   13      -15.863727   1.000000
   14      -15.679235   1.000000
   15      -15.590030   1.000000
   16      -15.513380   1.000000
   17      -15.428699   1.000000
   18      -15.335892   1.000000
   19       -9.400120   1.000000
   20       -9.120883   1.000000
   21       -9.035315   1.000000
   22       -8.962355   1.000000
   23       -8.777235   1.000000
   24       -8.675332   1.000000
   25       -8.615895   1.000000
   26       -8.543733   1.000000
   27       -8.489472   1.000000
   28       -8.460762   1.000000
   29       -8.395416   1.000000
   30       -8.238876   1.000000
   31       -8.176466   1.000000
   32       -8.103463   1.000000
   33       -7.971342   1.000000
   34       -7.918242   1.000000
   35       -7.829526   1.000000
   36       -7.728540   1.000000
   37       -7.683465   1.000000
   38       -7.578372   1.000000
   39       -7.483961   1.000000
   40       -7.399450   1.000000
   41       -7.360591   1.000000
   42       -7.195440   1.000000
   43       -7.112338   1.000000
   44       -7.033621   1.000000
   45       -6.908178   1.000000
   46       -6.834779   1.000000
   47       -6.748643   1.000000
   48       -6.631398   1.000000
   49       -6.593444   1.000000
   50       -6.507679   1.000000
   51       -6.452465   1.000000
   52       -6.364275   1.000000
   53       -6.244711   1.000000
   54       -6.197417   1.000000
   55       -6.169241   1.000000
   56       -6.087615   1.000000
   57       -5.966775   1.000000
   58       -5.900618   1.000000
   59       -5.719599   1.000000
   60       -5.556353   1.000000
   61       -5.527394   1.000000
   62       -5.414900   1.000000
   63       -5.328042   1.000000
   64       -5.191886   1.000000
   65       -5.098013   1.000000
   66       -5.016585   1.000000
   67       -4.985709   1.000000
   68       -4.912484   1.000000
   69       -4.776135   1.000000
   70       -4.759375   1.000000
   71       -4.667576   1.000000
   72       -4.573628   1.000000
   73       -4.414113   1.000000
   74       -4.328736   1.000000
   75       -4.141521   1.000000
   76       -4.038107   0.999998
   77       -3.878111   0.999776
   78       -3.748419   0.995237
   79       -3.640245   0.966198
   80       -3.546960   0.878598
   81       -3.078745   0.016066
   82       -2.737673   0.000003
   83       -2.699276   0.000001
   84       -2.569195   0.000000
   85       -2.557925   0.000000
   86       -2.481910   0.000000
   87       -2.368650   0.000000
   88       -2.277094   0.000000
   89       -2.210518   0.000000
   90       -2.149543   0.000000
   91       -1.753472   0.000000
   92       -1.652473   0.000000
   93       -1.561546   0.000000
   94       -1.288329   0.000000
   95       -1.171964   0.000000
   96       -1.045265   0.000000
   97       -0.956401   0.000000
   98       -0.887566   0.000000
   99       -0.756864   0.000000
  100       -0.685008   0.000000
  101       -0.650054   0.000000
  102       -0.607468   0.000000
  103       -0.573312   0.000000
  104       -0.466056   0.000000
  105       -0.276025   0.000000
  106       -0.146724   0.000000
  107       -0.052113   0.000000
  108       -0.004473   0.000000
  109        0.126749   0.000000
  110        0.292767   0.000000
  111        0.379469   0.000000
  112        0.481798   0.000000
  113        0.581584   0.000000
  114        0.770113   0.000000
  115        0.862732   0.000000
  116        1.017470   0.000000
  117        1.249593   0.000000
  118        1.683461   0.000000
  119        1.872075   0.000000
  120        2.184046   0.000000
 
  0.2500000E+00  0.5551115E-16  0.0000000E+00  0.3125000E-01
    1      -17.708868   1.000000
    2      -16.967157   1.000000
    3      -16.707773   1.000000
    4      -16.662405   1.000000
    5      -16.600975   1.000000
    6      -16.389293   1.000000
    7      -16.312932   1.000000
    8      -16.249501   1.000000
    9      -16.123808   1.000000
   10      -16.043761   1.000000
   11      -15.937969   1.000000
   12      -15.860697   1.000000
   13      -15.803716   1.000000
   14      -15.682307   1.000000
   15      -15.623960   1.000000
   16      -15.516848   1.000000
   17      -15.431388   1.000000
   18      -15.365619   1.000000
   19       -9.525137   1.000000
   20       -9.274804   1.000000
   21       -9.103950   1.000000
   22       -9.052623   1.000000
   23       -8.857087   1.000000
   24       -8.755101   1.000000
   25       -8.624811   1.000000
   26       -8.518000   1.000000
   27       -8.477859   1.000000
   28       -8.369998   1.000000
   29       -8.301303   1.000000
   30       -8.189393   1.000000
   31       -8.155845   1.000000
   32       -8.092888   1.000000
   33       -7.956524   1.000000
   34       -7.821434   1.000000
   35       -7.701450   1.000000
   36       -7.619174   1.000000
   37       -7.580768   1.000000
   38       -7.508441   1.000000
   39       -7.426612   1.000000
   40       -7.341731   1.000000
   41       -7.317137   1.000000
   42       -7.204147   1.000000
   43       -7.140150   1.000000
   44       -7.057654   1.000000
   45       -6.989251   1.000000
   46       -6.819574   1.000000
   47       -6.739999   1.000000
   48       -6.677707   1.000000
   49       -6.575380   1.000000
   50       -6.518093   1.000000
   51       -6.461538   1.000000
   52       -6.347443   1.000000
   53       -6.258563   1.000000
   54       -6.171679   1.000000
   55       -6.100195   1.000000
   56       -6.022927   1.000000
   57       -5.970688   1.000000
   58       -5.870659   1.000000
   59       -5.739209   1.000000
   60       -5.684385   1.000000
   61       -5.612922   1.000000
   62       -5.555434   1.000000
   63       -5.420563   1.000000
   64       -5.265786   1.000000
   65       -5.153886   1.000000
   66       -5.078541   1.000000
   67       -4.963903   1.000000
   68       -4.878895   1.000000
   69       -4.825065   1.000000
   70       -4.729426   1.000000
   71       -4.578887   1.000000
   72       -4.504056   1.000000
   73       -4.298024   1.000000
   74       -4.236595   1.000000
   75       -4.172121   1.000000
   76       -4.057631   0.999999
   77       -3.964879   0.999981
   78       -3.819593   0.999019
   79       -3.684098   0.983730
   80       -3.457698   0.704308
   81       -3.001016   0.003547
   82       -2.787515   0.000013
   83       -2.708524   0.000001
   84       -2.576747   0.000000
   85       -2.518905   0.000000
   86       -2.438841   0.000000
   87       -2.396696   0.000000
   88       -2.226577   0.000000
   89       -2.165066   0.000000
   90       -2.121175   0.000000
   91       -1.788364   0.000000
   92       -1.594469   0.000000
   93       -1.494875   0.000000
   94       -1.263483   0.000000
   95       -1.155373   0.000000
   96       -1.066007   0.000000
   97       -0.996828   0.000000
   98       -0.920919   0.000000
   99       -0.872493   0.000000
  100       -0.796022   0.000000
  101       -0.754002   0.000000
  102       -0.700762   0.000000
  103       -0.631620   0.000000
  104       -0.504740   0.000000
  105       -0.371638   0.000000
  106       -0.258019   0.000000
  107       -0.117728   0.000000
  108       -0.097083   0.000000
  109        0.054247   0.000000
  110        0.185732   0.000000
  111        0.298753   0.000000
  112        0.522978   0.000000
  113        0.624239   0.000000
  114        0.869800   0.000000
  115        1.046168   0.000000
  116        1.089901   0.000000
  117        1.355218   0.000000
  118        1.805728   0.000000
  119        1.982889   0.000000
  120        2.288112   0.000000
 
  0.3750000E+00  0.0000000E+00  0.0000000E+00  0.3125000E-01
    1      -17.603724   1.000000
    2      -17.164831   1.000000
    3      -16.742090   1.000000
    4      -16.667664   1.000000
    5      -16.631718   1.000000
    6      -16.399462   1.000000
    7      -16.280591   1.000000
    8      -16.228515   1.000000
    9      -16.071432   1.000000
   10      -15.986373   1.000000
   11      -15.921571   1.000000
   12      -15.835314   1.000000
   13      -15.740607   1.000000
   14      -15.687596   1.000000
   15      -15.639514   1.000000
   16      -15.543610   1.000000
   17      -15.443177   1.000000
   18      -15.374301   1.000000
   19       -9.703497   1.000000
   20       -9.361418   1.000000
   21       -9.167079   1.000000
   22       -9.021984   1.000000
   23       -8.921826   1.000000
   24       -8.829244   1.000000
   25       -8.592338   1.000000
   26       -8.466940   1.000000
   27       -8.409954   1.000000
   28       -8.303902   1.000000
   29       -8.256055   1.000000
   30       -8.212912   1.000000
   31       -8.147046   1.000000
   32       -8.107763   1.000000
   33       -8.012989   1.000000
   34       -7.863991   1.000000
   35       -7.691321   1.000000
   36       -7.579732   1.000000
   37       -7.517208   1.000000
   38       -7.432965   1.000000
   39       -7.385180   1.000000
   40       -7.269735   1.000000
   41       -7.218097   1.000000
   42       -7.100772   1.000000
   43       -7.087428   1.000000
   44       -7.001695   1.000000
   45       -6.875291   1.000000
   46       -6.838685   1.000000
   47       -6.726093   1.000000
   48       -6.694835   1.000000
   49       -6.597461   1.000000
   50       -6.509562   1.000000
   51       -6.439160   1.000000
   52       -6.323561   1.000000
   53       -6.221679   1.000000
   54       -6.173521   1.000000
   55       -6.106487   1.000000
   56       -6.006312   1.000000
   57       -5.966718   1.000000
   58       -5.934939   1.000000
   59       -5.837425   1.000000
   60       -5.783182   1.000000
   61       -5.738713   1.000000
   62       -5.635064   1.000000
   63       -5.474236   1.000000
   64       -5.344542   1.000000
   65       -5.196361   1.000000
   66       -5.073844   1.000000
   67       -4.945732   1.000000
   68       -4.861669   1.000000
   69       -4.767501   1.000000
   70       -4.737663   1.000000
   71       -4.553398   1.000000
   72       -4.496125   1.000000
   73       -4.430475   1.000000
   74       -4.270506   1.000000
   75       -4.097511   1.000000
   76       -4.053953   0.999999
   77       -3.918523   0.999926
   78       -3.809188   0.998745
   79       -3.630195   0.960504
   80       -3.387122   0.515071
   81       -3.035309   0.007145
   82       -2.769531   0.000007
   83       -2.692750   0.000001
   84       -2.593241   0.000000
   85       -2.499913   0.000000
   86       -2.433294   0.000000
   87       -2.380490   0.000000
   88       -2.190458   0.000000
   89       -2.143329   0.000000
   90       -2.047610   0.000000
   91       -1.816890   0.000000
   92       -1.561726   0.000000
   93       -1.387060   0.000000
   94       -1.247162   0.000000
   95       -1.186819   0.000000
   96       -1.133247   0.000000
   97       -1.054134   0.000000
   98       -1.008148   0.000000
   99       -0.980110   0.000000
  100       -0.855127   0.000000
  101       -0.830794   0.000000
  102       -0.772264   0.000000
  103       -0.646092   0.000000
  104       -0.547456   0.000000
  105       -0.450348   0.000000
  106       -0.333038   0.000000
  107       -0.219257   0.000000
  108       -0.160378   0.000000
  109       -0.049863   0.000000
  110        0.088009   0.000000
  111        0.274388   0.000000
  112        0.551082   0.000000
  113        0.658828   0.000000
  114        0.954816   0.000000
  115        1.113449   0.000000
  116        1.222603   0.000000
  117        1.461168   0.000000
  118        1.987484   0.000000
  119        2.155047   0.000000
  120        2.455201   0.000000
 
  0.5000000E+00  0.1110223E-15  0.0000000E+00  0.1562500E-01
    1      -17.525551   1.000000
    2      -17.276000   1.000000
    3      -16.756104   1.000000
    4      -16.671082   1.000000
    5      -16.637784   1.000000
    6      -16.406899   1.000000
    7      -16.268664   1.000000
    8      -16.224464   1.000000
    9      -16.047254   1.000000
   10      -15.965029   1.000000
   11      -15.886276   1.000000
   12      -15.837403   1.000000
   13      -15.759271   1.000000
   14      -15.682911   1.000000
   15      -15.629739   1.000000
   16      -15.515935   1.000000
   17      -15.501083   1.000000
   18      -15.359327   1.000000
   19       -9.774451   1.000000
   20       -9.394165   1.000000
   21       -9.193618   1.000000
   22       -8.990723   1.000000
   23       -8.943890   1.000000
   24       -8.843310   1.000000
   25       -8.578093   1.000000
   26       -8.450784   1.000000
   27       -8.409539   1.000000
   28       -8.303776   1.000000
   29       -8.207073   1.000000
   30       -8.198867   1.000000
   31       -8.156617   1.000000
   32       -8.096056   1.000000
   33       -8.043017   1.000000
   34       -7.865185   1.000000
   35       -7.756653   1.000000
   36       -7.616706   1.000000
   37       -7.523584   1.000000
   38       -7.422163   1.000000
   39       -7.373852   1.000000
   40       -7.236973   1.000000
   41       -7.134798   1.000000
   42       -7.062097   1.000000
   43       -7.029219   1.000000
   44       -6.890531   1.000000
   45       -6.830971   1.000000
   46       -6.754115   1.000000
   47       -6.712322   1.000000
   48       -6.653074   1.000000
   49       -6.594833   1.000000
   50       -6.547774   1.000000
   51       -6.502751   1.000000
   52       -6.396483   1.000000
   53       -6.263051   1.000000
   54       -6.198931   1.000000
   55       -6.116717   1.000000
   56       -6.071471   1.000000
   57       -6.002595   1.000000
   58       -5.834405   1.000000
   59       -5.775159   1.000000
   60       -5.758604   1.000000
   61       -5.729942   1.000000
   62       -5.636011   1.000000
   63       -5.499827   1.000000
   64       -5.488019   1.000000
   65       -5.297795   1.000000
   66       -5.042038   1.000000
   67       -5.015661   1.000000
   68       -4.862063   1.000000
   69       -4.781719   1.000000
   70       -4.664380   1.000000
   71       -4.568749   1.000000
   72       -4.487690   1.000000
   73       -4.401862   1.000000
   74       -4.371168   1.000000
   75       -4.027404   0.999998
   76       -3.995793   0.999993
   77       -3.938843   0.999959
   78       -3.828264   0.999203
   79       -3.525710   0.845602
   80       -3.433054   0.641539
   81       -3.028822   0.006284
   82       -2.764808   0.000006
   83       -2.684809   0.000000
   84       -2.602384   0.000000
   85       -2.493505   0.000000
   86       -2.442387   0.000000
   87       -2.361852   0.000000
   88       -2.175326   0.000000
   89       -2.138225   0.000000
   90       -2.004579   0.000000
   91       -1.828229   0.000000
   92       -1.541619   0.000000
   93       -1.340169   0.000000
   94       -1.248079   0.000000
   95       -1.227666   0.000000
   96       -1.170390   0.000000
   97       -1.098746   0.000000
   98       -1.036168   0.000000
   99       -1.019404   0.000000
  100       -0.870318   0.000000
  101       -0.843165   0.000000
  102       -0.796364   0.000000
  103       -0.646411   0.000000
  104       -0.554195   0.000000
  105       -0.506930   0.000000
  106       -0.346870   0.000000
  107       -0.263234   0.000000
  108       -0.187019   0.000000
  109       -0.092022   0.000000
  110        0.049196   0.000000
  111        0.270061   0.000000
  112        0.562457   0.000000
  113        0.673125   0.000000
  114        0.982831   0.000000
  115        1.131171   0.000000
  116        1.274465   0.000000
  117        1.506036   0.000000
  118        2.201670   0.000000
  119        2.234836   0.000000
  120        2.363542   0.000000
 
  0.0000000E+00  0.1250000E+00  0.0000000E+00  0.3125000E-01
    1      -17.778262   1.000000
    2      -16.796445   1.000000
    3      -16.704366   1.000000
    4      -16.586156   1.000000
    5      -16.514947   1.000000
    6      -16.455005   1.000000
    7      -16.344002   1.000000
    8      -16.270861   1.000000
    9      -16.166612   1.000000
   10      -16.067579   1.000000
   11      -16.035107   1.000000
   12      -15.884145   1.000000
   13      -15.855454   1.000000
   14      -15.694097   1.000000
   15      -15.577378   1.000000
   16      -15.533750   1.000000
   17      -15.419982   1.000000
   18      -15.331554   1.000000
   19       -9.390814   1.000000
   20       -9.155140   1.000000
   21       -9.014619   1.000000
   22       -8.974539   1.000000
   23       -8.741019   1.000000
   24       -8.720002   1.000000
   25       -8.621203   1.000000
   26       -8.519655   1.000000
   27       -8.485570   1.000000
   28       -8.434231   1.000000
   29       -8.346036   1.000000
   30       -8.244459   1.000000
   31       -8.199754   1.000000
   32       -8.118324   1.000000
   33       -8.010663   1.000000
   34       -7.932352   1.000000
   35       -7.812739   1.000000
   36       -7.709284   1.000000
   37       -7.663615   1.000000
   38       -7.567083   1.000000
   39       -7.519281   1.000000
   40       -7.484287   1.000000
   41       -7.350404   1.000000
   42       -7.168770   1.000000
   43       -7.105221   1.000000
   44       -7.018987   1.000000
   45       -6.906531   1.000000
   46       -6.807039   1.000000
   47       -6.753854   1.000000
   48       -6.621092   1.000000
   49       -6.536201   1.000000
   50       -6.473601   1.000000
   51       -6.432302   1.000000
   52       -6.380415   1.000000
   53       -6.300203   1.000000
   54       -6.227528   1.000000
   55       -6.177411   1.000000
   56       -6.104878   1.000000
   57       -5.941183   1.000000
   58       -5.923079   1.000000
   59       -5.749549   1.000000
   60       -5.590379   1.000000
   61       -5.514595   1.000000
   62       -5.423096   1.000000
   63       -5.306306   1.000000
   64       -5.285831   1.000000
   65       -5.104749   1.000000
   66       -4.977696   1.000000
   67       -4.919659   1.000000
   68       -4.841025   1.000000
   69       -4.778609   1.000000
   70       -4.722337   1.000000
   71       -4.600371   1.000000
   72       -4.571986   1.000000
   73       -4.459057   1.000000
   74       -4.418964   1.000000
   75       -4.154069   1.000000
   76       -4.104890   1.000000
   77       -3.874834   0.999755
   78       -3.777521   0.997432
   79       -3.657995   0.974599
   80       -3.360130   0.439169
   81       -3.225887   0.135162
   82       -2.706517   0.000001
   83       -2.637496   0.000000
   84       -2.585042   0.000000
   85       -2.539960   0.000000
   86       -2.485095   0.000000
   87       -2.329655   0.000000
   88       -2.286153   0.000000
   89       -2.225853   0.000000
   90       -2.133535   0.000000
   91       -1.749822   0.000000
   92       -1.681678   0.000000
   93       -1.552355   0.000000
   94       -1.306631   0.000000
   95       -1.184401   0.000000
   96       -1.044722   0.000000
   97       -0.956010   0.000000
   98       -0.890188   0.000000
   99       -0.797658   0.000000
  100       -0.728362   0.000000
  101       -0.653872   0.000000
  102       -0.599702   0.000000
  103       -0.540572   0.000000
  104       -0.462908   0.000000
  105       -0.253102   0.000000
  106       -0.138313   0.000000
  107       -0.013409   0.000000
  108        0.014333   0.000000
  109        0.120966   0.000000
  110        0.354081   0.000000
  111        0.416043   0.000000
  112        0.488397   0.000000
  113        0.557896   0.000000
  114        0.732449   0.000000
  115        0.861507   0.000000
  116        0.990407   0.000000
  117        1.191834   0.000000
  118        1.680908   0.000000
  119        1.873666   0.000000
  120        2.183417   0.000000
 
  0.1250000E+00  0.1250000E+00  0.0000000E+00  0.3125000E-01
    1      -17.731242   1.000000
    2      -16.913594   1.000000
    3      -16.763922   1.000000
    4      -16.642929   1.000000
    5      -16.486586   1.000000
    6      -16.427842   1.000000
    7      -16.316122   1.000000
    8      -16.266763   1.000000
    9      -16.123182   1.000000
   10      -16.048733   1.000000
   11      -15.963609   1.000000
   12      -15.886616   1.000000
   13      -15.824049   1.000000
   14      -15.696148   1.000000
   15      -15.607300   1.000000
   16      -15.527507   1.000000
   17      -15.435665   1.000000
   18      -15.336365   1.000000
   19       -9.451563   1.000000
   20       -9.254867   1.000000
   21       -9.164828   1.000000
   22       -9.040006   1.000000
   23       -8.785822   1.000000
   24       -8.666712   1.000000
   25       -8.629759   1.000000
   26       -8.532226   1.000000
   27       -8.453660   1.000000
   28       -8.424895   1.000000
   29       -8.291852   1.000000
   30       -8.221270   1.000000
   31       -8.146658   1.000000
   32       -8.053168   1.000000
   33       -7.993720   1.000000
   34       -7.840121   1.000000
   35       -7.791398   1.000000
   36       -7.677008   1.000000
   37       -7.613214   1.000000
   38       -7.549696   1.000000
   39       -7.456569   1.000000
   40       -7.364928   1.000000
   41       -7.293473   1.000000
   42       -7.223461   1.000000
   43       -7.131044   1.000000
   44       -7.067815   1.000000
   45       -6.927493   1.000000
   46       -6.828794   1.000000
   47       -6.735066   1.000000
   48       -6.615678   1.000000
   49       -6.553629   1.000000
   50       -6.483137   1.000000
   51       -6.420363   1.000000
   52       -6.398567   1.000000
   53       -6.268153   1.000000
   54       -6.216720   1.000000
   55       -6.162640   1.000000
   56       -6.065393   1.000000
   57       -5.980686   1.000000
   58       -5.902527   1.000000
   59       -5.748807   1.000000
   60       -5.685101   1.000000
   61       -5.571350   1.000000
   62       -5.431603   1.000000
   63       -5.394017   1.000000
   64       -5.275410   1.000000
   65       -5.184934   1.000000
   66       -5.058916   1.000000
   67       -4.926586   1.000000
   68       -4.838067   1.000000
   69       -4.784895   1.000000
   70       -4.708271   1.000000
   71       -4.593312   1.000000
   72       -4.519925   1.000000
   73       -4.327627   1.000000
   74       -4.274433   1.000000
   75       -4.217556   1.000000
   76       -4.092425   1.000000
   77       -3.991506   0.999992
   78       -3.799475   0.998429
   79       -3.609206   0.946099
   80       -3.510205   0.818091
   81       -3.070335   0.013824
   82       -2.724600   0.000002
   83       -2.653810   0.000000
   84       -2.555962   0.000000
   85       -2.517579   0.000000
   86       -2.456750   0.000000
   87       -2.328104   0.000000
   88       -2.268610   0.000000
   89       -2.172101   0.000000
   90       -2.114530   0.000000
   91       -1.758077   0.000000
   92       -1.659175   0.000000
   93       -1.529592   0.000000
   94       -1.293671   0.000000
   95       -1.171055   0.000000
   96       -1.043180   0.000000
   97       -0.994639   0.000000
   98       -0.910971   0.000000
   99       -0.882084   0.000000
  100       -0.807522   0.000000
  101       -0.723667   0.000000
  102       -0.677149   0.000000
  103       -0.608380   0.000000
  104       -0.505711   0.000000
  105       -0.316259   0.000000
  106       -0.216046   0.000000
  107       -0.097010   0.000000
  108       -0.015848   0.000000
  109        0.096890   0.000000
  110        0.250675   0.000000
  111        0.389032   0.000000
  112        0.545805   0.000000
  113        0.574133   0.000000
  114        0.808519   0.000000
  115        1.001220   0.000000
  116        1.019110   0.000000
  117        1.243767   0.000000
  118        1.762012   0.000000
  119        1.950433   0.000000
  120        2.252583   0.000000
 
  0.2500000E+00  0.1250000E+00  0.0000000E+00  0.3125000E-01
    1      -17.642162   1.000000
    2      -17.073623   1.000000
    3      -16.864813   1.000000
    4      -16.649659   1.000000
    5      -16.491553   1.000000
    6      -16.392749   1.000000
    7      -16.297430   1.000000
    8      -16.246999   1.000000
    9      -16.095783   1.000000
   10      -15.982746   1.000000
   11      -15.925816   1.000000
   12      -15.875442   1.000000
   13      -15.749328   1.000000
   14      -15.706881   1.000000
   15      -15.655136   1.000000
   16      -15.541696   1.000000
   17      -15.423160   1.000000
   18      -15.356375   1.000000
   19       -9.605200   1.000000
   20       -9.397098   1.000000
   21       -9.249619   1.000000
   22       -9.060125   1.000000
   23       -8.815099   1.000000
   24       -8.663270   1.000000
   25       -8.582863   1.000000
   26       -8.480487   1.000000
   27       -8.404620   1.000000
   28       -8.363364   1.000000
   29       -8.270482   1.000000
   30       -8.238858   1.000000
   31       -8.148006   1.000000
   32       -8.088548   1.000000
   33       -7.973336   1.000000
   34       -7.894751   1.000000
   35       -7.807038   1.000000
   36       -7.628457   1.000000
   37       -7.520474   1.000000
   38       -7.425014   1.000000
   39       -7.356235   1.000000
   40       -7.270006   1.000000
   41       -7.191034   1.000000
   42       -7.158906   1.000000
   43       -7.114822   1.000000
   44       -7.052043   1.000000
   45       -6.945917   1.000000
   46       -6.843287   1.000000
   47       -6.740707   1.000000