unknown system                          
           1
     8.853396    5.103592    0.000000
    -8.855987    5.108049    0.000000
     0.000000    0.000000   30.000000
   V    Mo   W    S 
   3   3   3  18
Direct configuration=     1
   0.33333334  0.33333334  0.00000000
   0.33333334  0.00000000  0.00000000
   1.00000000  0.33333334  0.00000000
   0.66666669  0.00000000  0.00000000
   0.33333334  0.66666669  0.00000000
   0.00000000  0.66666669  0.00000000
   0.00000000  0.00000000  0.00000000
   0.66666669  0.33333334  0.00000000
   0.66666669  0.66666669  0.00000000
   0.11068511  0.22244981  0.95539999
   0.22244981  0.11068511  0.04460000
   0.11068511  0.55578315  0.95539999
   0.22244981  0.44401845  0.04460000
   0.11068511  0.88911647  0.95539999
   0.22244981  0.77735180  0.04460000
   0.44401845  0.22244981  0.95539999
   0.55578315  0.11068511  0.04460000
   0.44401845  0.55578315  0.95539999
   0.55578315  0.44401845  0.04460000
   0.44401845  0.88911647  0.95539999
   0.55578315  0.77735180  0.04460000
   0.77735180  0.22244981  0.95539999
   0.88911647  0.11068511  0.04460000
   0.77735180  0.55578315  0.95539999
   0.88911647  0.44401845  0.04460000
   0.77735180  0.88911647  0.95539999
   0.88911647  0.77735180  0.04460000
unknown system                          
           1
     8.665470    4.997446    0.000000
    -8.668026    5.001846    0.000000
     0.000000    0.000000   30.000000
   V    Mo   W    S 
   3   3   3  18
Direct configuration=     2
   0.33296794  0.33411339  0.00002357
   0.33343344 -0.00197124 -0.00016332
   1.00040367  0.33463351  0.00018749
   0.66535029 -0.00141983 -0.00014966
   0.33298698  0.66782496  0.00003212
   0.00139089  0.66661639  0.00011339
  -0.00077338 -0.00076375  0.00005149
   0.66767859  0.33267454 -0.00009015
   0.66646042  0.66821383 -0.00003326
   0.11253064  0.22561511  0.95313384
   0.22556841  0.11251776  0.04683479
   0.10888288  0.55098705  0.95194088
   0.22001592  0.43982181  0.04688253
   0.11523859  0.89159594  0.95192061
   0.22425242  0.78207467  0.04810454
   0.44084418  0.22054063  0.95313619
   0.55141871  0.10982937  0.04803480
   0.44319315  0.55147902  0.95196281
   0.55184313  0.44269304  0.04806096
   0.44193683  0.89134708  0.95192443
   0.55589202  0.77711584  0.04926478
   0.78161851  0.22472106  0.95193315
   0.89157933  0.11519604  0.04803836
   0.77679431  0.55502667  0.95082043
   0.89037223  0.44145291  0.04808925
   0.77799593  0.88832364  0.95065317
   0.88833842  0.77795500  0.04929275
unknown system                          
           1
     8.485513    4.899195    0.000000
    -8.486650    4.901139    0.000000
     0.000000    0.000000   30.000000
   V    Mo   W    S 
   3   3   3  18
Direct configuration=     3
   0.33296952  0.33437791  0.00003252
   0.33344160 -0.00261182 -0.00017994
   1.00045365  0.33510455  0.00021000
   0.66496246 -0.00220840 -0.00012998
   0.33315968  0.66842510  0.00003067
   0.00160170  0.66656805  0.00008918
  -0.00152606 -0.00150199  0.00010736
   0.66816439  0.33272510 -0.00014009
   0.66668332  0.66904998 -0.00003436
   0.11245076  0.22543133  0.95322191
   0.22538763  0.11243680  0.04670489
   0.10881782  0.55083520  0.95191403
   0.21993437  0.43975607  0.04686117
   0.11526391  0.89182124  0.95193717
   0.22435239  0.78223985  0.04819082
   0.44101950  0.22058367  0.95324204
   0.55140735  0.10999893  0.04799995
   0.44332947  0.55149586  0.95198632
   0.55201672  0.44274692  0.04796623
   0.44184231  0.89140606  0.95180308
   0.55599870  0.77698025  0.04934272
   0.78161345  0.22490405  0.95195205
   0.89177834  0.11517441  0.04797714
   0.77655367  0.55492588  0.95088418
   0.89021349  0.44128061  0.04815323
   0.77809046  0.88822575  0.95056683
   0.88823386  0.77804309  0.04931078
unknown system                          
           1
     8.267766    4.771546    0.000000
    -8.274268    4.782782    0.000000
     0.000000    0.000000   30.000000
   V    Mo   W    S 
   3   3   3  18
Direct configuration=     4
   0.33333368  0.33550072  0.00005116
   0.33356934 -0.00496917 -0.00016357
   1.00026147  0.33696035  0.00021010
   0.66366557 -0.00567049 -0.00001681
   0.33432923  0.67091240  0.00000379
   0.00173465  0.66611750 -0.00002687
  -0.00523587 -0.00501713  0.00026673
   0.67021689  0.33341637 -0.00026457
   0.66800741  0.67265435 -0.00003429
   0.11285294  0.22619965  0.95226276
   0.22628638  0.11289352  0.04751401
   0.10832687  0.54953477  0.95040242
   0.21934853  0.43893443  0.04808027
   0.11643512  0.89263394  0.95054921
   0.22510248  0.78363625  0.04995633
   0.44011142  0.21998306  0.95232566
   0.55030695  0.10953109  0.04928423
   0.44265761  0.55050347  0.95064545
   0.55133352  0.44229066  0.04903112
   0.44114144  0.89195216  0.94986936
   0.55585479  0.77681135  0.05127156
   0.78280157  0.22535625  0.95058966
   0.89237179  0.11622306  0.04918143
   0.77634203  0.55496507  0.94955064
   0.89080029  0.44071306  0.04989260
   0.77810396  0.88831749  0.94854222
   0.88815442  0.77783024  0.05102531
unknown system                          
           1
     8.258053    4.767595    0.000000
    -8.270356    4.788885    0.000000
     0.000000    0.000000   30.000000
   V    Mo   W    S 
   3   3   3  18
Direct configuration=     5
   0.33405556  0.33744921  0.00006811
   0.33398302 -0.00906737  0.00003767
   1.00019540  0.34139733  0.00003449
   0.66119247 -0.01348369  0.00010914
   0.33696921  0.67568078 -0.00006537
   0.00159435  0.66485775 -0.00016796
  -0.01288635 -0.01198477  0.00038167
   0.67421628  0.33501632 -0.00034688
   0.67075535  0.68041810 -0.00001049
   0.11274721  0.22645382  0.95116150
   0.22662573  0.11272897  0.04841029
   0.10849470  0.54872499  0.94830979
   0.21893976  0.43905626  0.04990543
   0.11744242  0.89318473  0.94871790
   0.22572187  0.78487297  0.05238272
   0.43932364  0.21911925  0.95107816
   0.54950589  0.10878634  0.05080492
   0.44211143  0.55027651  0.94885223
   0.55115572  0.44245289  0.05030369
   0.44067592  0.89237134  0.94699259
   0.55496497  0.77643561  0.05416873
   0.78401709  0.22489628  0.94890643
   0.89234258  0.11696937  0.05074795
   0.77635494  0.55549679  0.94783728
   0.89195693  0.44061499  0.05242821
   0.77781852  0.88870037  0.94540950
   0.88793985  0.77678931  0.05354221
unknown system                          
           1
     8.255888    4.765349    0.000000
    -8.269739    4.789318    0.000000
     0.000000    0.000000   30.000000
   V    Mo   W    S 
   3   3   3  18
Direct configuration=     6
   0.33418810  0.33797532  0.00007612
   0.33412369 -0.01009281  0.00002016
   1.00107936  0.34393721  0.00001861
   0.66066426 -0.01552113  0.00001302
   0.33747679  0.67625607 -0.00002533
   0.00130400  0.66415795 -0.00012203
  -0.01481808 -0.01367406  0.00034821
   0.67542891  0.33596592 -0.00037586
   0.67107339  0.68192609  0.00013385
   0.11207125  0.22580386  0.95133506
   0.22566782  0.11184795  0.04820774
   0.10918374  0.54955945  0.94809099
   0.21907011  0.43986937  0.04998678
   0.11698054  0.89288803  0.94869843
   0.22554545  0.78455088  0.05256545
   0.43971973  0.21902054  0.95117164
   0.55024407  0.10858313  0.05071038
   0.44269107  0.55132171  0.94878037
   0.55205246  0.44340984  0.05020157
   0.44104040  0.89228342  0.94670420
   0.55440564  0.77596024  0.05460458
   0.78371277  0.22399366  0.94902274
   0.89166687  0.11628487  0.05062430
   0.77623799  0.55602634  0.94782995
   0.89232645  0.44104846  0.05271759
   0.77746365  0.88881261  0.94479729
   0.88761402  0.77601953  0.05386409
unknown system                          
           1
     8.258460    4.766425    0.000000
    -8.275607    4.796102    0.000000
     0.000000    0.000000   30.000000
   V    Mo   W    S 
   3   3   3  18
Direct configuration=     7
   0.33429987  0.33868413  0.00002408
   0.33438852 -0.01144034  0.00002861
   1.00260190  0.34754447 -0.00002999
   0.65963186 -0.01856574 -0.00002335
   0.33808814  0.67694162  0.00000737
   0.00090545  0.66312625 -0.00008062
  -0.01761149 -0.01627853  0.00032349
   0.67719548  0.33746804 -0.00044831
   0.67156401  0.68415543  0.00019339
   0.11139309  0.22523677  0.95166537
   0.22470192  0.11097386  0.04783805
   0.10983058  0.55042162  0.94788135
   0.21915357  0.44059941  0.05005908
   0.11651714  0.89250252  0.94875186
   0.22538146  0.78434070  0.05267878
   0.44015634  0.21895052  0.95141932
   0.55105116  0.10849355  0.05044410
   0.44326612  0.55223547  0.94878892
   0.55286603  0.44426246  0.05007885
   0.44125939  0.89204737  0.94644948
   0.55383731  0.77554798  0.05499190
   0.78361569  0.22325359  0.94930773
   0.89102995  0.11578146  0.05031086
   0.77606198  0.55653406  0.94791094
   0.89271826  0.44151102  0.05302764
   0.77699012  0.88854444  0.94429340
   0.88732058  0.77534231  0.05410758
unknown system                          
           1
     8.258948    4.765434    0.000000
    -8.281162    4.803882    0.000000
     0.000000    0.000000   30.000000
   V    Mo   W    S 
   3   3   3  18
Direct configuration=     8
   0.33436085  0.33913506  0.00000441
   0.33451885 -0.01221036  0.00003276
   1.00360250  0.34958607 -0.00003965
   0.65897762 -0.02010111 -0.00006258
   0.33827745  0.67715271  0.00003602
   0.00071456  0.66254666 -0.00006712
  -0.01892919 -0.01762797  0.00031043
   0.67824023  0.33846932 -0.00047849
   0.67165050  0.68497968  0.00028261
   0.11108883  0.22504039  0.95184976
   0.22427688  0.11058599  0.04761573
   0.11012356  0.55085907  0.94774205
   0.21916867  0.44084614  0.05011763
   0.11634335  0.89237892  0.94877722
   0.22531141  0.78427225  0.05274157
   0.44035675  0.21894372  0.95156936
   0.55140695  0.10845660  0.05029125
   0.44350046  0.55257813  0.94876998
   0.55314340  0.44455843  0.05002146
   0.44133464  0.89194100  0.94631173
   0.55351939  0.77525108  0.05520044
   0.78367376  0.22297351  0.94949053
   0.89078274  0.11565904  0.05010886
   0.77598544  0.55682410  0.94792537
   0.89290517  0.44170720  0.05320123
   0.77675181  0.88844507  0.94401605
   0.88712785  0.77496374  0.05423129
unknown system                          
           1
     8.260641    4.766605    0.000000
    -8.282418    4.804296    0.000000
     0.000000    0.000000   30.000000
   V    Mo   W    S 
   3   3   3  18
Direct configuration=     9
   0.33449553  0.34012897 -0.00005161
   0.33469852 -0.01368094  0.00003762
   1.00548308  0.35302494 -0.00003630
   0.65772545 -0.02258638 -0.00013302
   0.33844468  0.67731361  0.00007867
   0.00043819  0.66156840 -0.00006086
  -0.02096058 -0.01988337  0.00027840
   0.68016580  0.34051762 -0.00054791
   0.67159172  0.68595388  0.00040638
   0.11060066  0.22477048  0.95221596
   0.22364804  0.11003516  0.04717655
   0.11056083  0.55158598  0.94752696
   0.21919145  0.44115608  0.05022061
   0.11609613  0.89224624  0.94885634
   0.22519648  0.78418287  0.05280714
   0.44073363  0.21900883  0.95189805
   0.55195817  0.10848181  0.04996569
   0.44382060  0.55299398  0.94877106
   0.55342593  0.44484768  0.04993361
   0.44137614  0.89170452  0.94613622
   0.55297479  0.77473851  0.05547427
   0.78387795  0.22266070  0.94989640
   0.89046426  0.11557343  0.04966127
   0.77588780  0.55728441  0.94797296
   0.89318699  0.44203672  0.05344780
   0.77630961  0.88815650  0.94369694
   0.88682260  0.77439380  0.05437071
unknown system                          
           1
     8.261897    4.767317    0.000000
    -8.283570    4.804829    0.000000
     0.000000    0.000000   30.000000
   V    Mo   W    S 
   3   3   3  18
Direct configuration=    10
   0.33449473  0.34006159 -0.00004366
   0.33465683 -0.01352834  0.00003663
   1.00526440  0.35256156 -0.00003103
   0.65787034 -0.02222628 -0.00012545
   0.33839196  0.67724880  0.00007574
   0.00048823  0.66170972 -0.00006291
  -0.02064283 -0.01957669  0.00028213
   0.67993841  0.34032522 -0.00053636
   0.67154440  0.68571078  0.00040017
   0.11066797  0.22481986  0.95216964
   0.22375232  0.11012561  0.04722670
   0.11050073  0.55149544  0.94754847
   0.21919024  0.44109755  0.05021632
   0.11614734  0.89228143  0.94884255
   0.22521085  0.78419588  0.05280017
   0.44068225  0.21900659  0.95186183
   0.55187211  0.10848500  0.05000317
   0.44375802  0.55290965  0.94876138
   0.55334887  0.44476798  0.04995451
   0.44135581  0.89173115  0.94615796
   0.55303867  0.77479239  0.05543478
   0.78387161  0.22271751  0.94985106
   0.89052458  0.11561839  0.04971090
   0.77591581  0.55723551  0.94795430
   0.89315123  0.44199445  0.05341781
   0.77636024  0.88818912  0.94374288
   0.88685937  0.77446458  0.05435019
unknown system                          
           1
     8.267851    4.770152    0.000000
    -8.290996    4.810208    0.000000
     0.000000    0.000000   30.000000
   V    Mo   W    S 
   3   3   3  18
Direct configuration=    11
   0.33451935  0.34012483 -0.00004546
   0.33464319 -0.01361495  0.00003691
   1.00530464  0.35261423 -0.00002958
   0.65781028 -0.02227498 -0.00012578
   0.33837484  0.67725722  0.00007538
   0.00049936  0.66171218 -0.00006428
  -0.02065549 -0.01962816  0.00028252
   0.67999620  0.34041933 -0.00053980
   0.67152870  0.68567736  0.00039999
   0.11064740  0.22481092  0.95218060
   0.22374802  0.11011330  0.04721043
   0.11050804  0.55151019  0.94754642
   0.21919659  0.44110432  0.05022143
   0.11615357  0.89228654  0.94884741
   0.22521522  0.78420069  0.05279568
   0.44069550  0.21900396  0.95187709
   0.55187081  0.10849168  0.04998607
   0.44375996  0.55291576  0.94876226
   0.55334218  0.44476165  0.04995918
   0.44134298  0.89171975  0.94616119
   0.55302925  0.77478215  0.05543117
   0.78388163  0.22272320  0.94986929
   0.89052683  0.11562311  0.04969017
   0.77592453  0.55725069  0.94795437
   0.89315783  0.44200610  0.05341975
   0.77634274  0.88816531  0.94375247
   0.88685031  0.77445810  0.05434503
unknown system                          
           1
     8.264543    4.767745    0.000000
    -8.289565    4.811050    0.000000
     0.000000    0.000000   30.000000
   V    Mo   W    S 
   3   3   3  18
Direct configuration=    12
   0.33470851  0.34092033 -0.00007837
   0.33462138 -0.01462358  0.00003924
   1.00623227  0.35415257 -0.00001255
   0.65707080 -0.02342813 -0.00015279
   0.33835015  0.67728370  0.00009440
   0.00044449  0.66134453 -0.00006851
  -0.02147916 -0.02073958  0.00026860
   0.68104940  0.34175376 -0.00057861
   0.67136680  0.68579143  0.00045380
   0.11036710  0.22467268  0.95237066
   0.22350823  0.10987465  0.04696298
   0.11071641  0.55187114  0.94743953
   0.21923739  0.44125030  0.05030430
   0.11610109  0.89227515  0.94888362
   0.22517369  0.78416817  0.05281818
   0.44090588  0.21903441  0.95207762
   0.55207926  0.10854649  0.04978521
   0.44386164  0.55306907  0.94874472
   0.55337115  0.44478701  0.04996642
   0.44128744  0.89156166  0.94609099
   0.55275629  0.77452860  0.05552298
   0.78402382  0.22262605  0.95010978
   0.89042545  0.11564973  0.04942148
   0.77595334  0.55751339  0.94794677
   0.89330886  0.44220148  0.05353432
   0.77607241  0.88792861  0.94367086
   0.88670037  0.77420085  0.05438426
unknown system                          
           1
     8.264327    4.766896    0.000000
    -8.291433    4.813808    0.000000
     0.000000    0.000000   30.000000
   V    Mo   W    S 
   3   3   3  18
Direct configuration=    13
   0.33479668  0.34138346 -0.00009798
   0.33463280 -0.01512374  0.00003904
   1.00681630  0.35516826 -0.00000142
   0.65673701 -0.02418052 -0.00017395
   0.33841143  0.67725749  0.00011381
   0.00034351  0.66104140 -0.00006823
  -0.02211187 -0.02144709  0.00025448
   0.68168427  0.34252025 -0.00059493
   0.67128404  0.68598993  0.00050333
   0.11023191  0.22459106  0.95248616
   0.22333724  0.10974217  0.04681957
   0.11085311  0.55210504  0.94736447
   0.21924843  0.44134141  0.05035162
   0.11603630  0.89225282  0.94888917
   0.22511263  0.78410529  0.05286105
   0.44103566  0.21908529  0.95218849
   0.55225707  0.10857871  0.04968566
   0.44392485  0.55316214  0.94872214
   0.55340825  0.44480610  0.04995640
   0.44129815  0.89147633  0.94601731
   0.55257105  0.77435891  0.05560476
   0.78408197  0.22252412  0.95023706
   0.89032988  0.11564269  0.04928411
   0.77596020  0.55766884  0.94793405
   0.89339934  0.44231842  0.05361547
   0.77592046  0.88783188  0.94357228
   0.88661379  0.77401381  0.05443599
unknown system                          
           1
     8.261988    4.765996    0.000000
    -8.287822    4.810707    0.000000
     0.000000    0.000000   30.000000
   V    Mo   W    S 
   3   3   3  18
Direct configuration=    14
   0.33510384  0.34242771 -0.00012740
   0.33452104 -0.01624582  0.00003780
   1.00769797  0.35653072  0.00002312
   0.65606260 -0.02527818 -0.00020821
   0.33842218  0.67724458  0.00013641
   0.00031333  0.66077651 -0.00008004
  -0.02290899 -0.02254912  0.00023518
   0.68271558  0.34401330 -0.00062758
   0.67102014  0.68591407  0.00057175
   0.10999080  0.22444812  0.95268646
   0.22312837  0.10955318  0.04654848
   0.11106833  0.55248491  0.94725493
   0.21931931  0.44148613  0.05044827
   0.11600552  0.89226793  0.94890584
   0.22504987  0.78403610  0.05290867
   0.44126358  0.21915875  0.95241265
   0.55246855  0.10865991  0.04947394
   0.44398002  0.55327143  0.94867891
   0.55337494  0.44473940  0.04998221
   0.44124500  0.89131157  0.94593024
   0.55228398  0.77407973  0.05569518
   0.78418170  0.22242095  0.95048639
   0.89022386  0.11565783  0.04902071
   0.77604693  0.55795035  0.94789635
   0.89353745  0.44253156  0.05373241
   0.77563864  0.88759006  0.94349243
   0.88645991  0.77373277  0.05448479
unknown system                          
           1
     8.271756    4.770519    0.000000
    -8.300818    4.820816    0.000000
     0.000000    0.000000   30.000000
   V    Mo   W    S 
   3   3   3  18
Direct configuration=    15
   0.33457650  0.34104696 -0.00011453
   0.33480376 -0.01491793  0.00004401
   1.00700497  0.35558634 -0.00001103
   0.65669062 -0.02436979 -0.00017556
   0.33841735  0.67722363  0.00011516
   0.00023201  0.66076300 -0.00006464
  -0.02231419 -0.02155527  0.00025443
   0.68182640  0.34238887 -0.00061086
   0.67138397  0.68634424  0.00051405
   0.11018730  0.22460827  0.95250816
   0.22323713  0.10967501  0.04682375
   0.11088476  0.55216319  0.94734238
   0.21920184  0.44135855  0.05033658
   0.11594728  0.89220093  0.94891620
   0.22509250  0.78410672  0.05284974
   0.44107238  0.21911115  0.95218055
   0.55234225  0.10855922  0.04969820
   0.44400026  0.55322425  0.94875915
   0.55349948  0.44491775  0.04989461
   0.44134293  0.89147085  0.94601381
   0.55253074  0.77433586  0.05563223
   0.78415758  0.22250732  0.95024832
   0.89029549  0.11564208  0.04925236
   0.77586531  0.55764394  0.94798431
   0.89342259  0.44231999  0.05363873
   0.77591389  0.88787548  0.94352612
   0.88659938  0.77398382  0.05444366
unknown system                          
           1
     8.270212    4.769407    0.000000
    -8.299853    4.820706    0.000000
     0.000000    0.000000   30.000000
   V    Mo   W    S 
   3   3   3  18
Direct configuration=    16
   0.33528151  0.34336661 -0.00015517
   0.33445080 -0.01717789  0.00003501
   1.00858828  0.35792901  0.00004704
   0.65546787 -0.02624949 -0.00024940
   0.33836354  0.67708947  0.00015303
   0.00032042  0.66042177 -0.00008913
  -0.02364129 -0.02354167  0.00021026
   0.68372376  0.34533468 -0.00064925
   0.67070820  0.68583528  0.00063738
   0.10975141  0.22434991  0.95286013
   0.22292987  0.10939229  0.04631712
   0.11128187  0.55284079  0.94713099
   0.21935104  0.44160946  0.05055357
   0.11596452  0.89226431  0.94890472
   0.22497271  0.78395740  0.05297322
   0.44143907  0.21921862  0.95259498
   0.55269167  0.10870375  0.04931124
   0.44404058  0.55336544  0.94861652
   0.55332787  0.44469252  0.05001145
   0.44120341  0.89115529  0.94582715
   0.55198465  0.77380631  0.05583025
   0.78434465  0.22229562  0.95069475
   0.89014562  0.11576463  0.04880115
   0.77611105  0.55825302  0.94783481
   0.89372060  0.44272330  0.05387285
   0.77535832  0.88736588  0.94336082
   0.88633244  0.77344815  0.05456439
unknown system                          
           1
     8.268245    4.767442    0.000000
    -8.299801    4.822053    0.000000
     0.000000    0.000000   30.000000
   V    Mo   W    S 
   3   3   3  18
Direct configuration=    17
   0.33532523  0.34374629 -0.00016413
   0.33442070 -0.01747174  0.00003155
   1.00889961  0.35844949  0.00006066
   0.65528092 -0.02660579 -0.00026044
   0.33831288  0.67697467  0.00016091
   0.00034137  0.66024210 -0.00009481
  -0.02390473 -0.02388476  0.00020403
   0.68411378  0.34580670 -0.00066019
   0.67057058  0.68581988  0.00066309
   0.10966438  0.22432346  0.95293405
   0.22285958  0.10934911  0.04622609
   0.11134037  0.55294022  0.94710891
   0.21934455  0.44164745  0.05057677
   0.11593636  0.89225921  0.94891701
   0.22493908  0.78390319  0.05298263
   0.44151439  0.21925874  0.95267417
   0.55277263  0.10872594  0.04924394
   0.44405950  0.55340026  0.94860226
   0.55330348  0.44465632  0.05000908
   0.44119011  0.89108787  0.94580803
   0.55189608  0.77372232  0.05584935
   0.78441137  0.22228370  0.95078554
   0.89013304  0.11580568  0.04870653
   0.77614996  0.55835247  0.94782874
   0.89379557  0.44278349  0.05389889
   0.77525682  0.88726846  0.94334332
   0.88628686  0.77336973  0.05456391
unknown system                          
           1
     8.268421    4.767443    0.000000
    -8.299821    4.821782    0.000000
     0.000000    0.000000   30.000000
   V    Mo   W    S 
   3   3   3  18
Direct configuration=    18
   0.33595259  0.34572322 -0.00018674
   0.33403321 -0.01913820  0.00001777
   1.00987087  0.35995856  0.00010553
   0.65453694 -0.02792569 -0.00030563
   0.33824489  0.67679655  0.00018989
   0.00043363  0.65999226 -0.00011973
  -0.02483385 -0.02527302  0.00017652
   0.68550865  0.34804777 -0.00069537
   0.67001986  0.68534398  0.00074651
   0.10935649  0.22411687  0.95320640
   0.22265912  0.10919759  0.04583948
   0.11158438  0.55335063  0.94699996
   0.21943174  0.44182322  0.05073150
   0.11594752  0.89231489  0.94890292
   0.22484322  0.78372656  0.05307001
   0.44181074  0.21937822  0.95300649
   0.55302428  0.10886926  0.04894013
   0.44407048  0.55351121  0.94847708
   0.55315273  0.44442256  0.05011483
   0.44111035  0.89084017  0.94569411
   0.55155938  0.77338111  0.05593720
   0.78450016  0.22218168  0.95113481
   0.89003762  0.11585740  0.04837310
   0.77640911  0.55878676  0.94772201
   0.89401848  0.44306934  0.05403088
   0.77484674  0.88683909  0.94328336
   0.88608515  0.77302248  0.05460688
unknown system                          
           1
     8.264673    4.766544    0.000000
    -8.293780    4.816924    0.000000
     0.000000    0.000000   30.000000
   V    Mo   W    S 
   3   3   3  18
Direct configuration=    19
   0.33578220  0.34528802 -0.00018800
   0.33415857 -0.01885081  0.00002404
   1.00975153  0.35972664  0.00009700
   0.65460919 -0.02770590 -0.00029538
   0.33826893  0.67687586  0.00018404
   0.00044912  0.66004574 -0.00011502
  -0.02468351 -0.02502266  0.00018623
   0.68525005  0.34756623 -0.00069720
   0.67011413  0.68548811  0.00073387
   0.10940903  0.22416889  0.95315543
   0.22269327  0.10921073  0.04590888
   0.11154998  0.55329567  0.94701451
   0.21941989  0.44178805  0.05069618
   0.11595442  0.89230191  0.94892042
   0.22487509  0.78379595  0.05303773
   0.44175033  0.21934370  0.95294585
   0.55296596  0.10882462  0.04899903
   0.44407292  0.55347638  0.94851714
   0.55318252  0.44448047  0.05007581
   0.44110881  0.89089313  0.94572647
   0.55160968  0.77344548  0.05592189
   0.78450742  0.22219840  0.95106764
   0.89005818  0.11585997  0.04842658
   0.77633023  0.55868496  0.94776252
   0.89397292  0.44301349  0.05400632
   0.77492604  0.88693552  0.94329363
   0.88612755  0.77308591  0.05459425
unknown system                          
           1
     8.263967    4.767188    0.000000
    -8.293151    4.817715    0.000000
     0.000000    0.000000   30.000000
   V    Mo   W    S 
   3   3   3  18
Direct configuration=    20
   0.33334559  0.33905762 -0.00022222
   0.33632233 -0.01534579  0.00012533
   1.00861851  0.35639952 -0.00003755
   0.65529845 -0.02511510 -0.00015220
   0.33934273  0.67867200  0.00010581
   0.00059211  0.66126105 -0.00007883
  -0.02335675 -0.02216942  0.00036155
   0.68185786  0.34110102 -0.00079785
   0.67138086  0.68819116  0.00057398
   0.11010742  0.22481059  0.95243999
   0.22314403  0.10912286  0.04672029
   0.11143063  0.55314050  0.94708329
   0.21963512  0.44152300  0.05026567
   0.11628403  0.89227009  0.94926767
   0.22532206  0.78493926  0.05267178
   0.44088169  0.21869091  0.95216710
   0.55214218  0.10811842  0.04983397
   0.44405431  0.55290611  0.94910862
   0.55358143  0.44521422  0.04940262
   0.44089440  0.89164420  0.94601759
   0.55197028  0.77417002  0.05584573
   0.78457937  0.22218340  0.95020952
   0.89008058  0.11579081  0.04903211
   0.77507306  0.55730276  0.94844970
   0.89321033  0.44236401  0.05369564
   0.77576547  0.88829863  0.94344000
   0.88665635  0.77367259  0.05447058
unknown system                          
           1
     8.267079    4.769998    0.000000
    -8.299867    4.826779    0.000000
     0.000000    0.000000   30.000000
   V    Mo   W    S 
   3   3   3  18
Direct configuration=    21
   0.33100093  0.33390210 -0.00021255
   0.33817508 -0.01227760  0.00018799
   1.00800489  0.35481350 -0.00012361
   0.65589465 -0.02306183 -0.00007166
   0.33974672  0.67951896  0.00004808
   0.00051936  0.66149693 -0.00004504
  -0.02233678 -0.02004571  0.00045167
   0.67967883  0.33600632 -0.00079795
   0.67251867  0.69032293  0.00051488
   0.11048291  0.22517854  0.95191062
   0.22329899  0.10893192  0.04732755
   0.11129895  0.55295107  0.94722827
   0.21973017  0.44142562  0.04993069
   0.11632693  0.89234499  0.94949279
   0.22551694  0.78550390  0.05250355
   0.44032813  0.21820262  0.95156917
   0.55170706  0.10770586  0.05048184
   0.44418267  0.55273474  0.94952040
   0.55398296  0.44583332  0.04888152
   0.44092366  0.89216041  0.94610535
   0.55223866  0.77468107  0.05584002
   0.78475706  0.22224727  0.94961810
   0.89009751  0.11582037  0.04943323
   0.77415200  0.55650826  0.94891886
   0.89278578  0.44190696  0.05338198
   0.77631862  0.88932225  0.94349866
   0.88688311  0.77407968  0.05440547
unknown system                          
           1
     8.271005    4.771440    0.000000
    -8.303711    4.828069    0.000000
     0.000000    0.000000   30.000000
   V    Mo   W    S 
   3   3   3  18
Direct configuration=    22
   0.33053632  0.33562989 -0.00013240
   0.33803992 -0.01356236 -0.00003129
   1.00990526  0.35864184  0.00006352
   0.65482511 -0.02509800 -0.00022880
   0.33892815  0.67860116  0.00009442
   0.00040273  0.66000956 -0.00014123
  -0.02359002 -0.02219579  0.00025357
   0.68210558  0.33926286 -0.00064173
   0.67198039  0.68953076  0.00070502
   0.10980966  0.22471030  0.95237981
   0.22276383  0.10871799  0.04678060
   0.11167116  0.55348649  0.94713114
   0.21963177  0.44184191  0.05017575
   0.11591947  0.89246999  0.94942036
   0.22497937  0.78441624  0.05281358
   0.44107988  0.21849728  0.95215067
   0.55257371  0.10830767  0.05001450
   0.44451048  0.55337781  0.94931860
   0.55391182  0.44537697  0.04892793
   0.44110648  0.89157440  0.94578955
   0.55183365  0.77415398  0.05597835
   0.78508599  0.22228516  0.95024250
   0.89013579  0.11619613  0.04881063
   0.77471409  0.55759136  0.94865110
   0.89353291  0.44237699  0.05363837
   0.77543970  0.88844220  0.94331329
   0.88638123  0.77357165  0.05452212
unknown system                          
           1
     8.276299    4.772712    0.000000
    -8.312953    4.836160    0.000000
     0.000000    0.000000   30.000000
   V    Mo   W    S 
   3   3   3  18
Direct configuration=    23
   0.32885205  0.33368286 -0.00016768
   0.33897447 -0.01290411 -0.00001947
   1.01048705  0.35943855  0.00008592
   0.65447609 -0.02515909 -0.00022506
   0.33895996  0.67883537  0.00010085
   0.00026580  0.65952355 -0.00009604
  -0.02391413 -0.02233525  0.00026991
   0.68240203  0.33843942 -0.00066653
   0.67232570  0.69058428  0.00071254
   0.10960739  0.22478800  0.95230206
   0.22261012  0.10840553  0.04684159
   0.11186251  0.55373662  0.94705082
   0.21974886  0.44205948  0.05018833
   0.11583234  0.89251728  0.94950247
   0.22495279  0.78449873  0.05275452
   0.44117574  0.21843103  0.95211997
   0.55264075  0.10821613  0.05013564
   0.44467362  0.55340739  0.94950508
   0.55401365  0.44551054  0.04869754
   0.44109715  0.89151128  0.94571294
   0.55169867  0.77419577  0.05601827
   0.78552379  0.22237862  0.95024028
   0.89017949  0.11643117  0.04865511
   0.77443217  0.55749966  0.94882888
   0.89370843  0.44249955  0.05367380
   0.77523439  0.88846009  0.94328201
   0.88639358  0.77356201  0.05449616
unknown system                          
           1
     8.284625    4.777692    0.000000
    -8.322914    4.843974    0.000000
     0.000000    0.000000   30.000000
   V    Mo   W    S 
   3   3   3  18
Direct configuration=    24
   0.32610689  0.33191106 -0.00022287
   0.33999194 -0.01314056 -0.00007922
   1.01212061  0.36199158  0.00018680
   0.65342628 -0.02628318 -0.00030022
   0.33877819  0.67884684  0.00009875
   0.00002913  0.65835515 -0.00013328
  -0.02488100 -0.02354885  0.00019248
   0.68434455  0.33956849 -0.00064846
   0.67228707  0.69135168  0.00086144
   0.10895379  0.22480943  0.95236787
   0.22220902  0.10778422  0.04667050
   0.11236084  0.55450159  0.94684264
   0.22002191  0.44260006  0.05039051
   0.11560727  0.89256564  0.94961105
   0.22482090  0.78438970  0.05275192
   0.44172239  0.21862133  0.95239289
   0.55303291  0.10825449  0.05005291
   0.44492884  0.55351891  0.94971035
   0.55394092  0.44543757  0.04840111
   0.44103512  0.89112851  0.94553221