unknown system                          
           1
     8.860424    5.104261    0.000000
    -8.861772    5.106580    0.000000
     0.000000    0.000000   30.000000
   V    Mo   W    S 
   3   3   3  18
Direct configuration=     1
   0.66666669  0.33333334  0.00000000
   1.00000000  0.33333334  0.00000000
   0.66666669  0.00000000  0.00000000
   0.33333334  0.00000000  0.00000000
   0.66666669  0.66666669  0.00000000
   0.00000000  0.00000000  0.00000000
   0.00000000  0.66666669  0.00000000
   0.33333334  0.33333334  0.00000000
   0.33333334  0.66666669  0.00000000
   0.11068511  0.22244981  0.95539999
   0.22244981  0.11068511  0.04460000
   0.11068511  0.55578315  0.95539999
   0.22244981  0.44401845  0.04460000
   0.11068511  0.88911647  0.95539999
   0.22244981  0.77735180  0.04460000
   0.44401845  0.22244981  0.95539999
   0.55578315  0.11068511  0.04460000
   0.44401845  0.55578315  0.95539999
   0.55578315  0.44401845  0.04460000
   0.44401845  0.88911647  0.95539999
   0.55578315  0.77735180  0.04460000
   0.77735180  0.22244981  0.95539999
   0.88911647  0.11068511  0.04460000
   0.77735180  0.55578315  0.95539999
   0.88911647  0.44401845  0.04460000
   0.77735180  0.88911647  0.95539999
   0.88911647  0.77735180  0.04460000
unknown system                          
           1
     8.670198    4.997275    0.000000
    -8.671518    4.999549    0.000000
     0.000000    0.000000   30.000000
   V    Mo   W    S 
   3   3   3  18
Direct configuration=     2
   0.66597964  0.33282291  0.00000961
   0.99916341  0.33174167 -0.00001935
   0.66715392 -0.00019366  0.00001238
   0.33217581  0.00004827 -0.00005553
   0.66804313  0.66810443  0.00009231
  -0.00017584 -0.00130624 -0.00014678
  -0.00055347  0.66906448 -0.00017061
   0.33336152  0.33167226  0.00017326
   0.33501965  0.66840375  0.00015456
   0.10946125  0.22488780  0.95202590
   0.22265328  0.11219351  0.04921983
   0.10920396  0.55177519  0.95198546
   0.21855609  0.44265376  0.04808449
   0.11049797  0.88776792  0.95062910
   0.22174966  0.77671272  0.04923074
   0.44837790  0.22469123  0.95189063
   0.55991747  0.11301061  0.04683511
   0.44354574  0.55496941  0.95082884
   0.55681586  0.44150213  0.04800211
   0.44830108  0.89005985  0.95192539
   0.55660196  0.78154951  0.04811906
   0.77754432  0.22226234  0.95415155
   0.88654900  0.11317830  0.04691957
   0.77657489  0.55143400  0.95196518
   0.88724133  0.44076547  0.04681697
   0.77539677  0.89129861  0.95201013
   0.88905819  0.77714424  0.04930999
unknown system                          
           1
     8.486330    4.897784    0.000000
    -8.487614    4.899997    0.000000
     0.000000    0.000000   30.000000
   V    Mo   W    S 
   3   3   3  18
Direct configuration=     3
   0.66567638  0.33270483  0.00006329
   0.99908577  0.33138925 -0.00001248
   0.66716662 -0.00043576  0.00002188
   0.33126877 -0.00019160 -0.00002526
   0.66847631  0.66857040  0.00005693
   0.00005170 -0.00209076 -0.00017030
  -0.00046111  0.67028041 -0.00019570
   0.33335858  0.33122145  0.00019027
   0.33555327  0.66883207  0.00011589
   0.10964809  0.22500914  0.95204444
   0.22276174  0.11242557  0.04929696
   0.10925590  0.55196162  0.95213486
   0.21873956  0.44270695  0.04800794
   0.11035223  0.88753629  0.95045460
   0.22162363  0.77644617  0.04922004
   0.44835677  0.22485883  0.95187239
   0.56001019  0.11308829  0.04674256
   0.44329507  0.55485917  0.95091827
   0.55662294  0.44134577  0.04799710
   0.44829864  0.88992154  0.95195066
   0.55646811  0.78157172  0.04817122
   0.77753893  0.22222124  0.95423126
   0.88648867  0.11319595  0.04685974
   0.77675573  0.55145365  0.95198610
   0.88728598  0.44093533  0.04667355
   0.77535650  0.89138343  0.95196426
   0.88917949  0.77701350  0.04942942
unknown system                          
           1
     8.280911    4.772718    0.000000
    -8.285867    4.781291    0.000000
     0.000000    0.000000   30.000000
   V    Mo   W    S 
   3   3   3  18
Direct configuration=     4
   0.66426807  0.33258193  0.00026535
   0.99950940  0.33055392  0.00003488
   0.66673371 -0.00209140  0.00006640
   0.32693535 -0.00150813  0.00008078
   0.66988804  0.67019669 -0.00008190
   0.00153693 -0.00546012 -0.00018562
   0.00039805  0.67543985 -0.00019566
   0.33328319  0.32982002  0.00015929
   0.33741123  0.67003123 -0.00008522
   0.10917576  0.22532561  0.95067183
   0.22256735  0.11239108  0.05124103
   0.10866689  0.55126753  0.95126906
   0.21797037  0.44222016  0.04920882
   0.11028442  0.88758527  0.94803953
   0.22136799  0.77609155  0.05080675
   0.44944149  0.22535199  0.95031871
   0.56100458  0.11364985  0.04768738
   0.44308655  0.55467298  0.94966212
   0.55717201  0.44092032  0.04944293
   0.44950343  0.89081571  0.95058248
   0.55731421  0.78293654  0.04989580
   0.77747088  0.22204941  0.95328904
   0.88596893  0.11351064  0.04793231
   0.77626279  0.55032253  0.95058590
   0.88684816  0.44030097  0.04742506
   0.77493066  0.89223642  0.95033861
   0.88921401  0.77700190  0.05154427
unknown system                          
           1
     8.289574    4.773021    0.000000
    -8.295723    4.783657    0.000000
     0.000000    0.000000   30.000000
   V    Mo   W    S 
   3   3   3  18
Direct configuration=     5
   0.66179658  0.33242403  0.00054379
   1.00048058  0.32902925  0.00016144
   0.66583331 -0.00553193  0.00015904
   0.31785517 -0.00410748  0.00015346
   0.67210994  0.67325465 -0.00027464
   0.00510752 -0.01161501 -0.00007797
   0.00215860  0.68517519 -0.00010683
   0.33279999  0.32721481 -0.00000544
   0.34120204  0.67179484 -0.00039038
   0.10841235  0.22453285  0.94894689
   0.22170092  0.11184616  0.05392538
   0.10788110  0.55117030  0.95039642
   0.21746439  0.44185728  0.05077453
   0.11045878  0.88812890  0.94425319
   0.22089995  0.77594744  0.05277557
   0.45026599  0.22503532  0.94835109
   0.56077590  0.11348769  0.04886340
   0.44354431  0.55438819  0.94813253
   0.55784184  0.44098958  0.05131801
   0.45076634  0.89265198  0.94893724
   0.55868615  0.78462702  0.05225854
   0.77719001  0.22161924  0.95184049
   0.88576883  0.11297537  0.04933999
   0.77618229  0.54969660  0.94884295
   0.88676448  0.44078085  0.04822036
   0.77536047  0.89349855  0.94816697
   0.88890663  0.77734279  0.05449386
unknown system                          
           1
     8.279429    4.767354    0.000000
    -8.284498    4.776112    0.000000
     0.000000    0.000000   30.000000
   V    Mo   W    S 
   3   3   3  18
Direct configuration=     6
   0.66139068  0.33228706  0.00056836
   1.00035290  0.32816245  0.00016354
   0.66596385 -0.00633620  0.00011019
   0.31675382 -0.00399835  0.00004458
   0.67197725  0.67395053 -0.00024397
   0.00560842 -0.01153332 -0.00006077
   0.00216792  0.68606870 -0.00015553
   0.33231807  0.32648539  0.00002271
   0.34261209  0.67181162 -0.00040663
   0.10828756  0.22353506  0.94895587
   0.22122653  0.11156949  0.05414700
   0.10786915  0.55207632  0.95070073
   0.21807277  0.44211837  0.05075555
   0.11053119  0.88826928  0.94374799
   0.22072290  0.77601134  0.05275203
   0.44976135  0.22439922  0.94830328
   0.55925180  0.11256703  0.04872315
   0.44404319  0.55426276  0.94808999
   0.55761573  0.44132162  0.05129825
   0.45040544  0.89312806  0.94905208
   0.55883433  0.78454442  0.05245503
   0.77704163  0.22143760  0.95184607
   0.88624141  0.11211456  0.04933542
   0.77677009  0.55045129  0.94888271
   0.88739631  0.44221377  0.04798334
   0.77638315  0.89382944  0.94812055
   0.88861494  0.77746695  0.05480838
unknown system                          
           1
     8.288825    4.771560    0.000000
    -8.294078    4.780638    0.000000
     0.000000    0.000000   30.000000
   V    Mo   W    S 
   3   3   3  18
Direct configuration=     7
   0.66072176  0.33202039  0.00066842
   0.99995955  0.32663822  0.00017365
   0.66624050 -0.00760756  0.00005929
   0.31448738 -0.00382052  0.00000209
   0.67203216  0.67524926 -0.00018616
   0.00663016 -0.01227729 -0.00003176
   0.00207175  0.68852190 -0.00015832
   0.33159548  0.32512078  0.00008562
   0.34504999  0.67194569 -0.00046421
   0.10819515  0.22277017  0.94881141
   0.22084368  0.11137104  0.05451936
   0.10799151  0.55289463  0.95107229
   0.21861408  0.44232485  0.05080216
   0.11043561  0.88842396  0.94311317
   0.22067775  0.77608060  0.05268688
   0.44937566  0.22395682  0.94811557
   0.55789401  0.11170269  0.04854551
   0.44450261  0.55401865  0.94794879
   0.55740740  0.44160569  0.05132574
   0.45022488  0.89363387  0.94912959
   0.55915161  0.78468622  0.05285994
   0.77691456  0.22123664  0.95182885
   0.88657381  0.11139453  0.04945108
   0.77707757  0.55108143  0.94883541
   0.88794725  0.44341821  0.04771315
   0.77722048  0.89421391  0.94792109
   0.88837810  0.77760968  0.05517130
unknown system                          
           1
     8.293897    4.772510    0.000000
    -8.299085    4.781470    0.000000
     0.000000    0.000000   30.000000
   V    Mo   W    S 
   3   3   3  18
Direct configuration=     8
   0.66070479  0.33194227  0.00068362
   0.99971991  0.32626950  0.00016849
   0.66639154 -0.00769633  0.00004960
   0.31464179 -0.00347601 -0.00002034
   0.67190347  0.67539639 -0.00019205
   0.00658663 -0.01200057 -0.00003171
   0.00180874  0.68836518 -0.00018816
   0.33144519  0.32494747  0.00009454
   0.34550264  0.67184362 -0.00047694
   0.10824455  0.22278707  0.94883883
   0.22081603  0.11140018  0.05449808
   0.10809064  0.55298537  0.95120330
   0.21865076  0.44235183  0.05074761
   0.11041637  0.88843442  0.94317467
   0.22070936  0.77607722  0.05256610
   0.44933552  0.22396545  0.94815599
   0.55780407  0.11162007  0.04845850
   0.44455081  0.55394717  0.94798448
   0.55735073  0.44161344  0.05125385
   0.45019523  0.89361918  0.94922344
   0.55916839  0.78470216  0.05285926
   0.77691918  0.22121916  0.95188910
   0.88657259  0.11138393  0.04943844
   0.77707034  0.55115537  0.94889815
   0.88800414  0.44348904  0.04762912
   0.77727522  0.89422656  0.94795940
   0.88833583  0.77764529  0.05513452
unknown system                          
           1
     8.280516    4.768955    0.000000
    -8.286499    4.779304    0.000000
     0.000000    0.000000   30.000000
   V    Mo   W    S 
   3   3   3  18
Direct configuration=     9
   0.66036490  0.33165288  0.00076766
   0.99905588  0.32483189  0.00016412
   0.66678897 -0.00845775  0.00001554
   0.31374345 -0.00272806 -0.00005949
   0.67176460  0.67633699 -0.00017249
   0.00704838 -0.01196100 -0.00001226
   0.00122456  0.68934417 -0.00022851
   0.33081757  0.32397817  0.00014831
   0.34753081  0.67169851 -0.00051852
   0.10828840  0.22255372  0.94877534
   0.22059920  0.11136915  0.05467091
   0.10832096  0.55345344  0.95158741
   0.21888507  0.44245441  0.05069879
   0.11034159  0.88854946  0.94295588
   0.22074555  0.77608964  0.05232507
   0.44916173  0.22384465  0.94809639
   0.55718033  0.11115404  0.04825940
   0.44483204  0.55368348  0.94793293
   0.55718722  0.44173239  0.05116802
   0.45013484  0.89383340  0.94939346
   0.55938515  0.78485463  0.05308422
   0.77686285  0.22108152  0.95194899
   0.88666072  0.11111457  0.04951937
   0.77712587  0.55148695  0.94893829
   0.88830957  0.44404195  0.04739152
   0.77767401  0.89443547  0.94788149
   0.88818024  0.77778581  0.05526806
unknown system                          
           1
     8.277575    4.769151    0.000000
    -8.284031    4.780327    0.000000
     0.000000    0.000000   30.000000
   V    Mo   W    S 
   3   3   3  18
Direct configuration=    10
   0.66100866  0.33233735  0.00057873
   1.00078068  0.32813607  0.00019039
   0.66587118 -0.00700167  0.00008279
   0.31508274 -0.00484559  0.00003110
   0.67200135  0.67435731 -0.00019630
   0.00621865 -0.01241400 -0.00005453
   0.00279866  0.68778482 -0.00010539
   0.33219650  0.32603339  0.00002052
   0.34326735  0.67225736 -0.00044592
   0.10813299  0.22277827  0.94893495
   0.22102950  0.11136000  0.05432538
   0.10775666  0.55258087  0.95073948
   0.21854909  0.44227456  0.05081628
   0.11048264  0.88829513  0.94326596
   0.22062721  0.77608705  0.05294671
   0.44943689  0.22392868  0.94821955
   0.55813782  0.11195934  0.04863418
   0.44423944  0.55427213  0.94806359
   0.55748263  0.44152201  0.05138878
   0.45024550  0.89353473  0.94899619
   0.55888883  0.78450254  0.05262501
   0.77696328  0.22137659  0.95185514
   0.88659334  0.11144182  0.04927643
   0.77716912  0.55095462  0.94886870
   0.88776503  0.44318421  0.04785074
   0.77701183  0.89406018  0.94805565
   0.88847689  0.77745667  0.05503578
unknown system                          
           1
     8.272046    4.766852    0.000000
    -8.278488    4.778003    0.000000
     0.000000    0.000000   30.000000
   V    Mo   W    S 
   3   3   3  18
Direct configuration=    11
   0.66122010  0.33292372  0.00046323
   1.00233775  0.33058529  0.00023091
   0.66518021 -0.00634656  0.00012681
   0.31523932 -0.00699304  0.00003748
   0.67218061  0.67309851 -0.00020297
   0.00583366 -0.01316384 -0.00008008
   0.00447097  0.68747796 -0.00005618
   0.33317341  0.32723381 -0.00007908
   0.34028516  0.67307133 -0.00042441
   0.10795456  0.22258699  0.94907275
   0.22122041  0.11124890  0.05415629
   0.10738382  0.55226866  0.95021261
   0.21862941  0.44234370  0.05089538
   0.11052020  0.88803546  0.94323911
   0.22052139  0.77606994  0.05352388
   0.44940918  0.22368138  0.94829932
   0.55819575  0.11218553  0.04878160
   0.44388641  0.55467960  0.94817260
   0.55758242  0.44144689  0.05158054
   0.45022333  0.89348460  0.94869246
   0.55849899  0.78425217  0.05238433
   0.77707328  0.22159794  0.95185827
   0.88677489  0.11135980  0.04901527
   0.77743706  0.55089573  0.94886961
   0.88761853  0.44311860  0.04804667
   0.77684149  0.89386815  0.94816574
   0.88852216  0.77720325  0.05501775
unknown system                          
           1
     8.278436    4.769687    0.000000
    -8.284862    4.780809    0.000000
     0.000000    0.000000   30.000000
   V    Mo   W    S 
   3   3   3  18
Direct configuration=    12
   0.66081377  0.33307176  0.00050182
   1.00274823  0.33073860  0.00027790
   0.66508035 -0.00670211  0.00014533
   0.31449387 -0.00784747 -0.00000284
   0.67256716  0.67325404 -0.00017461
   0.00595346 -0.01374258 -0.00007165
   0.00528943  0.68835797 -0.00002144
   0.33327590  0.32683057 -0.00009967
   0.33976653  0.67382944 -0.00041135
   0.10795953  0.22233240  0.94914989
   0.22116033  0.11108003  0.05413619
   0.10744665  0.55259528  0.95025195
   0.21907156  0.44267260  0.05083768
   0.11046257  0.88796544  0.94301657
   0.22050781  0.77609303  0.05366761
   0.44913008  0.22334014  0.94833502
   0.55759413  0.11185523  0.04861568
   0.44382827  0.55475076  0.94829233
   0.55742621  0.44147766  0.05159283
   0.45005860  0.89355832  0.94866182
   0.55831842  0.78416911  0.05236395
   0.77716395  0.22167719  0.95198082
   0.88703596  0.11111296  0.04886098
   0.77771540  0.55119439  0.94894749
   0.88784882  0.44361373  0.04787337
   0.77705356  0.89385380  0.94819763
   0.88844393  0.77708218  0.05507462
unknown system                          
           1
     8.281414    4.770888    0.000000
    -8.288007    4.782300    0.000000
     0.000000    0.000000   30.000000
   V    Mo   W    S 
   3   3   3  18
Direct configuration=    13
   0.66045299  0.33294559  0.00056167
   1.00238866  0.32970313  0.00028381
   0.66538432 -0.00730734  0.00012018
   0.31399186 -0.00738660 -0.00006177
   0.67269182  0.67395045 -0.00017199
   0.00613153 -0.01368016 -0.00008565
   0.00497465  0.68895556 -0.00006833
   0.33279521  0.32595909 -0.00007536
   0.34086836  0.67399397 -0.00044285
   0.10801017  0.22223530  0.94908763
   0.22100938  0.11102558  0.05427555
   0.10758873  0.55288411  0.95049390
   0.21928889  0.44279362  0.05079810
   0.11038605  0.88803880  0.94286219
   0.22054673  0.77612535  0.05356612
   0.44902738  0.22324929  0.94825960
   0.55721072  0.11152835  0.04848658
   0.44396310  0.55459031  0.94831882
   0.55729997  0.44158022  0.05156028
   0.45005360  0.89371326  0.94873866
   0.55845370  0.78427265  0.05252260
   0.77716346  0.22161357  0.95203028
   0.88709235  0.11096206  0.04894320
   0.77776445  0.55140384  0.94897257
   0.88806492  0.44396429  0.04770754
   0.77727003  0.89395258  0.94812452
   0.88834142  0.77714758  0.05519205
unknown system                          
           1
     8.279747    4.770277    0.000000
    -8.286353    4.781711    0.000000
     0.000000    0.000000   30.000000
   V    Mo   W    S 
   3   3   3  18
Direct configuration=    14
   0.66010428  0.33289060  0.00061176
   1.00216598  0.32896806  0.00029989
   0.66562598 -0.00772890  0.00010651
   0.31357974 -0.00720539 -0.00009188
   0.67285791  0.67443897 -0.00015258
   0.00625867 -0.01367936 -0.00008619
   0.00486557  0.68948017 -0.00007657
   0.33246836  0.32516020 -0.00005117
   0.34157488  0.67435567 -0.00045699
   0.10805688  0.22214787  0.94904681
   0.22089851  0.11094596  0.05434909
   0.10768076  0.55310163  0.95066897
   0.21950036  0.44289535  0.05074122
   0.11030800  0.88807906  0.94274571
   0.22055573  0.77616698  0.05349711
   0.44896432  0.22318175  0.94821803
   0.55691938  0.11131004  0.04835703
   0.44401515  0.55446944  0.94838303
   0.55718858  0.44164154  0.05152199
   0.45006727  0.89385344  0.94878500
   0.55852406  0.78433272  0.05261439
   0.77716278  0.22158936  0.95209503
   0.88713759  0.11082424  0.04898971
   0.77780890  0.55155443  0.94901054
   0.88820102  0.44424292  0.04755126
   0.77742605  0.89400795  0.94807099
   0.88829774  0.77718974  0.05525121
unknown system                          
           1
     8.275171    4.767912    0.000000
    -8.281471    4.778817    0.000000
     0.000000    0.000000   30.000000
   V    Mo   W    S 
   3   3   3  18
Direct configuration=    15
   0.66040542  0.33293459  0.00057058
   1.00234606  0.32974022  0.00028321
   0.66531759 -0.00732178  0.00012034
   0.31388579 -0.00738193 -0.00004805
   0.67263958  0.67387010 -0.00015855
   0.00618932 -0.01379798 -0.00006895
   0.00498535  0.68904901 -0.00004967
   0.33294283  0.32609127 -0.00006681
   0.34090993  0.67384042 -0.00043027
   0.10800012  0.22220835  0.94908628
   0.22100899  0.11103859  0.05427647
   0.10762502  0.55295303  0.95050024
   0.21932504  0.44284486  0.05081557
   0.11038575  0.88803833  0.94282174
   0.22054990  0.77612484  0.05354034
   0.44903759  0.22324564  0.94826774
   0.55713078  0.11151933  0.04846859
   0.44401293  0.55462213  0.94828408
   0.55732007  0.44157501  0.05155398
   0.44999886  0.89368443  0.94874916
   0.55843260  0.78424279  0.05253576
   0.77715075  0.22163075  0.95203513
   0.88713544  0.11094557  0.04893552
   0.77777809  0.55140590  0.94897822
   0.88805872  0.44401365  0.04768995
   0.77731229  0.89397301  0.94811417
   0.88832964  0.77712432  0.05519515
unknown system                          
           1
     8.280354    4.770132    0.000000
    -8.286835    4.781349    0.000000
     0.000000    0.000000   30.000000
   V    Mo   W    S 
   3   3   3  18
Direct configuration=    16
   0.66047197  0.33281359  0.00055835
   1.00238728  0.32959852  0.00027294
   0.66539561 -0.00747821  0.00010595
   0.31350999 -0.00735222 -0.00008314
   0.67248728  0.67406886 -0.00017051
   0.00630068 -0.01390639 -0.00008925
   0.00498961  0.68937191 -0.00008184
   0.33271509  0.32617016 -0.00007700
   0.34126319  0.67352645 -0.00045011
   0.10800304  0.22220567  0.94914118
   0.22097272  0.11108396  0.05429781
   0.10767189  0.55303661  0.95060026
   0.21933653  0.44285863  0.05080644
   0.11037039  0.88803432  0.94279053
   0.22056485  0.77612852  0.05348357
   0.44895178  0.22319257  0.94826187
   0.55690980  0.11132005  0.04843187
   0.44409768  0.55461130  0.94826633
   0.55729831  0.44165191  0.05157046
   0.44992428  0.89365583  0.94882421
   0.55846016  0.78425163  0.05257440
   0.77720517  0.22161714  0.95206896
   0.88720424  0.11094831  0.04889293
   0.77784125  0.55152367  0.94899930
   0.88821577  0.44416673  0.04763644
   0.77739393  0.89401120  0.94813571
   0.88827193  0.77710376  0.05523226
unknown system                          
           1
     8.273661    4.767392    0.000000
    -8.279600    4.777670    0.000000
     0.000000    0.000000   30.000000
   V    Mo   W    S 
   3   3   3  18
Direct configuration=    17
   0.66007156  0.33278305  0.00062059
   1.00205903  0.32866445  0.00029506
   0.66573378 -0.00789852  0.00009496
   0.31330513 -0.00704729 -0.00010970
   0.67277005  0.67466078 -0.00015048
   0.00636594 -0.01370521 -0.00008976
   0.00475915  0.68974820 -0.00009206
   0.33227690  0.32503973 -0.00004342
   0.34204471  0.67418151 -0.00046803
   0.10806971  0.22213610  0.94905916
   0.22085192  0.11096566  0.05437844
   0.10773959  0.55319853  0.95077516
   0.21953212  0.44291260  0.05072695
   0.11028478  0.88809600  0.94270767
   0.22056839  0.77617679  0.05342043
   0.44892083  0.22316334  0.94820681
   0.55675248  0.11116796  0.04830669
   0.44409424  0.55442458  0.94836924
   0.55716073  0.44169045  0.05151128
   0.45003126  0.89386391  0.94884858
   0.55857081  0.78435923  0.05266308
   0.77717976  0.22156808  0.95212279
   0.88717202  0.11080419  0.04898843
   0.77783056  0.55163575  0.94902812
   0.88830318  0.44437164  0.04748667
   0.77750647  0.89405263  0.94806481
   0.88825935  0.77720031  0.05527840
unknown system                          
           1
     8.269292    4.764728    0.000000
    -8.275218    4.774983    0.000000
     0.000000    0.000000   30.000000
   V    Mo   W    S 
   3   3   3  18
Direct configuration=    18
   0.66102092  0.33268665  0.00046128
   1.00299095  0.33168681  0.00025009
   0.66460612 -0.00664795  0.00013938
   0.31371570 -0.00769916 -0.00000360
   0.67150837  0.67257489 -0.00012952
   0.00631187 -0.01449110 -0.00000700
   0.00542316  0.68872530  0.00000117
   0.33418714  0.32901871 -0.00009221
   0.33999657  0.67158487 -0.00036548
   0.10776012  0.22216045  0.94926782
   0.22114959  0.11134980  0.05414736
   0.10756276  0.55283821  0.95021842
   0.21898561  0.44281641  0.05109545
   0.11052585  0.88795106  0.94272923
   0.22060659  0.77607967  0.05359879
   0.44905820  0.22324428  0.94837304
   0.55692057  0.11151050  0.04860729
   0.44430594  0.55500387  0.94785624
   0.55762760  0.44150283  0.05169066
   0.44964993  0.89328016  0.94879299
   0.55827510  0.78408156  0.05248141
   0.77720616  0.22173325  0.95196598
   0.88738357  0.11108741  0.04867415
   0.77787249  0.55124564  0.94893437
   0.88802904  0.44393302  0.04788650
   0.77730607  0.89406953  0.94822534
   0.88822846  0.77688778  0.05520077
unknown system                          
           1
     8.277536    4.768512    0.000000
    -8.283654    4.779098    0.000000
     0.000000    0.000000   30.000000
   V    Mo   W    S 
   3   3   3  18
Direct configuration=    19
   0.66137726  0.33253976  0.00034622
   1.00358876  0.33357918  0.00019569
   0.66390977 -0.00611335  0.00013218
   0.31355485 -0.00805284  0.00000179
   0.67036430  0.67125345 -0.00017208
   0.00629747 -0.01535187 -0.00003492
   0.00589527  0.68856164 -0.00000965
   0.33560891  0.33191136 -0.00016651
   0.33920143  0.66958013 -0.00033463
   0.10768963  0.22216945  0.94949011
   0.22132149  0.11167144  0.05399450
   0.10759147  0.55277827  0.94995388
   0.21875236  0.44278111  0.05134478
   0.11059712  0.88782788  0.94279670
   0.22069041  0.77604381  0.05363805
   0.44906889  0.22331837  0.94850509
   0.55683832  0.11162120  0.04874558
   0.44451735  0.55537083  0.94752419
   0.55788438  0.44136912  0.05182955
   0.44932183  0.89281675  0.94884319
   0.55809427  0.78390394  0.05240130
   0.77723034  0.22186266  0.95191422
   0.88759487  0.11119450  0.04846003
   0.77793775  0.55110087  0.94895405
   0.88788852  0.44380585  0.04808711
   0.77722673  0.89402020  0.94839590
   0.88817069  0.77665076  0.05516357
unknown system                          
           1
     8.281536    4.768867    0.000000
    -8.288452    4.780835    0.000000
     0.000000    0.000000   30.000000
   V    Mo   W    S 
   3   3   3  18
Direct configuration=    20
   0.66077771  0.33249944  0.00045158
   1.00294079  0.33156834  0.00021996
   0.66465110 -0.00698968  0.00009549
   0.31317269 -0.00751629 -0.00008185
   0.67105998  0.67266283 -0.00018208
   0.00639742 -0.01486516 -0.00009261
   0.00540571  0.68930347 -0.00008163
   0.33437330  0.32944781 -0.00013071
   0.34075400  0.67102744 -0.00040478
   0.10785337  0.22212159  0.94935214
   0.22111033  0.11144937  0.05416637
   0.10771289  0.55303468  0.95034138
   0.21907917  0.44284138  0.05113873
   0.11042796  0.88793518  0.94275043
   0.22067985  0.77612385  0.05350199
   0.44897175  0.22326274  0.94840127
   0.55662928  0.11132096  0.04853047
   0.44445910  0.55498645  0.94780470
   0.55759553  0.44148603  0.05171012
   0.44956057  0.89320791  0.94891395
   0.55832392  0.78412973  0.05255324
   0.77721700  0.22173667  0.95202003
   0.88747652  0.11099145  0.04865855
   0.77791089  0.55136916  0.94901856
   0.88811025  0.44414887  0.04781184
   0.77739726  0.89406661  0.94829094
   0.88816615  0.77686362  0.05524180
unknown system                          
           1
     8.281490    4.768891    0.000000
    -8.288416    4.780877    0.000000
     0.000000    0.000000   30.000000
   V    Mo   W    S 
   3   3   3  18
Direct configuration=    21
   0.66032264  0.33225546  0.00054343
   1.00254342  0.33063504  0.00024397
   0.66508140 -0.00757582  0.00009365
   0.31265638 -0.00692446 -0.00003841
   0.67070325  0.67318328 -0.00009934
   0.00646320 -0.01492422  0.00000539
   0.00503374  0.68989348 -0.00001796
   0.33416878  0.32906504 -0.00004066
   0.34222642  0.67088327 -0.00039070
   0.10798355  0.22206508  0.94932146
   0.22093439  0.11143400  0.05416757
   0.10792914  0.55333829  0.95059749
   0.21929219  0.44289497  0.05108357
   0.11033764  0.88801566  0.94256522
   0.22073148  0.77618646  0.05325891
   0.44886972  0.22327607  0.94832815
   0.55629630  0.11103485  0.04835435
   0.44460043  0.55480349  0.94775468
   0.55745477  0.44155837  0.05164885
   0.44957398  0.89329751  0.94902922
   0.55846816  0.78422106  0.05267495
   0.77721674  0.22167957  0.95209113
   0.88751181  0.11083987  0.04870816
   0.77790087  0.55156025  0.94906571
   0.88827865  0.44448137  0.04761375
   0.77753646  0.89410838  0.94821124
   0.88809891  0.77692815  0.05522611
unknown system                          
           1
     8.280450    4.768459    0.000000
    -8.286738    4.779338    0.000000
     0.000000    0.000000   30.000000
   V    Mo   W    S 
   3   3   3  18
Direct configuration=    22
   0.66035464  0.33225824  0.00053654
   1.00258232  0.33075265  0.00024213
   0.66503420 -0.00752771  0.00009531
   0.31267639 -0.00696570 -0.00003593
   0.67066470  0.67310390 -0.00010089
   0.00645287 -0.01495883  0.00000530
   0.00506922  0.68985715 -0.00001637
   0.33424139  0.32921255 -0.00004465
   0.34213537  0.67080644 -0.00038769
   0.10797672  0.22206879  0.94933153
   0.22094799  0.11144811  0.05415834
   0.10792193  0.55332400  0.95057448
   0.21927446  0.44289012  0.05109613
   0.11034626  0.88800745  0.94256973
   0.22073304  0.77618098  0.05326964
   0.44887314  0.22327852  0.94833478
   0.55630733  0.11105098  0.04836688
   0.44460325  0.55482691  0.94773999
   0.55747000  0.44155072  0.05165722
   0.44956098  0.89327507  0.94902458
   0.55845442  0.78420909  0.05266574
   0.77721876  0.22168764  0.95208574
   0.88751909  0.11085101  0.04869557
   0.77790457  0.55154590  0.94906294
   0.88826649  0.44446264  0.04762988
   0.77752664  0.89410454  0.94821963
   0.88809829  0.77691330  0.05522335
unknown system                          
           1
     8.280548    4.768514    0.000000
    -8.286997    4.779672    0.000000
     0.000000    0.000000   30.000000
   V    Mo   W    S 
   3   3   3  18
Direct configuration=    23
   0.66003538  0.33246051  0.00060115
   1.00250057  0.32992817  0.00025315
   0.66566276 -0.00744282  0.00008163
   0.31262566 -0.00654303 -0.00007157
   0.67091792  0.67320619 -0.00009582
   0.00668216 -0.01445962 -0.00000482
   0.00474557  0.69000906 -0.00003793
   0.33365345  0.32807383 -0.00002953
   0.34236712  0.67096751 -0.00041392
   0.10798593  0.22214617  0.94925773
   0.22087495  0.11135463  0.05426158
   0.10793932  0.55336938  0.95072857
   0.21933238  0.44295123  0.05102617
   0.11029611  0.88800648  0.94252743
   0.22070816  0.77616870  0.05321081
   0.44892781  0.22331509  0.94829392
   0.55622275  0.11112384  0.04834304
   0.44456427  0.55471640  0.94782967
   0.55742576  0.44159562  0.05161708
   0.44942828  0.89326855  0.94900858
   0.55841417  0.78408731  0.05274492
   0.77732937  0.22186234  0.95209137
   0.88765084  0.11097829  0.04883399
   0.77789551  0.55158002  0.94906519
   0.88831611  0.44451925  0.04750428
   0.77762435  0.89401542  0.94811190
   0.88808778  0.77695592  0.05526134
unknown system                          
           1
     8.286834    4.770770    0.000000
    -8.292682    4.780882    0.000000
     0.000000    0.000000   30.000000
   V    Mo   W    S 
   3   3   3  18
Direct configuration=    24
   0.66007897  0.33242721  0.00059133
   1.00250867  0.33006627  0.00025130
   0.66556792 -0.00744321  0.00008490
   0.31263485 -0.00660582 -0.00006716
   0.67086801  0.67316894 -0.00009704
   0.00665341 -0.01453563 -0.00000313
   0.00479480  0.68998067 -0.00003663
   0.33375717  0.32824926 -0.00003280
   0.34231728  0.67092825 -0.00041008
   0.10798319  0.22213906  0.94927438
   0.22088526  0.11136761  0.05424411
   0.10794502  0.55336756  0.95070668
   0.21932604  0.44295325  0.05103356
   0.11030345  0.88799966  0.94253318
   0.22071308  0.77616376  0.05322094
   0.44892614  0.22331394  0.94830441
   0.55623530  0.11112473  0.04834795
   0.44457102  0.55474473  0.94781677
   0.55744351  0.44158897  0.05161908
   0.44943542  0.89326001  0.94900607