<?xml version="1.0" encoding="ISO-8859-1"?>
<modeling>
 <generator>
  <i name="program" type="string">vasp </i>
  <i name="version" type="string">5.4.1  </i>
  <i name="subversion" type="string">05Feb16 (build Jul 05 2020 17:13:04) complex                          parallel </i>
  <i name="platform" type="string">IFC91_ompi </i>
  <i name="date" type="string">2024 05 12 </i>
  <i name="time" type="string">21:23:33 </i>
 </generator>
 <incar>
  <i type="int" name="ISTART">     0</i>
  <i type="string" name="PREC">normal</i>
  <i type="string" name="ALGO"> Normal</i>
  <i type="int" name="ISPIN">     1</i>
  <i type="int" name="ICHARG">     2</i>
  <i type="int" name="IBRION">     1</i>
  <i type="int" name="NSW">   100</i>
  <i type="int" name="ISIF">     3</i>
  <i type="int" name="ISYM">     0</i>
  <i name="SYMPREC">      0.00000001</i>
  <i name="POTIM">      0.50000000</i>
  <i type="logical" name="LREAL"> F  </i>
  <i type="logical" name="LPLANE"> F  </i>
  <i type="int" name="ISMEAR">     0</i>
  <i type="logical" name="LWAVE"> F  </i>
  <i type="logical" name="LCHARG"> F  </i>
  <v type="int" name="KPOINT_BSE">    -1     0     0     0</v>
 </incar>
 <kpoints>
  <generation param="Gamma">
   <v type="int" name="divisions">       8        8        1 </v>
   <v name="usershift">      0.00000000       0.00000000       0.00000000 </v>
   <v name="genvec1">      0.12500000       0.00000000       0.00000000 </v>
   <v name="genvec2">     -0.00000000       0.12500000       0.00000000 </v>
   <v name="genvec3">      0.00000000       0.00000000       1.00000000 </v>
   <v name="shift">      0.00000000       0.00000000       0.00000000 </v>
  </generation>
  <varray name="kpointlist" >
   <v>       0.00000000       0.00000000       0.00000000 </v>
   <v>       0.12500000       0.00000000       0.00000000 </v>
   <v>       0.25000000       0.00000000       0.00000000 </v>
   <v>       0.37500000       0.00000000       0.00000000 </v>
   <v>       0.50000000       0.00000000       0.00000000 </v>
   <v>       0.00000000       0.12500000       0.00000000 </v>
   <v>       0.12500000       0.12500000       0.00000000 </v>
   <v>       0.25000000       0.12500000       0.00000000 </v>
   <v>       0.37500000       0.12500000       0.00000000 </v>
   <v>       0.50000000       0.12500000       0.00000000 </v>
   <v>      -0.37500000       0.12500000       0.00000000 </v>
   <v>      -0.25000000       0.12500000       0.00000000 </v>
   <v>      -0.12500000       0.12500000       0.00000000 </v>
   <v>       0.00000000       0.25000000       0.00000000 </v>
   <v>       0.12500000       0.25000000       0.00000000 </v>
   <v>       0.25000000       0.25000000       0.00000000 </v>
   <v>       0.37500000       0.25000000       0.00000000 </v>
   <v>       0.50000000       0.25000000       0.00000000 </v>
   <v>      -0.37500000       0.25000000       0.00000000 </v>
   <v>      -0.25000000       0.25000000       0.00000000 </v>
   <v>      -0.12500000       0.25000000       0.00000000 </v>
   <v>      -0.00000000       0.37500000       0.00000000 </v>
   <v>       0.12500000       0.37500000       0.00000000 </v>
   <v>       0.25000000       0.37500000       0.00000000 </v>
   <v>       0.37500000       0.37500000       0.00000000 </v>
   <v>       0.50000000       0.37500000       0.00000000 </v>
   <v>      -0.37500000       0.37500000       0.00000000 </v>
   <v>      -0.25000000       0.37500000       0.00000000 </v>
   <v>      -0.12500000       0.37500000       0.00000000 </v>
   <v>       0.00000000       0.50000000       0.00000000 </v>
   <v>       0.12500000       0.50000000       0.00000000 </v>
   <v>       0.25000000       0.50000000       0.00000000 </v>
   <v>       0.37500000       0.50000000       0.00000000 </v>
   <v>       0.50000000       0.50000000       0.00000000 </v>
  </varray>
  <varray name="weights" >
   <v>       0.01562500 </v>
   <v>       0.03125000 </v>
   <v>       0.03125000 </v>
   <v>       0.03125000 </v>
   <v>       0.01562500 </v>
   <v>       0.03125000 </v>
   <v>       0.03125000 </v>
   <v>       0.03125000 </v>
   <v>       0.03125000 </v>
   <v>       0.03125000 </v>
   <v>       0.03125000 </v>
   <v>       0.03125000 </v>
   <v>       0.03125000 </v>
   <v>       0.03125000 </v>
   <v>       0.03125000 </v>
   <v>       0.03125000 </v>
   <v>       0.03125000 </v>
   <v>       0.03125000 </v>
   <v>       0.03125000 </v>
   <v>       0.03125000 </v>
   <v>       0.03125000 </v>
   <v>       0.03125000 </v>
   <v>       0.03125000 </v>
   <v>       0.03125000 </v>
   <v>       0.03125000 </v>
   <v>       0.03125000 </v>
   <v>       0.03125000 </v>
   <v>       0.03125000 </v>
   <v>       0.03125000 </v>
   <v>       0.01562500 </v>
   <v>       0.03125000 </v>
   <v>       0.03125000 </v>
   <v>       0.03125000 </v>
   <v>       0.01562500 </v>
  </varray>
 </kpoints>
 <parameters>
  <separator name="general" >
   <i type="string" name="SYSTEM">unknown system</i>
   <i type="logical" name="LCOMPAT"> F  </i>
  </separator>
  <separator name="electronic" >
   <i type="string" name="PREC">normal</i>
   <i name="ENMAX">    280.00000000</i>
   <i name="ENAUG">    373.43800000</i>
   <i name="EDIFF">      0.00010000</i>
   <i type="int" name="IALGO">    38</i>
   <i type="int" name="IWAVPR">    11</i>
   <i type="int" name="NBANDS">   120</i>
   <i name="NELECT">    159.00000000</i>
   <i type="int" name="TURBO">     0</i>
   <i type="int" name="IRESTART">     0</i>
   <i type="int" name="NREBOOT">     0</i>
   <i type="int" name="NMIN">     0</i>
   <i name="EREF">      0.00000000</i>
   <separator name="electronic smearing" >
    <i type="int" name="ISMEAR">     0</i>
    <i name="SIGMA">      0.20000000</i>
    <i name="KSPACING">      0.50000000</i>
    <i type="logical" name="KGAMMA"> T  </i>
   </separator>
   <separator name="electronic projectors" >
    <i type="logical" name="LREAL"> F  </i>
    <v name="ROPT">      0.00000000      0.00000000      0.00000000      0.00000000</v>
    <i type="int" name="LMAXPAW">  -100</i>
    <i type="int" name="LMAXMIX">     2</i>
    <i type="logical" name="NLSPLINE"> F  </i>
   </separator>
   <separator name="electronic startup" >
    <i type="int" name="ISTART">     0</i>
    <i type="int" name="ICHARG">     2</i>
    <i type="int" name="INIWAV">     1</i>
   </separator>
   <separator name="electronic spin" >
    <i type="int" name="ISPIN">     1</i>
    <i type="logical" name="LNONCOLLINEAR"> F  </i>
    <v name="MAGMOM">      1.00000000      1.00000000      1.00000000      1.00000000      1.00000000      1.00000000      1.00000000      1.00000000      1.00000000      1.00000000      1.00000000      1.00000000      1.00000000      1.00000000      1.00000000      1.00000000      1.00000000      1.00000000      1.00000000      1.00000000
      1.00000000      1.00000000      1.00000000      1.00000000      1.00000000      1.00000000      1.00000000</v>
    <i name="NUPDOWN">     -1.00000000</i>
    <i type="logical" name="LSORBIT"> F  </i>
    <v name="SAXIS">      0.00000000      0.00000000      1.00000000</v>
    <i type="logical" name="LSPIRAL"> F  </i>
    <v name="QSPIRAL">      0.00000000      0.00000000      0.00000000</v>
    <i type="logical" name="LZEROZ"> F  </i>
   </separator>
   <separator name="electronic exchange-correlation" >
    <i type="logical" name="LASPH"> F  </i>
    <i type="logical" name="LMETAGGA"> F  </i>
   </separator>
   <separator name="electronic convergence" >
    <i type="int" name="NELM">    60</i>
    <i type="int" name="NELMDL">    -5</i>
    <i type="int" name="NELMIN">     2</i>
    <i name="ENINI">    280.00000000</i>
    <separator name="electronic convergence detail" >
     <i type="logical" name="LDIAG"> T  </i>
     <i type="logical" name="LSUBROT"> F  </i>
     <i name="WEIMIN">      0.00100000</i>
     <i name="EBREAK">      0.00000021</i>
     <i name="DEPER">      0.30000000</i>
     <i type="int" name="NRMM">     4</i>
     <i name="TIME">      0.40000000</i>
    </separator>
   </separator>
   <separator name="electronic mixer" >
    <i name="AMIX">      0.40000000</i>
    <i name="BMIX">      1.00000000</i>
    <i name="AMIN">      0.10000000</i>
    <i name="AMIX_MAG">      1.60000000</i>
    <i name="BMIX_MAG">      1.00000000</i>
    <separator name="electronic mixer details" >
     <i type="int" name="IMIX">     4</i>
     <i type="logical" name="MIXFIRST"> F  </i>
     <i type="int" name="MAXMIX">   -45</i>
     <i name="WC">    100.00000000</i>
     <i type="int" name="INIMIX">     1</i>
     <i type="int" name="MIXPRE">     1</i>
     <i type="int" name="MREMOVE">     5</i>
    </separator>
   </separator>
   <separator name="electronic dipolcorrection" >
    <i type="logical" name="LDIPOL"> F  </i>
    <i type="logical" name="LMONO"> F  </i>
    <i type="int" name="IDIPOL">     0</i>
    <i name="EPSILON">      1.00000000</i>
    <v name="DIPOL">   -100.00000000   -100.00000000   -100.00000000</v>
    <i name="EFIELD">      0.00000000</i>
   </separator>
  </separator>
  <separator name="grids" >
   <i type="int" name="NGX">    42</i>
   <i type="int" name="NGY">    42</i>
   <i type="int" name="NGZ">   126</i>
   <i type="int" name="NGXF">    84</i>
   <i type="int" name="NGYF">    84</i>
   <i type="int" name="NGZF">   252</i>
   <i type="logical" name="ADDGRID"> F  </i>
  </separator>
  <separator name="ionic" >
   <i type="int" name="NSW">   100</i>
   <i type="int" name="IBRION">     1</i>
   <i type="int" name="ISIF">     3</i>
   <i name="PSTRESS">      0.00000000</i>
   <i name="EDIFFG">      0.00100000</i>
   <i type="int" name="NFREE">     0</i>
   <i name="POTIM">      0.50000000</i>
   <i name="SMASS">     -3.00000000</i>
   <i name="SCALEE">      1.00000000</i>
  </separator>
  <separator name="ionic md" >
   <i name="TEBEG">      0.00010000</i>
   <i name="TEEND">      0.00010000</i>
   <i type="int" name="NBLOCK">     1</i>
   <i type="int" name="KBLOCK">   100</i>
   <i type="int" name="NPACO">   256</i>
   <i name="APACO">     16.00000000</i>
  </separator>
  <separator name="symmetry" >
   <i type="int" name="ISYM">     0</i>
   <i name="SYMPREC">      0.00000001</i>
  </separator>
  <separator name="dos" >
   <i type="logical" name="LORBIT"> F  </i>
   <v name="RWIGS">     -1.00000000     -1.00000000     -1.00000000     -1.00000000</v>
   <i type="int" name="NEDOS">   301</i>
   <i name="EMIN">     10.00000000</i>
   <i name="EMAX">    -10.00000000</i>
   <i name="EFERMI">      0.00000000</i>
  </separator>
  <separator name="writing" >
   <i type="int" name="NWRITE">     2</i>
   <i type="logical" name="LWAVE"> F  </i>
   <i type="logical" name="LCHARG"> F  </i>
   <i type="logical" name="LPARD"> F  </i>
   <i type="logical" name="LVTOT"> F  </i>
   <i type="logical" name="LVHAR"> F  </i>
   <i type="logical" name="LELF"> F  </i>
   <i type="logical" name="LOPTICS"> F  </i>
   <v name="STM">      0.00000000      0.00000000      0.00000000      0.00000000      0.00000000      0.00000000      0.00000000</v>
  </separator>
  <separator name="performance" >
   <i type="int" name="NPAR">    40</i>
   <i type="int" name="NSIM">     4</i>
   <i type="int" name="NBLK">    -1</i>
   <i type="logical" name="LPLANE"> F  </i>
   <i type="logical" name="LSCALAPACK"> T  </i>
   <i type="logical" name="LSCAAWARE"> F  </i>
   <i type="logical" name="LSCALU"> F  </i>
   <i type="logical" name="LASYNC"> F  </i>
   <i type="logical" name="LORBITALREAL"> F  </i>
  </separator>
  <separator name="miscellaneous" >
   <i type="int" name="IDIOT">     3</i>
   <i type="logical" name="LMUSIC"> F  </i>
   <v name="POMASS">     50.94100000     95.94000000    183.85000000     32.06600000</v>
   <v name="DARWINR">      0.00000000      0.00000000      0.00000000      0.00000000</v>
   <v name="DARWINV">      1.00000000      1.00000000      1.00000000      1.00000000</v>
   <i type="logical" name="LCORR"> T  </i>
  </separator>
  <i type="logical" name="GGA_COMPAT"> T  </i>
  <i type="logical" name="LBERRY"> F  </i>
  <i type="int" name="ICORELEVEL">     0</i>
  <i type="logical" name="LDAU"> F  </i>
  <i type="int" name="I_CONSTRAINED_M">     0</i>
  <separator name="electronic exchange-correlation" >
   <i type="string" name="GGA">--</i>
   <i type="int" name="VOSKOWN">     0</i>
   <i type="logical" name="LHFCALC"> F  </i>
   <i type="string" name="PRECFOCK"></i>
   <i type="logical" name="LSYMGRAD"> F  </i>
   <i type="logical" name="LHFONE"> F  </i>
   <i type="logical" name="LRHFCALC"> F  </i>
   <i type="logical" name="LTHOMAS"> F  </i>
   <i type="logical" name="LMODELHF"> F  </i>
   <i name="ENCUT4O">     -1.00000000</i>
   <i type="int" name="EXXOEP">     0</i>
   <i type="int" name="FOURORBIT">     0</i>
   <i name="AEXX">      0.00000000</i>
   <i name="HFALPHA">      0.00000000</i>
   <i name="MCALPHA">      0.00000000</i>
   <i name="ALDAX">      1.00000000</i>
   <i name="AGGAX">      1.00000000</i>
   <i name="ALDAC">      1.00000000</i>
   <i name="AGGAC">      1.00000000</i>
   <i type="int" name="NKREDX">     1</i>
   <i type="int" name="NKREDY">     1</i>
   <i type="int" name="NKREDZ">     1</i>
   <i type="logical" name="SHIFTRED"> F  </i>
   <i type="logical" name="ODDONLY"> F  </i>
   <i type="logical" name="EVENONLY"> F  </i>
   <i type="int" name="LMAXFOCK">     0</i>
   <i type="int" name="NMAXFOCKAE">     0</i>
   <i type="logical" name="LFOCKAEDFT"> F  </i>
   <i name="HFSCREEN">      0.00000000</i>
   <i name="HFSCREENC">      0.00000000</i>
   <i type="int" name="NBANDSGWLOW">     0</i>
  </separator>
  <separator name="vdW DFT" >
   <i type="logical" name="LUSE_VDW"> F  </i>
   <i name="Zab_VDW">     -0.84910000</i>
   <i name="PARAM1">      0.12340000</i>
   <i name="PARAM2">      1.00000000</i>
   <i name="PARAM3">      0.00000000</i>
  </separator>
  <separator name="model GW" >
   <i type="int" name="MODEL_GW">     0</i>
   <i name="MODEL_EPS0">     58.26239943</i>
   <i name="MODEL_ALPHA">      1.00000000</i>
  </separator>
  <separator name="linear response parameters" >
   <i type="logical" name="LEPSILON"> F  </i>
   <i type="logical" name="LRPA"> F  </i>
   <i type="logical" name="LNABLA"> F  </i>
   <i type="logical" name="LVEL"> F  </i>
   <i type="int" name="KINTER">     0</i>
   <i name="CSHIFT">      0.10000000</i>
   <i name="OMEGAMAX">     -1.00000000</i>
   <i name="DEG_THRESHOLD">      0.00200000</i>
  </separator>
  <separator name="orbital magnetization" >
   <i type="logical" name="NUCIND"> F  </i>
   <v name="MAGPOS">      0.00000000      0.00000000      0.00000000</v>
   <i type="logical" name="LNICSALL"> T  </i>
   <i type="logical" name="ORBITALMAG"> F  </i>
   <i type="logical" name="LMAGBLOCH"> F  </i>
   <i type="logical" name="LCHIMAG"> F  </i>
   <i type="logical" name="LGAUGE"> T  </i>
   <i type="int" name="MAGATOM">     0</i>
   <v name="MAGDIPOL">      0.00000000      0.00000000      0.00000000</v>
   <v name="AVECCONST">      0.00000000      0.00000000      0.00000000</v>
  </separator>
  <separator name="response functions" >
   <i type="logical" name="LADDER"> F  </i>
   <i type="logical" name="LFXC"> F  </i>
   <i type="logical" name="LHARTREE"> T  </i>
   <i type="int" name="IBSE">     0</i>
   <v type="int" name="KPOINT">    -1     0     0     0</v>
   <i type="logical" name="LTCTE"> F  </i>
   <i type="logical" name="LTETE"> F  </i>
   <i type="logical" name="LTRIPLET"> F  </i>
   <i type="logical" name="LFXCEPS"> F  </i>
   <i type="logical" name="LFXHEG"> F  </i>
   <i type="int" name="NATURALO">     0</i>
   <i type="logical" name="L2ORDER"> F  </i>
   <i type="logical" name="LUSEW"> F  </i>
   <i name="ENCUTGW">     -2.00000000</i>
   <i name="ENCUTGWSOFT">     -2.00000000</i>
   <i name="ENCUTLF">     -1.00000000</i>
   <i type="int" name="LMAXMP2">    -1</i>
   <i name="SCISSOR">      0.00000000</i>
   <i type="int" name="NOMEGA">     0</i>
   <i type="int" name="NOMEGAR">     0</i>
   <i type="int" name="NBANDSGW">    -1</i>
   <i type="int" name="NBANDSO">    -1</i>
   <i type="int" name="NBANDSV">    -1</i>
   <i type="int" name="NELM">     1</i>
   <i type="int" name="NELMHF">     1</i>
   <i type="int" name="DIM">     3</i>
   <i type="int" name="ANTIRES">     0</i>
   <i name="OMEGAMAX">    -30.00000000</i>
   <i name="OMEGAMIN">    -30.00000000</i>
   <i name="OMEGATL">   -200.00000000</i>
   <i type="int" name="OMEGAGRID">     0</i>
   <i name="CSHIFT">     -0.10000000</i>
   <i type="logical" name="SELFENERGY"> F  </i>
   <i type="logical" name="LSPECTRAL"> F  </i>
   <i type="logical" name="LSPECTRALGW"> F  </i>
   <i type="logical" name="LSINGLES"> F  </i>
   <i type="logical" name="LFERMIGW"> F  </i>
   <i type="logical" name="ODDONLYGW"> F  </i>
   <i type="logical" name="EVENONLYGW"> F  </i>
   <i type="int" name="NKREDLFX">     1</i>
   <i type="int" name="NKREDLFY">     1</i>
   <i type="int" name="NKREDLFZ">     1</i>
   <i type="int" name="MAXMEM">  1800</i>
   <i type="int" name="TELESCOPE">     0</i>
   <i type="int" name="TAUPAR">     1</i>
   <i type="int" name="OMEGAPAR">    -1</i>
   <i name="LAMBDA">      1.00000000</i>
  </separator>
  <separator name="External order field" >
   <i name="OFIELD_KAPPA">      0.00000000</i>
   <v name="OFIELD_K">      0.00000000      0.00000000      0.00000000</v>
   <i name="OFIELD_Q6_NEAR">      0.00000000</i>
   <i name="OFIELD_Q6_FAR">      0.00000000</i>
   <i name="OFIELD_A">      0.00000000</i>
  </separator>
 </parameters>
 <atominfo>
  <atoms>      27 </atoms>
  <types>       4 </types>
  <array name="atoms" >
   <dimension dim="1">ion</dimension>
   <field type="string">element</field>
   <field type="int">atomtype</field>
   <set>
    <rc><c>V </c><c>   1</c></rc>
    <rc><c>V </c><c>   1</c></rc>
    <rc><c>V </c><c>   1</c></rc>
    <rc><c>Mo</c><c>   2</c></rc>
    <rc><c>Mo</c><c>   2</c></rc>
    <rc><c>Mo</c><c>   2</c></rc>
    <rc><c>W </c><c>   3</c></rc>
    <rc><c>W </c><c>   3</c></rc>
    <rc><c>W </c><c>   3</c></rc>
    <rc><c>S </c><c>   4</c></rc>
    <rc><c>S </c><c>   4</c></rc>
    <rc><c>S </c><c>   4</c></rc>
    <rc><c>S </c><c>   4</c></rc>
    <rc><c>S </c><c>   4</c></rc>
    <rc><c>S </c><c>   4</c></rc>
    <rc><c>S </c><c>   4</c></rc>
    <rc><c>S </c><c>   4</c></rc>
    <rc><c>S </c><c>   4</c></rc>
    <rc><c>S </c><c>   4</c></rc>
    <rc><c>S </c><c>   4</c></rc>
    <rc><c>S </c><c>   4</c></rc>
    <rc><c>S </c><c>   4</c></rc>
    <rc><c>S </c><c>   4</c></rc>
    <rc><c>S </c><c>   4</c></rc>
    <rc><c>S </c><c>   4</c></rc>
    <rc><c>S </c><c>   4</c></rc>
    <rc><c>S </c><c>   4</c></rc>
   </set>
  </array>
  <array name="atomtypes" >
   <dimension dim="1">type</dimension>
   <field type="int">atomspertype</field>
   <field type="string">element</field>
   <field>mass</field>
   <field>valence</field>
   <field type="string">pseudopotential</field>
   <set>
    <rc><c>   3</c><c>V </c><c>     50.94100000</c><c>      5.00000000</c><c> PAW_PBE V 08Apr2002                    </c></rc>
    <rc><c>   3</c><c>Mo</c><c>     95.94000000</c><c>      6.00000000</c><c> PAW_PBE Mo 08Apr2002                   </c></rc>
    <rc><c>   3</c><c>W </c><c>    183.85000000</c><c>      6.00000000</c><c> PAW_PBE W 08Apr2002                    </c></rc>
    <rc><c>  18</c><c>S </c><c>     32.06600000</c><c>      6.00000000</c><c>  PAW_PBE S 17Jan2003                   </c></rc>
   </set>
  </array>
 </atominfo>
 <structure name="initialpos" >
  <crystal>
   <varray name="basis" >
    <v>       8.66999996       5.03999989       0.00000000 </v>
    <v>      -8.66999982       5.04000013       0.00000000 </v>
    <v>       0.00000000       0.00000000      30.00000000 </v>
   </varray>
   <i name="volume">   2621.80797419 </i>
   <varray name="rec_basis" >
    <v>       0.05767013       0.09920635       0.00000000 </v>
    <v>      -0.05767013       0.09920635       0.00000000 </v>
    <v>       0.00000000       0.00000000       0.03333333 </v>
   </varray>
  </crystal>
  <varray name="positions" >
   <v>       0.00000000       0.00000000       0.00000000 </v>
   <v>       0.00000000       0.66666669       0.00000000 </v>
   <v>       0.33333334       0.00000000       0.00000000 </v>
   <v>       0.33333334       0.66666669       0.00000000 </v>
   <v>       0.66666669       0.33333334       0.00000000 </v>
   <v>       0.66666669       0.66666669       0.00000000 </v>
   <v>       1.00000000       0.33333334       0.00000000 </v>
   <v>       0.33333334       0.33333334       0.00000000 </v>
   <v>       0.66666669       0.00000000       0.00000000 </v>
   <v>       0.11068511       0.22244981       0.95539999 </v>
   <v>       0.22244981       0.11068511       0.04460000 </v>
   <v>       0.11068511       0.55578315       0.95539999 </v>
   <v>       0.22244981       0.44401845       0.04460000 </v>
   <v>       0.11068511       0.88911647       0.95539999 </v>
   <v>       0.22244981       0.77735180       0.04460000 </v>
   <v>       0.44401845       0.22244981       0.95539999 </v>
   <v>       0.55578315       0.11068511       0.04460000 </v>
   <v>       0.44401845       0.55578315       0.95539999 </v>
   <v>       0.55578315       0.44401845       0.04460000 </v>
   <v>       0.44401845       0.88911647       0.95539999 </v>
   <v>       0.55578315       0.77735180       0.04460000 </v>
   <v>       0.77735180       0.22244981       0.95539999 </v>
   <v>       0.88911647       0.11068511       0.04460000 </v>
   <v>       0.77735180       0.55578315       0.95539999 </v>
   <v>       0.88911647       0.44401845       0.04460000 </v>
   <v>       0.77735180       0.88911647       0.95539999 </v>
   <v>       0.88911647       0.77735180       0.04460000 </v>
  </varray>
 </structure>
 <calculation>
  <scstep>
   <time name="dav">   21.57   21.63</time>
   <time name="total">   21.62   21.68</time>
   <energy>
    <i name="alphaZ">     81.65567618 </i>
    <i name="ewald">  41891.17177387 </i>
    <i name="hartreedc"> -47723.81658454 </i>
    <i name="XCdc">   -242.92513656 </i>
    <i name="pawpsdc">   3467.42045192 </i>
    <i name="pawaedc">  -2871.19716117 </i>
    <i name="eentropy">     -0.53809861 </i>
    <i name="bandstr">   -237.56348382 </i>
    <i name="atom">   6761.44252427 </i>
    <i name="e_fr_energy">   1125.64996155 </i>
    <i name="e_wo_entrp">   1126.18806016 </i>
    <i name="e_0_energy">   1125.91901085 </i>
   </energy>
  </scstep>
  <scstep>
   <time name="dav">   28.29   28.36</time>
   <time name="total">   28.29   28.37</time>
   <energy>
    <i name="e_fr_energy">     -3.75257683 </i>
    <i name="e_wo_entrp">     -3.54077833 </i>
    <i name="e_0_energy">     -3.64667758 </i>
   </energy>
  </scstep>
  <scstep>
   <time name="dav">   27.33   27.39</time>
   <time name="total">   27.33   27.40</time>
   <energy>
    <i name="e_fr_energy">   -199.92679265 </i>
    <i name="e_wo_entrp">   -199.65999609 </i>
    <i name="e_0_energy">   -199.79339437 </i>
   </energy>
  </scstep>
  <scstep>
   <time name="dav">   29.62   29.69</time>
   <time name="total">   29.62   29.70</time>
   <energy>
    <i name="e_fr_energy">   -208.97351918 </i>
    <i name="e_wo_entrp">   -208.68035548 </i>
    <i name="e_0_energy">   -208.82693733 </i>
   </energy>
  </scstep>
  <scstep>
   <time name="dav">   28.57   28.64</time>
   <time name="total">   29.04   29.12</time>
   <energy>
    <i name="e_fr_energy">   -209.29906141 </i>
    <i name="e_wo_entrp">   -209.00908754 </i>
    <i name="e_0_energy">   -209.15407447 </i>
   </energy>
  </scstep>
  <scstep>
   <time name="dav">   30.31   30.38</time>
   <time name="total">   30.81   30.89</time>
   <energy>
    <i name="e_fr_energy">   -237.71093444 </i>
    <i name="e_wo_entrp">   -237.45056916 </i>
    <i name="e_0_energy">   -237.58075180 </i>
   </energy>
  </scstep>
  <scstep>
   <time name="dav">   32.55   32.63</time>
   <time name="total">   33.06   33.14</time>
   <energy>
    <i name="e_fr_energy">   -196.62977752 </i>
    <i name="e_wo_entrp">   -196.30438801 </i>
    <i name="e_0_energy">   -196.46708277 </i>
   </energy>
  </scstep>
  <scstep>
   <time name="dav">   29.70   29.78</time>
   <time name="total">   30.21   30.29</time>
   <energy>
    <i name="e_fr_energy">   -189.64613187 </i>
    <i name="e_wo_entrp">   -189.33933889 </i>
    <i name="e_0_energy">   -189.49273538 </i>
   </energy>
  </scstep>
  <scstep>
   <time name="dav">   31.32   31.40</time>
   <time name="total">   31.84   31.92</time>
   <energy>
    <i name="e_fr_energy">   -188.21999342 </i>
    <i name="e_wo_entrp">   -187.88982246 </i>
    <i name="e_0_energy">   -188.05490794 </i>
   </energy>
  </scstep>
  <scstep>
   <time name="dav">   32.11   32.19</time>
   <time name="total">   32.64   32.73</time>
   <energy>
    <i name="e_fr_energy">   -186.95470292 </i>
    <i name="e_wo_entrp">   -186.60184206 </i>
    <i name="e_0_energy">   -186.77827249 </i>
   </energy>
  </scstep>
  <scstep>
   <time name="dav">   32.67   32.75</time>
   <time name="total">   33.20   33.29</time>
   <energy>
    <i name="e_fr_energy">   -187.03872222 </i>
    <i name="e_wo_entrp">   -186.69844999 </i>
    <i name="e_0_energy">   -186.86858611 </i>
   </energy>
  </scstep>
  <scstep>
   <time name="dav">   31.18   31.26</time>
   <time name="total">   31.71   31.80</time>
   <energy>
    <i name="e_fr_energy">   -186.98716242 </i>
    <i name="e_wo_entrp">   -186.64878478 </i>
    <i name="e_0_energy">   -186.81797360 </i>
   </energy>
  </scstep>
  <scstep>
   <time name="dav">   31.96   32.04</time>
   <time name="total">   32.49   32.58</time>
   <energy>
    <i name="e_fr_energy">   -186.88105562 </i>
    <i name="e_wo_entrp">   -186.54490293 </i>
    <i name="e_0_energy">   -186.71297927 </i>
   </energy>
  </scstep>
  <scstep>
   <time name="dav">   31.23   31.31</time>
   <time name="total">   31.76   31.85</time>
   <energy>
    <i name="e_fr_energy">   -186.84799764 </i>
    <i name="e_wo_entrp">   -186.50321138 </i>
    <i name="e_0_energy">   -186.67560451 </i>
   </energy>
  </scstep>
  <scstep>
   <time name="dav">   30.74   30.81</time>
   <time name="total">   31.27   31.35</time>
   <energy>
    <i name="e_fr_energy">   -186.84660784 </i>
    <i name="e_wo_entrp">   -186.50134329 </i>
    <i name="e_0_energy">   -186.67397557 </i>
   </energy>
  </scstep>
  <scstep>
   <time name="dav">   32.09   32.17</time>
   <time name="total">   32.62   32.71</time>
   <energy>
    <i name="e_fr_energy">   -186.84091126 </i>
    <i name="e_wo_entrp">   -186.49614333 </i>
    <i name="e_0_energy">   -186.66852729 </i>
   </energy>
  </scstep>
  <scstep>
   <time name="dav">   30.72   30.79</time>
   <time name="total">   31.25   31.33</time>
   <energy>
    <i name="e_fr_energy">   -186.83905263 </i>
    <i name="e_wo_entrp">   -186.49583756 </i>
    <i name="e_0_energy">   -186.66744509 </i>
   </energy>
  </scstep>
  <scstep>
   <time name="dav">   30.17   30.24</time>
   <time name="total">   30.70   30.78</time>
   <energy>
    <i name="e_fr_energy">   -186.83866392 </i>
    <i name="e_wo_entrp">   -186.49484644 </i>
    <i name="e_0_energy">   -186.66675518 </i>
   </energy>
  </scstep>
  <scstep>
   <time name="dav">   24.05   24.11</time>
   <time name="total">   24.58   24.65</time>
   <energy>
    <i name="e_fr_energy">   -186.83884142 </i>
    <i name="e_wo_entrp">   -186.49517596 </i>
    <i name="e_0_energy">   -186.66700869 </i>
   </energy>
  </scstep>
  <scstep>
   <time name="dav">   23.55   23.60</time>
   <time name="total">   24.08   24.15</time>
   <energy>
    <i name="e_fr_energy">   -186.83944537 </i>
    <i name="e_wo_entrp">   -186.49610579 </i>
    <i name="e_0_energy">   -186.66777558 </i>
   </energy>
  </scstep>
  <scstep>
   <time name="dav">   21.57   21.63</time>
   <time name="total">   22.11   22.17</time>
   <energy>
    <i name="e_fr_energy">   -186.84020866 </i>
    <i name="e_wo_entrp">   -186.49683681 </i>
    <i name="e_0_energy">   -186.66852273 </i>
   </energy>
  </scstep>
  <scstep>
   <time name="dav">   20.31   20.36</time>
   <time name="total">   20.84   20.90</time>
   <energy>
    <i name="e_fr_energy">   -186.84120089 </i>
    <i name="e_wo_entrp">   -186.49772316 </i>
    <i name="e_0_energy">   -186.66946202 </i>
   </energy>
  </scstep>
  <scstep>
   <time name="dav">   20.34   20.39</time>
   <time name="total">   20.88   20.94</time>
   <energy>
    <i name="e_fr_energy">   -186.84234855 </i>
    <i name="e_wo_entrp">   -186.49897881 </i>
    <i name="e_0_energy">   -186.67066368 </i>
   </energy>
  </scstep>
  <scstep>
   <time name="dav">   18.73   18.78</time>
   <time name="total">   19.26   19.32</time>
   <energy>
    <i name="e_fr_energy">   -186.84293073 </i>
    <i name="e_wo_entrp">   -186.49951967 </i>
    <i name="e_0_energy">   -186.67122520 </i>
   </energy>
  </scstep>
  <scstep>
   <time name="dav">   16.39   16.43</time>
   <time name="total">   16.92   16.97</time>
   <energy>
    <i name="e_fr_energy">   -186.84331777 </i>
    <i name="e_wo_entrp">   -186.49988436 </i>
    <i name="e_0_energy">   -186.67160106 </i>
   </energy>
  </scstep>
  <scstep>
   <time name="dav">   18.83   18.87</time>
   <time name="total">   19.36   19.41</time>
   <energy>
    <i name="e_fr_energy">   -186.84356288 </i>
    <i name="e_wo_entrp">   -186.50014464 </i>
    <i name="e_0_energy">   -186.67185376 </i>
   </energy>
  </scstep>
  <scstep>
   <time name="dav">   20.50   20.55</time>
   <time name="total">   20.54   20.59</time>
   <energy>
    <i name="alphaZ">     81.65567618 </i>
    <i name="ewald">  41891.17177387 </i>
    <i name="hartreedc"> -47833.67134261 </i>
    <i name="XCdc">   -231.60418747 </i>
    <i name="pawpsdc">   4192.09469529 </i>
    <i name="pawaedc">  -3610.09738232 </i>
    <i name="eentropy">     -0.34342068 </i>
    <i name="bandstr">  -1437.49198063 </i>
    <i name="atom">   6761.44252427 </i>
    <i name="e_fr_energy">   -186.84364409 </i>
    <i name="e_wo_entrp">   -186.50022341 </i>
    <i name="e_0_energy">   -186.67193375 </i>
   </energy>
  </scstep>
  <structure>
   <crystal>
    <varray name="basis" >
     <v>       8.66999996       5.03999989       0.00000000 </v>
     <v>      -8.66999982       5.04000013       0.00000000 </v>
     <v>       0.00000000       0.00000000      30.00000000 </v>
    </varray>
    <i name="volume">   2621.80797419 </i>
    <varray name="rec_basis" >
     <v>       0.05767013       0.09920635       0.00000000 </v>
     <v>      -0.05767013       0.09920635       0.00000000 </v>
     <v>       0.00000000       0.00000000       0.03333333 </v>
    </varray>
   </crystal>
   <varray name="positions" >
    <v>       0.00000000       0.00000000       0.00000000 </v>
    <v>       0.00000000       0.66666669       0.00000000 </v>
    <v>       0.33333334       0.00000000       0.00000000 </v>
    <v>       0.33333334       0.66666669       0.00000000 </v>
    <v>       0.66666669       0.33333334       0.00000000 </v>
    <v>       0.66666669       0.66666669       0.00000000 </v>
    <v>       1.00000000       0.33333334       0.00000000 </v>
    <v>       0.33333334       0.33333334       0.00000000 </v>
    <v>       0.66666669       0.00000000       0.00000000 </v>
    <v>       0.11068511       0.22244981       0.95539999 </v>
    <v>       0.22244981       0.11068511       0.04460000 </v>
    <v>       0.11068511       0.55578315       0.95539999 </v>
    <v>       0.22244981       0.44401845       0.04460000 </v>
    <v>       0.11068511       0.88911647       0.95539999 </v>
    <v>       0.22244981       0.77735180       0.04460000 </v>
    <v>       0.44401845       0.22244981       0.95539999 </v>
    <v>       0.55578315       0.11068511       0.04460000 </v>
    <v>       0.44401845       0.55578315       0.95539999 </v>
    <v>       0.55578315       0.44401845       0.04460000 </v>
    <v>       0.44401845       0.88911647       0.95539999 </v>
    <v>       0.55578315       0.77735180       0.04460000 </v>
    <v>       0.77735180       0.22244981       0.95539999 </v>
    <v>       0.88911647       0.11068511       0.04460000 </v>
    <v>       0.77735180       0.55578315       0.95539999 </v>
    <v>       0.88911647       0.44401845       0.04460000 </v>
    <v>       0.77735180       0.88911647       0.95539999 </v>
    <v>       0.88911647       0.77735180       0.04460000 </v>
   </varray>
  </structure>
  <varray name="forces" >
   <v>       0.16561921      -0.23363622      -0.02044032 </v>
   <v>      -0.08974601      -0.08090222       0.00921027 </v>
   <v>       0.13853720      -0.04086833       0.01369741 </v>
   <v>       0.19809547       0.12903969      -0.02387433 </v>
   <v>      -0.27263246       0.16231109       0.06024791 </v>
   <v>       0.05057082      -0.27375755      -0.10427236 </v>
   <v>      -0.31393616       0.16935825       0.09575026 </v>
   <v>       0.09381124       0.55096047      -0.10907893 </v>
   <v>      -0.01006659      -0.33154805       0.10817230 </v>
   <v>       0.48090362      -0.55713421      -2.12421172 </v>
   <v>       0.24177252      -0.53684281       1.38346910 </v>
   <v>      -0.65115460      -0.13428495      -2.12386370 </v>
   <v>      -0.07240515      -0.17090646       2.88059381 </v>
   <v>       0.05900327      -0.00399887      -0.78124884 </v>
   <v>      -0.90130849       0.00049464       1.43031474 </v>
   <v>       0.34413190      -0.71253868      -2.14744377 </v>
   <v>      -0.34726031      -0.67914121       2.16152417 </v>
   <v>       0.20515233      -0.16091582      -2.96687292 </v>
   <v>      -0.17176733      -0.15205241       2.92815974 </v>
   <v>      -0.65983365       0.13264476      -2.13732004 </v>
   <v>      -0.21981027       0.18733309       2.87269574 </v>
   <v>       0.27957686      -0.00257115      -2.83802737 </v>
   <v>       0.57673146       0.00014574       2.12529162 </v>
   <v>       0.50377138       0.70237861      -2.15379746 </v>
   <v>      -0.34429400       0.68075021       2.19791941 </v>
   <v>       0.38395087       0.68154093      -2.14623984 </v>
   <v>       0.33258687       0.67414148       1.40964510 </v>
  </varray>
  <varray name="stress" >
   <v>       7.26356421       0.04893237      -1.51057575 </v>
   <v>       0.04893254       4.50060081       0.04814792 </v>
   <v>      -1.51057582       0.04814790      30.32202323 </v>
  </varray>
  <energy>
   <i name="e_fr_energy">   -186.84364409 </i>
   <i name="e_wo_entrp">   -186.67193375 </i>
   <i name="e_0_energy">     -0.34342068 </i>
  </energy>
  <time name="totalsc">  779.85  781.96</time>
 </calculation>
 <calculation>
  <scstep>
   <time name="dav">   21.51   21.56</time>
   <time name="total">   22.05   22.11</time>
   <energy>
    <i name="alphaZ">     78.91905439 </i>
    <i name="ewald">  39377.77239033 </i>
    <i name="hartreedc"> -45335.06217523 </i>
    <i name="XCdc">   -239.07220659 </i>
    <i name="pawpsdc">   4192.07525094 </i>
    <i name="pawaedc">  -3610.07818260 </i>
    <i name="eentropy">     -0.28157268 </i>
    <i name="bandstr">  -1413.22095976 </i>
    <i name="atom">   6761.44252427 </i>
    <i name="e_fr_energy">   -187.50587693 </i>
    <i name="e_wo_entrp">   -187.22430425 </i>
    <i name="e_0_energy">   -187.36509059 </i>
   </energy>
  </scstep>
  <scstep>
   <time name="dav">   30.05   30.12</time>
   <time name="total">   30.58   30.67</time>
   <energy>
    <i name="e_fr_energy">   -189.43806134 </i>
    <i name="e_wo_entrp">   -189.10978561 </i>
    <i name="e_0_energy">   -189.27392347 </i>
   </energy>
  </scstep>
  <scstep>
   <time name="dav">   30.34   30.41</time>
   <time name="total">   30.89   30.97</time>
   <energy>
    <i name="e_fr_energy">   -189.34761389 </i>
    <i name="e_wo_entrp">   -189.08679805 </i>
    <i name="e_0_energy">   -189.21720597 </i>
   </energy>
  </scstep>
  <scstep>
   <time name="dav">   29.75   29.82</time>
   <time name="total">   30.30   30.39</time>
   <energy>
    <i name="e_fr_energy">   -188.77630629 </i>
    <i name="e_wo_entrp">   -188.49229561 </i>
    <i name="e_0_energy">   -188.63430095 </i>
   </energy>
  </scstep>
  <scstep>
   <time name="dav">   28.11   28.18</time>
   <time name="total">   28.65   28.73</time>
   <energy>
    <i name="e_fr_energy">   -188.86647819 </i>
    <i name="e_wo_entrp">   -188.58035403 </i>
    <i name="e_0_energy">   -188.72341611 </i>
   </energy>
  </scstep>
  <scstep>
   <time name="dav">   30.99   31.07</time>
   <time name="total">   31.53   31.62</time>
   <energy>
    <i name="e_fr_energy">   -188.76815541 </i>
    <i name="e_wo_entrp">   -188.48480857 </i>
    <i name="e_0_energy">   -188.62648199 </i>
   </energy>
  </scstep>
  <scstep>
   <time name="dav">   29.18   29.25</time>
   <time name="total">   29.73   29.80</time>
   <energy>
    <i name="e_fr_energy">   -188.69068038 </i>
    <i name="e_wo_entrp">   -188.40818960 </i>
    <i name="e_0_energy">   -188.54943499 </i>
   </energy>
  </scstep>
  <scstep>
   <time name="dav">   30.09   30.17</time>
   <time name="total">   30.64   30.72</time>
   <energy>
    <i name="e_fr_energy">   -188.68231362 </i>
    <i name="e_wo_entrp">   -188.40099671 </i>
    <i name="e_0_energy">   -188.54165517 </i>
   </energy>
  </scstep>
  <scstep>
   <time name="dav">   29.54   29.61</time>
   <time name="total">   30.08   30.16</time>
   <energy>
    <i name="e_fr_energy">   -188.66977296 </i>
    <i name="e_wo_entrp">   -188.38852153 </i>
    <i name="e_0_energy">   -188.52914725 </i>
   </energy>
  </scstep>
  <scstep>
   <time name="dav">   28.10   28.17</time>
   <time name="total">   28.65   28.72</time>
   <energy>
    <i name="e_fr_energy">   -188.66591083 </i>
    <i name="e_wo_entrp">   -188.38552939 </i>
    <i name="e_0_energy">   -188.52572011 </i>
   </energy>
  </scstep>
  <scstep>
   <time name="dav">   31.92   32.00</time>
   <time name="total">   32.46   32.55</time>
   <energy>
    <i name="e_fr_energy">   -188.66535322 </i>
    <i name="e_wo_entrp">   -188.38616156 </i>
    <i name="e_0_energy">   -188.52575739 </i>
   </energy>
  </scstep>
  <scstep>
   <time name="dav">   29.39   29.46</time>
   <time name="total">   29.93   30.01</time>
   <energy>
    <i name="e_fr_energy">   -188.66524800 </i>
    <i name="e_wo_entrp">   -188.38616624 </i>
    <i name="e_0_energy">   -188.52570712 </i>
   </energy>
  </scstep>
  <scstep>
   <time name="dav">   23.57   23.62</time>
   <time name="total">   23.60   23.67</time>
   <energy>
    <i name="alphaZ">     78.91905439 </i>
    <i name="ewald">  39377.77239033 </i>
    <i name="hartreedc"> -45345.92817575 </i>
    <i name="XCdc">   -237.98031255 </i>
    <i name="pawpsdc">   3950.50856471 </i>
    <i name="pawaedc">  -3365.01337081 </i>
    <i name="eentropy">     -0.27938108 </i>
    <i name="bandstr">  -1408.10658012 </i>
    <i name="atom">   6761.44252427 </i>
    <i name="e_fr_energy">   -188.66528661 </i>
    <i name="e_wo_entrp">   -188.38590554 </i>
    <i name="e_0_energy">   -188.52559607 </i>
   </energy>
  </scstep>
  <structure>
   <crystal>
    <varray name="basis" >
     <v>       8.85485191       5.10756250       0.00000000 </v>
     <v>      -8.85340960       5.10508188       0.00000000 </v>
     <v>       0.00000000       0.00000000      30.00000000 </v>
    </varray>
    <i name="volume">   2712.72260676 </i>
    <varray name="rec_basis" >
     <v>       0.05645710       0.09790986       0.00000000 </v>
     <v>      -0.05648453       0.09792581       0.00000000 </v>
     <v>       0.00000000       0.00000000       0.03333333 </v>
    </varray>
   </crystal>
   <varray name="positions" >
    <v>      -0.00065740      -0.00157896      -0.00003287 </v>
    <v>      -0.00063688       0.66652918       0.00001481 </v>
    <v>       0.33352318      -0.00058103       0.00002203 </v>
    <v>       0.33450206       0.66673313      -0.00003839 </v>
    <v>       0.66668500       0.33486867       0.00009688 </v>
    <v>       0.66549719       0.66521579      -0.00016768 </v>
    <v>       0.99993712       0.33501731       0.00015397 </v>
    <v>       0.33623123       0.33570923      -0.00017541 </v>
    <v>       0.66505190      -0.00155877       0.00017395 </v>
    <v>       0.10935663       0.21844543       0.95198407 </v>
    <v>       0.22055314       0.10744314       0.04682474 </v>
    <v>       0.10823081       0.55695208       0.95198463 </v>
    <v>       0.22143041       0.44340194       0.04923225 </v>
    <v>       0.11083013       0.88893317       0.95414367 </v>
    <v>       0.21994459       0.77986175       0.04690007 </v>
    <v>       0.44156569       0.21808219       0.95194671 </v>
    <v>       0.55156666       0.10840089       0.04807592 </v>
    <v>       0.44381908       0.55444225       0.95062900 </v>
    <v>       0.55457755       0.44376862       0.04930874 </v>
    <v>       0.44281753       0.89158706       0.95196299 </v>
    <v>       0.55606818       0.77885992       0.04921955 </v>
    <v>       0.77811732       0.22165968       0.95083619 </v>
    <v>       0.89072172       0.10908125       0.04801766 </v>
    <v>       0.78211494       0.55774315       0.95193649 </v>
    <v>       0.89141664       0.44823439       0.04813445 </v>
    <v>       0.78168185       0.89131009       0.95194865 </v>
    <v>       0.89326820       0.77965291       0.04686683 </v>
   </varray>
  </structure>
  <varray name="forces" >
   <v>       0.04200470      -0.18925289       0.00580637 </v>
   <v>      -0.00621891      -0.15248469       0.01810617 </v>
   <v>       0.16013150       0.02586283       0.09954092 </v>
   <v>       0.46414946       0.12770675       0.05285863 </v>
   <v>      -0.22521742       0.15040428      -0.06202887 </v>
   <v>      -0.11689093      -0.54590451      -0.04042525 </v>
   <v>      -0.27532532       0.09985213      -0.06496224 </v>
   <v>      -0.04530748       0.70492951      -0.04850979 </v>
   <v>       0.00147625      -0.27034380       0.03229385 </v>
   <v>      -0.05613773       0.07884289       0.25604320 </v>
   <v>      -0.04933326       0.06956576      -0.24616319 </v>
   <v>       0.01464762      -0.09089932       0.02409206 </v>
   <v>       0.08617350      -0.11441717      -0.01300887 </v>
   <v>       0.02600208      -0.01026889       0.13266968 </v>
   <v>      -0.04762317       0.00220492      -0.16801662 </v>
   <v>      -0.11680818      -0.05629880       0.03785743 </v>
   <v>       0.10768935      -0.05135382      -0.02240796 </v>
   <v>       0.06254806      -0.10356033      -0.31496682 </v>
   <v>      -0.05149889      -0.10200833       0.22567363 </v>
   <v>       0.01937718       0.09003597      -0.06094247 </v>
   <v>      -0.04118957       0.11580602       0.13789977 </v>
   <v>       0.11544645      -0.00088681       0.14340064 </v>
   <v>      -0.10049122      -0.00483672      -0.10773642 </v>
   <v>       0.02486042       0.08344027      -0.07441453 </v>
   <v>       0.09120248       0.06552084       0.09197936 </v>
   <v>      -0.10555092       0.03582522       0.05113918 </v>
   <v>       0.02188396       0.04251869      -0.08577784 </v>
  </varray>
  <varray name="stress" >
   <v>     -19.92659053      -0.01214489       0.02283442 </v>
   <v>      -0.01214471     -19.51260747      -0.00656584 </v>
   <v>       0.02283437      -0.00656588      -1.75729844 </v>
  </varray>
  <energy>
   <i name="e_fr_energy">   -188.66528661 </i>
   <i name="e_wo_entrp">   -188.52559607 </i>
   <i name="e_0_energy">     -0.27938108 </i>
  </energy>
  <time name="totalsc">  420.49  421.62</time>
 </calculation>
 <calculation>
  <scstep>
   <time name="dav">   23.75   23.80</time>
   <time name="total">   24.28   24.34</time>
   <energy>
    <i name="alphaZ">     82.34325062 </i>
    <i name="ewald">  41301.13148169 </i>
    <i name="hartreedc"> -47299.92904012 </i>
    <i name="XCdc">   -233.85705247 </i>
    <i name="pawpsdc">   3950.02844112 </i>
    <i name="pawaedc">  -3364.52828099 </i>
    <i name="eentropy">     -0.23418101 </i>
    <i name="bandstr">  -1386.98673873 </i>
    <i name="atom">   6761.44252427 </i>
    <i name="e_fr_energy">   -190.58959561 </i>
    <i name="e_wo_entrp">   -190.35541460 </i>
    <i name="e_0_energy">   -190.47250510 </i>
   </energy>
  </scstep>
  <scstep>
   <time name="dav">   27.90   27.96</time>
   <time name="total">   28.42   28.50</time>
   <energy>
    <i name="e_fr_energy">   -190.52551668 </i>
    <i name="e_wo_entrp">   -190.30240197 </i>
    <i name="e_0_energy">   -190.41395933 </i>
   </energy>
  </scstep>
  <scstep>
   <time name="dav">   30.27   30.34</time>
   <time name="total">   30.80   30.89</time>
   <energy>
    <i name="e_fr_energy">   -190.07558460 </i>
    <i name="e_wo_entrp">   -189.82475727 </i>
    <i name="e_0_energy">   -189.95017094 </i>
   </energy>
  </scstep>
  <scstep>
   <time name="dav">   31.54   31.61</time>
   <time name="total">   32.07   32.15</time>
   <energy>
    <i name="e_fr_energy">   -189.86188371 </i>
    <i name="e_wo_entrp">   -189.63490854 </i>
    <i name="e_0_energy">   -189.74839613 </i>
   </energy>
  </scstep>
  <scstep>
   <time name="dav">   30.01   30.08</time>
   <time name="total">   30.54   30.62</time>
   <energy>
    <i name="e_fr_energy">   -189.81308218 </i>
    <i name="e_wo_entrp">   -189.57173159 </i>
    <i name="e_0_energy">   -189.69240688 </i>
   </energy>
  </scstep>
  <scstep>
   <time name="dav">   30.86   30.93</time>
   <time name="total">   31.39   31.47</time>
   <energy>
    <i name="e_fr_energy">   -189.76270367 </i>
    <i name="e_wo_entrp">   -189.52904295 </i>
    <i name="e_0_energy">   -189.64587331 </i>
   </energy>
  </scstep>
  <scstep>
   <time name="dav">   28.56   28.63</time>
   <time name="total">   29.09   29.17</time>
   <energy>
    <i name="e_fr_energy">   -189.75749497 </i>
    <i name="e_wo_entrp">   -189.52161343 </i>
    <i name="e_0_energy">   -189.63955420 </i>
   </energy>
  </scstep>
  <scstep>
   <time name="dav">   30.52   30.59</time>
   <time name="total">   31.05   31.13</time>
   <energy>
    <i name="e_fr_energy">   -189.75833883 </i>
    <i name="e_wo_entrp">   -189.52334564 </i>
    <i name="e_0_energy">   -189.64084223 </i>
   </energy>
  </scstep>
  <scstep>
   <time name="dav">   27.38   27.44</time>
   <time name="total">   27.90   27.98</time>
   <energy>
    <i name="e_fr_energy">   -189.75723888 </i>
    <i name="e_wo_entrp">   -189.52172799 </i>
    <i name="e_0_energy">   -189.63948344 </i>
   </energy>
  </scstep>
  <scstep>
   <time name="dav">   24.65   24.71</time>
   <time name="total">   25.19   25.26</time>
   <energy>
    <i name="e_fr_energy">   -189.75762114 </i>
    <i name="e_wo_entrp">   -189.52223206 </i>
    <i name="e_0_energy">   -189.63992660 </i>
   </energy>
  </scstep>
  <scstep>
   <time name="dav">   24.64   24.70</time>
   <time name="total">   25.16   25.23</time>
   <energy>
    <i name="e_fr_energy">   -189.75733134 </i>
    <i name="e_wo_entrp">   -189.52171940 </i>
    <i name="e_0_energy">   -189.63952537 </i>
   </energy>
  </scstep>
  <scstep>
   <time name="dav">   18.90   18.95</time>
   <time name="total">   18.94   18.99</time>
   <energy>
    <i name="alphaZ">     82.34325062 </i>
    <i name="ewald">  41301.13148169 </i>
    <i name="hartreedc"> -47273.31794568 </i>
    <i name="XCdc">   -235.25042787 </i>
    <i name="pawpsdc">   4038.64978336 </i>
    <i name="pawaedc">  -3454.34766430 </i>
    <i name="eentropy">     -0.23560563 </i>
    <i name="bandstr">  -1410.17274829 </i>
    <i name="atom">   6761.44252427 </i>
    <i name="e_fr_energy">   -189.75735182 </i>
    <i name="e_wo_entrp">   -189.52174619 </i>
    <i name="e_0_energy">   -189.63954901 </i>
   </energy>
  </scstep>
  <structure>
   <crystal>
    <varray name="basis" >
     <v>       8.66676610       5.00124947       0.00000000 </v>
     <v>      -8.66548658       4.99904960       0.00000000 </v>
     <v>       0.00000000       0.00000000      30.00000000 </v>
    </varray>
    <i name="volume">   2599.91561314 </i>
    <varray name="rec_basis" >
     <v>       0.05768321       0.09998963       0.00000000 </v>
     <v>      -0.05770860       0.10000439       0.00000000 </v>
     <v>       0.00000000       0.00000000       0.03333333 </v>
    </varray>
   </crystal>
   <varray name="positions" >
    <v>      -0.00093197      -0.00193419      -0.00002958 </v>
    <v>      -0.00089654       0.66628141       0.00002507 </v>
    <v>       0.33371983      -0.00069169       0.00007841 </v>
    <v>       0.33515981       0.66650014      -0.00000845 </v>
    <v>       0.66671917       0.33533511       0.00006175 </v>
    <v>       0.66447680       0.66441960      -0.00019058 </v>
    <v>       0.99983912       0.33544772       0.00011718 </v>
    <v>       0.33736058       0.33692572      -0.00020289 </v>
    <v>       0.66460353      -0.00201005       0.00019224 </v>
    <v>       0.10943395       0.21863050       0.95212910 </v>
    <v>       0.22062155       0.10760625       0.04668531 </v>
    <v>       0.10809363       0.55678677       0.95199828 </v>
    <v>       0.22132272       0.44312884       0.04922488 </v>
    <v>       0.11083799       0.88889113       0.95421882 </v>
    <v>       0.21990257       0.77991113       0.04680490 </v>
    <v>       0.44135996       0.21810062       0.95196815 </v>
    <v>       0.55158454       0.10821207       0.04806323 </v>
    <v>       0.44370679       0.55420989       0.95045059 </v>
    <v>       0.55435843       0.44364830       0.04943656 </v>
    <v>       0.44298591       0.89171829       0.95192847 </v>
    <v>       0.55622133       0.77909215       0.04929766 </v>
    <v>       0.77822660       0.22154739       0.95091742 </v>
    <v>       0.89061727       0.10916965       0.04795663 </v>
    <v>       0.78227761       0.55785813       0.95189434 </v>
    <v>       0.89161314       0.44825588       0.04818655 </v>
    <v>       0.78164019       0.89147102       0.95197761 </v>
    <v>       0.89335994       0.77970266       0.04681825 </v>
   </varray>
  </structure>
  <varray name="forces" >
   <v>      -0.03147055      -0.17570841       0.01603400 </v>
   <v>       0.03781705      -0.21196617       0.02021080 </v>
   <v>       0.18307089       0.07621693       0.09960887 </v>
   <v>       0.55380873       0.13265485       0.05009811 </v>
   <v>      -0.20470513       0.14903117      -0.06617153 </v>
   <v>      -0.17831645      -0.63012431      -0.01421109 </v>
   <v>      -0.25961437       0.05858657      -0.08627314 </v>
   <v>      -0.09475617       0.74346736      -0.01502955 </v>
   <v>       0.00720460      -0.23141828      -0.00052806 </v>
   <v>       0.02441938      -0.03116728      -0.22154883 </v>
   <v>       0.01243601      -0.03825469       0.18382357 </v>
   <v>      -0.10415121       0.00226883      -0.46928326 </v>
   <v>       0.06256081      -0.05453125       0.53726174 </v>
   <v>       0.03435738      -0.00729029      -0.28317032 </v>
   <v>      -0.11235551      -0.00253588       0.26562721 </v>
   <v>       0.00363309      -0.12399950      -0.46196525 </v>
   <v>      -0.01972674      -0.10476450       0.47284975 </v>
   <v>       0.01870898      -0.02405435      -0.91750497 </v>
   <v>      -0.01274900      -0.02569746       0.79351239 </v>
   <v>      -0.09376001       0.01209102      -0.56043492 </v>
   <v>       0.01792672       0.04668321       0.70016183 </v>
   <v>       0.04334048      -0.01545344      -0.39051939 </v>
   <v>       0.04204592      -0.00232801       0.39249178 </v>
   <v>       0.05343831       0.15917035      -0.56899272 </v>
   <v>      -0.04512050       0.13204898       0.61213559 </v>
   <v>       0.01348085       0.08381012      -0.43725013 </v>
   <v>       0.04847645       0.08326444       0.34906752 </v>
  </varray>
  <varray name="stress" >
   <v>     -10.18434869      -0.02378638       0.00156587 </v>
   <v>      -0.02378641      -9.86738933      -0.02173596 </v>
   <v>       0.00156585      -0.02173582       6.46884660 </v>
  </varray>
  <energy>
   <i name="e_fr_energy">   -189.75735182 </i>
   <i name="e_wo_entrp">   -189.63954901 </i>
   <i name="e_0_energy">     -0.23560563 </i>
  </energy>
  <time name="totalsc">  376.46  377.46</time>
 </calculation>
 <calculation>
  <scstep>
   <time name="dav">   21.57   21.63</time>
   <time name="total">   22.09   22.14</time>
   <energy>
    <i name="alphaZ">     85.83631058 </i>
    <i name="ewald">  42840.80103638 </i>
    <i name="hartreedc"> -48857.57591331 </i>
    <i name="XCdc">   -232.94855117 </i>
    <i name="pawpsdc">   4038.64076952 </i>
    <i name="pawaedc">  -3454.33582866 </i>
    <i name="eentropy">     -0.19687420 </i>
    <i name="bandstr">  -1373.00652304 </i>
    <i name="atom">   6761.44252427 </i>
    <i name="e_fr_energy">   -191.34304963 </i>
    <i name="e_wo_entrp">   -191.14617543 </i>
    <i name="e_0_energy">   -191.24461253 </i>
   </energy>
  </scstep>
  <scstep>
   <time name="dav">   31.41   31.49</time>
   <time name="total">   31.92   32.01</time>
   <energy>
    <i name="e_fr_energy">   -191.16662131 </i>
    <i name="e_wo_entrp">   -190.97182786 </i>
    <i name="e_0_energy">   -191.06922459 </i>
   </energy>
  </scstep>
  <scstep>
   <time name="dav">   29.76   29.83</time>
   <time name="total">   30.27   30.35</time>
   <energy>
    <i name="e_fr_energy">   -191.31935793 </i>
    <i name="e_wo_entrp">   -191.10191914 </i>
    <i name="e_0_energy">   -191.21063854 </i>
   </energy>
  </scstep>
  <scstep>
   <time name="dav">   29.51   29.58</time>
   <time name="total">   30.03   30.11</time>
   <energy>
    <i name="e_fr_energy">   -190.95081113 </i>
    <i name="e_wo_entrp">   -190.73993083 </i>
    <i name="e_0_energy">   -190.84537098 </i>
   </energy>
  </scstep>
  <scstep>
   <time name="dav">   27.56   27.63</time>
   <time name="total">   28.08   28.16</time>
   <energy>
    <i name="e_fr_energy">   -190.93143206 </i>
    <i name="e_wo_entrp">   -190.74347613 </i>
    <i name="e_0_energy">   -190.83745409 </i>
   </energy>
  </scstep>
  <scstep>
   <time name="dav">   27.83   27.89</time>
   <time name="total">   28.34   28.42</time>
   <energy>
    <i name="e_fr_energy">   -190.75798279 </i>
    <i name="e_wo_entrp">   -190.55633799 </i>
    <i name="e_0_energy">   -190.65716039 </i>
   </energy>
  </scstep>
  <scstep>
   <time name="dav">   30.69   30.76</time>
   <time name="total">   31.20   31.28</time>
   <energy>
    <i name="e_fr_energy">   -190.75672195 </i>
    <i name="e_wo_entrp">   -190.55438505 </i>
    <i name="e_0_energy">   -190.65555350 </i>
   </energy>
  </scstep>
  <scstep>
   <time name="dav">   28.29   28.36</time>
   <time name="total">   28.81   28.89</time>
   <energy>
    <i name="e_fr_energy">   -190.75482006 </i>
    <i name="e_wo_entrp">   -190.55256819 </i>
    <i name="e_0_energy">   -190.65369412 </i>
   </energy>
  </scstep>
  <scstep>
   <time name="dav">   27.02   27.08</time>
   <time name="total">   27.53   27.60</time>
   <energy>
    <i name="e_fr_energy">   -190.74993734 </i>
    <i name="e_wo_entrp">   -190.54789965 </i>
    <i name="e_0_energy">   -190.64891849 </i>
   </energy>
  </scstep>
  <scstep>
   <time name="dav">   25.70   25.77</time>
   <time name="total">   26.22   26.29</time>
   <energy>
    <i name="e_fr_energy">   -190.75031149 </i>
    <i name="e_wo_entrp">   -190.54827149 </i>
    <i name="e_0_energy">   -190.64929149 </i>
   </energy>
  </scstep>
  <scstep>
   <time name="dav">   26.47   26.53</time>
   <time name="total">   26.99   27.06</time>
   <energy>
    <i name="e_fr_energy">   -190.75009448 </i>
    <i name="e_wo_entrp">   -190.54795290 </i>
    <i name="e_0_energy">   -190.64902369 </i>
   </energy>
  </scstep>
  <scstep>
   <time name="dav">   20.05   20.10</time>
   <time name="total">   20.09   20.14</time>
   <energy>
    <i name="alphaZ">     85.83631058 </i>
    <i name="ewald">  42840.80103638 </i>
    <i name="hartreedc"> -48828.83783542 </i>
    <i name="XCdc">   -234.28637379 </i>
    <i name="pawpsdc">   4063.90762130 </i>
    <i name="pawaedc">  -3479.79022562 </i>
    <i name="eentropy">     -0.20226479 </i>
    <i name="bandstr">  -1399.62090200 </i>
    <i name="atom">   6761.44252427 </i>
    <i name="e_fr_energy">   -190.75010907 </i>
    <i name="e_wo_entrp">   -190.54784428 </i>
    <i name="e_0_energy">   -190.64897668 </i>
   </energy>
  </scstep>
  <structure>
   <crystal>
    <varray name="basis" >
     <v>       8.48382605       4.89996756       0.00000000 </v>
     <v>      -8.48362423       4.89963298       0.00000000 </v>
     <v>       0.00000000       0.00000000      30.00000000 </v>
    </varray>
    <i name="volume">   2494.11352235 </i>
    <varray name="rec_basis" >
     <v>       0.05893436       0.10204376       0.00000000 </v>
     <v>      -0.05893839       0.10204619       0.00000000 </v>
     <v>       0.00000000       0.00000000       0.03333333 </v>
    </varray>
   </crystal>
   <varray name="positions" >
    <v>      -0.00221906      -0.00278164       0.00001235 </v>
    <v>      -0.00217350       0.66460355       0.00006873 </v>
    <v>       0.33501861      -0.00078331       0.00028480 </v>
    <v>       0.33813551       0.66521110       0.00009297 </v>
    <v>       0.66693909       0.33697667      -0.00007885 </v>
    <v>       0.65958363       0.66099304      -0.00019768 </v>
    <v>       0.99918690       0.33662810      -0.00007969 </v>
    <v>       0.34170227       0.34209628      -0.00020549 </v>
    <v>       0.66328501      -0.00339741       0.00016318 </v>
    <v>       0.10916783       0.21795509       0.95126318 </v>
    <v>       0.22024606       0.10696237       0.04743251 </v>
    <v>       0.10779298       0.55758255       0.95060574 </v>
    <v>       0.22132302       0.44274475       0.05080671 </v>
    <v>       0.11093605       0.88871654       0.95327788 </v>
    <v>       0.21937511       0.78038329       0.04772467 </v>
    <v>       0.44060038       0.21696687       0.95058528 </v>
    <v>       0.55053907       0.10767707       0.04946476 </v>
    <v>       0.44375943       0.55425378       0.94803656 </v>
    <v>       0.55439822       0.44366844       0.05156418 </v>
    <v>       0.44236426       0.89210149       0.95034191 </v>
    <v>       0.55649102       0.77906149       0.05122715 </v>
    <v>       0.77814594       0.22136140       0.94965349 </v>
    <v>       0.89096672       0.10880341       0.04919594 </v>
    <v>       0.78369915       0.55881078       0.95029424 </v>
    <v>       0.89224729       0.44961016       0.04989782 </v>
    <v>       0.78250608       0.89189580       0.95065568 </v>
    <v>       0.89419741       0.78011278       0.04791188 </v>
   </varray>
  </structure>
  <varray name="forces" >
   <v>      -0.06034260      -0.16768974       0.03144750 </v>
   <v>       0.05317082      -0.23826535       0.02146069 </v>
   <v>       0.16950007       0.07389530       0.06550215 </v>
   <v>       0.63042356       0.16458840       0.01552356 </v>
   <v>      -0.16270628       0.16388039      -0.04663199 </v>
   <v>      -0.24582830      -0.64295804       0.02540025 </v>
   <v>      -0.27341981      -0.01716075      -0.07087154 </v>
   <v>      -0.11528755       0.72035186       0.02341282 </v>
   <v>       0.03374320      -0.19703401      -0.04129346 </v>
   <v>       0.03659453       0.06215386      -0.08807735 </v>
   <v>      -0.03061405       0.07371782       0.08098334 </v>
   <v>      -0.04099997       0.08793756      -0.27549390 </v>
   <v>       0.03731868       0.00148903       0.33392523 </v>
   <v>       0.03857362      -0.01444555      -0.26080710 </v>
   <v>       0.04670371      -0.01450098       0.17489518 </v>
   <v>      -0.02542450      -0.01857506      -0.29542447 </v>
   <v>      -0.02461153      -0.00496682       0.32731213 </v>
   <v>      -0.00275558       0.02726361      -0.79296538 </v>
   <v>       0.01636860       0.02862327       0.58141957 </v>
   <v>      -0.00813973      -0.04835670      -0.35361912 </v>
   <v>       0.05430039       0.00151875       0.51322710 </v>
   <v>      -0.02791437      -0.04233139      -0.23638412 </v>
   <v>      -0.01389269      -0.00816513       0.26574501 </v>
   <v>      -0.04132504       0.06875384      -0.39997628 </v>
   <v>      -0.06995937       0.05789015       0.44868161 </v>
   <v>       0.03744982      -0.05312373      -0.28733162 </v>
   <v>      -0.01092562      -0.06449060       0.23994021 </v>
  </varray>
  <varray name="stress" >
   <v>      -5.83062411       0.03468399       0.04665262 </v>
   <v>       0.03468381      -5.67014449      -0.00013243 </v>
   <v>       0.04665232      -0.00013242       4.55062749 </v>
  </varray>
  <energy>
   <i name="e_fr_energy">   -190.75010907 </i>
   <i name="e_wo_entrp">   -190.64897668 </i>
   <i name="e_0_energy">     -0.20226479 </i>
  </energy>
  <time name="totalsc">  373.04  374.04</time>
 </calculation>
 <calculation>
  <scstep>
   <time name="dav">   21.61   21.66</time>
   <time name="total">   22.12   22.18</time>
   <energy>
    <i name="alphaZ">     90.20431634 </i>
    <i name="ewald">  44675.48333837 </i>
    <i name="hartreedc"> -50719.03522493 </i>
    <i name="XCdc">   -231.83938788 </i>
    <i name="pawpsdc">   4063.91056275 </i>
    <i name="pawaedc">  -3479.78926980 </i>
    <i name="eentropy">     -0.18612320 </i>
    <i name="bandstr">  -1352.30729563 </i>
    <i name="atom">   6761.44252427 </i>
    <i name="e_fr_energy">   -192.11655971 </i>
    <i name="e_wo_entrp">   -191.93043651 </i>
    <i name="e_0_energy">   -192.02349811 </i>
   </energy>
  </scstep>
  <scstep>
   <time name="dav">   28.22   28.29</time>
   <time name="total">   28.72   28.80</time>
   <energy>
    <i name="e_fr_energy">   -191.88788518 </i>
    <i name="e_wo_entrp">   -191.68785136 </i>
    <i name="e_0_energy">   -191.78786827 </i>
   </energy>
  </scstep>
  <scstep>
   <time name="dav">   28.80   28.87</time>
   <time name="total">   29.31   29.39</time>
   <energy>
    <i name="e_fr_energy">   -192.39227009 </i>
    <i name="e_wo_entrp">   -192.20805076 </i>
    <i name="e_0_energy">   -192.30016043 </i>
   </energy>
  </scstep>
  <scstep>
   <time name="dav">   28.61   28.68</time>
   <time name="total">   29.11   29.19</time>
   <energy>
    <i name="e_fr_energy">   -191.65808383 </i>
    <i name="e_wo_entrp">   -191.46445409 </i>
    <i name="e_0_energy">   -191.56126896 </i>
   </energy>
  </scstep>
  <scstep>
   <time name="dav">   29.61   29.68</time>
   <time name="total">   30.12   30.20</time>
   <energy>
    <i name="e_fr_energy">   -191.60276144 </i>
    <i name="e_wo_entrp">   -191.40139721 </i>
    <i name="e_0_energy">   -191.50207933 </i>
   </energy>
  </scstep>
  <scstep>
   <time name="dav">   30.20   30.27</time>
   <time name="total">   30.71   31.01</time>
   <energy>
    <i name="e_fr_energy">   -191.43010629 </i>
    <i name="e_wo_entrp">   -191.24048825 </i>
    <i name="e_0_energy">   -191.33529727 </i>
   </energy>
  </scstep>
  <scstep>
   <time name="dav">   30.39   30.46</time>
   <time name="total">   30.90   30.98</time>
   <energy>
    <i name="e_fr_energy">   -191.41620589 </i>
    <i name="e_wo_entrp">   -191.21317288 </i>
    <i name="e_0_energy">   -191.31468938 </i>
   </energy>
  </scstep>
  <scstep>
   <time name="dav">   29.15   29.22</time>
   <time name="total">   29.66   29.74</time>
   <energy>
    <i name="e_fr_energy">   -191.40305839 </i>
    <i name="e_wo_entrp">   -191.20937293 </i>
    <i name="e_0_energy">   -191.30621566 </i>
   </energy>
  </scstep>
  <scstep>
   <time name="dav">   28.76   28.83</time>
   <time name="total">   29.27   29.34</time>
   <energy>
    <i name="e_fr_energy">   -191.39715086 </i>
    <i name="e_wo_entrp">   -191.20201019 </i>
    <i name="e_0_energy">   -191.29958053 </i>
   </energy>
  </scstep>
  <scstep>
   <time name="dav">   29.49   29.56</time>
   <time name="total">   30.00   30.08</time>
   <energy>
    <i name="e_fr_energy">   -191.39711343 </i>
    <i name="e_wo_entrp">   -191.20118178 </i>
    <i name="e_0_energy">   -191.29914761 </i>
   </energy>
  </scstep>
  <scstep>
   <time name="dav">   27.23   27.29</time>
   <time name="total">   27.26   27.34</time>
   <energy>
    <i name="alphaZ">     90.20431634 </i>
    <i name="ewald">  44675.48333837 </i>
    <i name="hartreedc"> -50684.87698018 </i>
    <i name="XCdc">   -233.36737590 </i>
    <i name="pawpsdc">   4085.50098207 </i>
    <i name="pawaedc">  -3501.48169990 </i>
    <i name="eentropy">     -0.19603515 </i>
    <i name="bandstr">  -1384.10622997 </i>
    <i name="atom">   6761.44252427 </i>
    <i name="e_fr_energy">   -191.39716006 </i>
    <i name="e_wo_entrp">   -191.20112490 </i>
    <i name="e_0_energy">   -191.29914248 </i>
   </energy>
  </scstep>
  <structure>
   <crystal>
    <varray name="basis" >
     <v>       8.27233110       4.78379377       0.00000000 </v>
     <v>      -8.27049700       4.78063286       0.00000000 </v>
     <v>       0.00000000       0.00000000      30.00000000 </v>
    </varray>
    <i name="volume">   2373.33989794 </i>
    <varray name="rec_basis" >
     <v>       0.06042918       0.10454251       0.00000000 </v>
     <v>      -0.06046914       0.10456569       0.00000000 </v>
     <v>       0.00000000       0.00000000       0.03333333 </v>
    </varray>
   </crystal>
   <varray name="positions" >
    <v>      -0.00478913      -0.00430000       0.00014071 </v>
    <v>      -0.00480613       0.66109412       0.00015649 </v>
    <v>       0.33734208      -0.00098054       0.00056684 </v>
    <v>       0.34469950       0.66263201       0.00017137 </v>
    <v>       0.66776697       0.34013747      -0.00028115 </v>
    <v>       0.64963106       0.65462138      -0.00009083 </v>
    <v>       0.99707246       0.33833304      -0.00039434 </v>
    <v>       0.34986171       0.35202672      -0.00009879 </v>
    <v>       0.66113266      -0.00599875      -0.00001355 </v>
    <v>       0.10984172       0.21785952       0.95036213 </v>
    <v>       0.22058056       0.10744178       0.04824116 </v>
    <v>       0.10845279       0.55934980       0.94890235 </v>
    <v>       0.22167278       0.44259279       0.05280689 </v>
    <v>       0.11106344       0.88827390       0.95180325 </v>
    <v>       0.21927190       0.78014111       0.04890827 </v>
    <v>       0.44004572       0.21631274       0.94881002 </v>
    <v>       0.54976876       0.10767718       0.05135243 </v>
    <v>       0.44416914       0.55480871       0.94418009 </v>
    <v>       0.55503655       0.44399951       0.05458233 </v>
    <v>       0.44130985       0.89171042       0.94831107 </v>
    <v>       0.55683533       0.77850309       0.05395180 </v>
    <v>       0.77737489       0.22109269       0.94808859 </v>
    <v>       0.89107824       0.10852445       0.05083069 </v>
    <v>       0.78476667       0.56018732       0.94810219 </v>
    <v>       0.89257686       0.45134815       0.05230824 </v>
    <v>       0.78266475       0.89116627       0.94893332 </v>
    <v>       0.89379334       0.77965957       0.04936832 </v>
   </varray>
  </structure>
  <varray name="forces" >
   <v>       0.01332886      -0.16690906       0.00653287 </v>
   <v>      -0.02156039      -0.18436620      -0.02816157 </v>
   <v>       0.08094818       0.00792076       0.01434979 </v>
   <v>       0.21615661       0.14483630      -0.07719546 </v>
   <v>       0.01877150       0.15815092       0.02337889 </v>
   <v>      -0.09579365      -0.03963702       0.01679823 </v>
   <v>      -0.26248590      -0.15086255      -0.01118438 </v>
   <v>      -0.00815917       0.19351222      -0.03761606 </v>
   <v>       0.08347715      -0.10532181       0.02198632 </v>
   <v>       0.00873138       0.19271641       0.19641959 </v>
   <v>      -0.10888576       0.23476464      -0.15293335 </v>
   <v>       0.06500963       0.13483236       0.07241480 </v>
   <v>       0.02991842       0.03195384      -0.00791060 </v>
   <v>       0.02443669      -0.02310167      -0.00014403 </v>
   <v>       0.27299533      -0.03081253      -0.08291626 </v>
   <v>      -0.10543807       0.09712409       0.01946880 </v>
   <v>       0.03899784       0.09303953      -0.00223609 </v>
   <v>      -0.01273911       0.02092581      -0.34295277 </v>
   <v>       0.05556705       0.05575731       0.22046414 </v>
   <v>       0.09060459      -0.07589933      -0.03855761 </v>
   <v>       0.08720531      -0.00735939       0.15436765 </v>
   <v>      -0.09168096      -0.07754169      -0.03538857 </v>
   <v>      -0.10923829      -0.01142992      -0.01006340 </v>
   <v>      -0.18562230      -0.03671278      -0.04586653 </v>
   <v>      -0.02916194      -0.03189664       0.13530239 </v>
   <v>       0.02709336      -0.19558835      -0.00572836 </v>
   <v>      -0.08247635      -0.22809526      -0.00262843 </v>
  </varray>
  <varray name="stress" >
   <v>      -0.05021302       0.14322024       0.36683278 </v>
   <v>       0.14322009       0.29780286       0.07459172 </v>
   <v>       0.36683275       0.07459191      -0.58952472 </v>
  </varray>
  <energy>
   <i name="e_fr_energy">   -191.39716006 </i>
   <i name="e_wo_entrp">   -191.29914248 </i>
   <i name="e_0_energy">     -0.19603515 </i>
  </energy>
  <time name="totalsc">  359.12  360.29</time>
 </calculation>
 <calculation>
  <scstep>
   <time name="dav">   21.59   21.64</time>
   <time name="total">   22.09   22.15</time>
   <energy>
    <i name="alphaZ">     90.14237011 </i>
    <i name="ewald">  44629.16929041 </i>
    <i name="hartreedc"> -50638.76453030 </i>
    <i name="XCdc">   -233.48543155 </i>
    <i name="pawpsdc">   4085.92266405 </i>
    <i name="pawaedc">  -3501.90068206 </i>
    <i name="eentropy">     -0.19884835 </i>
    <i name="bandstr">  -1383.76073433 </i>
    <i name="atom">   6761.44252427 </i>
    <i name="e_fr_energy">   -191.43337774 </i>
    <i name="e_wo_entrp">   -191.23452939 </i>
    <i name="e_0_energy">   -191.33395357 </i>
   </energy>
  </scstep>
  <scstep>
   <time name="dav">   31.75   31.83</time>
   <time name="total">   32.26   32.34</time>
   <energy>
    <i name="e_fr_energy">   -191.47413294 </i>
    <i name="e_wo_entrp">   -191.26604474 </i>
    <i name="e_0_energy">   -191.37008884 </i>
   </energy>
  </scstep>
  <scstep>
   <time name="dav">   30.01   30.09</time>
   <time name="total">   30.52   30.60</time>
   <energy>
    <i name="e_fr_energy">   -191.44419661 </i>
    <i name="e_wo_entrp">   -191.24531506 </i>
    <i name="e_0_energy">   -191.34475583 </i>
   </energy>
  </scstep>
  <scstep>
   <time name="dav">   27.44   27.51</time>
   <time name="total">   27.95   28.02</time>
   <energy>
    <i name="e_fr_energy">   -191.44442154 </i>
    <i name="e_wo_entrp">   -191.24454954 </i>
    <i name="e_0_energy">   -191.34448554 </i>
   </energy>
  </scstep>
  <scstep>
   <time name="dav">   26.78   26.85</time>
   <time name="total">   27.29   27.36</time>
   <energy>
    <i name="e_fr_energy">   -191.44259180 </i>
    <i name="e_wo_entrp">   -191.24211069 </i>
    <i name="e_0_energy">   -191.34235125 </i>
   </energy>
  </scstep>
  <scstep>
   <time name="dav">   28.27   28.34</time>
   <time name="total">   28.77   28.85</time>
   <energy>
    <i name="e_fr_energy">   -191.44257867 </i>
    <i name="e_wo_entrp">   -191.24206920 </i>
    <i name="e_0_energy">   -191.34232393 </i>
   </energy>
  </scstep>
  <scstep>
   <time name="dav">   25.75   25.81</time>
   <time name="total">   26.25   26.33</time>
   <energy>
    <i name="e_fr_energy">   -191.44287072 </i>
    <i name="e_wo_entrp">   -191.24360647 </i>
    <i name="e_0_energy">   -191.34323859 </i>
   </energy>
  </scstep>
  <scstep>
   <time name="dav">   22.71   22.76</time>
   <time name="total">   23.21   23.28</time>
   <energy>
    <i name="e_fr_energy">   -191.44226316 </i>
    <i name="e_wo_entrp">   -191.24215328 </i>
    <i name="e_0_energy">   -191.34220822 </i>
   </energy>
  </scstep>
  <scstep>
   <time name="dav">   16.76   16.80</time>
   <time name="total">   16.79   16.84</time>
   <energy>
    <i name="alphaZ">     90.14237011 </i>
    <i name="ewald">  44629.16929041 </i>
    <i name="hartreedc"> -50640.32777956 </i>
    <i name="XCdc">   -233.44871796 </i>
    <i name="pawpsdc">   4082.38001811 </i>
    <i name="pawaedc">  -3498.30714458 </i>
    <i name="eentropy">     -0.20013418 </i>
    <i name="bandstr">  -1382.29271894 </i>
    <i name="atom">   6761.44252427 </i>
    <i name="e_fr_energy">   -191.44229232 </i>
    <i name="e_wo_entrp">   -191.24215814 </i>
    <i name="e_0_energy">   -191.34222523 </i>
   </energy>
  </scstep>
  <structure>
   <crystal>
    <varray name="basis" >
     <v>       8.27318589       4.79076295       0.00000000 </v>
     <v>      -8.26773468       4.78134290       0.00000000 </v>
     <v>       0.00000000       0.00000000      30.00000000 </v>
    </varray>
    <i name="volume">   2374.97086753 </i>
    <varray name="rec_basis" >
     <v>       0.06039665       0.10443582       0.00000000 </v>
     <v>      -0.06051564       0.10450468       0.00000000 </v>
     <v>       0.00000000       0.00000000       0.03333333 </v>
    </varray>
   </crystal>
   <varray name="positions" >
    <v>      -0.00558752      -0.00517753       0.00015105 </v>
    <v>      -0.00579384       0.66023281       0.00011119 </v>
    <v>       0.33761467      -0.00117620       0.00058954 </v>
    <v>       0.34604995       0.66273493       0.00004737 </v>
    <v>       0.66861676       0.34087547      -0.00024338 </v>
    <v>       0.64916444       0.65470820      -0.00006400 </v>
    <v>       0.99555169       0.33833579      -0.00041191 </v>
    <v>       0.35080262       0.35301322      -0.00015930 </v>
    <v>       0.66084783      -0.00676915       0.00002195 </v>
    <v>       0.11083671       0.21880497       0.95067884 </v>
    <v>       0.22144537       0.10894077       0.04799441 </v>
    <v>       0.10932001       0.55983706       0.94902099 </v>
    <v>       0.22192023       0.44266667       0.05279140 </v>
    <v>       0.11101808       0.88808693       0.95180504 </v>
    <v>       0.21991144       0.77919118       0.04877346 </v>
    <v>       0.44022857       0.21710996       0.94884375 </v>
    <v>       0.55035186       0.10803216       0.05134624 </v>
    <v>       0.44423687       0.55495037       0.94363458 </v>
    <v>       0.55547804       0.44411800       0.05493220 </v>
    <v>       0.44119294       0.89106480       0.94825198 </v>
    <v>       0.55705168       0.77821291       0.05419593 </v>
    <v>       0.77671872       0.22096948       0.94803406 </v>
    <v>       0.89070249       0.10878549       0.05081223 </v>
    <v>       0.78404014       0.56054118       0.94803153 </v>
    <v>       0.89233098       0.45127006       0.05252217 </v>
    <v>       0.78175843       0.89010331       0.94892654 </v>
    <v>       0.89240529       0.77875159       0.04936206 </v>
   </varray>
  </structure>
  <varray name="forces" >
   <v>       0.05365371      -0.18066969       0.00112729 </v>
   <v>      -0.04397386      -0.18784931      -0.02819456 </v>
   <v>       0.07440898      -0.00599354       0.04019831 </v>
   <v>       0.22714958       0.18868428      -0.01804567 </v>
   <v>       0.00630790       0.17608728       0.03300579 </v>
   <v>      -0.10560405      -0.12472290       0.00840396 </v>
   <v>      -0.29304978      -0.17034071      -0.01979468 </v>
   <v>       0.02718680       0.30666150       0.00192838 </v>
   <v>       0.08836303      -0.13285853       0.03424348 </v>
   <v>      -0.01959415       0.10968785       0.19995338 </v>
   <v>      -0.06841158       0.13221718      -0.15173553 </v>
   <v>       0.03387354       0.07580061       0.08498654 </v>
   <v>      -0.00223846       0.01210425      -0.09170887 </v>
   <v>       0.01412762      -0.01803833       0.03433205 </v>
   <v>       0.17025660      -0.02667475      -0.11559354 </v>
   <v>      -0.03559244       0.07686525       0.02523801 </v>
   <v>       0.02994380       0.05868222      -0.03666743 </v>
   <v>       0.01842077       0.02933371      -0.19224866 </v>
   <v>       0.02606074       0.03071744       0.08468924 </v>
   <v>       0.05684441      -0.02535528      -0.03824679 </v>
   <v>       0.03964518       0.00084571       0.10249411 </v>
   <v>      -0.05483987      -0.06642473      -0.02476245 </v>
   <v>      -0.07440601      -0.00995562      -0.01894551 </v>
   <v>      -0.10150473      -0.01266523      -0.03598681 </v>
   <v>      -0.03281096      -0.01132037       0.12792462 </v>
   <v>       0.00774624      -0.09972831      -0.02334132 </v>
   <v>      -0.04196302      -0.12508998       0.01674666 </v>
  </varray>
  <varray name="stress" >
   <v>      -0.07303999       0.01643136       0.13160407 </v>
   <v>       0.01643143      -0.15951634      -0.00946496 </v>
   <v>       0.13160415      -0.00946494      -1.33605069 </v>
  </varray>
  <energy>
   <i name="e_fr_energy">   -191.44229232 </i>
   <i name="e_wo_entrp">   -191.34222523 </i>
   <i name="e_0_energy">     -0.20013418 </i>
  </energy>
  <time name="totalsc">  276.94  277.68</time>
 </calculation>
 <calculation>
  <scstep>
   <time name="dav">   21.67   21.72</time>
   <time name="total">   22.18   22.24</time>
   <energy>
    <i name="alphaZ">     90.24845527 </i>
    <i name="ewald">  44680.19665355 </i>
    <i name="hartreedc"> -50692.38299368 </i>
    <i name="XCdc">   -233.36633950 </i>
    <i name="pawpsdc">   4082.26848542 </i>
    <i name="pawaedc">  -3498.19450559 </i>
    <i name="eentropy">     -0.20217333 </i>
    <i name="bandstr">  -1381.49382830 </i>
    <i name="atom">   6761.44252427 </i>
    <i name="e_fr_energy">   -191.48372190 </i>
    <i name="e_wo_entrp">   -191.28154858 </i>
    <i name="e_0_energy">   -191.38263524 </i>
   </energy>
  </scstep>
  <scstep>
   <time name="dav">   32.54   32.62</time>
   <time name="total">   33.05   33.13</time>
   <energy>
    <i name="e_fr_energy">   -191.52624303 </i>
    <i name="e_wo_entrp">   -191.31164410 </i>
    <i name="e_0_energy">   -191.41894357 </i>
   </energy>
  </scstep>
  <scstep>
   <time name="dav">   30.29   30.36</time>
   <time name="total">   30.79   30.88</time>
   <energy>
    <i name="e_fr_energy">   -191.49196301 </i>
    <i name="e_wo_entrp">   -191.28965249 </i>
    <i name="e_0_energy">   -191.39080775 </i>
   </energy>
  </scstep>
  <scstep>
   <time name="dav">   27.22   27.28</time>
   <time name="total">   27.72   27.80</time>
   <energy>
    <i name="e_fr_energy">   -191.49131991 </i>
    <i name="e_wo_entrp">   -191.28792732 </i>
    <i name="e_0_energy">   -191.38962361 </i>
   </energy>
  </scstep>
  <scstep>
   <time name="dav">   27.58   27.65</time>
   <time name="total">   28.08   28.16</time>
   <energy>
    <i name="e_fr_energy">   -191.48955256 </i>
    <i name="e_wo_entrp">   -191.28525375 </i>
    <i name="e_0_energy">   -191.38740315 </i>
   </energy>
  </scstep>
  <scstep>
   <time name="dav">   27.98   28.04</time>
   <time name="total">   28.48   28.55</time>
   <energy>
    <i name="e_fr_energy">   -191.48922778 </i>
    <i name="e_wo_entrp">   -191.28459279 </i>
    <i name="e_0_energy">   -191.38691029 </i>
   </energy>
  </scstep>
  <scstep>
   <time name="dav">   26.76   26.83</time>
   <time name="total">   27.27   27.34</time>
   <energy>
    <i name="e_fr_energy">   -191.48965566 </i>
    <i name="e_wo_entrp">   -191.28668502 </i>
    <i name="e_0_energy">   -191.38817034 </i>
   </energy>
  </scstep>
  <scstep>
   <time name="dav">   24.04   24.09</time>
   <time name="total">   24.54   24.61</time>
   <energy>
    <i name="e_fr_energy">   -191.48878290 </i>
    <i name="e_wo_entrp">   -191.28450447 </i>
    <i name="e_0_energy">   -191.38664368 </i>
   </energy>
  </scstep>
  <scstep>
[...]
      <set comment="kpoint 31">
       <r>  -17.4795    1.0000 </r>
       <r>  -17.3076    1.0000 </r>
       <r>  -16.8998    1.0000 </r>
       <r>  -16.6247    1.0000 </r>
       <r>  -16.5096    1.0000 </r>
       <r>  -16.4024    1.0000 </r>
       <r>  -16.2906    1.0000 </r>
       <r>  -16.2315    1.0000 </r>
       <r>  -16.1056    1.0000 </r>
       <r>  -16.0531    1.0000 </r>
       <r>  -15.9182    1.0000 </r>
       <r>  -15.8374    1.0000 </r>
       <r>  -15.7530    1.0000 </r>
       <r>  -15.6895    1.0000 </r>
       <r>  -15.6377    1.0000 </r>
       <r>  -15.5260    1.0000 </r>
       <r>  -15.4736    1.0000 </r>
       <r>  -15.3153    1.0000 </r>
       <r>   -9.7244    1.0000 </r>
       <r>   -9.4689    1.0000 </r>
       <r>   -9.2765    1.0000 </r>
       <r>   -8.8975    1.0000 </r>
       <r>   -8.8384    1.0000 </r>
       <r>   -8.7307    1.0000 </r>
       <r>   -8.6153    1.0000 </r>
       <r>   -8.5778    1.0000 </r>
       <r>   -8.4427    1.0000 </r>
       <r>   -8.3475    1.0000 </r>
       <r>   -8.2616    1.0000 </r>
       <r>   -8.2045    1.0000 </r>
       <r>   -8.0961    1.0000 </r>
       <r>   -8.0453    1.0000 </r>
       <r>   -7.9823    1.0000 </r>
       <r>   -7.8910    1.0000 </r>
       <r>   -7.7945    1.0000 </r>
       <r>   -7.7232    1.0000 </r>
       <r>   -7.5821    1.0000 </r>
       <r>   -7.4517    1.0000 </r>
       <r>   -7.3437    1.0000 </r>
       <r>   -7.2526    1.0000 </r>
       <r>   -7.1233    1.0000 </r>
       <r>   -7.0675    1.0000 </r>
       <r>   -6.9959    1.0000 </r>
       <r>   -6.9448    1.0000 </r>
       <r>   -6.8504    1.0000 </r>
       <r>   -6.7586    1.0000 </r>
       <r>   -6.6657    1.0000 </r>
       <r>   -6.6259    1.0000 </r>
       <r>   -6.5750    1.0000 </r>
       <r>   -6.4742    1.0000 </r>
       <r>   -6.4537    1.0000 </r>
       <r>   -6.3835    1.0000 </r>
       <r>   -6.2926    1.0000 </r>
       <r>   -6.2336    1.0000 </r>
       <r>   -6.1438    1.0000 </r>
       <r>   -6.0751    1.0000 </r>
       <r>   -5.9698    1.0000 </r>
       <r>   -5.9408    1.0000 </r>
       <r>   -5.8903    1.0000 </r>
       <r>   -5.7871    1.0000 </r>
       <r>   -5.7305    1.0000 </r>
       <r>   -5.6741    1.0000 </r>
       <r>   -5.4569    1.0000 </r>
       <r>   -5.3441    1.0000 </r>
       <r>   -5.2433    1.0000 </r>
       <r>   -5.1645    1.0000 </r>
       <r>   -5.0781    1.0000 </r>
       <r>   -4.9177    1.0000 </r>
       <r>   -4.8832    1.0000 </r>
       <r>   -4.6666    1.0000 </r>
       <r>   -4.5883    1.0000 </r>
       <r>   -4.5149    1.0000 </r>
       <r>   -4.3502    1.0000 </r>
       <r>   -4.2938    1.0000 </r>
       <r>   -4.1432    1.0000 </r>
       <r>   -3.9538    1.0000 </r>
       <r>   -3.8994    1.0000 </r>
       <r>   -3.6315    0.9803 </r>
       <r>   -3.5703    0.9483 </r>
       <r>   -3.4163    0.7050 </r>
       <r>   -3.0082    0.0095 </r>
       <r>   -2.8498    0.0003 </r>
       <r>   -2.6747    0.0000 </r>
       <r>   -2.5828    0.0000 </r>
       <r>   -2.4221    0.0000 </r>
       <r>   -2.3837    0.0000 </r>
       <r>   -2.1537    0.0000 </r>
       <r>   -2.0843    0.0000 </r>
       <r>   -1.9750    0.0000 </r>
       <r>   -1.9317    0.0000 </r>
       <r>   -1.8181    0.0000 </r>
       <r>   -1.6805    0.0000 </r>
       <r>   -1.5641    0.0000 </r>
       <r>   -1.3459    0.0000 </r>
       <r>   -1.2711    0.0000 </r>
       <r>   -1.2313    0.0000 </r>
       <r>   -1.1710    0.0000 </r>
       <r>   -1.1262    0.0000 </r>
       <r>   -1.0492    0.0000 </r>
       <r>   -0.8645    0.0000 </r>
       <r>   -0.7905    0.0000 </r>
       <r>   -0.7093    0.0000 </r>
       <r>   -0.5745    0.0000 </r>
       <r>   -0.5439    0.0000 </r>
       <r>   -0.4093    0.0000 </r>
       <r>   -0.3787    0.0000 </r>
       <r>   -0.3073    0.0000 </r>
       <r>   -0.1108    0.0000 </r>
       <r>   -0.0207    0.0000 </r>
       <r>    0.1382    0.0000 </r>
       <r>    0.3054    0.0000 </r>
       <r>    0.4681    0.0000 </r>
       <r>    0.7337    0.0000 </r>
       <r>    0.8862    0.0000 </r>
       <r>    1.1283    0.0000 </r>
       <r>    1.2164    0.0000 </r>
       <r>    1.4616    0.0000 </r>
       <r>    2.1215    0.0000 </r>
       <r>    2.2822    0.0000 </r>
       <r>    2.3809    0.0000 </r>
      </set>
      <set comment="kpoint 32">
       <r>  -17.5054    1.0000 </r>
       <r>  -17.2143    1.0000 </r>
       <r>  -17.0209    1.0000 </r>
       <r>  -16.6182    1.0000 </r>
       <r>  -16.4613    1.0000 </r>
       <r>  -16.3371    1.0000 </r>
       <r>  -16.3093    1.0000 </r>
       <r>  -16.2399    1.0000 </r>
       <r>  -16.1258    1.0000 </r>
       <r>  -16.0379    1.0000 </r>
       <r>  -15.9792    1.0000 </r>
       <r>  -15.8437    1.0000 </r>
       <r>  -15.7515    1.0000 </r>
       <r>  -15.6813    1.0000 </r>
       <r>  -15.6280    1.0000 </r>
       <r>  -15.5057    1.0000 </r>
       <r>  -15.4726    1.0000 </r>
       <r>  -15.3211    1.0000 </r>
       <r>   -9.6699    1.0000 </r>
       <r>   -9.5696    1.0000 </r>
       <r>   -9.3399    1.0000 </r>
       <r>   -8.8806    1.0000 </r>
       <r>   -8.7554    1.0000 </r>
       <r>   -8.6466    1.0000 </r>
       <r>   -8.6312    1.0000 </r>
       <r>   -8.4857    1.0000 </r>
       <r>   -8.4266    1.0000 </r>
       <r>   -8.3253    1.0000 </r>
       <r>   -8.3017    1.0000 </r>
       <r>   -8.2416    1.0000 </r>
       <r>   -8.1470    1.0000 </r>
       <r>   -8.0671    1.0000 </r>
       <r>   -8.0045    1.0000 </r>
       <r>   -7.9079    1.0000 </r>
       <r>   -7.8262    1.0000 </r>
       <r>   -7.7260    1.0000 </r>
       <r>   -7.5854    1.0000 </r>
       <r>   -7.4245    1.0000 </r>
       <r>   -7.3130    1.0000 </r>
       <r>   -7.2786    1.0000 </r>
       <r>   -7.1674    1.0000 </r>
       <r>   -7.1253    1.0000 </r>
       <r>   -6.9752    1.0000 </r>
       <r>   -6.9282    1.0000 </r>
       <r>   -6.8724    1.0000 </r>
       <r>   -6.7767    1.0000 </r>
       <r>   -6.6758    1.0000 </r>
       <r>   -6.6344    1.0000 </r>
       <r>   -6.5475    1.0000 </r>
       <r>   -6.4977    1.0000 </r>
       <r>   -6.4026    1.0000 </r>
       <r>   -6.3904    1.0000 </r>
       <r>   -6.2856    1.0000 </r>
       <r>   -6.2193    1.0000 </r>
       <r>   -6.1077    1.0000 </r>
       <r>   -6.0845    1.0000 </r>
       <r>   -5.9611    1.0000 </r>
       <r>   -5.9155    1.0000 </r>
       <r>   -5.8486    1.0000 </r>
       <r>   -5.7474    1.0000 </r>
       <r>   -5.6785    1.0000 </r>
       <r>   -5.5850    1.0000 </r>
       <r>   -5.4862    1.0000 </r>
       <r>   -5.4021    1.0000 </r>
       <r>   -5.2891    1.0000 </r>
       <r>   -5.2181    1.0000 </r>
       <r>   -5.0461    1.0000 </r>
       <r>   -4.9978    1.0000 </r>
       <r>   -4.8679    1.0000 </r>
       <r>   -4.6747    1.0000 </r>
       <r>   -4.6101    1.0000 </r>
       <r>   -4.4964    1.0000 </r>
       <r>   -4.3827    1.0000 </r>
       <r>   -4.2865    1.0000 </r>
       <r>   -4.1614    1.0000 </r>
       <r>   -3.9625    1.0000 </r>
       <r>   -3.8645    0.9999 </r>
       <r>   -3.6779    0.9915 </r>
       <r>   -3.4661    0.8136 </r>
       <r>   -3.3224    0.4503 </r>
       <r>   -3.0779    0.0319 </r>
       <r>   -2.8765    0.0005 </r>
       <r>   -2.7233    0.0000 </r>
       <r>   -2.5615    0.0000 </r>
       <r>   -2.4525    0.0000 </r>
       <r>   -2.4117    0.0000 </r>
       <r>   -2.1494    0.0000 </r>
       <r>   -2.0512    0.0000 </r>
       <r>   -2.0078    0.0000 </r>
       <r>   -1.9008    0.0000 </r>
       <r>   -1.8589    0.0000 </r>
       <r>   -1.6778    0.0000 </r>
       <r>   -1.5682    0.0000 </r>
       <r>   -1.3619    0.0000 </r>
       <r>   -1.2519    0.0000 </r>
       <r>   -1.1963    0.0000 </r>
       <r>   -1.1405    0.0000 </r>
       <r>   -1.1180    0.0000 </r>
       <r>   -1.0103    0.0000 </r>
       <r>   -0.8957    0.0000 </r>
       <r>   -0.7969    0.0000 </r>
       <r>   -0.7088    0.0000 </r>
       <r>   -0.5860    0.0000 </r>
       <r>   -0.5413    0.0000 </r>
       <r>   -0.4565    0.0000 </r>
       <r>   -0.4022    0.0000 </r>
       <r>   -0.2832    0.0000 </r>
       <r>   -0.2001    0.0000 </r>
       <r>   -0.0122    0.0000 </r>
       <r>    0.1247    0.0000 </r>
       <r>    0.3433    0.0000 </r>
       <r>    0.5743    0.0000 </r>
       <r>    0.7719    0.0000 </r>
       <r>    0.9062    0.0000 </r>
       <r>    1.1342    0.0000 </r>
       <r>    1.2041    0.0000 </r>
       <r>    1.3900    0.0000 </r>
       <r>    2.0968    0.0000 </r>
       <r>    2.2485    0.0000 </r>
       <r>    2.5571    0.0000 </r>
      </set>
      <set comment="kpoint 33">
       <r>  -17.4932    1.0000 </r>
       <r>  -17.2732    1.0000 </r>
       <r>  -16.9226    1.0000 </r>
       <r>  -16.6128    1.0000 </r>
       <r>  -16.5159    1.0000 </r>
       <r>  -16.4455    1.0000 </r>
       <r>  -16.2889    1.0000 </r>
       <r>  -16.2246    1.0000 </r>
       <r>  -16.0991    1.0000 </r>
       <r>  -16.0005    1.0000 </r>
       <r>  -15.9426    1.0000 </r>
       <r>  -15.8472    1.0000 </r>
       <r>  -15.7584    1.0000 </r>
       <r>  -15.6891    1.0000 </r>
       <r>  -15.6323    1.0000 </r>
       <r>  -15.5041    1.0000 </r>
       <r>  -15.4712    1.0000 </r>
       <r>  -15.3311    1.0000 </r>
       <r>   -9.7465    1.0000 </r>
       <r>   -9.4636    1.0000 </r>
       <r>   -9.2853    1.0000 </r>
       <r>   -8.9437    1.0000 </r>
       <r>   -8.8350    1.0000 </r>
       <r>   -8.7034    1.0000 </r>
       <r>   -8.6365    1.0000 </r>
       <r>   -8.5550    1.0000 </r>
       <r>   -8.3661    1.0000 </r>
       <r>   -8.3266    1.0000 </r>
       <r>   -8.2684    1.0000 </r>
       <r>   -8.2017    1.0000 </r>
       <r>   -8.0880    1.0000 </r>
       <r>   -8.0388    1.0000 </r>
       <r>   -7.9834    1.0000 </r>
       <r>   -7.8907    1.0000 </r>
       <r>   -7.7984    1.0000 </r>
       <r>   -7.7530    1.0000 </r>
       <r>   -7.5844    1.0000 </r>
       <r>   -7.4927    1.0000 </r>
       <r>   -7.4057    1.0000 </r>
       <r>   -7.2341    1.0000 </r>
       <r>   -7.1449    1.0000 </r>
       <r>   -7.0451    1.0000 </r>
       <r>   -6.9943    1.0000 </r>
       <r>   -6.9197    1.0000 </r>
       <r>   -6.8423    1.0000 </r>
       <r>   -6.8254    1.0000 </r>
       <r>   -6.7440    1.0000 </r>
       <r>   -6.6131    1.0000 </r>
       <r>   -6.5670    1.0000 </r>
       <r>   -6.4766    1.0000 </r>
       <r>   -6.4317    1.0000 </r>
       <r>   -6.3499    1.0000 </r>
       <r>   -6.2989    1.0000 </r>
       <r>   -6.1484    1.0000 </r>
       <r>   -6.1014    1.0000 </r>
       <r>   -6.0452    1.0000 </r>
       <r>   -5.9925    1.0000 </r>
       <r>   -5.9458    1.0000 </r>
       <r>   -5.8175    1.0000 </r>
       <r>   -5.7624    1.0000 </r>
       <r>   -5.6931    1.0000 </r>
       <r>   -5.5923    1.0000 </r>
       <r>   -5.5444    1.0000 </r>
       <r>   -5.4243    1.0000 </r>
       <r>   -5.3515    1.0000 </r>
       <r>   -5.2157    1.0000 </r>
       <r>   -5.0942    1.0000 </r>
       <r>   -4.8656    1.0000 </r>
       <r>   -4.7813    1.0000 </r>
       <r>   -4.6984    1.0000 </r>
       <r>   -4.6138    1.0000 </r>
       <r>   -4.4882    1.0000 </r>
       <r>   -4.3607    1.0000 </r>
       <r>   -4.2713    1.0000 </r>
       <r>   -4.1883    1.0000 </r>
       <r>   -3.9947    1.0000 </r>
       <r>   -3.8534    0.9999 </r>
       <r>   -3.7296    0.9971 </r>
       <r>   -3.3740    0.5947 </r>
       <r>   -3.2554    0.2748 </r>
       <r>   -3.1398    0.0784 </r>
       <r>   -2.9134    0.0013 </r>
       <r>   -2.7677    0.0000 </r>
       <r>   -2.5632    0.0000 </r>
       <r>   -2.4945    0.0000 </r>
       <r>   -2.4307    0.0000 </r>
       <r>   -2.1417    0.0000 </r>
       <r>   -2.0692    0.0000 </r>
       <r>   -1.9822    0.0000 </r>
       <r>   -1.9067    0.0000 </r>
       <r>   -1.8382    0.0000 </r>
       <r>   -1.6470    0.0000 </r>
       <r>   -1.5575    0.0000 </r>
       <r>   -1.3674    0.0000 </r>
       <r>   -1.2526    0.0000 </r>
       <r>   -1.1889    0.0000 </r>
       <r>   -1.1312    0.0000 </r>
       <r>   -1.1011    0.0000 </r>
       <r>   -0.9766    0.0000 </r>
       <r>   -0.8941    0.0000 </r>
       <r>   -0.7633    0.0000 </r>
       <r>   -0.7252    0.0000 </r>
       <r>   -0.6249    0.0000 </r>
       <r>   -0.6080    0.0000 </r>
       <r>   -0.5440    0.0000 </r>
       <r>   -0.3848    0.0000 </r>
       <r>   -0.3251    0.0000 </r>
       <r>   -0.2175    0.0000 </r>
       <r>   -0.0320    0.0000 </r>
       <r>    0.1907    0.0000 </r>
       <r>    0.3499    0.0000 </r>
       <r>    0.6313    0.0000 </r>
       <r>    0.8420    0.0000 </r>
       <r>    0.9417    0.0000 </r>
       <r>    1.1660    0.0000 </r>
       <r>    1.2053    0.0000 </r>
       <r>    1.3331    0.0000 </r>
       <r>    2.1313    0.0000 </r>
       <r>    2.2801    0.0000 </r>
       <r>    2.3903    0.0000 </r>
      </set>
      <set comment="kpoint 34">
       <r>  -17.4720    1.0000 </r>
       <r>  -17.3289    1.0000 </r>
       <r>  -16.7784    1.0000 </r>
       <r>  -16.6693    1.0000 </r>
       <r>  -16.6019    1.0000 </r>
       <r>  -16.4623    1.0000 </r>
       <r>  -16.2865    1.0000 </r>
       <r>  -16.2199    1.0000 </r>
       <r>  -16.0899    1.0000 </r>
       <r>  -16.0038    1.0000 </r>
       <r>  -15.8606    1.0000 </r>
       <r>  -15.8326    1.0000 </r>
       <r>  -15.7989    1.0000 </r>
       <r>  -15.6931    1.0000 </r>
       <r>  -15.6362    1.0000 </r>
       <r>  -15.5108    1.0000 </r>
       <r>  -15.4712    1.0000 </r>
       <r>  -15.3357    1.0000 </r>
       <r>   -9.7827    1.0000 </r>
       <r>   -9.3821    1.0000 </r>
       <r>   -9.1876    1.0000 </r>
       <r>   -9.0538    1.0000 </r>
       <r>   -8.9090    1.0000 </r>
       <r>   -8.7475    1.0000 </r>
       <r>   -8.6365    1.0000 </r>
       <r>   -8.5850    1.0000 </r>
       <r>   -8.3686    1.0000 </r>
       <r>   -8.3293    1.0000 </r>
       <r>   -8.2740    1.0000 </r>
       <r>   -8.1423    1.0000 </r>
       <r>   -8.0706    1.0000 </r>
       <r>   -7.9875    1.0000 </r>
       <r>   -7.9171    1.0000 </r>
       <r>   -7.8877    1.0000 </r>
       <r>   -7.8261    1.0000 </r>
       <r>   -7.7286    1.0000 </r>
       <r>   -7.5795    1.0000 </r>
       <r>   -7.5280    1.0000 </r>
       <r>   -7.4602    1.0000 </r>
       <r>   -7.2325    1.0000 </r>
       <r>   -7.1520    1.0000 </r>
       <r>   -7.0110    1.0000 </r>
       <r>   -6.9819    1.0000 </r>
       <r>   -6.9118    1.0000 </r>
       <r>   -6.8711    1.0000 </r>
       <r>   -6.7598    1.0000 </r>
       <r>   -6.6787    1.0000 </r>
       <r>   -6.6661    1.0000 </r>
       <r>   -6.6021    1.0000 </r>
       <r>   -6.4969    1.0000 </r>
       <r>   -6.4344    1.0000 </r>
       <r>   -6.3784    1.0000 </r>
       <r>   -6.2522    1.0000 </r>
       <r>   -6.1930    1.0000 </r>
       <r>   -6.1086    1.0000 </r>
       <r>   -6.0416    1.0000 </r>
       <r>   -6.0154    1.0000 </r>
       <r>   -5.8855    1.0000 </r>
       <r>   -5.8318    1.0000 </r>
       <r>   -5.7438    1.0000 </r>
       <r>   -5.6988    1.0000 </r>
       <r>   -5.6041    1.0000 </r>
       <r>   -5.5712    1.0000 </r>
       <r>   -5.5195    1.0000 </r>
       <r>   -5.3666    1.0000 </r>
       <r>   -5.1675    1.0000 </r>
       <r>   -5.0970    1.0000 </r>
       <r>   -4.8261    1.0000 </r>
       <r>   -4.7646    1.0000 </r>
       <r>   -4.6846    1.0000 </r>
       <r>   -4.5343    1.0000 </r>
       <r>   -4.4913    1.0000 </r>
       <r>   -4.3616    1.0000 </r>
       <r>   -4.2722    1.0000 </r>
       <r>   -4.2073    1.0000 </r>
       <r>   -4.0244    1.0000 </r>
       <r>   -3.8588    0.9999 </r>
       <r>   -3.7452    0.9979 </r>
       <r>   -3.3015    0.3925 </r>
       <r>   -3.2892    0.3595 </r>
       <r>   -3.1396    0.0782 </r>
       <r>   -2.9341    0.0020 </r>
       <r>   -2.7885    0.0000 </r>
       <r>   -2.5756    0.0000 </r>
       <r>   -2.4994    0.0000 </r>
       <r>   -2.4433    0.0000 </r>
       <r>   -2.1364    0.0000 </r>
       <r>   -2.0850    0.0000 </r>
       <r>   -1.9600    0.0000 </r>
       <r>   -1.9213    0.0000 </r>
       <r>   -1.8158    0.0000 </r>
       <r>   -1.6226    0.0000 </r>
       <r>   -1.5477    0.0000 </r>
       <r>   -1.3655    0.0000 </r>
       <r>   -1.2604    0.0000 </r>
       <r>   -1.1900    0.0000 </r>
       <r>   -1.1300    0.0000 </r>
       <r>   -1.1065    0.0000 </r>
       <r>   -0.9781    0.0000 </r>
       <r>   -0.8275    0.0000 </r>
       <r>   -0.7497    0.0000 </r>
       <r>   -0.7275    0.0000 </r>
       <r>   -0.6948    0.0000 </r>
       <r>   -0.6493    0.0000 </r>
       <r>   -0.5756    0.0000 </r>
       <r>   -0.4065    0.0000 </r>
       <r>   -0.3055    0.0000 </r>
       <r>   -0.2351    0.0000 </r>
       <r>   -0.0297    0.0000 </r>
       <r>    0.2294    0.0000 </r>
       <r>    0.3393    0.0000 </r>
       <r>    0.6417    0.0000 </r>
       <r>    0.8651    0.0000 </r>
       <r>    1.0045    0.0000 </r>
       <r>    1.1191    0.0000 </r>
       <r>    1.2603    0.0000 </r>
       <r>    1.3040    0.0000 </r>
       <r>    2.2141    0.0000 </r>
       <r>    2.2428    0.0000 </r>
       <r>    2.3732    0.0000 </r>
      </set>
     </set>
    </set>
   </array>
  </eigenvalues>
  <separator name="orbital magnetization" >
   <v name="MAGDIPOLOUT">      0.00000000      0.00000000      0.00000000</v>
  </separator>
 </calculation>
 <structure name="finalpos" >
  <crystal>
   <varray name="basis" >
    <v>       8.35552804       4.84565175       0.00000000 </v>
    <v>      -8.35417443       4.84300839       0.00000000 </v>
    <v>       0.00000000       0.00000000      30.00000000 </v>
   </varray>
   <i name="volume">   2428.41937042 </i>
   <varray name="rec_basis" >
    <v>       0.05982914       0.10320509       0.00000000 </v>
    <v>      -0.05986180       0.10322181       0.00000000 </v>
    <v>       0.00000000       0.00000000       0.03333333 </v>
   </varray>
  </crystal>
  <varray name="positions" >
   <v>      -0.01725561      -0.02806634      -0.00017227 </v>
   <v>      -0.02063071       0.65424365       0.00068822 </v>
   <v>       0.30999415      -0.03679287       0.00007039 </v>
   <v>       0.37161423       0.68380526      -0.00069506 </v>
   <v>       0.68604753       0.36885623      -0.00001454 </v>
   <v>       0.66003358       0.66627818       0.00019192 </v>
   <v>       0.96050170       0.32514560       0.00185639 </v>
   <v>       0.37273086       0.36777560      -0.00153715 </v>
   <v>       0.65883153      -0.02306065       0.00029240 </v>
   <v>       0.11115657       0.22310721       0.95842627 </v>
   <v>       0.22419711       0.11134391       0.04237620 </v>
   <v>       0.11364978       0.55541713       0.95610200 </v>
   <v>       0.22025179       0.44310929       0.04647787 </v>
   <v>       0.10417052       0.87914048       0.95002470 </v>
   <v>       0.21924295       0.76725552       0.04938898 </v>
   <v>       0.44352803       0.21943437       0.95165627 </v>
   <v>       0.54882323       0.11185057       0.04283352 </v>
   <v>       0.45419442       0.56497793       0.94254369 </v>
   <v>       0.56203166       0.45255580       0.05599733 </v>
   <v>       0.44359806       0.89211937       0.94651169 </v>
   <v>       0.56422691       0.77992935       0.05682732 </v>
   <v>       0.76463804       0.21994025       0.94816351 </v>
   <v>       0.88798476       0.10455210       0.05103710 </v>
   <v>       0.78672738       0.56941856       0.94571177 </v>
   <v>       0.88914961       0.45282618       0.05637882 </v>
   <v>       0.78329965       0.89440599       0.94657840 </v>
   <v>       0.89547671       0.77864578       0.05228418 </v>
  </varray>
 </structure>
</modeling>
