unknown system                          
           1
     8.854852    5.107562    0.000000
    -8.853410    5.105082    0.000000
     0.000000    0.000000   30.000000
   V    Mo   W    S 
   3   3   3  18
Direct configuration=     1
   0.00000000  0.00000000  0.00000000
   0.00000000  0.66666669  0.00000000
   0.33333334  0.00000000  0.00000000
   0.33333334  0.66666669  0.00000000
   0.66666669  0.33333334  0.00000000
   0.66666669  0.66666669  0.00000000
   1.00000000  0.33333334  0.00000000
   0.33333334  0.33333334  0.00000000
   0.66666669  0.00000000  0.00000000
   0.11068511  0.22244981  0.95539999
   0.22244981  0.11068511  0.04460000
   0.11068511  0.55578315  0.95539999
   0.22244981  0.44401845  0.04460000
   0.11068511  0.88911647  0.95539999
   0.22244981  0.77735180  0.04460000
   0.44401845  0.22244981  0.95539999
   0.55578315  0.11068511  0.04460000
   0.44401845  0.55578315  0.95539999
   0.55578315  0.44401845  0.04460000
   0.44401845  0.88911647  0.95539999
   0.55578315  0.77735180  0.04460000
   0.77735180  0.22244981  0.95539999
   0.88911647  0.11068511  0.04460000
   0.77735180  0.55578315  0.95539999
   0.88911647  0.44401845  0.04460000
   0.77735180  0.88911647  0.95539999
   0.88911647  0.77735180  0.04460000
unknown system                          
           1
     8.666766    5.001249    0.000000
    -8.665487    4.999050    0.000000
     0.000000    0.000000   30.000000
   V    Mo   W    S 
   3   3   3  18
Direct configuration=     2
  -0.00065740 -0.00157896 -0.00003287
  -0.00063688  0.66652918  0.00001481
   0.33352318 -0.00058103  0.00002203
   0.33450206  0.66673313 -0.00003839
   0.66668500  0.33486867  0.00009688
   0.66549719  0.66521579 -0.00016768
   0.99993712  0.33501731  0.00015397
   0.33623123  0.33570923 -0.00017541
   0.66505190 -0.00155877  0.00017395
   0.10935663  0.21844543  0.95198407
   0.22055314  0.10744314  0.04682474
   0.10823081  0.55695208  0.95198463
   0.22143041  0.44340194  0.04923225
   0.11083013  0.88893317  0.95414367
   0.21994459  0.77986175  0.04690007
   0.44156569  0.21808219  0.95194671
   0.55156666  0.10840089  0.04807592
   0.44381908  0.55444225  0.95062900
   0.55457755  0.44376862  0.04930874
   0.44281753  0.89158706  0.95196299
   0.55606818  0.77885992  0.04921955
   0.77811732  0.22165968  0.95083619
   0.89072172  0.10908125  0.04801766
   0.78211494  0.55774315  0.95193649
   0.89141664  0.44823439  0.04813445
   0.78168185  0.89131009  0.95194865
   0.89326820  0.77965291  0.04686683
unknown system                          
           1
     8.483826    4.899968    0.000000
    -8.483624    4.899633    0.000000
     0.000000    0.000000   30.000000
   V    Mo   W    S 
   3   3   3  18
Direct configuration=     3
  -0.00093197 -0.00193419 -0.00002958
  -0.00089654  0.66628141  0.00002507
   0.33371983 -0.00069169  0.00007841
   0.33515981  0.66650014 -0.00000845
   0.66671917  0.33533511  0.00006175
   0.66447680  0.66441960 -0.00019058
   0.99983912  0.33544772  0.00011718
   0.33736058  0.33692572 -0.00020289
   0.66460353 -0.00201005  0.00019224
   0.10943395  0.21863050  0.95212910
   0.22062155  0.10760625  0.04668531
   0.10809363  0.55678677  0.95199828
   0.22132272  0.44312884  0.04922488
   0.11083799  0.88889113  0.95421882
   0.21990257  0.77991113  0.04680490
   0.44135996  0.21810062  0.95196815
   0.55158454  0.10821207  0.04806323
   0.44370679  0.55420989  0.95045059
   0.55435843  0.44364830  0.04943656
   0.44298591  0.89171829  0.95192847
   0.55622133  0.77909215  0.04929766
   0.77822660  0.22154739  0.95091742
   0.89061727  0.10916965  0.04795663
   0.78227761  0.55785813  0.95189434
   0.89161314  0.44825588  0.04818655
   0.78164019  0.89147102  0.95197761
   0.89335994  0.77970266  0.04681825
unknown system                          
           1
     8.272331    4.783794    0.000000
    -8.270497    4.780633    0.000000
     0.000000    0.000000   30.000000
   V    Mo   W    S 
   3   3   3  18
Direct configuration=     4
  -0.00221906 -0.00278164  0.00001235
  -0.00217350  0.66460355  0.00006873
   0.33501861 -0.00078331  0.00028480
   0.33813551  0.66521110  0.00009297
   0.66693909  0.33697667 -0.00007885
   0.65958363  0.66099304 -0.00019768
   0.99918690  0.33662810 -0.00007969
   0.34170227  0.34209628 -0.00020549
   0.66328501 -0.00339741  0.00016318
   0.10916783  0.21795509  0.95126318
   0.22024606  0.10696237  0.04743251
   0.10779298  0.55758255  0.95060574
   0.22132302  0.44274475  0.05080671
   0.11093605  0.88871654  0.95327788
   0.21937511  0.78038329  0.04772467
   0.44060038  0.21696687  0.95058528
   0.55053907  0.10767707  0.04946476
   0.44375943  0.55425378  0.94803656
   0.55439822  0.44366844  0.05156418
   0.44236426  0.89210149  0.95034191
   0.55649102  0.77906149  0.05122715
   0.77814594  0.22136140  0.94965349
   0.89096672  0.10880341  0.04919594
   0.78369915  0.55881078  0.95029424
   0.89224729  0.44961016  0.04989782
   0.78250608  0.89189580  0.95065568
   0.89419741  0.78011278  0.04791188
unknown system                          
           1
     8.273186    4.790763    0.000000
    -8.267735    4.781343    0.000000
     0.000000    0.000000   30.000000
   V    Mo   W    S 
   3   3   3  18
Direct configuration=     5
  -0.00478913 -0.00430000  0.00014071
  -0.00480613  0.66109412  0.00015649
   0.33734208 -0.00098054  0.00056684
   0.34469950  0.66263201  0.00017137
   0.66776697  0.34013747 -0.00028115
   0.64963106  0.65462138 -0.00009083
   0.99707246  0.33833304 -0.00039434
   0.34986171  0.35202672 -0.00009879
   0.66113266 -0.00599875 -0.00001355
   0.10984172  0.21785952  0.95036213
   0.22058056  0.10744178  0.04824116
   0.10845279  0.55934980  0.94890235
   0.22167278  0.44259279  0.05280689
   0.11106344  0.88827390  0.95180325
   0.21927190  0.78014111  0.04890827
   0.44004572  0.21631274  0.94881002
   0.54976876  0.10767718  0.05135243
   0.44416914  0.55480871  0.94418009
   0.55503655  0.44399951  0.05458233
   0.44130985  0.89171042  0.94831107
   0.55683533  0.77850309  0.05395180
   0.77737489  0.22109269  0.94808859
   0.89107824  0.10852445  0.05083069
   0.78476667  0.56018732  0.94810219
   0.89257686  0.45134815  0.05230824
   0.78266475  0.89116627  0.94893332
   0.89379334  0.77965957  0.04936832
unknown system                          
           1
     8.269642    4.787899    0.000000
    -8.263572    4.777413    0.000000
     0.000000    0.000000   30.000000
   V    Mo   W    S 
   3   3   3  18
Direct configuration=     6
  -0.00558752 -0.00517753  0.00015105
  -0.00579384  0.66023281  0.00011119
   0.33761467 -0.00117620  0.00058954
   0.34604995  0.66273493  0.00004737
   0.66861676  0.34087547 -0.00024338
   0.64916444  0.65470820 -0.00006400
   0.99555169  0.33833579 -0.00041191
   0.35080262  0.35301322 -0.00015930
   0.66084783 -0.00676915  0.00002195
   0.11083671  0.21880497  0.95067884
   0.22144537  0.10894077  0.04799441
   0.10932001  0.55983706  0.94902099
   0.22192023  0.44266667  0.05279140
   0.11101808  0.88808693  0.95180504
   0.21991144  0.77919118  0.04877346
   0.44022857  0.21710996  0.94884375
   0.55035186  0.10803216  0.05134624
   0.44423687  0.55495037  0.94363458
   0.55547804  0.44411800  0.05493220
   0.44119294  0.89106480  0.94825198
   0.55705168  0.77821291  0.05419593
   0.77671872  0.22096948  0.94803406
   0.89070249  0.10878549  0.05081223
   0.78404014  0.56054118  0.94803153
   0.89233098  0.45127006  0.05252217
   0.78175843  0.89010331  0.94892654
   0.89240529  0.77875159  0.04936206
unknown system                          
           1
     8.275001    4.792299    0.000000
    -8.267824    4.779898    0.000000
     0.000000    0.000000   30.000000
   V    Mo   W    S 
   3   3   3  18
Direct configuration=     7
  -0.00657454 -0.00653482  0.00015547
  -0.00718116  0.65914928  0.00005558
   0.33788794 -0.00148761  0.00067407
   0.34816694  0.66305235  0.00000989
   0.66976455  0.34201097 -0.00018028
   0.64784903  0.65421862 -0.00004505
   0.99337534  0.33835707 -0.00045652
   0.35294829  0.35499386 -0.00015527
   0.66030190 -0.00796853  0.00008786
   0.11147799  0.21957216  0.95106358
   0.22204294  0.11004512  0.04770483
   0.10994170  0.56022817  0.94916077
   0.22199931  0.44275033  0.05264593
   0.11095797  0.88791306  0.95184675
   0.22036844  0.77838927  0.04856379
   0.44057241  0.21771887  0.94886217
   0.55082084  0.10829641  0.05130742
   0.44449358  0.55508002  0.94317619
   0.55578421  0.44422381  0.05516042
   0.44121690  0.89068274  0.94813839
   0.55720904  0.77805823  0.05445218
   0.77608176  0.22074780  0.94795418
   0.89036931  0.10899065  0.05080434
   0.78360057  0.56085907  0.94791997
   0.89214305  0.45134701  0.05282276
   0.78115302  0.88942115  0.94884878
   0.89144313  0.77809939  0.04942171
unknown system                          
           1
     8.280176    4.797555    0.000000
    -8.271370    4.782335    0.000000
     0.000000    0.000000   30.000000
   V    Mo   W    S 
   3   3   3  18
Direct configuration=     8
  -0.00693712 -0.00718456  0.00015392
  -0.00773464  0.65879740  0.00003608
   0.33790367 -0.00164642  0.00070887
   0.34891507  0.66342460 -0.00002115
   0.67029009  0.34242840 -0.00017550
   0.64772980  0.65429967 -0.00003774
   0.99233280  0.33826174 -0.00048129
   0.35361200  0.35540371 -0.00018495
   0.66014501 -0.00841828  0.00010863
   0.11161549  0.21982309  0.95126069
   0.22219489  0.11035349  0.04757333
   0.11009798  0.56032132  0.94926242
   0.22198320  0.44276477  0.05252210
   0.11091908  0.88785340  0.95189408
   0.22047523  0.77813368  0.04845241
   0.44071763  0.21791463  0.94890684
   0.55097981  0.10836393  0.05125201
   0.44457933  0.55512495  0.94309080
   0.55593785  0.44428839  0.05521193
   0.44125302  0.89060460  0.94812728
   0.55730447  0.77804529  0.05452111
   0.77581640  0.22062675  0.94794995
   0.89029082  0.10905500  0.05077083
   0.78347280  0.56095276  0.94790579
   0.89210447  0.45139882  0.05291576
   0.78099024  0.88928140  0.94883718
   0.89122505  0.77794192  0.04943851
unknown system                          
           1
     8.281597    4.799207    0.000000
    -8.271873    4.782400    0.000000
     0.000000    0.000000   30.000000
   V    Mo   W    S 
   3   3   3  18
Direct configuration=     9
  -0.00741269 -0.00802407  0.00015383
  -0.00843510  0.65834038  0.00001669
   0.33792929 -0.00185148  0.00075697
   0.34989825  0.66389439 -0.00006003
   0.67094805  0.34297386 -0.00017927
   0.64752234  0.65436385 -0.00002528
   0.99099963  0.33814080 -0.00051631
   0.35448713  0.35595175 -0.00022630
   0.65995260 -0.00898596  0.00012971
   0.11175036  0.22009027  0.95148229
   0.22234304  0.11067494  0.04743850
   0.11026468  0.56045209  0.94935391
   0.22196247  0.44277314  0.05240199
   0.11086635  0.88777498  0.95191968
   0.22056713  0.77785280  0.04834762
   0.44087409  0.21810753  0.94892329
   0.55113609  0.10843134  0.05122082
   0.44468235  0.55519440  0.94293078
   0.55614406  0.44438002  0.05533342
   0.44127755  0.89052890  0.94807357
   0.55743556  0.77803046  0.05465686
   0.77548009  0.22046800  0.94790906
   0.89022622  0.10911364  0.05076175
   0.78336883  0.56108578  0.94784228
   0.89207734  0.45150804  0.05307312
   0.78084026  0.88915149  0.94878562
   0.89102850  0.77779310  0.04949535
unknown system                          
           1
     8.274890    4.795403    0.000000
    -8.265158    4.778581    0.000000
     0.000000    0.000000   30.000000
   V    Mo   W    S 
   3   3   3  18
Direct configuration=    10
  -0.00782119 -0.00882713  0.00015061
  -0.00903862  0.65797957 -0.00000123
   0.33788369 -0.00205677  0.00080606
   0.35077368  0.66440151 -0.00007549
   0.67153835  0.34347200 -0.00016437
   0.64738619  0.65445452 -0.00001155
   0.98976671  0.33798361 -0.00053059
   0.35527959  0.35637946 -0.00024438
   0.65981383 -0.00949297  0.00016688
   0.11183341  0.22032067  0.95171064
   0.22243023  0.11091437  0.04730062
   0.11037359  0.56051572  0.94947403
   0.22193717  0.44278410  0.05222360
   0.11080561  0.88770530  0.95196406
   0.22062105  0.77762850  0.04823364
   0.44103189  0.21826943  0.94895993
   0.55128216  0.10848601  0.05114769
   0.44478960  0.55525659  0.94286864
   0.55628074  0.44445023  0.05536203
   0.44134514  0.89049712  0.94805616
   0.55753824  0.77803947  0.05471878
   0.77519043  0.22031918  0.94788940
   0.89017230  0.10916446  0.05071569
   0.78329166  0.56117729  0.94781574
   0.89204079  0.45157716  0.05316651
   0.78074466  0.88909856  0.94876403
   0.89092357  0.77771650  0.04953275
unknown system                          
           1
     8.285558    4.803906    0.000000
    -8.273381    4.782857    0.000000
     0.000000    0.000000   30.000000
   V    Mo   W    S 
   3   3   3  18
Direct configuration=    11
  -0.00792497 -0.00892339  0.00015345
  -0.00917486  0.65790474 -0.00000324
   0.33792017 -0.00206175  0.00081884
   0.35100176  0.66443681 -0.00006654
   0.67162301  0.34359689 -0.00014931
   0.64724821  0.65436839 -0.00000422
   0.98956230  0.33796406 -0.00053317
   0.35552548  0.35657823 -0.00023096
   0.65977999 -0.00961793  0.00018012
   0.11186364  0.22037043  0.95175036
   0.22245343  0.11098530  0.04726599
   0.11039645  0.56051538  0.94949134
   0.22195168  0.44278808  0.05219405
   0.11080042  0.88770723  0.95197581
   0.22064616  0.77757903  0.04820791
   0.44105537  0.21831867  0.94896516
   0.55131635  0.10849331  0.05113405
   0.44481057  0.55525559  0.94284446
   0.55628347  0.44445473  0.05535651
   0.44135076  0.89047961  0.94804830
   0.55754870  0.77802703  0.05471988
   0.77515611  0.22029743  0.94789320
   0.89014886  0.10917957  0.05070101
   0.78325801  0.56118908  0.94780960
   0.89203442  0.45156850  0.05317932
   0.78071036  0.88907064  0.94876653
   0.89086864  0.77768879  0.04953145
unknown system                          
           1
     8.291489    4.809344    0.000000
    -8.277428    4.785038    0.000000
     0.000000    0.000000   30.000000
   V    Mo   W    S 
   3   3   3  18
Direct configuration=    12
  -0.00853912 -0.01053354  0.00013702
  -0.01022934  0.65720301 -0.00003648
   0.33783680 -0.00252473  0.00090779
   0.35257943  0.66565242 -0.00011849
   0.67268772  0.34451827 -0.00015151
   0.64724237  0.65468457  0.00001335
   0.98721047  0.33766064 -0.00055516
   0.35687843  0.35709953 -0.00030264
   0.65938602 -0.01051266  0.00023874
   0.11196959  0.22078706  0.95215146
   0.22260825  0.11130389  0.04705902
   0.11053483  0.56063877  0.94970704
   0.22185799  0.44279525  0.05186535
   0.11072683  0.88752884  0.95202237
   0.22066755  0.77726502  0.04802916
   0.44131366  0.21849829  0.94901548
   0.55149441  0.10855462  0.05100624
   0.44501173  0.55540086  0.94275013
   0.55657918  0.44462620  0.05544430
   0.44147230  0.89050343  0.94800873
   0.55776989  0.77807487  0.05487281
   0.77457312  0.22000747  0.94782154
   0.89008873  0.10926669  0.05065189
   0.78318852  0.56137185  0.94774799
   0.89197472  0.45177617  0.05337263
   0.78055285  0.88901401  0.94868489
   0.89077753  0.77755368  0.04965626
unknown system                          
           1
     8.291742    4.809282    0.000000
    -8.277875    4.785311    0.000000
     0.000000    0.000000   30.000000
   V    Mo   W    S 
   3   3   3  18
Direct configuration=    13
  -0.00912713 -0.01175549  0.00011911
  -0.01103720  0.65677312 -0.00005981
   0.33776604 -0.00283160  0.00096944
   0.35381743  0.66663594 -0.00016214
   0.67338122  0.34523174 -0.00015496
   0.64734926  0.65496882  0.00002731
   0.98543361  0.33725236 -0.00057081
   0.35792398  0.35747549 -0.00036392
   0.65924185 -0.01121222  0.00028074
   0.11201684  0.22103531  0.95244947
   0.22262919  0.11150709  0.04692216
   0.11066777  0.56070147  0.94984605
   0.22178516  0.44280217  0.05162751
   0.11064682  0.88742644  0.95203198
   0.22066308  0.77700585  0.04794172
   0.44150461  0.21862689  0.94901755
   0.55164912  0.10864315  0.05093859
   0.44515638  0.55551577  0.94266387
   0.55682074  0.44475748  0.05553780
   0.44155225  0.89052484  0.94793584
   0.55796633  0.77809621  0.05501713
   0.77410025  0.21978491  0.94775029
   0.89008542  0.10930643  0.05062805
   0.78309219  0.56149893  0.94766655
   0.89189638  0.45190886  0.05355238
   0.78049996  0.88901409  0.94861655
   0.89073293  0.77752041  0.04977147
unknown system                          
           1
     8.295517    4.814045    0.000000
    -8.278883    4.785289    0.000000
     0.000000    0.000000   30.000000
   V    Mo   W    S 
   3   3   3  18
Direct configuration=    14
  -0.00901762 -0.01164366  0.00012192
  -0.01096223  0.65679463 -0.00005938
   0.33776340 -0.00280607  0.00095900
   0.35369338  0.66648394 -0.00015532
   0.67337844  0.34512495 -0.00015944
   0.64728061  0.65493694  0.00002243
   0.98558544  0.33735626 -0.00057626
   0.35782236  0.35746474 -0.00036091
   0.65921984 -0.01113353  0.00027630
   0.11201279  0.22102492  0.95242014
   0.22266208  0.11149955  0.04693413
   0.11065413  0.56072267  0.94982420
   0.22178898  0.44279494  0.05165837
   0.11067176  0.88743476  0.95203833
   0.22066407  0.77703443  0.04794152
   0.44149078  0.21861916  0.94903175
   0.55162871  0.10863396  0.05094837
   0.44513253  0.55549177  0.94267043
   0.55679784  0.44473718  0.05552575
   0.44152967  0.89051500  0.94794848
   0.55793301  0.77809693  0.05499764
   0.77417600  0.21981161  0.94776078
   0.89007223  0.10930915  0.05061628
   0.78311200  0.56149123  0.94768721
   0.89191454  0.45191090  0.05354194
   0.78049056  0.88900767  0.94863863
   0.89071915  0.77750042  0.04974760
unknown system                          
           1
     8.283864    4.803211    0.000000
    -8.271156    4.781246    0.000000
     0.000000    0.000000   30.000000
   V    Mo   W    S 
   3   3   3  18
Direct configuration=    15
  -0.00985302 -0.01368597  0.00009767
  -0.01216391  0.65614765 -0.00008841
   0.33752708 -0.00335676  0.00107471
   0.35559750  0.66806179 -0.00020161
   0.67447010  0.34628059 -0.00014350
   0.64742489  0.65538800  0.00006813
   0.98289012  0.33679281 -0.00057838
   0.35945175  0.35802314 -0.00042468
   0.65897540 -0.01223314  0.00036317
   0.11203234  0.22141428  0.95294000
   0.22265314  0.11176113  0.04668777
   0.11079625  0.56075068  0.95010261
   0.22168790  0.44282160  0.05120061
   0.11049489  0.88723578  0.95207307
   0.22064353  0.77665830  0.04777395
   0.44181235  0.21882129  0.94906163
   0.55186703  0.10873912  0.05077415
   0.44538494  0.55570622  0.94260921
   0.55713770  0.44496027  0.05557179
   0.44173711  0.89057966  0.94787801
   0.55824758  0.77817175  0.05515071
   0.77342483  0.21944774  0.94767134
   0.89006373  0.10936968  0.05052094
   0.78298100  0.56167261  0.94760471
   0.89176923  0.45209616  0.05374822
   0.78043252  0.88907985  0.94856995
   0.89072846  0.77751022  0.04989412
unknown system                          
           1
     8.299779    4.817445    0.000000
    -8.282475    4.787529    0.000000
     0.000000    0.000000   30.000000
   V    Mo   W    S 
   3   3   3  18
Direct configuration=    16
  -0.00885315 -0.01088214  0.00015195
  -0.01068072  0.65698809 -0.00005095
   0.33787123 -0.00249447  0.00092287
   0.35312914  0.66570674 -0.00009724
   0.67317512  0.34472088 -0.00011442
   0.64696384  0.65464068  0.00003168
   0.98639051  0.33763924 -0.00059030
   0.35745445  0.35750850 -0.00027357
   0.65941817 -0.01076899  0.00027378
   0.11202643  0.22090235  0.95224861
   0.22266268  0.11149156  0.04698249
   0.11059307  0.56072377  0.94973244
   0.22189918  0.44279472  0.05181369
   0.11068875  0.88753669  0.95206997
   0.22069122  0.77711385  0.04795612
   0.44143587  0.21863640  0.94902762
   0.55161007  0.10858664  0.05100503
   0.44505567  0.55539034  0.94267262
   0.55664767  0.44462999  0.05544795
   0.44146801  0.89041334  0.94798403
   0.55780891  0.77807369  0.05487590
   0.77447359  0.21990415  0.94780201
   0.89001307  0.10926195  0.05061460
   0.78314825  0.56141756  0.94773736
   0.89197966  0.45180391  0.05344209
   0.78047923  0.88894580  0.94870571
   0.89066454  0.77752920  0.04962786
unknown system                          
           1
     8.297968    4.816872    0.000000
    -8.280180    4.786122    0.000000
     0.000000    0.000000   30.000000
   V    Mo   W    S 
   3   3   3  18
Direct configuration=    17
  -0.00992704 -0.01367091  0.00008958
  -0.01226126  0.65606968 -0.00009856
   0.33765107 -0.00329158  0.00107709
   0.35565245  0.66811061 -0.00023551
   0.67449985  0.34626407 -0.00015954
   0.64746945  0.65539657  0.00005035
   0.98273658  0.33673447 -0.00059292
   0.35949822  0.35800887 -0.00046125
   0.65893914 -0.01222296  0.00034674
   0.11207586  0.22148788  0.95295215
   0.22269260  0.11181378  0.04668549
   0.11082277  0.56077779  0.95010724
   0.22165299  0.44279710  0.05120993
   0.11051642  0.88724622  0.95207734
   0.22066555  0.77664365  0.04775404
   0.44183229  0.21883916  0.94905695
   0.55186117  0.10872418  0.05079631
   0.44537850  0.55568304  0.94257840
   0.55720897  0.44497079  0.05563734
   0.44171391  0.89055334  0.94787813
   0.55826754  0.77815290  0.05520926
   0.77335382  0.21941471  0.94764297
   0.89007529  0.10941200  0.05056021
   0.78295587  0.56167251  0.94757849
   0.89180676  0.45213602  0.05379578
   0.78039296  0.88902270  0.94853282
   0.89068273  0.77746786  0.04993109
unknown system                          
           1
     8.298186    4.819523    0.000000
    -8.278004    4.784630    0.000000
     0.000000    0.000000   30.000000
   V    Mo   W    S 
   3   3   3  18
Direct configuration=    18
  -0.01013175 -0.01414529  0.00008324
  -0.01254096  0.65591339 -0.00010131
   0.33763572 -0.00342243  0.00110994
   0.35612667  0.66854222 -0.00023760
   0.67470064  0.34654833 -0.00015422
   0.64752192  0.65548973  0.00006723
   0.98210627  0.33655618 -0.00058161
   0.35989480  0.35813108 -0.00046870
   0.65885076 -0.01249666  0.00037261
   0.11208714  0.22159353  0.95307118
   0.22269835  0.11186151  0.04662611
   0.11084981  0.56076354  0.95017868
   0.22162918  0.44280684  0.05108668
   0.11049056  0.88720310  0.95208837
   0.22066260  0.77657671  0.04771120
   0.44189477  0.21886857  0.94906295
   0.55190930  0.10874496  0.05074993
   0.44544006  0.55573514  0.94257265
   0.55726747  0.44501982  0.05563636
   0.44176564  0.89059062  0.94786157
   0.55833385  0.77816551  0.05523177
   0.77318148  0.21934144  0.94762621
   0.89006794  0.10943567  0.05053901
   0.78292703  0.56170419  0.94755901
   0.89176961  0.45216942  0.05382879
   0.78037550  0.88904735  0.94851155
   0.89070011  0.77746999  0.04996829
unknown system                          
           1
     8.300600    4.821597    0.000000
    -8.279902    4.785813    0.000000
     0.000000    0.000000   30.000000
   V    Mo   W    S 
   3   3   3  18
Direct configuration=    19
  -0.01090567 -0.01618898  0.00004847
  -0.01362421  0.65530239 -0.00011873
   0.33745362 -0.00407807  0.00123442
   0.35800708  0.67039873 -0.00027968
   0.67553629  0.34776586 -0.00015673
   0.64787142  0.65597154  0.00011519
   0.97953045  0.33583876 -0.00054672
   0.36143411  0.35852452 -0.00053981
   0.65849653 -0.01361679  0.00045957
   0.11210238  0.22197200  0.95356502
   0.22269267  0.11202237  0.04639986
   0.11097256  0.56072917  0.95046732
   0.22150302  0.44284947  0.05059975
   0.11036987  0.88698586  0.95210341
   0.22062411  0.77628725  0.04757176
   0.44213362  0.21896447  0.94908162
   0.55209029  0.10885180  0.05056047
   0.44569364  0.55598139  0.94254954
   0.55754773  0.44524893  0.05567827
   0.44197376  0.89076161  0.94777999
   0.55863810  0.77823574  0.05537992
   0.77243722  0.21903868  0.94755230
   0.89007888  0.10950253  0.05046607
   0.78282555  0.56187503  0.94746752
   0.89159390  0.45234350  0.05399823
   0.78033681  0.88916971  0.94841076
   0.89080074  0.77747698  0.05015211
unknown system                          
           1
     8.305415    4.826588    0.000000
    -8.282944    4.787734    0.000000
     0.000000    0.000000   30.000000
   V    Mo   W    S 
   3   3   3  18
Direct configuration=    20
  -0.01098912 -0.01643679  0.00004072
  -0.01377269  0.65520873 -0.00012244
   0.33746280 -0.00415717  0.00124907
   0.35820168  0.67065439 -0.00029568
   0.67562791  0.34792000 -0.00016191
   0.64798130  0.65604167  0.00011536
   0.97922207  0.33574829 -0.00054329
   0.36159853  0.35852027 -0.00055757
   0.65844613 -0.01372570  0.00046422
   0.11210438  0.22201840  0.95362215
   0.22269423  0.11203082  0.04637630
   0.11098683  0.56073890  0.95050175
   0.22146961  0.44284701  0.05054806
   0.11036011  0.88695057  0.95210571
   0.22061241  0.77625911  0.04755523
   0.44215919  0.21895925  0.94907799
   0.55209930  0.10886191  0.05054503
   0.44572701  0.55601790  0.94253928
   0.55760213  0.44528420  0.05570171
   0.44198881  0.89078905  0.94776629
   0.55868740  0.77824809  0.05541447
   0.77232018  0.21899299  0.94753528
   0.89008439  0.10950666  0.05046975
   0.78282062  0.56190415  0.94745174
   0.89157406  0.45238708  0.05402717
   0.78032673  0.88917496  0.94839069
   0.89081843  0.77746970  0.05018284
unknown system                          
           1
     8.283089    4.814004    0.000000
    -8.260466    4.774878    0.000000
     0.000000    0.000000   30.000000
   V    Mo   W    S 
   3   3   3  18
Direct configuration=    21
  -0.01169221 -0.01796259  0.00000349
  -0.01443739  0.65489019 -0.00015042
   0.33725089 -0.00467340  0.00132447
   0.35956571  0.67201976 -0.00038512
   0.67600000  0.34875459 -0.00019507
   0.64829475  0.65641711  0.00012486
   0.97721608  0.33490824 -0.00051913
   0.36273164  0.35884568 -0.00066144
   0.65835588 -0.01457091  0.00049689
   0.11214179  0.22228659  0.95401911
   0.22264541  0.11221323  0.04621966
   0.11120537  0.56066521  0.95071705
   0.22135607  0.44289848  0.05016783
   0.11025616  0.88681871  0.95205190
   0.22064730  0.77595788  0.04752997
   0.44233616  0.21907746  0.94906440
   0.55232231  0.10904804  0.05043202
   0.44593522  0.55623975  0.94250859
   0.55784664  0.44547163  0.05581410
   0.44216243  0.89092601  0.94764811
   0.55899642  0.77830001  0.05564839
   0.77166540  0.21875483  0.94744860
   0.89014426  0.10954400  0.05046083
   0.78263800  0.56204425  0.94730187
   0.89135946  0.45245555  0.05425214
   0.78037899  0.88933408  0.94826646
   0.89089171  0.77755008  0.05041033
unknown system                          
           1
     8.308906    4.831708    0.000000
    -8.284444    4.789404    0.000000
     0.000000    0.000000   30.000000
   V    Mo   W    S 
   3   3   3  18
Direct configuration=    22
  -0.01300495 -0.01965391  0.00001442
  -0.01474234  0.65502759 -0.00015577
   0.33650741 -0.00527924  0.00143073
   0.36105839  0.67324008 -0.00044419
   0.67584360  0.34960249 -0.00019176
   0.64858059  0.65671682  0.00021045
   0.97471108  0.33328594 -0.00040042
   0.36409494  0.35941338 -0.00070005
   0.65894402 -0.01543811  0.00052898
   0.11228988  0.22247073  0.95450372
   0.22248615  0.11265975  0.04598689
   0.11170846  0.56029769  0.95100330
   0.22131867  0.44306727  0.04965860
   0.11007487  0.88691579  0.95187341
   0.22104736  0.77550906  0.04760993
   0.44248682  0.21937742  0.94900122
   0.55275986  0.10941138  0.05024456
   0.44623724  0.55655491  0.94237288
   0.55795896  0.44565380  0.05591286
   0.44248369  0.89107700  0.94746641
   0.55937781  0.77834292  0.05597102
   0.77081087  0.21848283  0.94730604
   0.89030178  0.10949155  0.05051649
   0.78218892  0.56214196  0.94703323
   0.89091539  0.45213419  0.05448782
   0.78076459  0.88970217  0.94803365
   0.89101042  0.77800898  0.05072547
unknown system                          
           1
     8.314847    4.838398    0.000000
    -8.289474    4.794500    0.000000
     0.000000    0.000000   30.000000
   V    Mo   W    S 
   3   3   3  18
Direct configuration=    23
  -0.01251170 -0.02018849 -0.00004579
  -0.01563348  0.65423410 -0.00014500
   0.33703012 -0.00561812  0.00146854
   0.36158859  0.67431533 -0.00043610
   0.67676661  0.35036619 -0.00019073
   0.64903795  0.65710700  0.00020338
   0.97463285  0.33402581 -0.00041060
   0.36423409  0.35911787 -0.00074535
   0.65789272 -0.01595840  0.00059448
   0.11210218  0.22262689  0.95457614
   0.22258166  0.11225874  0.04595914
   0.11135808  0.56055051  0.95110134
   0.22114367  0.44298679  0.04957412
   0.11008398  0.88649188  0.95206768
   0.22057819  0.77562446  0.04739805
   0.44256149  0.21909905  0.94906629
   0.55251049  0.10918751  0.05017291
   0.44626739  0.55663460  0.94250756
   0.55818440  0.44579963  0.05585859
   0.44246210  0.89125172  0.94753846
   0.55937737  0.77837481  0.05578798
   0.77068839  0.21840366  0.94737369
   0.89013318  0.10954977  0.05038920
   0.78259048  0.56230336  0.94720056
   0.89109039  0.45266124  0.05437870
   0.78034858  0.88948410  0.94815163
   0.89111470  0.77752445  0.05060503
unknown system                          
           1
     8.331337    4.856236    0.000000
    -8.306241    4.812741    0.000000
     0.000000    0.000000   30.000000
   V    Mo   W    S 
   3   3   3  18
Direct configuration=    24
  -0.01313304 -0.02226710 -0.00013812
  -0.01687783  0.65354538 -0.00016406
   0.33687852 -0.00669216  0.00159686
   0.36336756  0.67649565 -0.00057279
   0.67744005  0.35203150 -0.00024675
   0.64986745  0.65780042  0.00021494
   0.97224859  0.33312053 -0.00035365
   0.36562529  0.35937253 -0.00090002
   0.65736265 -0.01740813  0.00063926
   0.11202266  0.22292590  0.95516413
   0.22251458  0.11221547  0.04569231
   0.11156949  0.56045000  0.95153591
   0.22088825  0.44311078  0.04895050
   0.10989806  0.88606956  0.95208367
   0.22044726  0.77522140  0.04729608
   0.44280093  0.21913899  0.94911042
   0.55272217  0.10941511  0.04989872
   0.44664666  0.55711286  0.94258654
   0.55855466  0.44617901  0.05594350
   0.44278440  0.89166851  0.94740246