   27   27  100    1
  0.9710400E+02  0.1002848E-08  0.1002848E-08  0.3000000E-08  0.5000000E-15
  1.000000000000000E-004
  CAR 
 unknown system                          
    159     34    120
 
  0.0000000E+00  0.0000000E+00  0.0000000E+00  0.1562500E-01
    1      -17.826070   1.000000
    2      -16.776171   1.000000
    3      -16.606584   1.000000
    4      -16.599218   1.000000
    5      -16.536404   1.000000
    6      -16.526611   1.000000
    7      -16.415626   1.000000
    8      -16.255906   1.000000
    9      -16.203130   1.000000
   10      -16.156364   1.000000
   11      -16.101915   1.000000
   12      -15.939135   1.000000
   13      -15.908375   1.000000
   14      -15.646900   1.000000
   15      -15.598463   1.000000
   16      -15.493692   1.000000
   17      -15.274142   1.000000
   18      -15.219932   1.000000
   19       -9.306488   1.000000
   20       -9.048407   1.000000
   21       -8.937760   1.000000
   22       -8.854845   1.000000
   23       -8.723687   1.000000
   24       -8.708081   1.000000
   25       -8.695674   1.000000
   26       -8.673111   1.000000
   27       -8.542332   1.000000
   28       -8.479962   1.000000
   29       -8.468077   1.000000
   30       -8.416497   1.000000
   31       -8.346431   1.000000
   32       -8.167212   1.000000
   33       -8.069591   1.000000
   34       -8.003160   1.000000
   35       -7.800576   1.000000
   36       -7.743436   1.000000
   37       -7.686159   1.000000
   38       -7.515937   1.000000
   39       -7.506028   1.000000
   40       -7.381570   1.000000
   41       -7.339367   1.000000
   42       -7.212304   1.000000
   43       -7.075086   1.000000
   44       -6.941521   1.000000
   45       -6.867454   1.000000
   46       -6.795026   1.000000
   47       -6.738580   1.000000
   48       -6.666353   1.000000
   49       -6.608923   1.000000
   50       -6.534067   1.000000
   51       -6.436163   1.000000
   52       -6.261182   1.000000
   53       -6.224803   1.000000
   54       -6.177085   1.000000
   55       -6.155658   1.000000
   56       -6.072538   1.000000
   57       -6.002153   1.000000
   58       -5.906300   1.000000
   59       -5.882893   1.000000
   60       -5.634041   1.000000
   61       -5.618072   1.000000
   62       -5.357577   1.000000
   63       -5.308147   1.000000
   64       -5.077708   1.000000
   65       -5.025238   1.000000
   66       -4.924259   1.000000
   67       -4.899501   1.000000
   68       -4.821069   1.000000
   69       -4.762352   1.000000
   70       -4.710402   1.000000
   71       -4.685313   1.000000
   72       -4.668537   1.000000
   73       -4.460701   1.000000
   74       -4.376276   1.000000
   75       -4.307139   1.000000
   76       -3.980236   1.000000
   77       -3.784532   0.999964
   78       -3.612087   0.997021
   79       -3.490288   0.970540
   80       -3.195259   0.421764
   81       -3.180502   0.381430
   82       -2.853003   0.004429
   83       -2.768095   0.000646
   84       -2.636303   0.000017
   85       -2.577343   0.000002
   86       -2.499351   0.000000
   87       -2.245266   0.000000
   88       -2.224257   0.000000
   89       -2.212841   0.000000
   90       -2.061072   0.000000
   91       -1.709262   0.000000
   92       -1.637495   0.000000
   93       -1.384329   0.000000
   94       -1.215353   0.000000
   95       -1.077921   0.000000
   96       -0.997069   0.000000
   97       -0.951711   0.000000
   98       -0.905813   0.000000
   99       -0.818192   0.000000
  100       -0.640331   0.000000
  101       -0.597298   0.000000
  102       -0.534821   0.000000
  103       -0.385154   0.000000
  104       -0.283798   0.000000
  105       -0.221219   0.000000
  106       -0.153925   0.000000
  107       -0.103802   0.000000
  108       -0.054674   0.000000
  109        0.068460   0.000000
  110        0.230537   0.000000
  111        0.291068   0.000000
  112        0.400741   0.000000
  113        0.832078   0.000000
  114        0.944818   0.000000
  115        1.003649   0.000000
  116        1.143349   0.000000
  117        1.216963   0.000000
  118        1.653474   0.000000
  119        1.845962   0.000000
  120        2.167938   0.000000
 
  0.1250000E+00  0.2775558E-16  0.0000000E+00  0.3125000E-01
    1      -17.801399   1.000000
    2      -16.783331   1.000000
    3      -16.733984   1.000000
    4      -16.649178   1.000000
    5      -16.544247   1.000000
    6      -16.466236   1.000000
    7      -16.386916   1.000000
    8      -16.299960   1.000000
    9      -16.196334   1.000000
   10      -16.079419   1.000000
   11      -16.035287   1.000000
   12      -15.973674   1.000000
   13      -15.863037   1.000000
   14      -15.643858   1.000000
   15      -15.597503   1.000000
   16      -15.499255   1.000000
   17      -15.293541   1.000000
   18      -15.226447   1.000000
   19       -9.310092   1.000000
   20       -9.104048   1.000000
   21       -9.082278   1.000000
   22       -8.969649   1.000000
   23       -8.803580   1.000000
   24       -8.733566   1.000000
   25       -8.678944   1.000000
   26       -8.648846   1.000000
   27       -8.548691   1.000000
   28       -8.528490   1.000000
   29       -8.450269   1.000000
   30       -8.303507   1.000000
   31       -8.212658   1.000000
   32       -8.032515   1.000000
   33       -7.974670   1.000000
   34       -7.882426   1.000000
   35       -7.850985   1.000000
   36       -7.729161   1.000000
   37       -7.685683   1.000000
   38       -7.535582   1.000000
   39       -7.447121   1.000000
   40       -7.404062   1.000000
   41       -7.330888   1.000000
   42       -7.206202   1.000000
   43       -7.126423   1.000000
   44       -6.981275   1.000000
   45       -6.889464   1.000000
   46       -6.810138   1.000000
   47       -6.750465   1.000000
   48       -6.665606   1.000000
   49       -6.594438   1.000000
   50       -6.521970   1.000000
   51       -6.436067   1.000000
   52       -6.308973   1.000000
   53       -6.256730   1.000000
   54       -6.184708   1.000000
   55       -6.096714   1.000000
   56       -6.072951   1.000000
   57       -6.028454   1.000000
   58       -5.892580   1.000000
   59       -5.776549   1.000000
   60       -5.599636   1.000000
   61       -5.574430   1.000000
   62       -5.362762   1.000000
   63       -5.328126   1.000000
   64       -5.213760   1.000000
   65       -5.102288   1.000000
   66       -5.028668   1.000000
   67       -4.953609   1.000000
   68       -4.876910   1.000000
   69       -4.821284   1.000000
   70       -4.670935   1.000000
   71       -4.616257   1.000000
   72       -4.514084   1.000000
   73       -4.402157   1.000000
   74       -4.327974   1.000000
   75       -4.286220   1.000000
   76       -3.920121   1.000000
   77       -3.828848   0.999991
   78       -3.691996   0.999542
   79       -3.494060   0.972283
   80       -3.414253   0.911675
   81       -2.969575   0.036470
   82       -2.872027   0.006514
   83       -2.759321   0.000519
   84       -2.614312   0.000008
   85       -2.571114   0.000002
   86       -2.494452   0.000000
   87       -2.251864   0.000000
   88       -2.197862   0.000000
   89       -2.177767   0.000000
   90       -2.061289   0.000000
   91       -1.705704   0.000000
   92       -1.618606   0.000000
   93       -1.383551   0.000000
   94       -1.221538   0.000000
   95       -1.094646   0.000000
   96       -0.992543   0.000000
   97       -0.958774   0.000000
   98       -0.902963   0.000000
   99       -0.833814   0.000000
  100       -0.705169   0.000000
  101       -0.634126   0.000000
  102       -0.600677   0.000000
  103       -0.486806   0.000000
  104       -0.360584   0.000000
  105       -0.294155   0.000000
  106       -0.144111   0.000000
  107       -0.111885   0.000000
  108        0.031092   0.000000
  109        0.041890   0.000000
  110        0.226445   0.000000
  111        0.288675   0.000000
  112        0.457319   0.000000
  113        0.758676   0.000000
  114        0.894444   0.000000
  115        1.044460   0.000000
  116        1.197681   0.000000
  117        1.302795   0.000000
  118        1.698198   0.000000
  119        1.884725   0.000000
  120        2.203294   0.000000
 
  0.2500000E+00  0.5551115E-16  0.0000000E+00  0.3125000E-01
    1      -17.729452   1.000000
    2      -16.964626   1.000000
    3      -16.766435   1.000000
    4      -16.700006   1.000000
    5      -16.598167   1.000000
    6      -16.438384   1.000000
    7      -16.385744   1.000000
    8      -16.239286   1.000000
    9      -16.161470   1.000000
   10      -16.030300   1.000000
   11      -16.010878   1.000000
   12      -15.898504   1.000000
   13      -15.810154   1.000000
   14      -15.627944   1.000000
   15      -15.589026   1.000000
   16      -15.507295   1.000000
   17      -15.339620   1.000000
   18      -15.249322   1.000000
   19       -9.490945   1.000000
   20       -9.205788   1.000000
   21       -9.160997   1.000000
   22       -9.085571   1.000000
   23       -8.948695   1.000000
   24       -8.814167   1.000000
   25       -8.663795   1.000000
   26       -8.586394   1.000000
   27       -8.498256   1.000000
   28       -8.449707   1.000000
   29       -8.365158   1.000000
   30       -8.207031   1.000000
   31       -8.109922   1.000000
   32       -8.052158   1.000000
   33       -7.917598   1.000000
   34       -7.784417   1.000000
   35       -7.731670   1.000000
   36       -7.634530   1.000000
   37       -7.584757   1.000000
   38       -7.547079   1.000000
   39       -7.463461   1.000000
   40       -7.376309   1.000000
   41       -7.285810   1.000000
   42       -7.198391   1.000000
   43       -7.134715   1.000000
   44       -7.026581   1.000000
   45       -6.920637   1.000000
   46       -6.836660   1.000000
   47       -6.726386   1.000000
   48       -6.684857   1.000000
   49       -6.538946   1.000000
   50       -6.513187   1.000000
   51       -6.427268   1.000000
   52       -6.329415   1.000000
   53       -6.298197   1.000000
   54       -6.188283   1.000000
   55       -6.121377   1.000000
   56       -6.067921   1.000000
   57       -5.925390   1.000000
   58       -5.844792   1.000000
   59       -5.719432   1.000000
   60       -5.645871   1.000000
   61       -5.547605   1.000000
   62       -5.514477   1.000000
   63       -5.455059   1.000000
   64       -5.258583   1.000000
   65       -5.187938   1.000000
   66       -5.163147   1.000000
   67       -5.031599   1.000000
   68       -4.896284   1.000000
   69       -4.813846   1.000000
   70       -4.613754   1.000000
   71       -4.477594   1.000000
   72       -4.449320   1.000000
   73       -4.334512   1.000000
   74       -4.262302   1.000000
   75       -4.158056   1.000000
   76       -4.093053   1.000000
   77       -3.925732   1.000000
   78       -3.740701   0.999874
   79       -3.531134   0.985283
   80       -3.388704   0.879096
   81       -2.957755   0.030273
   82       -2.838416   0.003258
   83       -2.712796   0.000154
   84       -2.610065   0.000007
   85       -2.529653   0.000000
   86       -2.468692   0.000000
   87       -2.246909   0.000000
   88       -2.167008   0.000000
   89       -2.116109   0.000000
   90       -2.027118   0.000000
   91       -1.695851   0.000000
   92       -1.554676   0.000000
   93       -1.383312   0.000000
   94       -1.243686   0.000000
   95       -1.152359   0.000000
   96       -1.033400   0.000000
   97       -0.975712   0.000000
   98       -0.915797   0.000000
   99       -0.875177   0.000000
  100       -0.848049   0.000000
  101       -0.756152   0.000000
  102       -0.649959   0.000000
  103       -0.628597   0.000000
  104       -0.462555   0.000000
  105       -0.378092   0.000000
  106       -0.200900   0.000000
  107       -0.134763   0.000000
  108       -0.045131   0.000000
  109       -0.002445   0.000000
  110        0.174032   0.000000
  111        0.357765   0.000000
  112        0.544055   0.000000
  113        0.689520   0.000000
  114        0.891821   0.000000
  115        1.123179   0.000000
  116        1.249499   0.000000
  117        1.473866   0.000000
  118        1.822540   0.000000
  119        1.996389   0.000000
  120        2.308084   0.000000
 
  0.3750000E+00  0.0000000E+00  0.0000000E+00  0.3125000E-01
    1      -17.620411   1.000000
    2      -17.172290   1.000000
    3      -16.784171   1.000000
    4      -16.706742   1.000000
    5      -16.648158   1.000000
    6      -16.462642   1.000000
    7      -16.361936   1.000000
    8      -16.175711   1.000000
    9      -16.129918   1.000000
   10      -16.037830   1.000000
   11      -15.936520   1.000000
   12      -15.860243   1.000000
   13      -15.773221   1.000000
   14      -15.622683   1.000000
   15      -15.581504   1.000000
   16      -15.476636   1.000000
   17      -15.379910   1.000000
   18      -15.288273   1.000000
   19       -9.703546   1.000000
   20       -9.294482   1.000000
   21       -9.216447   1.000000
   22       -9.085312   1.000000
   23       -9.000131   1.000000
   24       -8.884147   1.000000
   25       -8.617206   1.000000
   26       -8.523583   1.000000
   27       -8.438553   1.000000
   28       -8.330167   1.000000
   29       -8.317721   1.000000
   30       -8.230820   1.000000
   31       -8.101460   1.000000
   32       -8.009714   1.000000
   33       -7.942260   1.000000
   34       -7.835928   1.000000
   35       -7.748066   1.000000
   36       -7.652840   1.000000
   37       -7.589614   1.000000
   38       -7.519324   1.000000
   39       -7.395371   1.000000
   40       -7.301034   1.000000
   41       -7.195388   1.000000
   42       -7.113342   1.000000
   43       -7.064365   1.000000
   44       -6.991733   1.000000
   45       -6.912336   1.000000
   46       -6.772732   1.000000
   47       -6.710080   1.000000
   48       -6.606242   1.000000
   49       -6.543825   1.000000
   50       -6.504806   1.000000
   51       -6.345582   1.000000
   52       -6.321076   1.000000
   53       -6.265413   1.000000
   54       -6.172492   1.000000
   55       -6.087669   1.000000
   56       -6.047137   1.000000
   57       -6.011296   1.000000
   58       -5.993423   1.000000
   59       -5.841529   1.000000
   60       -5.710900   1.000000
   61       -5.651555   1.000000
   62       -5.561477   1.000000
   63       -5.492211   1.000000
   64       -5.315101   1.000000
   65       -5.213109   1.000000
   66       -5.080729   1.000000
   67       -5.038152   1.000000
   68       -4.867586   1.000000
   69       -4.799420   1.000000
   70       -4.703230   1.000000
   71       -4.526803   1.000000
   72       -4.415816   1.000000
   73       -4.333071   1.000000
   74       -4.270245   1.000000
   75       -4.157473   1.000000
   76       -4.052974   1.000000
   77       -3.934309   1.000000
   78       -3.750582   0.999904
   79       -3.572397   0.993233
   80       -3.218930   0.488032
   81       -3.011097   0.066858
   82       -2.850214   0.004179
   83       -2.670749   0.000047
   84       -2.628630   0.000013
   85       -2.494699   0.000000
   86       -2.417391   0.000000
   87       -2.215903   0.000000
   88       -2.148726   0.000000
   89       -2.086286   0.000000
   90       -1.955304   0.000000
   91       -1.678850   0.000000
   92       -1.470333   0.000000
   93       -1.394022   0.000000
   94       -1.285100   0.000000
   95       -1.225220   0.000000
   96       -1.134462   0.000000
   97       -1.047843   0.000000
   98       -0.960857   0.000000
   99       -0.911157   0.000000
  100       -0.889673   0.000000
  101       -0.843089   0.000000
  102       -0.760225   0.000000
  103       -0.620267   0.000000
  104       -0.524101   0.000000
  105       -0.427894   0.000000
  106       -0.311772   0.000000
  107       -0.256720   0.000000
  108       -0.096064   0.000000
  109       -0.040377   0.000000
  110        0.107747   0.000000
  111        0.374315   0.000000
  112        0.600206   0.000000
  113        0.697327   0.000000
  114        0.950869   0.000000
  115        1.183845   0.000000
  116        1.302460   0.000000
  117        1.605505   0.000000
  118        2.007718   0.000000
  119        2.171456   0.000000
  120        2.477669   0.000000
 
  0.5000000E+00  0.1110223E-15  0.0000000E+00  0.1562500E-01
    1      -17.537985   1.000000
    2      -17.289643   1.000000
    3      -16.795236   1.000000
    4      -16.691535   1.000000
    5      -16.677278   1.000000
    6      -16.474841   1.000000
    7      -16.350785   1.000000
    8      -16.161956   1.000000
    9      -16.117892   1.000000
   10      -16.019954   1.000000
   11      -15.912275   1.000000
   12      -15.860335   1.000000
   13      -15.735814   1.000000
   14      -15.661307   1.000000
   15      -15.565509   1.000000
   16      -15.462762   1.000000
   17      -15.366353   1.000000
   18      -15.325613   1.000000
   19       -9.782342   1.000000
   20       -9.333375   1.000000
   21       -9.238708   1.000000
   22       -9.112779   1.000000
   23       -8.960806   1.000000
   24       -8.899796   1.000000
   25       -8.589756   1.000000
   26       -8.526847   1.000000
   27       -8.448415   1.000000
   28       -8.288203   1.000000
   29       -8.256648   1.000000
   30       -8.182918   1.000000
   31       -8.123353   1.000000
   32       -8.020321   1.000000
   33       -7.973564   1.000000
   34       -7.859967   1.000000
   35       -7.746144   1.000000
   36       -7.729020   1.000000
   37       -7.603753   1.000000
   38       -7.489634   1.000000
   39       -7.411653   1.000000
   40       -7.324268   1.000000
   41       -7.202428   1.000000
   42       -7.028687   1.000000
   43       -6.996128   1.000000
   44       -6.916540   1.000000
   45       -6.751970   1.000000
   46       -6.710449   1.000000
   47       -6.640156   1.000000
   48       -6.612376   1.000000
   49       -6.529910   1.000000
   50       -6.475921   1.000000
   51       -6.437086   1.000000
   52       -6.354145   1.000000
   53       -6.324667   1.000000
   54       -6.266891   1.000000
   55       -6.174181   1.000000
   56       -6.053284   1.000000
   57       -6.023352   1.000000
   58       -5.829952   1.000000
   59       -5.808929   1.000000
   60       -5.720494   1.000000
   61       -5.691711   1.000000
   62       -5.558133   1.000000
   63       -5.543341   1.000000
   64       -5.405003   1.000000
   65       -5.223285   1.000000
   66       -5.068269   1.000000
   67       -5.033448   1.000000
   68       -4.946101   1.000000
   69       -4.840343   1.000000
   70       -4.646991   1.000000
   71       -4.538058   1.000000
   72       -4.449329   1.000000
   73       -4.321001   1.000000
   74       -4.271531   1.000000
   75       -4.206770   1.000000
   76       -3.983383   1.000000
   77       -3.853635   0.999996
   78       -3.778574   0.999957
   79       -3.610021   0.996885
   80       -3.103580   0.198874
   81       -3.015741   0.071220
   82       -2.923225   0.016963
   83       -2.664488   0.000039
   84       -2.622744   0.000011
   85       -2.483470   0.000000
   86       -2.391519   0.000000
   87       -2.195064   0.000000
   88       -2.139356   0.000000
   89       -2.076602   0.000000
   90       -1.928820   0.000000
   91       -1.666279   0.000000
   92       -1.429690   0.000000
   93       -1.405382   0.000000
   94       -1.302786   0.000000
   95       -1.253418   0.000000
   96       -1.188094   0.000000
   97       -1.093100   0.000000
   98       -0.993538   0.000000
   99       -0.942025   0.000000
  100       -0.889233   0.000000
  101       -0.848511   0.000000
  102       -0.795291   0.000000
  103       -0.594915   0.000000
  104       -0.557940   0.000000
  105       -0.445336   0.000000
  106       -0.373513   0.000000
  107       -0.313203   0.000000
  108       -0.132484   0.000000
  109       -0.039983   0.000000
  110        0.082595   0.000000
  111        0.374137   0.000000
  112        0.619842   0.000000
  113        0.706193   0.000000
  114        0.980624   0.000000
  115        1.205097   0.000000
  116        1.325965   0.000000
  117        1.654426   0.000000
  118        2.227970   0.000000
  119        2.256984   0.000000
  120        2.397234   0.000000
 
  0.0000000E+00  0.1250000E+00  0.0000000E+00  0.3125000E-01
    1      -17.801124   1.000000
    2      -16.819046   1.000000
    3      -16.717466   1.000000
    4      -16.617844   1.000000
    5      -16.561778   1.000000
    6      -16.456711   1.000000
    7      -16.382763   1.000000
    8      -16.273033   1.000000
    9      -16.200505   1.000000
   10      -16.137782   1.000000
   11      -16.004710   1.000000
   12      -15.931628   1.000000
   13      -15.903896   1.000000
   14      -15.651281   1.000000
   15      -15.603507   1.000000
   16      -15.510838   1.000000
   17      -15.275834   1.000000
   18      -15.223996   1.000000
   19       -9.302700   1.000000
   20       -9.226991   1.000000
   21       -9.056443   1.000000
   22       -8.894682   1.000000
   23       -8.811170   1.000000
   24       -8.747672   1.000000
   25       -8.709682   1.000000
   26       -8.572499   1.000000
   27       -8.541544   1.000000
   28       -8.467356   1.000000
   29       -8.367602   1.000000
   30       -8.331013   1.000000
   31       -8.223388   1.000000
   32       -8.107551   1.000000
   33       -8.046456   1.000000
   34       -7.968473   1.000000
   35       -7.730281   1.000000
   36       -7.693400   1.000000
   37       -7.656464   1.000000
   38       -7.554801   1.000000
   39       -7.521393   1.000000
   40       -7.456822   1.000000
   41       -7.294113   1.000000
   42       -7.185390   1.000000
   43       -7.134000   1.000000
   44       -7.011311   1.000000
   45       -6.861704   1.000000
   46       -6.832094   1.000000
   47       -6.728711   1.000000
   48       -6.627590   1.000000
   49       -6.552081   1.000000
   50       -6.467857   1.000000
   51       -6.430262   1.000000
   52       -6.323815   1.000000
   53       -6.240106   1.000000
   54       -6.196782   1.000000
   55       -6.147599   1.000000
   56       -6.068436   1.000000
   57       -6.023007   1.000000
   58       -5.973167   1.000000
   59       -5.748966   1.000000
   60       -5.636908   1.000000
   61       -5.563159   1.000000
   62       -5.444081   1.000000
   63       -5.429287   1.000000
   64       -5.193598   1.000000
   65       -5.051618   1.000000
   66       -4.951989   1.000000
   67       -4.877680   1.000000
   68       -4.823625   1.000000
   69       -4.767006   1.000000
   70       -4.691130   1.000000
   71       -4.632842   1.000000
   72       -4.583348   1.000000
   73       -4.453335   1.000000
   74       -4.328396   1.000000
   75       -4.258879   1.000000
   76       -4.045645   1.000000
   77       -3.796026   0.999974
   78       -3.688790   0.999503
   79       -3.544778   0.988520
   80       -3.157073   0.320107
   81       -3.138607   0.274930
   82       -2.826857   0.002536
   83       -2.734188   0.000272
   84       -2.626287   0.000012
   85       -2.563690   0.000002
   86       -2.492468   0.000000
   87       -2.211697   0.000000
   88       -2.198275   0.000000
   89       -2.186061   0.000000
   90       -2.060459   0.000000
   91       -1.721389   0.000000
   92       -1.623305   0.000000
   93       -1.383366   0.000000
   94       -1.235716   0.000000
   95       -1.082820   0.000000
   96       -1.024119   0.000000
   97       -0.949998   0.000000
   98       -0.894743   0.000000
   99       -0.805088   0.000000
  100       -0.736438   0.000000
  101       -0.671490   0.000000
  102       -0.603991   0.000000
  103       -0.507211   0.000000
  104       -0.372910   0.000000
  105       -0.251734   0.000000
  106       -0.159605   0.000000
  107       -0.075669   0.000000
  108       -0.011683   0.000000
  109        0.095046   0.000000
  110        0.210462   0.000000
  111        0.329311   0.000000
  112        0.493943   0.000000
  113        0.877261   0.000000
  114        0.920783   0.000000
  115        1.003376   0.000000
  116        1.129050   0.000000
  117        1.183678   0.000000
  118        1.696085   0.000000
  119        1.886383   0.000000
  120        2.202869   0.000000
 
  0.1250000E+00  0.1250000E+00  0.0000000E+00  0.3125000E-01
    1      -17.753395   1.000000
    2      -16.888224   1.000000
    3      -16.815824   1.000000
    4      -16.716766   1.000000
    5      -16.473605   1.000000
    6      -16.439853   1.000000
    7      -16.377525   1.000000
    8      -16.304926   1.000000
    9      -16.184713   1.000000
   10      -16.043590   1.000000
   11      -15.973731   1.000000
   12      -15.922038   1.000000
   13      -15.844830   1.000000
   14      -15.656736   1.000000
   15      -15.606873   1.000000
   16      -15.521827   1.000000
   17      -15.301093   1.000000
   18      -15.229694   1.000000
   19       -9.383774   1.000000
   20       -9.341247   1.000000
   21       -9.165905   1.000000
   22       -9.024165   1.000000
   23       -8.870494   1.000000
   24       -8.711865   1.000000
   25       -8.638916   1.000000
   26       -8.575050   1.000000
   27       -8.538008   1.000000
   28       -8.463977   1.000000
   29       -8.354797   1.000000
   30       -8.237717   1.000000
   31       -8.120095   1.000000
   32       -8.066148   1.000000
   33       -7.998012   1.000000
   34       -7.803211   1.000000
   35       -7.749286   1.000000
   36       -7.700151   1.000000
   37       -7.618050   1.000000
   38       -7.552246   1.000000
   39       -7.451645   1.000000
   40       -7.374673   1.000000
   41       -7.272557   1.000000
   42       -7.231917   1.000000
   43       -7.135226   1.000000
   44       -7.024705   1.000000
   45       -6.901989   1.000000
   46       -6.839339   1.000000
   47       -6.761661   1.000000
   48       -6.654274   1.000000
   49       -6.513037   1.000000
   50       -6.464971   1.000000
   51       -6.394546   1.000000
   52       -6.332669   1.000000
   53       -6.275669   1.000000
   54       -6.219535   1.000000
   55       -6.157449   1.000000
   56       -6.058387   1.000000
   57       -5.977128   1.000000
   58       -5.946176   1.000000
   59       -5.738584   1.000000
   60       -5.567475   1.000000
   61       -5.552429   1.000000
   62       -5.535631   1.000000
   63       -5.431243   1.000000
   64       -5.314741   1.000000
   65       -5.208878   1.000000
   66       -5.068127   1.000000
   67       -4.931282   1.000000
   68       -4.832216   1.000000
   69       -4.806972   1.000000
   70       -4.629261   1.000000
   71       -4.529970   1.000000
   72       -4.449138   1.000000
   73       -4.378780   1.000000
   74       -4.277289   1.000000
   75       -4.207900   1.000000
   76       -4.116032   1.000000
   77       -3.934533   1.000000
   78       -3.701480   0.999640
   79       -3.524333   0.983394
   80       -3.322547   0.758872
   81       -2.946605   0.025255
   82       -2.831880   0.002830
   83       -2.701507   0.000113
   84       -2.615645   0.000009
   85       -2.532184   0.000001
   86       -2.479524   0.000000
   87       -2.187724   0.000000
   88       -2.143714   0.000000
   89       -2.139166   0.000000
   90       -2.064446   0.000000
   91       -1.712717   0.000000
   92       -1.600783   0.000000
   93       -1.384423   0.000000
   94       -1.259150   0.000000
   95       -1.126749   0.000000
   96       -1.039136   0.000000
   97       -0.971194   0.000000
   98       -0.894063   0.000000
   99       -0.865815   0.000000
  100       -0.821659   0.000000
  101       -0.748397   0.000000
  102       -0.681511   0.000000
  103       -0.632162   0.000000
  104       -0.450029   0.000000
  105       -0.305005   0.000000
  106       -0.171151   0.000000
  107       -0.100608   0.000000
  108        0.048901   0.000000
  109        0.076799   0.000000
  110        0.157078   0.000000
  111        0.329914   0.000000
  112        0.537952   0.000000
  113        0.817957   0.000000
  114        0.879189   0.000000
  115        1.070375   0.000000
  116        1.183317   0.000000
  117        1.286334   0.000000
  118        1.778799   0.000000
  119        1.963253   0.000000
  120        2.272454   0.000000
 
  0.2500000E+00  0.1250000E+00  0.0000000E+00  0.3125000E-01
    1      -17.661931   1.000000
    2      -17.051805   1.000000
    3      -16.928214   1.000000
    4      -16.708619   1.000000
    5      -16.480872   1.000000
    6      -16.432901   1.000000
    7      -16.379422   1.000000
    8      -16.242134   1.000000
    9      -16.149531   1.000000
   10      -16.026801   1.000000
   11      -15.955111   1.000000
   12      -15.871651   1.000000
   13      -15.771139   1.000000
   14      -15.658919   1.000000
   15      -15.608404   1.000000
   16      -15.502288   1.000000
   17      -15.351555   1.000000
   18      -15.246203   1.000000
   19       -9.594500   1.000000
   20       -9.447247   1.000000
   21       -9.254379   1.000000
   22       -9.058152   1.000000
   23       -8.894592   1.000000
   24       -8.696106   1.000000
   25       -8.603517   1.000000
   26       -8.516404   1.000000
   27       -8.471619   1.000000
   28       -8.421466   1.000000
   29       -8.312497   1.000000
   30       -8.222218   1.000000
   31       -8.109027   1.000000
   32       -8.043179   1.000000
   33       -7.968890   1.000000
   34       -7.897714   1.000000
   35       -7.772799   1.000000
   36       -7.647700   1.000000
   37       -7.564138   1.000000
   38       -7.503134   1.000000
   39       -7.326790   1.000000
   40       -7.294620   1.000000
   41       -7.244698   1.000000
   42       -7.195343   1.000000
   43       -7.112563   1.000000
   44       -7.004963   1.000000
   45       -6.896102   1.000000
   46       -6.825292   1.000000
   47       -6.724446   1.000000