       N       E                     dE             d eps       ncg     rms          rms(c)
DAV:   1     0.112438504994E+04    0.11244E+04   -0.35871E+04  8160   0.577E+02
DAV:   2    -0.346098169438E+01   -0.11278E+04   -0.10859E+04 11200   0.173E+02
DAV:   3    -0.199787541930E+03   -0.19633E+03   -0.18853E+03 10880   0.819E+01
DAV:   4    -0.208943629072E+03   -0.91561E+01   -0.88725E+01 12040   0.262E+01
DAV:   5    -0.209274306297E+03   -0.33068E+00   -0.32975E+00 11520   0.372E+00    0.275E+01
DAV:   6    -0.237134873340E+03   -0.27861E+02   -0.10733E+02 12640   0.605E+01    0.594E+01
DAV:   7    -0.196663010208E+03    0.40472E+02   -0.17759E+02 13160   0.152E+02    0.204E+01
DAV:   8    -0.190083299427E+03    0.65797E+01   -0.20306E+01 11800   0.134E+01    0.137E+01
DAV:   9    -0.188318027573E+03    0.17653E+01   -0.35141E+00 12160   0.623E+00    0.940E+00
DAV:  10    -0.187127589936E+03    0.11904E+01   -0.17825E+00 13240   0.758E+00    0.339E+00
DAV:  11    -0.187012319384E+03    0.11527E+00   -0.65463E-01 12520   0.249E+00    0.236E+00
DAV:  12    -0.187032450647E+03   -0.20131E-01   -0.46391E-01 12840   0.326E+00    0.354E+00
DAV:  13    -0.186933962818E+03    0.98488E-01   -0.29791E-01 13000   0.318E+00    0.192E+00
DAV:  14    -0.186904070724E+03    0.29892E-01   -0.10836E-01 12840   0.174E+00    0.103E+00
DAV:  15    -0.186898457719E+03    0.56130E-02   -0.45456E-02 12320   0.114E+00    0.101E+00
DAV:  16    -0.186891947361E+03    0.65104E-02   -0.16811E-02 12640   0.685E-01    0.489E-01
DAV:  17    -0.186889236013E+03    0.27113E-02   -0.74547E-03 12720   0.392E-01    0.177E-01
DAV:  18    -0.186888709111E+03    0.52690E-03   -0.18896E-03 11360   0.140E-01    0.165E-01
DAV:  19    -0.186888495497E+03    0.21361E-03   -0.76240E-04 10920   0.133E-01    0.460E-02
DAV:  20    -0.186889380373E+03   -0.88488E-03   -0.82395E-04  9040   0.564E-02    0.427E-02
DAV:  21    -0.186890319208E+03   -0.93884E-03   -0.23621E-04  8240   0.538E-02    0.374E-02
DAV:  22    -0.186891073024E+03   -0.75382E-03   -0.95409E-05  6320   0.288E-02    0.331E-02
DAV:  23    -0.186892214396E+03   -0.11414E-02   -0.14274E-04  7480   0.409E-02    0.166E-02
DAV:  24    -0.186892794287E+03   -0.57989E-03   -0.26049E-05  6720   0.176E-02    0.466E-03
DAV:  25    -0.186893160760E+03   -0.36647E-03   -0.16384E-05  5560   0.898E-03    0.520E-03
DAV:  26    -0.186893407466E+03   -0.24671E-03   -0.93577E-06  6760   0.782E-03    0.153E-03
DAV:  27    -0.186893500369E+03   -0.92903E-04   -0.33220E-06  7240   0.403E-03
   1 F= -.18689350E+03 E0= -.18672282E+03  d E =-.186894E+03
       N       E                     dE             d eps       ncg     rms          rms(c)
DAV:   1    -0.187532250629E+03   -0.63884E+00   -0.27041E+02  8160   0.349E+01    0.464E+00
DAV:   2    -0.189487989874E+03   -0.19557E+01   -0.20206E+01 12280   0.155E+01    0.930E+00
DAV:   3    -0.189372985972E+03    0.11500E+00   -0.42107E+00 12440   0.122E+01    0.652E+00
DAV:   4    -0.188787161641E+03    0.58582E+00   -0.58106E-01 12520   0.449E+00    0.175E+00
DAV:   5    -0.188924331418E+03   -0.13717E+00   -0.49339E-01 12360   0.356E+00    0.577E+00
DAV:   6    -0.188751706614E+03    0.17262E+00   -0.83931E-01 12720   0.443E+00    0.195E+00
DAV:   7    -0.188719004321E+03    0.32702E-01   -0.12190E-01 11840   0.143E+00    0.104E+00
DAV:   8    -0.188709614386E+03    0.93899E-02   -0.53553E-02 12800   0.122E+00    0.118E+00
DAV:   9    -0.188699817978E+03    0.97964E-02   -0.18733E-02 11880   0.775E-01    0.304E-01
DAV:  10    -0.188699294328E+03    0.52365E-03   -0.32077E-03 12840   0.214E-01    0.185E-01
DAV:  11    -0.188698878897E+03    0.41543E-03   -0.21276E-03 11680   0.152E-01    0.120E-01
DAV:  12    -0.188698954255E+03   -0.75358E-04   -0.94036E-04 11920   0.892E-02
   2 F= -.18869895E+03 E0= -.18856069E+03  d E =-.180545E+01
       N       E                     dE             d eps       ncg     rms          rms(c)
DAV:   1    -0.190620060568E+03   -0.19212E+01   -0.30998E+01  9120   0.142E+01    0.443E+00
DAV:   2    -0.190569957502E+03    0.50103E-01   -0.27345E+00 11120   0.942E+00    0.722E+00
DAV:   3    -0.190107689368E+03    0.46227E+00   -0.13096E+00 12360   0.859E+00    0.425E+00
DAV:   4    -0.189894695151E+03    0.21299E+00   -0.70194E-01 12560   0.420E+00    0.250E+00
DAV:   5    -0.189846938845E+03    0.47756E-01   -0.33543E-01 12320   0.268E+00    0.229E+00
DAV:   6    -0.189797705321E+03    0.49234E-01   -0.11492E-01 12720   0.212E+00    0.769E-01
DAV:   7    -0.189791123727E+03    0.65816E-02   -0.13813E-02 11600   0.567E-01    0.205E-01
DAV:   8    -0.189791594156E+03   -0.47043E-03   -0.34879E-03 12360   0.275E-01    0.283E-01
DAV:   9    -0.189791215712E+03    0.37844E-03   -0.18957E-03 10880   0.283E-01    0.164E-01
DAV:  10    -0.189791468864E+03   -0.25315E-03   -0.96282E-04  9840   0.148E-01    0.128E-01
DAV:  11    -0.189791195057E+03    0.27381E-03   -0.45772E-04  8760   0.775E-02    0.214E-02
DAV:  12    -0.189791218285E+03   -0.23228E-04   -0.74350E-05  6760   0.289E-02
   3 F= -.18979122E+03 E0= -.18967466E+03  d E =-.109226E+01
       N       E                     dE             d eps       ncg     rms          rms(c)
DAV:   1    -0.191366512249E+03   -0.15753E+01   -0.74644E+01  8160   0.197E+01    0.457E+00
DAV:   2    -0.191183311045E+03    0.18320E+00   -0.53348E+00 13360   0.760E+00    0.451E+00
DAV:   3    -0.191337565693E+03   -0.15425E+00   -0.15074E+00 12200   0.905E+00    0.674E+00
DAV:   4    -0.190938455408E+03    0.39911E+00   -0.13544E+00 12400   0.764E+00    0.295E+00
DAV:   5    -0.190898652055E+03    0.39803E-01   -0.42327E-01 12320   0.396E+00    0.289E+00
DAV:   6    -0.190808083754E+03    0.90568E-01   -0.19813E-01 12320   0.313E+00    0.116E+00
DAV:   7    -0.190796691391E+03    0.11392E-01   -0.42234E-02 12560   0.108E+00    0.450E-01
DAV:   8    -0.190793326774E+03    0.33646E-02   -0.64702E-03 10360   0.334E-01    0.173E-01
DAV:   9    -0.190794078709E+03   -0.75193E-03   -0.24183E-03 12200   0.323E-01    0.306E-01
DAV:  10    -0.190793564110E+03    0.51460E-03   -0.20971E-03 11200   0.289E-01    0.102E-01
DAV:  11    -0.190793449786E+03    0.11432E-03   -0.51810E-04  9760   0.934E-02    0.470E-02
DAV:  12    -0.190793442484E+03    0.73021E-05   -0.10838E-04  7280   0.404E-02
   4 F= -.19079344E+03 E0= -.19069546E+03  d E =-.100222E+01
       N       E                     dE             d eps       ncg     rms          rms(c)
DAV:   1    -0.192259532149E+03   -0.14661E+01   -0.17028E+02  8160   0.291E+01    0.577E+00
DAV:   2    -0.191993682744E+03    0.26585E+00   -0.99583E+00 11000   0.796E+00    0.362E+00
DAV:   3    -0.192064510265E+03   -0.70828E-01   -0.18782E+00 12240   0.795E+00    0.609E+00
DAV:   4    -0.191867502286E+03    0.19701E+00   -0.15079E+00 12040   0.950E+00    0.469E+00
DAV:   5    -0.191603222493E+03    0.26428E+00   -0.62167E-01 12360   0.470E+00    0.153E+00
DAV:   6    -0.191591460200E+03    0.11762E-01   -0.15440E-01 12640   0.269E+00    0.156E+00
DAV:   7    -0.191573082600E+03    0.18378E-01   -0.85340E-02 12320   0.210E+00    0.742E-01
DAV:   8    -0.191565893671E+03    0.71889E-02   -0.14151E-02 11720   0.755E-01    0.393E-01
DAV:   9    -0.191564798736E+03    0.10949E-02   -0.46528E-03 11920   0.474E-01    0.211E-01
DAV:  10    -0.191564817628E+03   -0.18893E-04   -0.23424E-03 11440   0.200E-01    0.833E-02
DAV:  11    -0.191564760292E+03    0.57337E-04   -0.54267E-04 11000   0.866E-02
   5 F= -.19156476E+03 E0= -.19147855E+03  d E =-.771318E+00
       N       E                     dE             d eps       ncg     rms          rms(c)
DAV:   1    -0.191688231321E+03   -0.12341E+00   -0.99037E+00  8160   0.669E+00    0.773E-01
DAV:   2    -0.191752739823E+03   -0.64509E-01   -0.38143E-01 12680   0.293E+00    0.203E+00
DAV:   3    -0.191708853956E+03    0.43886E-01   -0.10233E-01 12520   0.241E+00    0.549E-01
DAV:   4    -0.191708125438E+03    0.72852E-03   -0.13623E-02 11640   0.785E-01    0.597E-01
DAV:   5    -0.191704884088E+03    0.32414E-02   -0.91550E-03 11880   0.730E-01    0.302E-01
DAV:   6    -0.191704615700E+03    0.26839E-03   -0.41938E-03 11360   0.347E-01    0.199E-01
DAV:   7    -0.191704074156E+03    0.54154E-03   -0.21219E-03 11600   0.253E-01    0.168E-01
DAV:   8    -0.191703839694E+03    0.23446E-03   -0.74057E-04  9000   0.192E-01    0.587E-02
DAV:   9    -0.191703836179E+03    0.35150E-05   -0.12277E-04  6040   0.625E-02
   6 F= -.19170384E+03 E0= -.19161942E+03  d E =-.139076E+00
       N       E                     dE             d eps       ncg     rms          rms(c)
DAV:   1    -0.191830366419E+03   -0.12653E+00   -0.10694E+01  8160   0.698E+00    0.749E-01
DAV:   2    -0.191876159954E+03   -0.45794E-01   -0.36218E-01 12760   0.257E+00    0.156E+00
DAV:   3    -0.191851254207E+03    0.24906E-01   -0.71405E-02 12560   0.208E+00    0.585E-01
DAV:   4    -0.191847640399E+03    0.36138E-02   -0.10264E-02 11720   0.669E-01    0.429E-01
DAV:   5    -0.191847162455E+03    0.47794E-03   -0.83802E-03 12160   0.706E-01    0.417E-01
DAV:   6    -0.191846183185E+03    0.97927E-03   -0.59717E-03 12000   0.477E-01    0.209E-01
DAV:   7    -0.191845254039E+03    0.92915E-03   -0.17789E-03 10240   0.170E-01    0.375E-02
DAV:   8    -0.191845274448E+03   -0.20410E-04   -0.18200E-04  7560   0.442E-02
   7 F= -.19184527E+03 E0= -.19176328E+03  d E =-.141438E+00
       N       E                     dE             d eps       ncg     rms          rms(c)
DAV:   1    -0.192003044440E+03   -0.15779E+00   -0.24417E+01  8160   0.106E+01    0.109E+00
DAV:   2    -0.192072982074E+03   -0.69938E-01   -0.83170E-01 12280   0.306E+00    0.138E+00
DAV:   3    -0.192067426211E+03    0.55559E-02   -0.10011E-01 12360   0.259E+00    0.121E+00
DAV:   4    -0.192047163339E+03    0.20263E-01   -0.24995E-02 11720   0.127E+00    0.444E-01
DAV:   5    -0.192052153971E+03   -0.49906E-02   -0.18678E-02 12040   0.107E+00    0.856E-01
DAV:   6    -0.192046112171E+03    0.60418E-02   -0.16647E-02 12440   0.962E-01    0.303E-01
DAV:   7    -0.192044341122E+03    0.17710E-02   -0.33454E-03 10480   0.252E-01    0.635E-02
DAV:   8    -0.192044382597E+03   -0.41476E-04   -0.52030E-04 11320   0.107E-01
   8 F= -.19204438E+03 E0= -.19196408E+03  d E =-.199108E+00
       N       E                     dE             d eps       ncg     rms          rms(c)
DAV:   1    -0.192161940836E+03   -0.11760E+00   -0.45738E+01  8160   0.145E+01    0.151E+00
DAV:   2    -0.192293592780E+03   -0.13165E+00   -0.16947E+00 11360   0.382E+00    0.158E+00
DAV:   3    -0.192321782383E+03   -0.28190E-01   -0.19363E-01 12280   0.372E+00    0.226E+00
DAV:   4    -0.192262616729E+03    0.59166E-01   -0.71564E-02 12280   0.237E+00    0.647E-01
DAV:   5    -0.192265277032E+03   -0.26603E-02   -0.24992E-02 12360   0.136E+00    0.867E-01
DAV:   6    -0.192258927830E+03    0.63492E-02   -0.23904E-02 12760   0.115E+00    0.444E-01
DAV:   7    -0.192257173644E+03    0.17542E-02   -0.87483E-03 11680   0.722E-01    0.346E-01
DAV:   8    -0.192255798430E+03    0.13752E-02   -0.22610E-03 11360   0.378E-01    0.789E-02
DAV:   9    -0.192255705165E+03    0.93265E-04   -0.55473E-04 10120   0.830E-02
   9 F= -.19225571E+03 E0= -.19218053E+03  d E =-.211323E+00
       N       E                     dE             d eps       ncg     rms          rms(c)
DAV:   1    -0.192302569612E+03   -0.46771E-01   -0.58938E+00  8160   0.521E+00    0.641E-01
DAV:   2    -0.192325340755E+03   -0.22771E-01   -0.25935E-01 12160   0.178E+00    0.975E-01
DAV:   3    -0.192320835894E+03    0.45049E-02   -0.38245E-02 12400   0.167E+00    0.733E-01
DAV:   4    -0.192314009288E+03    0.68266E-02   -0.90570E-03 12560   0.801E-01    0.264E-01
DAV:   5    -0.192314845745E+03   -0.83646E-03   -0.52852E-03 12040   0.621E-01    0.393E-01
DAV:   6    -0.192313064861E+03    0.17809E-02   -0.42556E-03 11720   0.493E-01    0.108E-01
DAV:   7    -0.192312927689E+03    0.13717E-03   -0.69725E-04 10600   0.159E-01    0.837E-02
DAV:   8    -0.192312869558E+03    0.58131E-04   -0.23025E-04 10200   0.126E-01
  10 F= -.19231287E+03 E0= -.19223998E+03  d E =-.571644E-01
       N       E                     dE             d eps       ncg     rms          rms(c)
DAV:   1    -0.192347617232E+03   -0.34690E-01   -0.70225E+00  8160   0.559E+00    0.627E-01
DAV:   2    -0.192376576315E+03   -0.28959E-01   -0.27864E-01 12040   0.190E+00    0.105E+00
DAV:   3    -0.192368757613E+03    0.78187E-02   -0.37824E-02 12240   0.169E+00    0.678E-01
DAV:   4    -0.192363127106E+03    0.56305E-02   -0.73514E-03 12520   0.708E-01    0.203E-01
DAV:   5    -0.192363784056E+03   -0.65695E-03   -0.36426E-03 12520   0.479E-01    0.309E-01
DAV:   6    -0.192362985195E+03    0.79886E-03   -0.30655E-03 12200   0.462E-01    0.160E-01
DAV:   7    -0.192362554566E+03    0.43063E-03   -0.86996E-04 10360   0.161E-01    0.396E-02
DAV:   8    -0.192362584192E+03   -0.29626E-04   -0.14627E-04  7360   0.939E-02
  11 F= -.19236258E+03 E0= -.19229241E+03  d E =-.497146E-01
       N       E                     dE             d eps       ncg     rms          rms(c)
DAV:   1    -0.192376497863E+03   -0.13943E-01   -0.78306E-01  8160   0.191E+00    0.261E-01
DAV:   2    -0.192379960098E+03   -0.34622E-02   -0.33403E-02 12440   0.787E-01    0.484E-01
DAV:   3    -0.192377883971E+03    0.20761E-02   -0.67535E-03 12480   0.710E-01    0.243E-01
DAV:   4    -0.192377207552E+03    0.67642E-03   -0.13846E-03 11760   0.291E-01    0.130E-01
DAV:   5    -0.192377209810E+03   -0.22579E-05   -0.95120E-04 10680   0.262E-01
  12 F= -.19237721E+03 E0= -.19230763E+03  d E =-.146256E-01
       N       E                     dE             d eps       ncg     rms          rms(c)
DAV:   1    -0.192396768026E+03   -0.19560E-01   -0.20128E+00  8160   0.302E+00    0.395E-01
DAV:   2    -0.192406077627E+03   -0.93096E-02   -0.77693E-02 12280   0.124E+00    0.789E-01
DAV:   3    -0.192400138249E+03    0.59394E-02   -0.15181E-02 12520   0.109E+00    0.331E-01
DAV:   4    -0.192398727082E+03    0.14112E-02   -0.25528E-03 12400   0.369E-01    0.162E-01
DAV:   5    -0.192398930184E+03   -0.20310E-03   -0.19149E-03 12080   0.358E-01    0.217E-01
DAV:   6    -0.192398427421E+03    0.50276E-03   -0.13629E-03 11360   0.294E-01    0.736E-02
DAV:   7    -0.192398348399E+03    0.79022E-04   -0.23492E-04  7680   0.105E-01
  13 F= -.19239835E+03 E0= -.19232969E+03  d E =-.211386E-01
       N       E                     dE             d eps       ncg     rms          rms(c)
DAV:   1    -0.192404820675E+03   -0.63933E-02   -0.20285E-01  8160   0.103E+00    0.231E-01
DAV:   2    -0.192405303810E+03   -0.48314E-03   -0.13188E-02 11600   0.583E-01    0.355E-01
DAV:   3    -0.192404198960E+03    0.11048E-02   -0.40826E-03 11360   0.562E-01    0.204E-01
DAV:   4    -0.192403801218E+03    0.39774E-03   -0.14940E-03 10400   0.312E-01    0.157E-01
DAV:   5    -0.192403751550E+03    0.49668E-04   -0.11248E-03 10080   0.289E-01    0.152E-01
DAV:   6    -0.192403452930E+03    0.29862E-03   -0.56722E-04  9760   0.178E-01    0.287E-02
DAV:   7    -0.192403452909E+03    0.20231E-07   -0.72740E-05  6120   0.412E-02
  14 F= -.19240345E+03 E0= -.19233552E+03  d E =-.510451E-02
       N       E                     dE             d eps       ncg     rms          rms(c)
DAV:   1    -0.192414134863E+03   -0.10682E-01   -0.75806E-01  8160   0.185E+00    0.228E-01
DAV:   2    -0.192418438903E+03   -0.43040E-02   -0.31553E-02 12360   0.791E-01    0.505E-01
DAV:   3    -0.192415829418E+03    0.26095E-02   -0.59960E-03 12680   0.676E-01    0.184E-01
DAV:   4    -0.192415421871E+03    0.40755E-03   -0.82365E-04 10400   0.195E-01    0.881E-02
DAV:   5    -0.192415427476E+03   -0.56055E-05   -0.53820E-04 10200   0.166E-01
  15 F= -.19241543E+03 E0= -.19234816E+03  d E =-.119746E-01
       N       E                     dE             d eps       ncg     rms          rms(c)
DAV:   1    -0.192432866735E+03   -0.17445E-01   -0.46792E+00  8160   0.463E+00    0.610E-01
DAV:   2    -0.192455098640E+03   -0.22232E-01   -0.20075E-01 12360   0.192E+00    0.117E+00
DAV:   3    -0.192442509038E+03    0.12590E-01   -0.36250E-02 12400   0.166E+00    0.520E-01
DAV:   4    -0.192439151835E+03    0.33572E-02   -0.66512E-03 12360   0.640E-01    0.306E-01
DAV:   5    -0.192439081257E+03    0.70578E-04   -0.49650E-03 11840   0.610E-01    0.327E-01
DAV:   6    -0.192437839888E+03    0.12414E-02   -0.34392E-03 12040   0.420E-01    0.916E-02
DAV:   7    -0.192437713250E+03    0.12664E-03   -0.55283E-04 10600   0.130E-01    0.641E-02
DAV:   8    -0.192437679205E+03    0.34045E-04   -0.12553E-04  8160   0.101E-01
  16 F= -.19243768E+03 E0= -.19237138E+03  d E =-.222517E-01
       N       E                     dE             d eps       ncg     rms          rms(c)
DAV:   1    -0.192444706214E+03   -0.69930E-02   -0.14911E+00  8160   0.257E+00    0.293E-01
DAV:   2    -0.192451961793E+03   -0.72556E-02   -0.62345E-02 11160   0.103E+00    0.556E-01
DAV:   3    -0.192449034522E+03    0.29273E-02   -0.88444E-03 12120   0.812E-01    0.273E-01
DAV:   4    -0.192448232662E+03    0.80186E-03   -0.16294E-03 11720   0.331E-01    0.137E-01
DAV:   5    -0.192448206607E+03    0.26055E-04   -0.88489E-04 11040   0.262E-01
  17 F= -.19244821E+03 E0= -.19238287E+03  d E =-.105274E-01
       N       E                     dE             d eps       ncg     rms          rms(c)
DAV:   1    -0.192450655972E+03   -0.24233E-02   -0.28623E+00  8160   0.358E+00    0.425E-01
DAV:   2    -0.192462606907E+03   -0.11951E-01   -0.13058E-01 11360   0.130E+00    0.609E-01
DAV:   3    -0.192460664384E+03    0.19425E-02   -0.15024E-02 11880   0.106E+00    0.479E-01
DAV:   4    -0.192457809598E+03    0.28548E-02   -0.41173E-03 12200   0.552E-01    0.179E-01
DAV:   5    -0.192458166429E+03   -0.35683E-03   -0.22824E-03 11920   0.404E-01    0.251E-01
DAV:   6    -0.192457428662E+03    0.73777E-03   -0.17560E-03 12120   0.325E-01    0.649E-02
DAV:   7    -0.192457401403E+03    0.27259E-04   -0.24634E-04  7280   0.104E-01
  18 F= -.19245740E+03 E0= -.19239338E+03  d E =-.919480E-02
       N       E                     dE             d eps       ncg     rms          rms(c)
DAV:   1    -0.192456970781E+03    0.45788E-03   -0.22487E-01  8160   0.103E+00    0.148E-01
DAV:   2    -0.192458541285E+03   -0.15705E-02   -0.98378E-03 11600   0.534E-01    0.360E-01
DAV:   3    -0.192457139943E+03    0.14013E-02   -0.27835E-03 11920   0.450E-01    0.106E-01
DAV:   4    -0.192456977900E+03    0.16204E-03   -0.37694E-04  8800   0.136E-01    0.634E-02
DAV:   5    -0.192456994274E+03   -0.16374E-04   -0.29779E-04  8800   0.144E-01
  19 F= -.19245699E+03 E0= -.19239254E+03  d E =0.407129E-03
       N       E                     dE             d eps       ncg     rms          rms(c)
DAV:   1    -0.192457867043E+03   -0.88914E-03   -0.72020E-02  8160   0.584E-01    0.106E-01
DAV:   2    -0.192458206206E+03   -0.33916E-03   -0.42070E-03 11040   0.281E-01    0.173E-01
DAV:   3    -0.192457941425E+03    0.26478E-03   -0.10246E-03 10880   0.263E-01    0.996E-02
DAV:   4    -0.192457848027E+03    0.93397E-04   -0.32731E-04  8640   0.144E-01
  20 F= -.19245785E+03 E0= -.19239341E+03  d E =-.853753E-03
       N       E                     dE             d eps       ncg     rms          rms(c)
DAV:   1    -0.192458873408E+03   -0.93198E-03   -0.54806E-02  8160   0.502E-01    0.798E-02
DAV:   2    -0.192459577373E+03   -0.70396E-03   -0.35181E-03 12080   0.343E-01    0.211E-01
DAV:   3    -0.192458988638E+03    0.58873E-03   -0.89618E-04 10320   0.262E-01    0.352E-02
DAV:   4    -0.192458982926E+03    0.57115E-05   -0.48670E-05  5680   0.468E-02
  21 F= -.19245898E+03 E0= -.19239471E+03  d E =-.113490E-02
       N       E                     dE             d eps       ncg     rms          rms(c)
DAV:   1    -0.192459603949E+03   -0.61531E-03   -0.16508E-02  8160   0.299E-01    0.682E-02
DAV:   2    -0.192459809654E+03   -0.20571E-03   -0.13207E-03 10720   0.218E-01    0.150E-01
DAV:   3    -0.192459567197E+03    0.24246E-03   -0.42502E-04  8920   0.194E-01    0.517E-02
DAV:   4    -0.192459538028E+03    0.29168E-04   -0.68710E-05  5560   0.678E-02
  22 F= -.19245954E+03 E0= -.19239543E+03  d E =-.555102E-03
       N       E                     dE             d eps       ncg     rms          rms(c)
DAV:   1    -0.192460667257E+03   -0.11001E-02   -0.94260E-02  8160   0.654E-01    0.805E-02
DAV:   2    -0.192461013552E+03   -0.34629E-03   -0.43769E-03 10520   0.196E-01    0.884E-02
DAV:   3    -0.192461004741E+03    0.88111E-05   -0.50028E-04 10800   0.188E-01
  23 F= -.19246100E+03 E0= -.19239718E+03  d E =-.146671E-02
       N       E                     dE             d eps       ncg     rms          rms(c)
DAV:   1    -0.192461184024E+03   -0.17047E-03   -0.65974E-03  8280   0.193E-01    0.502E-02
DAV:   2    -0.192461210133E+03   -0.26109E-04   -0.32044E-04  8400   0.108E-01
  24 F= -.19246121E+03 E0= -.19239746E+03  d E =-.205392E-03
       N       E                     dE             d eps       ncg     rms          rms(c)
DAV:   1    -0.192461925198E+03   -0.74117E-03   -0.50148E-02  8160   0.490E-01    0.707E-02
DAV:   2    -0.192462130072E+03   -0.20487E-03   -0.22255E-03 11920   0.168E-01    0.107E-01
DAV:   3    -0.192462051190E+03    0.78881E-04   -0.39596E-04  9960   0.178E-01
  25 F= -.19246205E+03 E0= -.19239846E+03  d E =-.841057E-03
       N       E                     dE             d eps       ncg     rms          rms(c)
DAV:   1    -0.192462385070E+03   -0.25500E-03   -0.12666E-02  8160   0.248E-01    0.451E-02
DAV:   2    -0.192462481349E+03   -0.96279E-04   -0.66328E-04 10320   0.138E-01
  26 F= -.19246248E+03 E0= -.19239890E+03  d E =-.430159E-03
