unknown system                          
           1
     8.851316    5.104648    0.000000
    -8.853761    5.108855    0.000000
     0.000000    0.000000   30.000000
   V    Mo   W    S 
   3   3   3  18
Direct configuration=     1
   0.66666669  0.66666669  0.00000000
   0.33333334  0.66666669  0.00000000
   1.00000000  0.33333334  0.00000000
   0.66666669  0.00000000  0.00000000
   0.33333334  0.33333334  0.00000000
   0.00000000  0.00000000  0.00000000
   0.00000000  0.66666669  0.00000000
   0.33333334  0.00000000  0.00000000
   0.66666669  0.33333334  0.00000000
   0.11068511  0.22244981  0.95539999
   0.22244981  0.11068511  0.04460000
   0.11068511  0.55578315  0.95539999
   0.22244981  0.44401845  0.04460000
   0.11068511  0.88911647  0.95539999
   0.22244981  0.77735180  0.04460000
   0.44401845  0.22244981  0.95539999
   0.55578315  0.11068511  0.04460000
   0.44401845  0.55578315  0.95539999
   0.55578315  0.44401845  0.04460000
   0.44401845  0.88911647  0.95539999
   0.55578315  0.77735180  0.04460000
   0.77735180  0.22244981  0.95539999
   0.88911647  0.11068511  0.04460000
   0.77735180  0.55578315  0.95539999
   0.88911647  0.44401845  0.04460000
   0.77735180  0.88911647  0.95539999
   0.88911647  0.77735180  0.04460000
unknown system                          
           1
     8.663931    4.998807    0.000000
    -8.666134    5.002596    0.000000
     0.000000    0.000000   30.000000
   V    Mo   W    S 
   3   3   3  18
Direct configuration=     2
   0.66627116  0.66793229  0.00017203
   0.33443585  0.66613294 -0.00002627
   1.00048151  0.33133504 -0.00014980
   0.66808560 -0.00013325 -0.00001915
   0.33198551  0.33233360  0.00004292
  -0.00019973  0.00135727  0.00016857
   0.00007149  0.66783265 -0.00004876
   0.33334701  0.00136612 -0.00004767
   0.66527294  0.33198016 -0.00015985
   0.10858492  0.22469352  0.95194359
   0.22247347  0.11043472  0.04928611
   0.11264873  0.55363213  0.95305832
   0.21997523  0.44650185  0.04694911
   0.11158730  0.88836459  0.95077364
   0.22415397  0.77575118  0.04801047
   0.44488029  0.22167249  0.95066390
   0.55493442  0.11128666  0.04926705
   0.44628486  0.55986695  0.95311571
   0.55818417  0.44854819  0.04804923
   0.44169593  0.88478859  0.95199994
   0.55356135  0.77316084  0.04693338
   0.78185012  0.22493464  0.95189781
   0.89099762  0.11538170  0.04811061
   0.77570137  0.55736648  0.95201801
   0.89082974  0.44239916  0.04793758
   0.77545194  0.88432845  0.95194524
   0.88466768  0.77496551  0.04810820
unknown system                          
           1
     8.481853    4.896665    0.000000
    -8.483506    4.899505    0.000000
     0.000000    0.000000   30.000000
   V    Mo   W    S 
   3   3   3  18
Direct configuration=     3
   0.66631344  0.66835949  0.00018783
   0.33469991  0.66605196 -0.00007038
   1.00051972  0.33068853 -0.00016050
   0.66854309  0.00009443 -0.00006007
   0.33165789  0.33146395  0.00008181
  -0.00003569  0.00168188  0.00018317
   0.00017174  0.66839121 -0.00004075
   0.33341906  0.00209071 -0.00004876
   0.66453767  0.33125388 -0.00012161
   0.10850773  0.22476657  0.95184272
   0.22257204  0.11028053  0.04938525
   0.11254036  0.55372642  0.95317776
   0.21993700  0.44653693  0.04690265
   0.11167841  0.88828247  0.95076702
   0.22406549  0.77583276  0.04793805
   0.44498565  0.22156758  0.95057587
   0.55482953  0.11138695  0.04926348
   0.44632941  0.55993294  0.95316376
   0.55838324  0.44853367  0.04798855
   0.44151133  0.88479136  0.95207911
   0.55351559  0.77306583  0.04695304
   0.78187861  0.22515065  0.95189320
   0.89109903  0.11554223  0.04820073
   0.77575808  0.55728338  0.95208792
   0.89076124  0.44249655  0.04779240
   0.77536765  0.88418054  0.95192091
   0.88466721  0.77478104  0.04811676
unknown system                          
           1
     8.273254    4.776065    0.000000
    -8.279396    4.786680    0.000000
     0.000000    0.000000   30.000000
   V    Mo   W    S 
   3   3   3  18
Direct configuration=     4
   0.66691465  0.66992882  0.00016415
   0.33543415  0.66600654 -0.00022500
   1.00029160  0.32814043 -0.00012881
   0.67011847  0.00146971 -0.00019850
   0.33073096  0.32730146  0.00018333
   0.00101682  0.00270102  0.00016121
   0.00066697  0.67073903  0.00000543
   0.33380853  0.00535267 -0.00005298
   0.66118228  0.32798264  0.00006622
   0.10793841  0.22539464  0.95000584
   0.22248471  0.11007413  0.05143063
   0.11288655  0.55326337  0.95228443
   0.21942430  0.44701142  0.04802363
   0.11168338  0.88847219  0.94910310
   0.22459678  0.77552542  0.04913453
   0.44491623  0.22159889  0.94852014
   0.55479375  0.11120926  0.05089801
   0.44675822  0.56065532  0.95206056
   0.55897205  0.44954569  0.04921654
   0.44087046  0.88376682  0.95097018
   0.55296248  0.77213285  0.04837207
   0.78316824  0.22597282  0.95038582
   0.89183622  0.11695462  0.04999967
   0.77516378  0.55761958  0.95089790
   0.89125088  0.44215510  0.04866049
   0.77479679  0.88295204  0.95040031
   0.88354680  0.77428798  0.04966099
unknown system                          
           1
     8.258784    4.765826    0.000000
    -8.271783    4.788315    0.000000
     0.000000    0.000000   30.000000
   V    Mo   W    S 
   3   3   3  18
Direct configuration=     5
   0.66904440  0.67354619 -0.00003295
   0.33642261  0.66579661 -0.00041867
   0.99986382  0.32341815  0.00008505
   0.67327088  0.00399897 -0.00033297
   0.32942106  0.31902837  0.00022922
   0.00312067  0.00394819  0.00004534
   0.00212282  0.67609993  0.00011538
   0.33433950  0.01212155 -0.00004187
   0.65358703  0.32097513  0.00029066
   0.10764330  0.22569506  0.94749232
   0.22169367  0.10969416  0.05449017
   0.11317027  0.55263255  0.95111015
   0.21918716  0.44684697  0.04948727
   0.11180339  0.88948584  0.94686044
   0.22560622  0.77584198  0.05056553
   0.44456352  0.22177107  0.94540252
   0.55456957  0.11014033  0.05314915
   0.44686518  0.56037410  0.95071403
   0.55879570  0.45030662  0.05077153
   0.44057076  0.88328222  0.94967332
   0.55272523  0.77175853  0.05034634
   0.78454681  0.22684053  0.94830533
   0.89271859  0.11816002  0.05241857
   0.77416602  0.55770393  0.94968715
   0.89151575  0.44173964  0.04934325
   0.77462998  0.88224910  0.94841415
   0.88225055  0.77475869  0.05182950
unknown system                          
           1
     8.261388    4.767519    0.000000
    -8.274696    4.790544    0.000000
     0.000000    0.000000   30.000000
   V    Mo   W    S 
   3   3   3  18
Direct configuration=     6
   0.67059559  0.67598751 -0.00006138
   0.33634289  0.66514667 -0.00052031
   1.00003014  0.32157484  0.00009038
   0.67448939  0.00469201 -0.00029986
   0.32918310  0.31706720  0.00019838
   0.00325728  0.00356287  0.00010679
   0.00367224  0.67937296  0.00020153
   0.33391797  0.01358631  0.00008259
   0.65055042  0.31817902  0.00022499
   0.10803438  0.22539717  0.94722359
   0.22111013  0.10934852  0.05503876
   0.11281128  0.55257675  0.95124472
   0.21957644  0.44601276  0.04951712
   0.11226523  0.89024707  0.94646507
   0.22606380  0.77687991  0.05055861
   0.44437876  0.22168670  0.94470784
   0.55398495  0.10913156  0.05345903
   0.44660183  0.55929342  0.95083230
   0.55797148  0.44955950  0.05069380
   0.44084459  0.88430404  0.94984414
   0.55313265  0.77228316  0.05044819
   0.78434833  0.22697990  0.94816690
   0.89288308  0.11786232  0.05270430
   0.77396401  0.55719942  0.94996580
   0.89079676  0.44177276  0.04882708
   0.77510688  0.88301803  0.94816131
   0.88230085  0.77549206  0.05211824
unknown system                          
           1
     8.257200    4.765038    0.000000
    -8.267391    4.782661    0.000000
     0.000000    0.000000   30.000000
   V    Mo   W    S 
   3   3   3  18
Direct configuration=     7
   0.67104439  0.67675049 -0.00007129
   0.33625745  0.66482925 -0.00057347
   1.00018102  0.32104887  0.00008737
   0.67488369  0.00488854 -0.00029596
   0.32903220  0.31659793  0.00019508
   0.00317740  0.00338550  0.00011311
   0.00428119  0.68048722  0.00021263
   0.33371093  0.01387305  0.00008242
   0.64970473  0.31733923  0.00021738
   0.10808034  0.22529404  0.94720267
   0.22096732  0.10929318  0.05511122
   0.11267773  0.55256587  0.95134050
   0.21964335  0.44583426  0.04948729
   0.11237007  0.89041826  0.94639842
   0.22617287  0.77710727  0.05054883
   0.44428287  0.22158030  0.94461131
   0.55383957  0.10890942  0.05347959
   0.44658886  0.55908645  0.95091339
   0.55782956  0.44940222  0.05061017
   0.44089395  0.88452694  0.94995848
   0.55322459  0.77239883  0.05042678
   0.78429825  0.22700275  0.94818363
   0.89293336  0.11781227  0.05273794
   0.77397070  0.55708522  0.95010780
   0.89063031  0.44184518  0.04860919
   0.77521309  0.88321180  0.94812947
   0.88232465  0.77564011  0.05217597
unknown system                          
           1
     8.241840    4.755417    0.000000
    -8.255620    4.779257    0.000000
     0.000000    0.000000   30.000000
   V    Mo   W    S 
   3   3   3  18
Direct configuration=     8
   0.66974223  0.67443160 -0.00008545
   0.33638639  0.66595058 -0.00041679
   0.99935669  0.32180564  0.00009331
   0.67399407  0.00495857 -0.00031890
   0.32914896  0.31718143  0.00018820
   0.00407454  0.00465883  0.00005614
   0.00255900  0.67730209  0.00007166
   0.33454642  0.01367053  0.00000825
   0.65167236  0.31923904  0.00024300
   0.10801058  0.22552260  0.94726196
   0.22123732  0.10939905  0.05511091
   0.11301219  0.55244599  0.95105348
   0.21955307  0.44602660  0.04954082
   0.11217284  0.89000591  0.94660825
   0.22602665  0.77683720  0.05062847
   0.44455522  0.22180788  0.94470162
   0.55427299  0.10948270  0.05356720
   0.44629620  0.55919262  0.95066018
   0.55791895  0.44953291  0.05095102
   0.44085128  0.88425599  0.94957230
   0.55308462  0.77231228  0.05059976
   0.78448817  0.22698859  0.94806381
   0.89300479  0.11802112  0.05268548
   0.77375265  0.55719495  0.94960841
   0.89089730  0.44141328  0.04927928
   0.77524331  0.88302553  0.94815644
   0.88235566  0.77555096  0.05211111
unknown system                          
           1
     8.254774    4.763161    0.000000
    -8.269364    4.788404    0.000000
     0.000000    0.000000   30.000000
   V    Mo   W    S 
   3   3   3  18
Direct configuration=     9
   0.66990772  0.67468434 -0.00009839
   0.33668628  0.66657625 -0.00040243
   0.99887077  0.32122385  0.00012901
   0.67389277  0.00521507 -0.00031486
   0.32926564  0.31618159  0.00021266
   0.00463505  0.00495104  0.00015323
   0.00225170  0.67732440  0.00016417
   0.33492375  0.01440728  0.00011835
   0.65096870  0.31867924  0.00026565
   0.10827933  0.22550853  0.94712085
   0.22117912  0.10921446  0.05528678
   0.11291582  0.55238039  0.95110466
   0.21978803  0.44561119  0.04942691
   0.11243327  0.89023807  0.94656843
   0.22601853  0.77730360  0.05052045
   0.44462383  0.22183349  0.94445475
   0.55411140  0.10930124  0.05365701
   0.44596806  0.55871175  0.95079479
   0.55749969  0.44902860  0.05092691
   0.44106330  0.88481005  0.94958601
   0.55336759  0.77260506  0.05054353
   0.78439682  0.22711767  0.94796340
   0.89310361  0.11784659  0.05277447
   0.77352240  0.55690569  0.94963070
   0.89050204  0.44129557  0.04917930
   0.77553816  0.88343323  0.94823823
   0.88250108  0.77582625  0.05199531
unknown system                          
           1
     8.259309    4.765414    0.000000
    -8.275466    4.793372    0.000000
     0.000000    0.000000   30.000000
   V    Mo   W    S 
   3   3   3  18
Direct configuration=    10
   0.67115987  0.67690306 -0.00011912
   0.33648463  0.66547873 -0.00056614
   0.99960742  0.32017399  0.00010321
   0.67493049  0.00541258 -0.00030111
   0.32891613  0.31532763  0.00018800
   0.00399484  0.00404397  0.00013711
   0.00404437  0.68053086  0.00019363
   0.33413408  0.01481753  0.00010449
   0.64889054  0.31660711  0.00021489
   0.10829671  0.22526179  0.94705316
   0.22085592  0.10912827  0.05543033
   0.11260069  0.55242329  0.95134218
   0.21986204  0.44539904  0.04942004
   0.11260611  0.89061836  0.94634033
   0.22627727  0.77761424  0.05055171
   0.44433114  0.22155299  0.94427611
   0.55375288  0.10873396  0.05369341
   0.44619885  0.55851004  0.95096851
   0.55738844  0.44893870  0.05069882
   0.44108373  0.88507796  0.94988655
   0.55348316  0.77271556  0.05049869
   0.78428711  0.22713835  0.94802270
   0.89311223  0.11775061  0.05288830
   0.77366780  0.55677893  0.95003768
   0.89025837  0.44162686  0.04860688
   0.77558474  0.88365385  0.94811453
   0.88240491  0.77599622  0.05221500
unknown system                          
           1
     8.257156    4.764454    0.000000
    -8.271218    4.788783    0.000000
     0.000000    0.000000   30.000000
   V    Mo   W    S 
   3   3   3  18
Direct configuration=    11
   0.67204640  0.67849620 -0.00015328
   0.33649293  0.66510299 -0.00067431
   0.99985476  0.31906303  0.00009219
   0.67562072  0.00575418 -0.00028581
   0.32855392  0.31416191  0.00016776
   0.00392845  0.00373958  0.00014389
   0.00515725  0.68273463  0.00020944
   0.33376198  0.01541801  0.00011895
   0.64721931  0.31492325  0.00017416
   0.10838806  0.22509386  0.94695472
   0.22061121  0.10898566  0.05563865
   0.11234893  0.55238804  0.95152271
   0.21998168  0.44510205  0.04936011
   0.11282102  0.89094330  0.94617342
   0.22645957  0.77798795  0.05056698
   0.44416714  0.22134718  0.94403598
   0.55347725  0.10830669  0.05379258
   0.44620954  0.55817419  0.95112790
   0.55716659  0.44870206  0.05056328
   0.44116700  0.88546062  0.95005770
   0.55365559  0.77290131  0.05048750
   0.78421421  0.22721979  0.94800617
   0.89318225  0.11767277  0.05301340
   0.77364396  0.55657432  0.95029634
   0.88995555  0.44176243  0.04820325
   0.77576927  0.88397846  0.94804073
   0.88235991  0.77622000  0.05236550
unknown system                          
           1
     8.250097    4.760888    0.000000
    -8.261934    4.781356    0.000000
     0.000000    0.000000   30.000000
   V    Mo   W    S 
   3   3   3  18
Direct configuration=    12
   0.67125616  0.67704355 -0.00013998
   0.33629462  0.66518485 -0.00057858
   0.99964964  0.31998695  0.00009294
   0.67516356  0.00562932 -0.00029885
   0.32891598  0.31522620  0.00017113
   0.00394779  0.00397268  0.00010684
   0.00442341  0.68103634  0.00015248
   0.33409101  0.01497042  0.00007659
   0.64844402  0.31619096  0.00020324
   0.10827617  0.22522817  0.94707581
   0.22083007  0.10914963  0.05545641
   0.11258409  0.55240170  0.95134506
   0.21986788  0.44537614  0.04943928
   0.11261032  0.89061921  0.94633235
   0.22635604  0.77768400  0.05057107
   0.44432087  0.22153908  0.94425575
   0.55373613  0.10867342  0.05371047
   0.44617329  0.55845309  0.95096368
   0.55737441  0.44894541  0.05072175
   0.44107280  0.88511942  0.94990961
   0.55347911  0.77275022  0.05050600
   0.78430264  0.22716596  0.94803171
   0.89314320  0.11778430  0.05289659
   0.77368936  0.55674943  0.95005432
   0.89019940  0.44161441  0.04858413
   0.77560359  0.88368151  0.94809105
   0.88240888  0.77603809  0.05226902
unknown system                          
           1
     8.248480    4.760646    0.000000
    -8.258287    4.777592    0.000000
     0.000000    0.000000   30.000000
   V    Mo   W    S 
   3   3   3  18
Direct configuration=    13
   0.66938134  0.67324294 -0.00010266
   0.33509013  0.66469740 -0.00031258
   0.99898685  0.32177950  0.00015502
   0.67473477  0.00615311 -0.00034621
   0.32978527  0.31740732  0.00025974
   0.00421884  0.00475092  0.00010427
   0.00305807  0.67741887  0.00014626
   0.33486235  0.01423189  0.00005447
   0.65088266  0.31891752  0.00035840
   0.10799877  0.22553359  0.94732065
   0.22124697  0.10945890  0.05507321
   0.11302171  0.55222863  0.95088185
   0.21956019  0.44577023  0.04962893
   0.11235661  0.89019842  0.94656442
   0.22628141  0.77734018  0.05055417
   0.44465576  0.22201489  0.94451810
   0.55410143  0.10927961  0.05361708
   0.44588949  0.55891885  0.95055641
   0.55773009  0.44927922  0.05115202
   0.44086125  0.88452749  0.94961657
   0.55311675  0.77250590  0.05049171
   0.78465384  0.22734047  0.94803757
   0.89335320  0.11812965  0.05265277
   0.77378816  0.55692993  0.94948837
   0.89051124  0.44120008  0.04935685
   0.77540201  0.88319428  0.94820565
   0.88268530  0.77576467  0.05196685
unknown system                          
           1
     8.241719    4.756140    0.000000
    -8.253237    4.776047    0.000000
     0.000000    0.000000   30.000000
   V    Mo   W    S 
   3   3   3  18
Direct configuration=    14
   0.66776134  0.67020348 -0.00014667
   0.33426812  0.66431631 -0.00018556
   0.99845611  0.32335109  0.00014286
   0.67418161  0.00634938 -0.00042792
   0.33099154  0.31915422  0.00021099
   0.00443219  0.00519280 -0.00001595
   0.00183353  0.67451038  0.00004213
   0.33559855  0.01394928 -0.00010583
   0.65246841  0.32101929  0.00034874
   0.10801690  0.22580258  0.94747851
   0.22159704  0.10970142  0.05495811
   0.11331449  0.55215819  0.95056363
   0.21947733  0.44595151  0.04980078
   0.11221752  0.88984057  0.94680696
   0.22627335  0.77721495  0.05054961
   0.44492788  0.22237577  0.94473931
   0.55442227  0.10967019  0.05363367
   0.44560767  0.55919691  0.95034318
   0.55787484  0.44943841  0.05154180
   0.44084188  0.88420801  0.94949206
   0.55302812  0.77242404  0.05037907
   0.78478006  0.22756063  0.94801425
   0.89339268  0.11822408  0.05260733
   0.77384337  0.55698570  0.94913810
   0.89060760  0.44100503  0.04994059
   0.77521554  0.88285395  0.94841240
   0.88278451  0.77555627  0.05173775
unknown system                          
           1
     8.248580    4.759959    0.000000
    -8.261659    4.782573    0.000000
     0.000000    0.000000   30.000000
   V    Mo   W    S 
   3   3   3  18
Direct configuration=    15
   0.66738720  0.66954428 -0.00014818
   0.33371556  0.66348012 -0.00018279
   0.99829106  0.32318625  0.00018780
   0.67478620  0.00707902 -0.00036544
   0.33167817  0.31873399  0.00029325
   0.00478770  0.00555546  0.00006008
   0.00188705  0.67455891  0.00015719
   0.33568899  0.01487067  0.00002223
   0.65163356  0.32064416  0.00035738
   0.10844897  0.22598580  0.94743982
   0.22173500  0.10975306  0.05500881
   0.11304067  0.55207024  0.95059372
   0.21964152  0.44551494  0.04974496
   0.11249875  0.88996500  0.94674203
   0.22633555  0.77768868  0.05039630
   0.44495601  0.22242958  0.94444984
   0.55428158  0.10955317  0.05364235
   0.44547416  0.55888068  0.95041082
   0.55764253  0.44909962  0.05161793
   0.44103214  0.88456056  0.94971682
   0.55336583  0.77263504  0.05010569
   0.78463104  0.22792773  0.94797738
   0.89336700  0.11808504  0.05266537
   0.77380017  0.55665283  0.94927450
   0.89019236  0.44120180  0.04970049
   0.77526082  0.88301214  0.94855207
   0.88265483  0.77554566  0.05157947
unknown system                          
           1
     8.251403    4.761107    0.000000
    -8.264762    4.784199    0.000000
     0.000000    0.000000   30.000000
   V    Mo   W    S 
   3   3   3  18
Direct configuration=    16
   0.66859529  0.67183821 -0.00017728
   0.33410321  0.66333844 -0.00034819
   0.99877542  0.32201117  0.00014019
   0.67538311  0.00700864 -0.00037722
   0.33110370  0.31755607  0.00021965
   0.00447620  0.00493781  0.00003487
   0.00312116  0.67724301  0.00015815
   0.33508066  0.01521489 -0.00001926
   0.64997554  0.31882920  0.00027346
   0.10849057  0.22574893  0.94731843
   0.22137498  0.10955882  0.05525533
   0.11279348  0.55212944  0.95084357
   0.21975151  0.44532473  0.04968715
   0.11263541  0.89030050  0.94657227
   0.22648406  0.77789732  0.05044703
   0.44471122  0.22211349  0.94429738
   0.55401285  0.10912029  0.05372526
   0.44564614  0.55864532  0.95060744
   0.55749123  0.44894626  0.05138532
   0.44108238  0.88485431  0.94991223
   0.55346838  0.77273240  0.05015853
   0.78450959  0.22784195  0.94798709
   0.89337065  0.11797995  0.05282123
   0.77380211  0.55656713  0.94959760
   0.89000715  0.44139982  0.04923590
   0.77541245  0.88331021  0.94843902
   0.88255603  0.77576615  0.05180474
unknown system                          
           1
     8.256896    4.762566    0.000000
    -8.269297    4.783975    0.000000
     0.000000    0.000000   30.000000
   V    Mo   W    S 
   3   3   3  18
Direct configuration=    17
   0.66807405  0.67091732 -0.00021860
   0.33364794  0.66278719 -0.00034910
   0.99857922  0.32210868  0.00011275
   0.67574173  0.00753621 -0.00041115
   0.33171154  0.31763692  0.00017504
   0.00472446  0.00519558 -0.00003040
   0.00304627  0.67698598  0.00013266
   0.33521551  0.01567250 -0.00009481
   0.64967390  0.31888467  0.00021449
   0.10870495  0.22587441  0.94734363
   0.22141752  0.10960907  0.05537328
   0.11272293  0.55206322  0.95079160
   0.21982961  0.44516825  0.04972621
   0.11272452  0.89029530  0.94661286
   0.22658252  0.77809872  0.05041737
   0.44475467  0.22213153  0.94420278
   0.55403739  0.10914294  0.05379837
   0.44552898  0.55853249  0.95057698
   0.55744379  0.44884801  0.05155759
   0.44114107  0.88495588  0.95001346
   0.55356044  0.77279270  0.05006114
   0.78446272  0.22803770  0.94795610
   0.89340878  0.11797862  0.05290348
   0.77376839  0.55643106  0.94956986
   0.88979441  0.44140185  0.04927160
   0.77545391  0.88335234  0.94853874
   0.88246321  0.77577530  0.05175396
unknown system                          
           1
     8.247214    4.758065    0.000000
    -8.259992    4.780130    0.000000
     0.000000    0.000000   30.000000
   V    Mo   W    S 
   3   3   3  18
Direct configuration=    18
   0.66319781  0.66236875 -0.00025571
   0.33111744  0.66081595  0.00002683
   0.99678180  0.32458610  0.00015438
   0.67623840  0.01000756 -0.00045326
   0.33511302  0.32032604  0.00027479
   0.00654755  0.00797925 -0.00008218
   0.00032754  0.67056127  0.00017170
   0.33690765  0.01670268 -0.00012828
   0.65195927  0.32270897  0.00027723
   0.10942333  0.22692431  0.94768427
   0.22234697  0.11018911  0.05522196
   0.11292563  0.55163921  0.95016653
   0.21983548  0.44493322  0.04984662
   0.11277453  0.88963739  0.94707713
   0.22661911  0.77842321  0.05008945
   0.44537047  0.22271517  0.94409399
   0.55461434  0.11022820  0.05377408
   0.44472491  0.55856520  0.95006836
   0.55759345  0.44865205  0.05257459
   0.44119227  0.88474394  0.95005621
   0.55358542  0.77277224  0.04956498
   0.78464184  0.22894920  0.94782693
   0.89368669  0.11837493  0.05278639
   0.77357621  0.55612043  0.94878937
   0.88936699  0.44087057  0.05023398
   0.77540399  0.88299745  0.94914360
   0.88234234  0.77542205  0.05101595
unknown system                          
           1
     8.252985    4.761565    0.000000
    -8.266394    4.784725    0.000000
     0.000000    0.000000   30.000000
   V    Mo   W    S 
   3   3   3  18
Direct configuration=    19
   0.66344879  0.66317878 -0.00023823
   0.33114078  0.65978365 -0.00006102
   0.99695066  0.32318954  0.00012716
   0.67773569  0.01084748 -0.00045587
   0.33506781  0.31921127  0.00027879
   0.00674650  0.00831222 -0.00006047
   0.00138775  0.67290182  0.00026905
   0.33622171  0.01767494 -0.00009274
   0.64998838  0.32090239  0.00021788
   0.10970005  0.22691360  0.94766185
   0.22217403  0.11016913  0.05533739
   0.11249181  0.55162591  0.95042561
   0.21984869  0.44452563  0.04970912
   0.11289669  0.88992684  0.94702789
   0.22673612  0.77873789  0.04995946
   0.44516696  0.22235767  0.94391680
   0.55434467  0.10992981  0.05373085
   0.44487519  0.55821472  0.95022122
   0.55753559  0.44841707  0.05235363
   0.44125026  0.88511732  0.95045023
   0.55372579  0.77286433  0.04941451
   0.78455678  0.22907174  0.94786092
   0.89383984  0.11847767  0.05289088
   0.77357848  0.55603273  0.94914531
   0.88908023  0.44102336  0.04967406
   0.77555539  0.88320144  0.94924679
   0.88216982  0.77560549  0.05098882
unknown system                          
           1
     8.259796    4.766247    0.000000
    -8.275017    4.792553    0.000000
     0.000000    0.000000   30.000000
   V    Mo   W    S 
   3   3   3  18
Direct configuration=    20
   0.66358080  0.66354258 -0.00023900
   0.33112795  0.65942863 -0.00010767
   0.99706699  0.32275978  0.00010895
   0.67818380  0.01100453 -0.00045452
   0.33500445  0.31902588  0.00026477
   0.00669046  0.00825281 -0.00005132
   0.00186649  0.67384682  0.00029332
   0.33589440  0.01773721 -0.00009007
   0.64946210  0.32037626  0.00019925
   0.10975158  0.22690136  0.94760964
   0.22207043  0.11016359  0.05542237
   0.11239556  0.55161791  0.95048234
   0.21984077  0.44442997  0.04971889
   0.11290936  0.89004900  0.94695545
   0.22683180  0.77881335  0.04996716
   0.44507661  0.22225625  0.94383456
   0.55424964  0.10978103  0.05374579
   0.44491967  0.55813173  0.95023382
   0.55751664  0.44837031  0.05231884
   0.44125855  0.88518922  0.95054811
   0.55373616  0.77288501  0.04941654
   0.78456823  0.22910830  0.94784065
   0.89388900  0.11850742  0.05296417
   0.77357933  0.55601482  0.94922697
   0.88901057  0.44105114  0.04952482
   0.77561182  0.88326411  0.94922657
   0.88212130  0.77570543  0.05103950
unknown system                          
           1
     8.261724    4.765123    0.000000
    -8.275656    4.789184    0.000000
     0.000000    0.000000   30.000000
   V    Mo   W    S 
   3   3   3  18
Direct configuration=    21
   0.66395687  0.66459929 -0.00023349
   0.33081538  0.65783389 -0.00026551
   0.99749236  0.32120644  0.00006249
   0.68000952  0.01174838 -0.00043392
   0.33493122  0.31842122  0.00026325
   0.00648488  0.00800447  0.00001159
   0.00372736  0.67742195  0.00041372
   0.33467756  0.01805999 -0.00004825
   0.64742060  0.31847405  0.00017619
   0.10991836  0.22683480  0.94746974
   0.22178309  0.11020151  0.05563133
   0.11201433  0.55160277  0.95071324
   0.21981670  0.44406798  0.04972838
   0.11296225  0.89047559  0.94670530
   0.22716521  0.77911905  0.04994027
   0.44474997  0.22188490  0.94358435
   0.55389499  0.10929675  0.05370225
   0.44506615  0.55783505  0.95029533
   0.55742013  0.44811191  0.05215870
   0.44132250  0.88548785  0.95096945
   0.55379036  0.77297246  0.04935058
   0.78457345  0.22924089  0.94782098
   0.89407003  0.11861190  0.05316187
   0.77363077  0.55591434  0.94956422
   0.88873281  0.44123667  0.04890907
   0.77579854  0.88351270  0.94918732
   0.88198905  0.77603762  0.05116147
unknown system                          
           1
     8.248967    4.757104    0.000000
    -8.263127    4.781556    0.000000
     0.000000    0.000000   30.000000
   V    Mo   W    S 
   3   3   3  18
Direct configuration=    22
   0.66355201  0.66338872 -0.00023448
   0.33145207  0.65999081 -0.00006385
   0.99684553  0.32295946  0.00011738
   0.67779948  0.01096292 -0.00043741
   0.33506211  0.31886254  0.00026212
   0.00692620  0.00851875 -0.00004233
   0.00130985  0.67301336  0.00028024
   0.33623891  0.01789842 -0.00004688
   0.64966735  0.32055562  0.00020754
   0.10984481  0.22700794  0.94759047
   0.22207530  0.11009856  0.05546972
   0.11241549  0.55156247  0.95043183
   0.21986212  0.44434701  0.04968352
   0.11294112  0.88997684  0.94700313
   0.22676000  0.77883863  0.04995355
   0.44515540  0.22230488  0.94374466
   0.55430072  0.10986595  0.05380904
   0.44492036  0.55808886  0.95023696
   0.55752652  0.44840668  0.05235242
   0.44124325  0.88523416  0.95044274
   0.55380461  0.77290029  0.04944459
   0.78459309  0.22914690  0.94777889
   0.89387628  0.11851305  0.05296655
   0.77344545  0.55601848  0.94913960
   0.88893592  0.44085504  0.04965772
   0.77561738  0.88322296  0.94924361
   0.88204309  0.77567514  0.05100856
unknown system                          
           1
     8.259427    4.764895    0.000000
    -8.274891    4.791615    0.000000
     0.000000    0.000000   30.000000
   V    Mo   W    S 
   3   3   3  18
Direct configuration=    23
   0.66347676  0.66329344 -0.00025679
   0.33191635  0.66060822 -0.00003668
   0.99656705  0.32300794  0.00010131
   0.67749503  0.01106807 -0.00046197
   0.33506853  0.31828571  0.00023665
   0.00736023  0.00904229 -0.00005994
   0.00067636  0.67213423  0.00026388
   0.33673299  0.01847452 -0.00005704
   0.64964795  0.32047493  0.00015519
   0.10998459  0.22707361  0.94766264
   0.22208935  0.11002108  0.05546947
   0.11241536  0.55158013  0.95050752
   0.21995976  0.44423860  0.04952066
   0.11300412  0.88991957  0.94719384
   0.22660107  0.77888731  0.04983585
   0.44519852  0.22220223  0.94376873
   0.55432564  0.10996569  0.05382130
   0.44487378  0.55797963  0.95034123
   0.55749369  0.44827946  0.05230160
   0.44122887  0.88539454  0.95045180
   0.55389974  0.77298622  0.04941876
   0.78449509  0.22909962  0.94781103
   0.89385331  0.11850123  0.05289818
   0.77330570  0.55596464  0.94915667
   0.88877858  0.44067790  0.04967962
   0.77571817  0.88335644  0.94937460
   0.88204786  0.77569720  0.05090177
unknown system                          
           1
     8.264644    4.768495    0.000000
    -8.281128    4.796988    0.000000
     0.000000    0.000000   30.000000
   V    Mo   W    S 
   3   3   3  18
Direct configuration=    24
   0.66378194  0.66423840 -0.00024730
   0.33138143  0.65889559 -0.00019021
   0.99708491  0.32166467  0.00006481
   0.67919787  0.01165255 -0.00044022
   0.33493541  0.31805714  0.00024755
   0.00697559  0.00861777 -0.00000253
   0.00256318  0.67554120  0.00037405
   0.33547584  0.01845648 -0.00003795
   0.64803239  0.31894337  0.00014486
   0.11003702  0.22696760  0.94751531
   0.22184467  0.11010231  0.05564019
   0.11211975  0.55158306  0.95068038
   0.21991315  0.44403637  0.04959815
   0.11301391  0.89031756  0.94689976
   0.22697096  0.77911139  0.04987022
   0.44488302  0.22190567  0.94357128
   0.55401194  0.10949303  0.05378088
   0.44497954  0.55778975  0.95033718
   0.55741757  0.44808241  0.05219386
   0.44128030  0.88554525  0.95082011