   27   27  100    1
  0.9710400E+02  0.1002848E-08  0.1002848E-08  0.3000000E-08  0.5000000E-15
  1.000000000000000E-004
  CAR 
 unknown system                          
    159     34    120
 
  0.0000000E+00  0.0000000E+00  0.0000000E+00  0.1562500E-01
    1      -17.803367   1.000000
    2      -16.729986   1.000000
    3      -16.679487   1.000000
    4      -16.578884   1.000000
    5      -16.536270   1.000000
    6      -16.462787   1.000000
    7      -16.427731   1.000000
    8      -16.313915   1.000000
    9      -16.158062   1.000000
   10      -16.099165   1.000000
   11      -16.076812   1.000000
   12      -15.945133   1.000000
   13      -15.916816   1.000000
   14      -15.674557   1.000000
   15      -15.589022   1.000000
   16      -15.531179   1.000000
   17      -15.320761   1.000000
   18      -15.262151   1.000000
   19       -9.285197   1.000000
   20       -9.001771   1.000000
   21       -8.926799   1.000000
   22       -8.823257   1.000000
   23       -8.768568   1.000000
   24       -8.705701   1.000000
   25       -8.651842   1.000000
   26       -8.606836   1.000000
   27       -8.557974   1.000000
   28       -8.421043   1.000000
   29       -8.403256   1.000000
   30       -8.348135   1.000000
   31       -8.290831   1.000000
   32       -8.196837   1.000000
   33       -8.116116   1.000000
   34       -8.030340   1.000000
   35       -7.873835   1.000000
   36       -7.770560   1.000000
   37       -7.691974   1.000000
   38       -7.517492   1.000000
   39       -7.502455   1.000000
   40       -7.427618   1.000000
   41       -7.314569   1.000000
   42       -7.211309   1.000000
   43       -7.131622   1.000000
   44       -6.902122   1.000000
   45       -6.811755   1.000000
   46       -6.805729   1.000000
   47       -6.689241   1.000000
   48       -6.646677   1.000000
   49       -6.547510   1.000000
   50       -6.537223   1.000000
   51       -6.486424   1.000000
   52       -6.424857   1.000000
   53       -6.319673   1.000000
   54       -6.225205   1.000000
   55       -6.170300   1.000000
   56       -6.064751   1.000000
   57       -6.035780   1.000000
   58       -5.851238   1.000000
   59       -5.823163   1.000000
   60       -5.575995   1.000000
   61       -5.507264   1.000000
   62       -5.462448   1.000000
   63       -5.259313   1.000000
   64       -5.115257   1.000000
   65       -5.057988   1.000000
   66       -4.995309   1.000000
   67       -4.958056   1.000000
   68       -4.819976   1.000000
   69       -4.788933   1.000000
   70       -4.695396   1.000000
   71       -4.591948   1.000000
   72       -4.564576   1.000000
   73       -4.536107   1.000000
   74       -4.372523   1.000000
   75       -4.159032   1.000000
   76       -4.027571   1.000000
   77       -3.764960   0.999048
   78       -3.629439   0.984090
   79       -3.544548   0.938996
   80       -3.357916   0.589676
   81       -3.261427   0.324350
   82       -2.841843   0.000310
   83       -2.758453   0.000030
   84       -2.547174   0.000000
   85       -2.477558   0.000000
   86       -2.363890   0.000000
   87       -2.313421   0.000000
   88       -2.199301   0.000000
   89       -2.134626   0.000000
   90       -2.037445   0.000000
   91       -1.781630   0.000000
   92       -1.551265   0.000000
   93       -1.491267   0.000000
   94       -1.369932   0.000000
   95       -1.260853   0.000000
   96       -1.012482   0.000000
   97       -0.962799   0.000000
   98       -0.848161   0.000000
   99       -0.821827   0.000000
  100       -0.639802   0.000000
  101       -0.520406   0.000000
  102       -0.473530   0.000000
  103       -0.469134   0.000000
  104       -0.313915   0.000000
  105       -0.287055   0.000000
  106       -0.166306   0.000000
  107       -0.082395   0.000000
  108       -0.044886   0.000000
  109        0.073288   0.000000
  110        0.183769   0.000000
  111        0.365246   0.000000
  112        0.484232   0.000000
  113        0.679031   0.000000
  114        0.817549   0.000000
  115        0.833039   0.000000
  116        1.089857   0.000000
  117        1.304969   0.000000
  118        1.643751   0.000000
  119        1.834687   0.000000
  120        2.148944   0.000000
 
  0.1250000E+00  0.2775558E-16  0.0000000E+00  0.3125000E-01
    1      -17.778065   1.000000
    2      -16.812074   1.000000
    3      -16.708004   1.000000
    4      -16.591773   1.000000
    5      -16.566127   1.000000
    6      -16.452023   1.000000
    7      -16.403762   1.000000
    8      -16.270560   1.000000
    9      -16.174643   1.000000
   10      -16.088181   1.000000
   11      -16.022807   1.000000
   12      -15.946860   1.000000
   13      -15.878796   1.000000
   14      -15.668331   1.000000
   15      -15.599495   1.000000
   16      -15.532637   1.000000
   17      -15.332619   1.000000
   18      -15.268077   1.000000
   19       -9.258372   1.000000
   20       -9.157268   1.000000
   21       -9.018381   1.000000
   22       -8.971550   1.000000
   23       -8.823283   1.000000
   24       -8.705823   1.000000
   25       -8.632651   1.000000
   26       -8.575037   1.000000
   27       -8.494309   1.000000
   28       -8.420819   1.000000
   29       -8.379208   1.000000
   30       -8.318124   1.000000
   31       -8.250005   1.000000
   32       -8.106450   1.000000
   33       -8.040998   1.000000
   34       -7.902044   1.000000
   35       -7.869797   1.000000
   36       -7.727248   1.000000
   37       -7.663679   1.000000
   38       -7.558633   1.000000
   39       -7.448116   1.000000
   40       -7.408157   1.000000
   41       -7.318573   1.000000
   42       -7.254813   1.000000
   43       -7.138736   1.000000
   44       -6.915265   1.000000
   45       -6.881118   1.000000
   46       -6.848235   1.000000
   47       -6.706891   1.000000
   48       -6.649834   1.000000
   49       -6.564871   1.000000
   50       -6.496839   1.000000
   51       -6.473729   1.000000
   52       -6.367872   1.000000
   53       -6.294058   1.000000
   54       -6.234963   1.000000
   55       -6.164526   1.000000
   56       -6.058445   1.000000
   57       -6.000614   1.000000
   58       -5.875256   1.000000
   59       -5.779628   1.000000
   60       -5.585773   1.000000
   61       -5.547921   1.000000
   62       -5.451270   1.000000
   63       -5.383490   1.000000
   64       -5.143555   1.000000
   65       -5.109675   1.000000
   66       -5.022071   1.000000
   67       -4.953206   1.000000
   68       -4.852606   1.000000
   69       -4.747386   1.000000
   70       -4.703511   1.000000
   71       -4.658482   1.000000
   72       -4.510663   1.000000
   73       -4.424267   1.000000
   74       -4.346330   1.000000
   75       -4.121327   1.000000
   76       -4.012689   0.999999
   77       -3.788129   0.999460
   78       -3.703705   0.996228
   79       -3.582075   0.964988
   80       -3.463707   0.835162
   81       -3.096628   0.052522
   82       -2.842032   0.000312
   83       -2.740447   0.000017
   84       -2.553015   0.000000
   85       -2.463236   0.000000
   86       -2.349952   0.000000
   87       -2.300959   0.000000
   88       -2.173642   0.000000
   89       -2.131732   0.000000
   90       -2.022960   0.000000
   91       -1.806913   0.000000
   92       -1.555808   0.000000
   93       -1.480443   0.000000
   94       -1.344409   0.000000
   95       -1.259595   0.000000
   96       -1.014114   0.000000
   97       -0.974451   0.000000
   98       -0.865804   0.000000
   99       -0.810877   0.000000
  100       -0.690392   0.000000
  101       -0.655313   0.000000
  102       -0.543392   0.000000
  103       -0.489247   0.000000
  104       -0.358215   0.000000
  105       -0.313746   0.000000
  106       -0.187775   0.000000
  107       -0.139783   0.000000
  108        0.023287   0.000000
  109        0.112084   0.000000
  110        0.170271   0.000000
  111        0.396261   0.000000
  112        0.456994   0.000000
  113        0.665779   0.000000
  114        0.804229   0.000000
  115        0.877568   0.000000
  116        1.123704   0.000000
  117        1.329383   0.000000
  118        1.687385   0.000000
  119        1.873567   0.000000
  120        2.184134   0.000000
 
  0.2500000E+00  0.5551115E-16  0.0000000E+00  0.3125000E-01
    1      -17.703149   1.000000
    2      -17.007454   1.000000
    3      -16.723027   1.000000
    4      -16.657582   1.000000
    5      -16.590731   1.000000
    6      -16.451019   1.000000
    7      -16.329379   1.000000
    8      -16.217787   1.000000
    9      -16.187922   1.000000
   10      -16.062075   1.000000
   11      -15.980372   1.000000
   12      -15.894416   1.000000
   13      -15.805158   1.000000
   14      -15.658149   1.000000
   15      -15.618952   1.000000
   16      -15.536830   1.000000
   17      -15.361964   1.000000
   18      -15.281408   1.000000
   19       -9.456983   1.000000
   20       -9.211522   1.000000
   21       -9.162995   1.000000
   22       -9.081739   1.000000
   23       -8.859486   1.000000
   24       -8.788579   1.000000
   25       -8.688248   1.000000
   26       -8.514134   1.000000
   27       -8.441944   1.000000
   28       -8.367360   1.000000
   29       -8.333310   1.000000
   30       -8.185480   1.000000
   31       -8.157065   1.000000
   32       -8.088370   1.000000
   33       -7.985118   1.000000
   34       -7.871089   1.000000
   35       -7.766565   1.000000
   36       -7.666384   1.000000
   37       -7.549465   1.000000
   38       -7.475737   1.000000
   39       -7.418701   1.000000
   40       -7.373939   1.000000
   41       -7.314292   1.000000
   42       -7.244983   1.000000
   43       -7.138669   1.000000
   44       -6.949181   1.000000
   45       -6.924822   1.000000
   46       -6.827526   1.000000
   47       -6.729911   1.000000
   48       -6.686720   1.000000
   49       -6.585271   1.000000
   50       -6.502150   1.000000
   51       -6.449818   1.000000
   52       -6.306915   1.000000
   53       -6.241771   1.000000
   54       -6.187490   1.000000
   55       -6.126175   1.000000
   56       -6.046345   1.000000
   57       -5.952025   1.000000
   58       -5.880703   1.000000
   59       -5.792839   1.000000
   60       -5.708958   1.000000
   61       -5.605761   1.000000
   62       -5.590676   1.000000
   63       -5.467846   1.000000
   64       -5.298530   1.000000
   65       -5.166565   1.000000
   66       -5.035773   1.000000
   67       -4.923811   1.000000
   68       -4.857058   1.000000
   69       -4.771454   1.000000
   70       -4.660209   1.000000
   71       -4.627351   1.000000
   72       -4.438856   1.000000
   73       -4.331259   1.000000
   74       -4.270106   1.000000
   75       -4.167528   1.000000
   76       -4.049758   1.000000
   77       -3.937733   0.999992
   78       -3.756656   0.998841
   79       -3.564045   0.953935
   80       -3.410032   0.724155
   81       -2.976631   0.006767
   82       -2.840214   0.000297
   83       -2.697953   0.000004
   84       -2.576577   0.000000
   85       -2.417519   0.000000
   86       -2.335213   0.000000
   87       -2.292227   0.000000
   88       -2.147263   0.000000
   89       -2.055123   0.000000
   90       -1.988069   0.000000
   91       -1.840359   0.000000
   92       -1.576626   0.000000
   93       -1.451609   0.000000
   94       -1.294965   0.000000
   95       -1.261249   0.000000
   96       -1.071971   0.000000
   97       -0.996071   0.000000
   98       -0.909843   0.000000
   99       -0.850585   0.000000
  100       -0.819109   0.000000
  101       -0.741431   0.000000
  102       -0.706505   0.000000
  103       -0.579846   0.000000
  104       -0.407444   0.000000
  105       -0.371524   0.000000
  106       -0.258784   0.000000
  107       -0.180213   0.000000
  108        0.000579   0.000000
  109        0.087410   0.000000
  110        0.188371   0.000000
  111        0.333157   0.000000
  112        0.488280   0.000000
  113        0.709034   0.000000
  114        0.803831   0.000000
  115        0.946484   0.000000
  116        1.197868   0.000000
  117        1.412979   0.000000
  118        1.809225   0.000000
  119        1.984814   0.000000
  120        2.288592   0.000000
 
  0.3750000E+00  0.0000000E+00  0.0000000E+00  0.3125000E-01
    1      -17.581987   1.000000
    2      -17.218995   1.000000
    3      -16.752377   1.000000
    4      -16.681089   1.000000
    5      -16.609903   1.000000
    6      -16.461203   1.000000
    7      -16.267452   1.000000
    8      -16.215671   1.000000
    9      -16.156295   1.000000
   10      -16.063621   1.000000
   11      -15.921524   1.000000
   12      -15.831962   1.000000
   13      -15.772314   1.000000
   14      -15.662371   1.000000
   15      -15.628245   1.000000
   16      -15.529388   1.000000
   17      -15.395154   1.000000
   18      -15.289629   1.000000
   19       -9.673639   1.000000
   20       -9.288520   1.000000
   21       -9.257645   1.000000
   22       -9.014212   1.000000
   23       -8.889510   1.000000
   24       -8.848836   1.000000
   25       -8.673055   1.000000
   26       -8.552153   1.000000
   27       -8.395891   1.000000
   28       -8.309239   1.000000
   29       -8.280277   1.000000
   30       -8.185206   1.000000
   31       -8.094218   1.000000
   32       -8.052485   1.000000
   33       -7.957235   1.000000
   34       -7.891596   1.000000
   35       -7.764463   1.000000
   36       -7.686554   1.000000
   37       -7.536188   1.000000
   38       -7.457869   1.000000
   39       -7.412590   1.000000
   40       -7.302236   1.000000
   41       -7.176239   1.000000
   42       -7.137863   1.000000
   43       -7.029253   1.000000
   44       -6.976968   1.000000
   45       -6.878130   1.000000
   46       -6.802908   1.000000
   47       -6.703892   1.000000
   48       -6.637636   1.000000
   49       -6.551806   1.000000
   50       -6.506160   1.000000
   51       -6.361367   1.000000
   52       -6.344107   1.000000
   53       -6.251630   1.000000
   54       -6.161146   1.000000
   55       -6.077515   1.000000
   56       -6.042966   1.000000
   57       -6.009770   1.000000
   58       -5.927803   1.000000
   59       -5.842223   1.000000
   60       -5.813430   1.000000
   61       -5.716995   1.000000
   62       -5.689874   1.000000
   63       -5.539500   1.000000
   64       -5.325083   1.000000
   65       -5.195525   1.000000
   66       -5.059589   1.000000
   67       -4.965775   1.000000
   68       -4.832529   1.000000
   69       -4.746325   1.000000
   70       -4.711556   1.000000
   71       -4.596082   1.000000
   72       -4.465769   1.000000
   73       -4.371711   1.000000
   74       -4.252560   1.000000
   75       -4.185486   1.000000
   76       -4.055704   1.000000
   77       -3.910790   0.999982
   78       -3.735512   0.998115
   79       -3.580329   0.964023
   80       -3.282289   0.379023
   81       -2.951078   0.004024
   82       -2.801748   0.000105
   83       -2.676429   0.000002
   84       -2.605419   0.000000
   85       -2.379621   0.000000
   86       -2.341018   0.000000
   87       -2.286480   0.000000
   88       -2.097341   0.000000
   89       -2.015891   0.000000
   90       -1.908181   0.000000
   91       -1.825602   0.000000
   92       -1.612310   0.000000
   93       -1.435691   0.000000
   94       -1.269431   0.000000
   95       -1.261524   0.000000
   96       -1.161077   0.000000
   97       -1.092060   0.000000
   98       -1.000279   0.000000
   99       -0.917253   0.000000
  100       -0.854752   0.000000
  101       -0.783713   0.000000
  102       -0.732937   0.000000
  103       -0.632708   0.000000
  104       -0.538277   0.000000
  105       -0.437787   0.000000
  106       -0.277322   0.000000
  107       -0.213143   0.000000
  108       -0.052316   0.000000
  109        0.020567   0.000000
  110        0.119973   0.000000
  111        0.322619   0.000000
  112        0.485629   0.000000
  113        0.790670   0.000000
  114        0.824471   0.000000
  115        1.004745   0.000000
  116        1.263172   0.000000
  117        1.511977   0.000000
  118        1.992531   0.000000
  119        2.158227   0.000000
  120        2.459153   0.000000
 
  0.5000000E+00  0.1110223E-15  0.0000000E+00  0.1562500E-01
    1      -17.442173   1.000000
    2      -17.391234   1.000000
    3      -16.766053   1.000000
    4      -16.687017   1.000000
    5      -16.614694   1.000000
    6      -16.465419   1.000000
    7      -16.260643   1.000000
    8      -16.199198   1.000000
    9      -16.140175   1.000000
   10      -16.073644   1.000000
   11      -15.876721   1.000000
   12      -15.812883   1.000000
   13      -15.771518   1.000000
   14      -15.669488   1.000000
   15      -15.639961   1.000000
   16      -15.512772   1.000000
   17      -15.414041   1.000000
   18      -15.289691   1.000000
   19       -9.751388   1.000000
   20       -9.327838   1.000000
   21       -9.293372   1.000000
   22       -8.979781   1.000000
   23       -8.897274   1.000000
   24       -8.777407   1.000000
   25       -8.713653   1.000000
   26       -8.639634   1.000000
   27       -8.366649   1.000000
   28       -8.263422   1.000000
   29       -8.240763   1.000000
   30       -8.192298   1.000000
   31       -8.069828   1.000000
   32       -8.043957   1.000000
   33       -7.951002   1.000000
   34       -7.903279   1.000000
   35       -7.768742   1.000000
   36       -7.755114   1.000000
   37       -7.567559   1.000000
   38       -7.446233   1.000000
   39       -7.404721   1.000000
   40       -7.316017   1.000000
   41       -7.081793   1.000000
   42       -7.049303   1.000000
   43       -7.004205   1.000000
   44       -6.860109   1.000000
   45       -6.854108   1.000000
   46       -6.723517   1.000000
   47       -6.682700   1.000000
   48       -6.649428   1.000000
   49       -6.588982   1.000000
   50       -6.509879   1.000000
   51       -6.386648   1.000000
   52       -6.353754   1.000000
   53       -6.285976   1.000000
   54       -6.190646   1.000000
   55       -6.106747   1.000000
   56       -6.021524   1.000000
   57       -6.007362   1.000000
   58       -5.957207   1.000000
   59       -5.833793   1.000000
   60       -5.793837   1.000000
   61       -5.723391   1.000000
   62       -5.707224   1.000000
   63       -5.539666   1.000000
   64       -5.329842   1.000000
   65       -5.261897   1.000000
   66       -5.140455   1.000000
   67       -5.046486   1.000000
   68       -4.881514   1.000000
   69       -4.727995   1.000000
   70       -4.615514   1.000000
   71       -4.569418   1.000000
   72       -4.529268   1.000000
   73       -4.404865   1.000000
   74       -4.258780   1.000000
   75       -4.164744   1.000000
   76       -4.012393   0.999999
   77       -3.894624   0.999971
   78       -3.726257   0.997682
   79       -3.591574   0.969872
   80       -3.216450   0.219584
   81       -2.962134   0.005057
   82       -2.758239   0.000030
   83       -2.694820   0.000004
   84       -2.617705   0.000000
   85       -2.372860   0.000000
   86       -2.331374   0.000000
   87       -2.290451   0.000000
   88       -2.071907   0.000000
   89       -1.999110   0.000000
   90       -1.884223   0.000000
   91       -1.781418   0.000000
   92       -1.646338   0.000000
   93       -1.437671   0.000000
   94       -1.278637   0.000000
   95       -1.249573   0.000000
   96       -1.193009   0.000000
   97       -1.147581   0.000000
   98       -1.049281   0.000000
   99       -0.926709   0.000000
  100       -0.871481   0.000000
  101       -0.794466   0.000000
  102       -0.700097   0.000000
  103       -0.667492   0.000000
  104       -0.601982   0.000000
  105       -0.469495   0.000000
  106       -0.281270   0.000000
  107       -0.222949   0.000000
  108       -0.093780   0.000000
  109        0.010054   0.000000
  110        0.074406   0.000000
  111        0.325043   0.000000
  112        0.480201   0.000000
  113        0.822579   0.000000
  114        0.837289   0.000000
  115        1.026643   0.000000
  116        1.288699   0.000000
  117        1.553335   0.000000
  118        2.202255   0.000000
  119        2.255405   0.000000
  120        2.381663   0.000000
 
  0.0000000E+00  0.1250000E+00  0.0000000E+00  0.3125000E-01
    1      -17.778524   1.000000
    2      -16.797886   1.000000
    3      -16.713881   1.000000
    4      -16.635353   1.000000
    5      -16.555504   1.000000
    6      -16.431190   1.000000
    7      -16.371066   1.000000
    8      -16.302312   1.000000
    9      -16.150557   1.000000
   10      -16.091049   1.000000
   11      -16.044374   1.000000
   12      -15.932943   1.000000
   13      -15.879615   1.000000
   14      -15.683384   1.000000
   15      -15.595331   1.000000
   16      -15.542400   1.000000
   17      -15.325166   1.000000
   18      -15.264714   1.000000
   19       -9.285103   1.000000
   20       -9.168120   1.000000
   21       -9.016953   1.000000
   22       -8.912799   1.000000
   23       -8.809137   1.000000
   24       -8.746820   1.000000
   25       -8.675218   1.000000
   26       -8.569844   1.000000
   27       -8.457702   1.000000
   28       -8.393563   1.000000
   29       -8.370681   1.000000
   30       -8.298425   1.000000
   31       -8.192693   1.000000
   32       -8.123990   1.000000
   33       -8.105488   1.000000
   34       -7.953725   1.000000
   35       -7.830952   1.000000
   36       -7.714463   1.000000
   37       -7.636398   1.000000
   38       -7.577070   1.000000
   39       -7.516096   1.000000
   40       -7.449112   1.000000
   41       -7.290984   1.000000
   42       -7.237250   1.000000
   43       -7.121449   1.000000
   44       -6.957744   1.000000
   45       -6.862165   1.000000
   46       -6.764271   1.000000
   47       -6.676624   1.000000
   48       -6.619867   1.000000
   49       -6.564722   1.000000
   50       -6.532525   1.000000
   51       -6.454961   1.000000
   52       -6.415048   1.000000
   53       -6.324863   1.000000
   54       -6.253505   1.000000
   55       -6.189102   1.000000
   56       -6.079477   1.000000
   57       -5.975561   1.000000
   58       -5.871741   1.000000
   59       -5.783222   1.000000
   60       -5.582907   1.000000
   61       -5.542148   1.000000
   62       -5.460893   1.000000
   63       -5.371318   1.000000
   64       -5.276206   1.000000
   65       -5.036006   1.000000
   66       -4.970750   1.000000
   67       -4.932174   1.000000
   68       -4.887292   1.000000
   69       -4.716675   1.000000
   70       -4.649685   1.000000
   71       -4.608040   1.000000
   72       -4.546970   1.000000
   73       -4.460021   1.000000
   74       -4.329476   1.000000
   75       -4.131882   1.000000
   76       -4.088059   1.000000
   77       -3.799887   0.999599
   78       -3.698324   0.995778
   79       -3.592587   0.970358
   80       -3.310820   0.457669
   81       -3.237649   0.266411
   82       -2.806382   0.000120
   83       -2.725160   0.000011
   84       -2.540573   0.000000
   85       -2.469429   0.000000
   86       -2.353042   0.000000
   87       -2.293169   0.000000
   88       -2.165541   0.000000
   89       -2.139005   0.000000
   90       -2.012356   0.000000
   91       -1.792605   0.000000
   92       -1.559329   0.000000
   93       -1.484333   0.000000
   94       -1.366027   0.000000
   95       -1.256510   0.000000
   96       -1.027307   0.000000
   97       -0.958845   0.000000
   98       -0.886843   0.000000
   99       -0.843209   0.000000
  100       -0.695523   0.000000
  101       -0.597212   0.000000
  102       -0.514697   0.000000
  103       -0.465151   0.000000
  104       -0.449026   0.000000
  105       -0.336319   0.000000
  106       -0.193840   0.000000
  107       -0.121751   0.000000
  108        0.045244   0.000000
  109        0.094737   0.000000
  110        0.188695   0.000000
  111        0.352625   0.000000
  112        0.561397   0.000000
  113        0.662222   0.000000
  114        0.820601   0.000000
  115        0.892849   0.000000
  116        1.107779   0.000000
  117        1.264878   0.000000
  118        1.685525   0.000000
  119        1.875813   0.000000
  120        2.183686   0.000000
 
  0.1250000E+00  0.1250000E+00  0.0000000E+00  0.3125000E-01
    1      -17.728444   1.000000
    2      -16.930408   1.000000
    3      -16.786593   1.000000
    4      -16.645449   1.000000
    5      -16.521543   1.000000
    6      -16.443741   1.000000
    7      -16.346399   1.000000
    8      -16.237985   1.000000
    9      -16.187754   1.000000
   10      -16.047676   1.000000
   11      -15.996846   1.000000
   12      -15.942544   1.000000
   13      -15.807806   1.000000
   14      -15.680147   1.000000
   15      -15.612355   1.000000
   16      -15.545795   1.000000
   17      -15.343274   1.000000
   18      -15.271468   1.000000
   19       -9.357669   1.000000
   20       -9.290501   1.000000
   21       -9.168429   1.000000
   22       -8.988466   1.000000
   23       -8.828365   1.000000
   24       -8.767548   1.000000
   25       -8.663763   1.000000
   26       -8.534263   1.000000
   27       -8.427216   1.000000
   28       -8.357254   1.000000
   29       -8.326924   1.000000
   30       -8.216340   1.000000
   31       -8.151885   1.000000
   32       -8.126249   1.000000
   33       -8.041497   1.000000
   34       -7.896632   1.000000
   35       -7.736264   1.000000
   36       -7.715652   1.000000
   37       -7.605600   1.000000
   38       -7.508139   1.000000
   39       -7.436060   1.000000
   40       -7.399827   1.000000
   41       -7.325425   1.000000
   42       -7.250359   1.000000
   43       -7.109548   1.000000
   44       -6.999450   1.000000
   45       -6.864066   1.000000
   46       -6.833376   1.000000
   47       -6.705499   1.000000
   48       -6.646427   1.000000
   49       -6.595584   1.000000
   50       -6.479558   1.000000
   51       -6.416741   1.000000
   52       -6.348150   1.000000
   53       -6.304761   1.000000
   54       -6.237493   1.000000
   55       -6.133051   1.000000
   56       -6.069376   1.000000
   57       -5.934319   1.000000
   58       -5.922069   1.000000
   59       -5.764551   1.000000
   60       -5.678296   1.000000
   61       -5.620913   1.000000
   62       -5.540978   1.000000
   63       -5.434710   1.000000
   64       -5.268745   1.000000
   65       -5.137920   1.000000
   66       -5.040277   1.000000
   67       -4.905083   1.000000
   68       -4.838126   1.000000
   69       -4.733831   1.000000
   70       -4.668983   1.000000
   71       -4.590950   1.000000
   72       -4.441168   1.000000
   73       -4.391432   1.000000
   74       -4.310207   1.000000
   75       -4.175045   1.000000
   76       -4.088462   1.000000
   77       -3.839806   0.999861
   78       -3.782836   0.999384
   79       -3.593051   0.970579
   80       -3.404309   0.710470
   81       -3.074972   0.038031
   82       -2.794906   0.000087
   83       -2.680722   0.000003
   84       -2.525545   0.000000
   85       -2.457584   0.000000
   86       -2.322559   0.000000
   87       -2.258745   0.000000
   88       -2.146773   0.000000
   89       -2.105509   0.000000
   90       -1.983490   0.000000
   91       -1.824042   0.000000
   92       -1.580405   0.000000
   93       -1.463370   0.000000
   94       -1.333539   0.000000
   95       -1.258782   0.000000
   96       -1.066096   0.000000
   97       -0.967825   0.000000
   98       -0.909883   0.000000
   99       -0.876929   0.000000
  100       -0.783229   0.000000
  101       -0.682790   0.000000
  102       -0.639513   0.000000
  103       -0.568098   0.000000
  104       -0.433496   0.000000
  105       -0.379818   0.000000
  106       -0.227925   0.000000
  107       -0.187104   0.000000
  108        0.023885   0.000000
  109        0.095821   0.000000
  110        0.250291   0.000000
  111        0.405806   0.000000
  112        0.499962   0.000000
  113        0.643007   0.000000
  114        0.820034   0.000000
  115        0.928334   0.000000
  116        1.164576   0.000000
  117        1.321648   0.000000
  118        1.766370   0.000000
  119        1.952800   0.000000
  120        2.253045   0.000000
 
  0.2500000E+00  0.1250000E+00  0.0000000E+00  0.3125000E-01
    1      -17.630373   1.000000
    2      -17.112694   1.000000
    3      -16.876362   1.000000
    4      -16.646053   1.000000
    5      -16.496538   1.000000
    6      -16.451758   1.000000
    7      -16.303591   1.000000
    8      -16.218078   1.000000
    9      -16.177582   1.000000
   10      -16.036693   1.000000
   11      -15.955031   1.000000
   12      -15.875666   1.000000
   13      -15.779350   1.000000
   14      -15.661070   1.000000
   15      -15.640888   1.000000
   16      -15.535919   1.000000
   17      -15.368401   1.000000
   18      -15.282056   1.000000
   19       -9.569890   1.000000
   20       -9.410833   1.000000
   21       -9.239142   1.000000
   22       -9.016714   1.000000
   23       -8.832405   1.000000
   24       -8.761406   1.000000
   25       -8.630521   1.000000
   26       -8.501694   1.000000
   27       -8.402123   1.000000
   28       -8.337343   1.000000
   29       -8.300406   1.000000
   30       -8.174990   1.000000
   31       -8.126190   1.000000
   32       -8.106300   1.000000
   33       -8.001600   1.000000
   34       -7.895020   1.000000
   35       -7.806180   1.000000
   36       -7.666680   1.000000
   37       -7.564986   1.000000
   38       -7.417093   1.000000
   39       -7.379166   1.000000
   40       -7.303868   1.000000
   41       -7.276167   1.000000
   42       -7.171852   1.000000
   43       -7.064062   1.000000
   44       -6.972456   1.000000
   45       -6.870996   1.000000
   46       -6.820010   1.000000
   47       -6.742089   1.000000