unknown system                          
           1
     8.854558    5.102792    0.000000
    -8.857266    5.107451    0.000000
     0.000000    0.000000   30.000000
   V    Mo   W    S 
   3   3   3  18
Direct configuration=     1
   0.33333334  0.33333334  0.00000000
   0.66666669  0.66666669  0.00000000
   0.33333334  0.66666669  0.00000000
   0.33333334  0.00000000  0.00000000
   0.66666669  0.33333334  0.00000000
   0.00000000  0.00000000  0.00000000
   1.00000000  0.33333334  0.00000000
   0.00000000  0.66666669  0.00000000
   0.66666669  0.00000000  0.00000000
   0.11068511  0.22244981  0.95539999
   0.22244981  0.11068511  0.04460000
   0.11068511  0.55578315  0.95539999
   0.22244981  0.44401845  0.04460000
   0.11068511  0.88911647  0.95539999
   0.22244981  0.77735180  0.04460000
   0.44401845  0.22244981  0.95539999
   0.55578315  0.11068511  0.04460000
   0.44401845  0.55578315  0.95539999
   0.55578315  0.44401845  0.04460000
   0.44401845  0.88911647  0.95539999
   0.55578315  0.77735180  0.04460000
   0.77735180  0.22244981  0.95539999
   0.88911647  0.11068511  0.04460000
   0.77735180  0.55578315  0.95539999
   0.88911647  0.44401845  0.04460000
   0.77735180  0.88911647  0.95539999
   0.88911647  0.77735180  0.04460000
unknown system                          
           1
     8.665865    4.996510    0.000000
    -8.668579    5.001183    0.000000
     0.000000    0.000000   30.000000
   V    Mo   W    S 
   3   3   3  18
Direct configuration=     2
   0.33395723  0.33202711 -0.00002629
   0.66676786  0.66603415 -0.00006576
   0.33376988  0.66725599 -0.00006063
   0.33314516  0.00144975  0.00019093
   0.66520607  0.33205366 -0.00008046
   0.00143873  0.00005345  0.00014686
   0.99912437  0.33192249 -0.00012409
  -0.00005006  0.66841215  0.00023912
   0.66639082  0.00094797 -0.00021728
   0.11502405  0.22487079  0.95194210
   0.22429892  0.11536893  0.04812403
   0.11465565  0.55705345  0.95194410
   0.22562008  0.44587857  0.04684911
   0.11060468  0.88781292  0.95075702
   0.22350586  0.77481366  0.04799135
   0.44205157  0.22463526  0.95196377
   0.55571527  0.11045739  0.04925539
   0.44423615  0.55565835  0.95417631
   0.55324474  0.44652132  0.04694388
   0.44327169  0.88482128  0.95198841
   0.55392744  0.77412175  0.04686552
   0.77812047  0.22167956  0.95061016
   0.88847100  0.11133242  0.04926324
   0.77615587  0.55820138  0.95200717
   0.88969838  0.44500236  0.04917896
   0.77497715  0.88480347  0.95200866
   0.88488542  0.77502487  0.04812833
unknown system                          
           1
     8.485988    4.898550    0.000000
    -8.487485    4.901117    0.000000
     0.000000    0.000000   30.000000
   V    Mo   W    S 
   3   3   3  18
Direct configuration=     3
   0.33403704  0.33152547 -0.00002096
   0.66695827  0.66594826 -0.00011084
   0.33383268  0.66745172 -0.00006636
   0.33301737  0.00183742  0.00020864
   0.66502075  0.33123419 -0.00006033
   0.00194763 -0.00005290  0.00012353
   0.99830655  0.33120651 -0.00009796
   0.00004462  0.66911676  0.00026063
   0.66663308  0.00187385 -0.00024917
   0.11503836  0.22507633  0.95196196
   0.22441908  0.11554861  0.04823436
   0.11447020  0.55698314  0.95204232
   0.22547696  0.44581482  0.04672026
   0.11050165  0.88758333  0.95070225
   0.22331438  0.77467840  0.04799779
   0.44198260  0.22470909  0.95187237
   0.55582523  0.11029155  0.04932700
   0.44426021  0.55562818  0.95428721
   0.55316721  0.44655692  0.04689586
   0.44343985  0.88486391  0.95201582
   0.55398611  0.77427298  0.04677424
   0.77820133  0.22155637  0.95050420
   0.88835666  0.11140577  0.04925950
   0.77633917  0.55834038  0.95203011
   0.88995234  0.44510449  0.04911756
   0.77478739  0.88482567  0.95208784
   0.88489774  0.77483324  0.04818206
unknown system                          
           1
     8.270433    4.770259    0.000000
    -8.278189    4.783668    0.000000
     0.000000    0.000000   30.000000
   V    Mo   W    S 
   3   3   3  18
Direct configuration=     4
   0.33396196  0.32931018  0.00001749
   0.66830167  0.66598822 -0.00024271
   0.33369554  0.66827001 -0.00005548
   0.33226132  0.00292353  0.00018765
   0.66508487  0.32764338  0.00002188
   0.00378423 -0.00077227 -0.00000284
   0.99418278  0.32817958  0.00003973
   0.00057362  0.67188429  0.00022346
   0.66814336  0.00644231 -0.00026858
   0.11627665  0.22585096  0.95059558
   0.22528852  0.11711581  0.05012980
   0.11511973  0.55740499  0.95099392
   0.22644630  0.44630180  0.04751857
   0.11061694  0.88751483  0.94888435
   0.22385616  0.77427483  0.04948172
   0.44138762  0.22536623  0.95010368
   0.55576670  0.10997844  0.05121890
   0.44431537  0.55545503  0.95350814
   0.55256091  0.44706098  0.04798598
   0.44283597  0.88395147  0.95067700
   0.55354996  0.77342944  0.04771470
   0.77814306  0.22157835  0.94835212
   0.88824090  0.11114006  0.05085098
   0.77586685  0.55869588  0.95072849
   0.89017479  0.44519199  0.05045709
   0.77414130  0.88381496  0.95098378
   0.88363740  0.77421917  0.04989449
unknown system                          
           1
     8.278920    4.770907    0.000000
    -8.292074    4.793662    0.000000
     0.000000    0.000000   30.000000
   V    Mo   W    S 
   3   3   3  18
Direct configuration=     5
   0.33381531  0.32551040  0.00011733
   0.67080907  0.66624528 -0.00033607
   0.33364894  0.66979592  0.00002739
   0.32992187  0.00407633  0.00004730
   0.66598191  0.31967428  0.00011234
   0.00772931 -0.00295199 -0.00012859
   0.98490104  0.32191532  0.00020317
   0.00267615  0.67874191  0.00006228
   0.67112355  0.01628116 -0.00016296
   0.11750386  0.22643784  0.94891631
   0.22619430  0.11872757  0.05287083
   0.11531346  0.55750951  0.94985752
   0.22685056  0.44621267  0.04839205
   0.11137903  0.88808553  0.94622902
   0.22450036  0.77458403  0.05156483
   0.44108817  0.22598761  0.94773461
   0.55483755  0.10932548  0.05395122
   0.44437273  0.55495037  0.95222262
   0.55220118  0.44694032  0.04942120
   0.44248540  0.88380661  0.94898356
   0.55356440  0.77335012  0.04880159
   0.77783825  0.22183705  0.94480345
   0.88811821  0.10988391  0.05293655
   0.77517214  0.55826141  0.94920616
   0.89000628  0.44553739  0.05211218
   0.77381150  0.88339155  0.94969672
   0.88236994  0.77409686  0.05235728
unknown system                          
           1
     8.276244    4.766306    0.000000
    -8.291377    4.792480    0.000000
     0.000000    0.000000   30.000000
   V    Mo   W    S 
   3   3   3  18
Direct configuration=     6
   0.33414824  0.32514024  0.00009910
   0.67096730  0.66622193 -0.00038960
   0.33424312  0.67022991  0.00000320
   0.32873287  0.00341941  0.00005672
   0.66621473  0.31805315  0.00008066
   0.00877088 -0.00384821 -0.00005875
   0.98266539  0.32068248  0.00012352
   0.00422037  0.68146055  0.00003194
   0.67108393  0.01770413 -0.00008304
   0.11694126  0.22613106  0.94909159
   0.22605186  0.11839627  0.05302527
   0.11452813  0.55709820  0.95013228
   0.22557021  0.44535446  0.04815414
   0.11186663  0.88860856  0.94581329
   0.22426658  0.77509059  0.05164768
   0.44154469  0.22586204  0.94772697
   0.55397013  0.10887161  0.05419273
   0.44441144  0.55480298  0.95224182
   0.55278758  0.44617851  0.04932620
   0.44304397  0.88468270  0.94905283
   0.55426685  0.77458009  0.04865341
   0.77768780  0.22192567  0.94420890
   0.88810798  0.10906860  0.05297702
   0.77533442  0.55754824  0.94947001
   0.88982987  0.44597094  0.05194346
   0.77411255  0.88442781  0.94997539
   0.88284567  0.77455253  0.05250316
unknown system                          
           1
     8.286689    4.770413    0.000000
    -8.304662    4.801508    0.000000
     0.000000    0.000000   30.000000
   V    Mo   W    S 
   3   3   3  18
Direct configuration=     7
   0.33494512  0.32458534  0.00013122
   0.67110460  0.66605680 -0.00049545
   0.33545559  0.67107557  0.00000910
   0.32671413  0.00249672  0.00003521
   0.66609166  0.31480060  0.00007359
   0.01073520 -0.00526358 -0.00003154
   0.97871728  0.31812506  0.00013287
   0.00676076  0.68600753 -0.00004905
   0.67130820  0.02078155 -0.00003479
   0.11637565  0.22582896  0.94929359
   0.22605789  0.11825458  0.05333137
   0.11370961  0.55676312  0.95047700
   0.22417812  0.44449007  0.04775526
   0.11243258  0.88926984  0.94513581
   0.22414110  0.77558739  0.05189265
   0.44186521  0.22566048  0.94762571
   0.55292514  0.10835674  0.05456745
   0.44446777  0.55464871  0.95226577
   0.55341160  0.44544557  0.04921592
   0.44343965  0.88543409  0.94903860
   0.55491004  0.77572991  0.04853373
   0.77723792  0.22169323  0.94344406
   0.88808854  0.10829308  0.05298864
   0.77566213  0.55692546  0.94982586
   0.88977864  0.44669226  0.05168003
   0.77441396  0.88547194  0.95036535
   0.88328637  0.77500344  0.05279193
unknown system                          
           1
     8.289494    4.769115    0.000000
    -8.310510    4.805477    0.000000
     0.000000    0.000000   30.000000
   V    Mo   W    S 
   3   3   3  18
Direct configuration=     8
   0.33536253  0.32455842  0.00014714
   0.67102325  0.66596854 -0.00053598
   0.33606951  0.67152168  0.00001589
   0.32619669  0.00217302  0.00003233
   0.66572403  0.31416089  0.00006571
   0.01124208 -0.00547566 -0.00002126
   0.97801540  0.31758125  0.00010811
   0.00752460  0.68710179 -0.00004526
   0.67100277  0.02095661 -0.00000473
   0.11626478  0.22580226  0.94938911
   0.22606353  0.11824722  0.05338047
   0.11356144  0.55673097  0.95062086
   0.22382051  0.44429947  0.04758790
   0.11261616  0.88951474  0.94492930
   0.22413967  0.77564972  0.05194951
   0.44189143  0.22560555  0.94761339
   0.55257682  0.10816368  0.05465085
   0.44449399  0.55464126  0.95229847
   0.55355103  0.44530477  0.04917383
   0.44346321  0.88549954  0.94903333
   0.55501588  0.77593667  0.04850022
   0.77707350  0.22161711  0.94328776
   0.88801260  0.10800913  0.05296397
   0.77583389  0.55682640  0.94997581
   0.88978619  0.44699310  0.05154066
   0.77449071  0.88571513  0.95051966
   0.88339823  0.77511118  0.05282285
unknown system                          
           1
     8.297133    4.772796    0.000000
    -8.319516    4.811529    0.000000
     0.000000    0.000000   30.000000
   V    Mo   W    S 
   3   3   3  18
Direct configuration=     9
   0.33635426  0.32442760  0.00019069
   0.67081305  0.66571841 -0.00064065
   0.33752431  0.67269739  0.00003339
   0.32494212  0.00139949  0.00002255
   0.66500152  0.31223499  0.00005133
   0.01256930 -0.00607616 -0.00000336
   0.97583034  0.31592861  0.00008465
   0.00946126  0.68998706 -0.00006814
   0.67052284  0.02205883  0.00002520
   0.11597575  0.22571619  0.94961947
   0.22608412  0.11818838  0.05347843
   0.11317313  0.55661248  0.95098553
   0.22297367  0.44385999  0.04716480
   0.11297462  0.88999690  0.94453194
   0.22413461  0.77587543  0.05205925
   0.44192857  0.22541675  0.94759440
   0.55183940  0.10778095  0.05480644
   0.44454043  0.55461237  0.95238196
   0.55387883  0.44495686  0.04907633
   0.44351477  0.88570110  0.94904023
   0.55527052  0.77643769  0.04842162
   0.77661571  0.22133274  0.94299372
   0.88785905  0.10746750  0.05285799
   0.77623445  0.55656654  0.95034105
   0.88977921  0.44758791  0.05117858
   0.77468424  0.88631681  0.95089591
   0.88373436  0.77541163  0.05287659
unknown system                          
           1
     8.304245    4.775509    0.000000
    -8.329563    4.819332    0.000000
     0.000000    0.000000   30.000000
   V    Mo   W    S 
   3   3   3  18
Direct configuration=    10
   0.33687624  0.32437135  0.00021606
   0.67071296  0.66557843 -0.00069231
   0.33830228  0.67337409  0.00004897
   0.32451037  0.00114332  0.00001863
   0.66453937  0.31153127  0.00004339
   0.01309830 -0.00621161  0.00000337
   0.97504689  0.31525320  0.00006669
   0.01019082  0.69104678 -0.00006721
   0.67015609  0.02224353  0.00004627
   0.11589978  0.22571747  0.94970231
   0.22611978  0.11820189  0.05353532
   0.11302747  0.55655924  0.95113571
   0.22263296  0.44368079  0.04697564
   0.11314213  0.89023429  0.94433791
   0.22417698  0.77597159  0.05213672
   0.44190595  0.22533176  0.94755593
   0.55149354  0.10760102  0.05489858
   0.44456896  0.55459283  0.95239931
   0.55400798  0.44484483  0.04906221
   0.44349382  0.88574994  0.94899721
   0.55538777  0.77660681  0.04842637
   0.77637326  0.22119051  0.94285498
   0.88775457  0.10718712  0.05283499
   0.77641220  0.55645868  0.95048697
   0.88977502  0.44787324  0.05102228
   0.77475735  0.88654418  0.95104907
   0.88385162  0.77553788  0.05290455
unknown system                          
           1
     8.311973    4.779188    0.000000
    -8.338333    4.824817    0.000000
     0.000000    0.000000   30.000000
   V    Mo   W    S 
   3   3   3  18
Direct configuration=    11
   0.33843516  0.32416406  0.00029383
   0.67043043  0.66511857 -0.00085328
   0.34062799  0.67542352  0.00009842
   0.32347333  0.00065489  0.00000942
   0.66319074  0.30962173  0.00002382
   0.01451796 -0.00643912  0.00001285
   0.97286160  0.31328404  0.00001534
   0.01204895  0.69382011 -0.00006283
   0.66915842  0.02276712  0.00008014
   0.11573363  0.22575045  0.94998539
   0.22619637  0.11821576  0.05360746
   0.11261796  0.55639209  0.95161481
   0.22171955  0.44318083  0.04638005
   0.11349709  0.89079686  0.94395836
   0.22423939  0.77624539  0.05227503
   0.44178863  0.22508822  0.94749643
   0.55066118  0.10718172  0.05505607
   0.44469169  0.55453475  0.95249684
   0.55429630  0.44456336  0.04899102
   0.44341788  0.88586606  0.94890764
   0.55570353  0.77699452  0.04842746
   0.77564168  0.22071095  0.94264499
   0.88739611  0.10649406  0.05269381
   0.77693446  0.55620974  0.95093109
   0.88972834  0.44854391  0.05050252
   0.77496567  0.88711467  0.95152792
   0.88424042  0.77591619  0.05288530
unknown system                          
           1
     8.316784    4.781173    0.000000
    -8.345084    4.830169    0.000000
     0.000000    0.000000   30.000000
   V    Mo   W    S 
   3   3   3  18
Direct configuration=    12
   0.33913899  0.32411896  0.00033335
   0.67023582  0.66489576 -0.00092092
   0.34171658  0.67658729  0.00013131
   0.32324436  0.00039844  0.00000570
   0.66252168  0.30901045  0.00001723
   0.01502863 -0.00636155  0.00001531
   0.97218352  0.31254178 -0.00001181
   0.01280263  0.69469435 -0.00005009
   0.66848065  0.02258102  0.00009972
   0.11572700  0.22581764  0.95005768
   0.22625498  0.11826176  0.05366330
   0.11254824  0.55633930  0.95181169
   0.22142889  0.44308425  0.04612136
   0.11365524  0.89102807  0.94380432
   0.22433042  0.77635106  0.05233559
   0.44170474  0.22496266  0.94741896
   0.55030498  0.10700680  0.05514347
   0.44471421  0.55453593  0.95252165
   0.55441045  0.44451199  0.04901857
   0.44330717  0.88583076  0.94883268
   0.55578421  0.77706321  0.04846937
   0.77529343  0.22048811  0.94254856
   0.88718707  0.10618297  0.05267258
   0.77714902  0.55609642  0.95106832
   0.88969422  0.44880993  0.05030709
   0.77502639  0.88731182  0.95169185
   0.88434095  0.77606525  0.05289306
unknown system                          
           1
     8.320718    4.783961    0.000000
    -8.349268    4.833396    0.000000
     0.000000    0.000000   30.000000
   V    Mo   W    S 
   3   3   3  18
Direct configuration=    13
   0.34077384  0.32399973  0.00042036
   0.66982836  0.66433911 -0.00109749
   0.34425041  0.67933286  0.00020688
   0.32274175 -0.00009845 -0.00000127
   0.66107422  0.30752830 -0.00001189
   0.01619252 -0.00621530  0.00002058
   0.97043870  0.31067199 -0.00006969
   0.01440593  0.69674561 -0.00002707
   0.66707283  0.02241679  0.00012546
   0.11568816  0.22595436  0.95026502
   0.22636482  0.11829507  0.05372352
   0.11236202  0.55619119  0.95230615
   0.22074623  0.44285810  0.04548092
   0.11394801  0.89150297  0.94355340
   0.22450336  0.77660786  0.05245220
   0.44151324  0.22466649  0.94729443
   0.54957040  0.10665844  0.05528564
   0.44481139  0.55457733  0.95262259
   0.55466280  0.44439032  0.04904540
   0.44307213  0.88576932  0.94866989
   0.55597093  0.77720535  0.04854803
   0.77446335  0.21991434  0.94244098
   0.88666553  0.10553106  0.05255722
   0.77765580  0.55588204  0.95143819
   0.88959427  0.44932388  0.04979915
   0.77517372  0.88774070  0.95212037
   0.88466971  0.77642498  0.05283094
unknown system                          
           1
     8.328163    4.790309    0.000000
    -8.357188    4.840592    0.000000
     0.000000    0.000000   30.000000
   V    Mo   W    S 
   3   3   3  18
Direct configuration=    14
   0.34129149  0.32389677  0.00044922
   0.66968590  0.66410118 -0.00115599
   0.34497526  0.68029200  0.00024002
   0.32276780 -0.00010947 -0.00000285
   0.66056166  0.30720969 -0.00002177
   0.01652266 -0.00600011  0.00002024
   0.97006830  0.31015806 -0.00009276
   0.01477158  0.69714005 -0.00001111
   0.66653406  0.02216912  0.00013575
   0.11574131  0.22603537  0.95030321
   0.22642848  0.11833800  0.05374142
   0.11235407  0.55613357  0.95245262
   0.22061509  0.44284521  0.04527074
   0.11402121  0.89163418  0.94349835
   0.22459489  0.77668101  0.05250572
   0.44143059  0.22458345  0.94723799
   0.54936974  0.10657641  0.05533953
   0.44481925  0.55458594  0.95265217
   0.55471389  0.44437356  0.04907870
   0.44298849  0.88574136  0.94857464
   0.55604524  0.77721556  0.04860967
   0.77417011  0.21970202  0.94241340
   0.88643493  0.10529825  0.05254630
   0.77780341  0.55580848  0.95151960
   0.88955768  0.44944289  0.04965154
   0.77520561  0.88783516  0.95223619
   0.88474175  0.77652678  0.05280734
unknown system                          
           1
     8.333615    4.795007    0.000000
    -8.365728    4.850675    0.000000
     0.000000    0.000000   30.000000
   V    Mo   W    S 
   3   3   3  18
Direct configuration=    15
   0.34310694  0.32349606  0.00054946
   0.66918642  0.66321784 -0.00137326
   0.34757733  0.68375641  0.00036813
   0.32275110 -0.00022330 -0.00001348
   0.65877930  0.30590947 -0.00005489
   0.01772559 -0.00535488  0.00001873
   0.96850868  0.30811071 -0.00017451
   0.01620025  0.69886152  0.00004775
   0.66468367  0.02152967  0.00015662
   0.11591138  0.22628165  0.95045806
   0.22661013  0.11845198  0.05379146
   0.11230897  0.55593605  0.95300091
   0.22015904  0.44280719  0.04450281
   0.11422650  0.89205204  0.94336604
   0.22485071  0.77695353  0.05265438
   0.44118550  0.22428921  0.94705131
   0.54873230  0.10633366  0.05548585
   0.44486535  0.55463681  0.95279573
   0.55489509  0.44430323  0.04917673
   0.44274561  0.88567674  0.94828115
   0.55627415  0.77725598  0.04877772
   0.77312138  0.21892312  0.94237307
   0.88561490  0.10450827  0.05246349
   0.77836943  0.55555870  0.95183098
   0.88941336  0.44982777  0.04909210
   0.77534170  0.88819117  0.95269102
   0.88506967  0.77692383  0.05268254
unknown system                          
           1
     8.341773    4.803404    0.000000
    -8.372862    4.857335    0.000000
     0.000000    0.000000   30.000000
   V    Mo   W    S 
   3   3   3  18
Direct configuration=    16
   0.34645253  0.32242468  0.00073744
   0.66807915  0.66109260 -0.00181833
   0.35181637  0.69027653  0.00065180
   0.32322054 -0.00012944 -0.00004086
   0.65525444  0.30371022 -0.00013141
   0.02013414 -0.00361515  0.00002856
   0.96589065  0.30427318 -0.00033624
   0.01892111  0.70177455  0.00021036
   0.66090285  0.01999333  0.00019722
   0.11638903  0.22681765  0.95068099
   0.22704045  0.11876494  0.05391524
   0.11232916  0.55557560  0.95405297
   0.21955037  0.44288968  0.04296676
   0.11473492  0.89291813  0.94312557
   0.22542041  0.77760353  0.05296513
   0.44071670  0.22371057  0.94662783
   0.54744808  0.10588923  0.05581676
   0.44488972  0.55471191  0.95314213
   0.55520011  0.44422365  0.04941756
   0.44233878  0.88571584  0.94764889
   0.55680521  0.77733782  0.04912101
   0.77104421  0.21737362  0.94227744
   0.88382588  0.10289510  0.05235514
   0.77951844  0.55510742  0.95236434
   0.88915487  0.45042953  0.04799491
   0.77555662  0.88875966  0.95359131
   0.88557968  0.77769008  0.05243738
unknown system                          
           1
     8.340116    4.804535    0.000000
    -8.371807    4.859533    0.000000
     0.000000    0.000000   30.000000
   V    Mo   W    S 
   3   3   3  18
Direct configuration=    17
   0.34708983  0.32179335  0.00077469
   0.66754644  0.65984587 -0.00198386
   0.35216238  0.69197832  0.00079823
   0.32395556  0.00019742 -0.00007556
   0.65416650  0.30329882 -0.00018671
   0.02093164 -0.00265810  0.00001492
   0.96529759  0.30309529 -0.00044183
   0.01976286  0.70254157  0.00029190
   0.65942724  0.01929461  0.00018797
   0.11670519  0.22701444  0.95064947
   0.22732870  0.11898373  0.05404186
   0.11245285  0.55550024  0.95438093
   0.21978888  0.44316350  0.04240836
   0.11493326  0.89326801  0.94309395
   0.22583538  0.77801594  0.05317312
   0.44060866  0.22350357  0.94638764
   0.54702254  0.10582408  0.05598564
   0.44475269  0.55471889  0.95330616
   0.55539560  0.44425270  0.04959625
   0.44227585  0.88589111  0.94736311
   0.55706856  0.77742238  0.04924890
   0.77015235  0.21671019  0.94225935
   0.88305077  0.10217114  0.05238315
   0.78001944  0.55491801  0.95246767
   0.88915227  0.45060531  0.04758640
   0.77559782  0.88885546  0.95395610
   0.88573360  0.77800860  0.05233208
unknown system                          
           1
     8.341448    4.806074    0.000000
    -8.372851    4.860583    0.000000
     0.000000    0.000000   30.000000
   V    Mo   W    S 
   3   3   3  18
Direct configuration=    18
   0.34822328  0.32095944  0.00084428
   0.66669273  0.65804829 -0.00220383
   0.35324075  0.69479473  0.00100528
   0.32468067  0.00046524 -0.00010152
   0.65252847  0.30249882 -0.00023384
   0.02221190 -0.00141412  0.00003663
   0.96418426  0.30112682 -0.00055892
   0.02113296  0.70393523  0.00042320
   0.65743414  0.01852530  0.00021069
   0.11704020  0.22727480  0.95065922
   0.22765903  0.11921240  0.05413059
   0.11252895  0.55537369  0.95487288
   0.21987001  0.44339863  0.04162352
   0.11521640  0.89371974  0.94307923
   0.22625085  0.77856034  0.05337718
   0.44046660  0.22324658  0.94613083
   0.54651278  0.10577233  0.05613900
   0.44464972  0.55474677  0.95354453
   0.55557600  0.44424269  0.04976539
   0.44213104  0.88602243  0.94703693
   0.55727991  0.77746589  0.04935438
   0.76903869  0.21584359  0.94226314
   0.88203848  0.10136302  0.05232425
   0.78077943  0.55472460  0.95265886
   0.88915276  0.45083764  0.04698321
   0.77564813  0.88901341  0.95449003
   0.88604633  0.77845617  0.05214475
unknown system                          
           1
     8.340618    4.806439    0.000000
    -8.371796    4.860566    0.000000
     0.000000    0.000000   30.000000
   V    Mo   W    S 
   3   3   3  18
Direct configuration=    19
   0.34789351  0.32055665  0.00082001
   0.66613331  0.65685697 -0.00223944
   0.35252037  0.69481868  0.00107991
   0.32518160  0.00071026 -0.00011971
   0.65239658  0.30276313 -0.00025822
   0.02255306 -0.00078935  0.00005169
   0.96424966  0.30086534 -0.00063263
   0.02137260  0.70407125  0.00048659
   0.65707824  0.01835914  0.00020928
   0.11717359  0.22731039  0.95055641
   0.22786454  0.11935017  0.05418771
   0.11255854  0.55540089  0.95491466
   0.22017435  0.44354061  0.04151140
   0.11533945  0.89386896  0.94313677
   0.22643440  0.77889124  0.05348327
   0.44052373  0.22325479  0.94605390
   0.54652733  0.10594466  0.05618763
   0.44450662  0.55470306  0.95362444
   0.55560043  0.44425154  0.04983776
   0.44211810  0.88611107  0.94698280
   0.55726038  0.77746593  0.04931172
   0.76881592  0.21564111  0.94227085
   0.88178282  0.10120035  0.05233122
   0.78112841  0.55475313  0.95260986
   0.88933651  0.45084538  0.04684178
   0.77556962  0.88887855  0.95467729
   0.88612077  0.77859056  0.05208294
unknown system                          
           1
     8.339911    4.807162    0.000000
    -8.370729    4.860678    0.000000
     0.000000    0.000000   30.000000
   V    Mo   W    S 
   3   3   3  18
Direct configuration=    20
   0.34782291  0.32029842  0.00081166
   0.66576982  0.65611319 -0.00226685
   0.35237397  0.69514798  0.00112875
   0.32543494  0.00079942 -0.00012405
   0.65221532  0.30277885 -0.00027095
   0.02282846 -0.00041153  0.00006023
   0.96417645  0.30055307 -0.00067445
   0.02161522  0.70430291  0.00052287
   0.65676467  0.01826780  0.00020928
   0.11724489  0.22733652  0.95050848
   0.22797708  0.11941848  0.05421947
   0.11256803  0.55540055  0.95496787
   0.22026574  0.44360561  0.04141201
   0.11541358  0.89397298  0.94316138
   0.22654456  0.77908668  0.05354448
   0.44054665  0.22324460  0.94600397
   0.54652715  0.10604129  0.05621168
   0.44440820  0.55467156  0.95366563
   0.55561215  0.44424539  0.04988504
   0.44208775  0.88613257  0.94694380
   0.55724334  0.77745633  0.04929291
   0.76864609  0.21549696  0.94227254
   0.88162241  0.10109606  0.05232711
   0.78135693  0.55475988  0.95259470
   0.88942974  0.45087568  0.04674063
   0.77553715  0.88883165  0.95480760
   0.88618126  0.77869155  0.05204409
unknown system                          
           1
     8.339621    4.808547    0.000000
    -8.370249    4.861751    0.000000
     0.000000    0.000000   30.000000
   V    Mo   W    S 
   3   3   3  18
Direct configuration=    21
   0.34762346  0.31995832  0.00078917
   0.66515503  0.65488962 -0.00229668
   0.35207334  0.69551524  0.00119773
   0.32580497  0.00088358 -0.00012395
   0.65204606  0.30293541 -0.00028726
   0.02318769  0.00014053  0.00007667
   0.96418698  0.30019339 -0.00073378
   0.02190054  0.70456303  0.00057872
   0.65638268  0.01814721  0.00020912
   0.11733177  0.22735465  0.95041847
   0.22814648  0.11952391  0.05426337
   0.11258853  0.55542087  0.95501066
   0.22041388  0.44371048  0.04131820
   0.11551794  0.89411014  0.94320701
   0.22669860  0.77936970  0.05362301
   0.44060208  0.22326750  0.94594770
   0.54659545  0.10622727  0.05623566
   0.44424671  0.55461809  0.95371749
   0.55558948  0.44423383  0.04994505
   0.44203680  0.88612502  0.94691747
   0.55715906  0.77741185  0.04923304
   0.76848601  0.21535045  0.94227459
   0.88146451  0.10102627  0.05232260
   0.78167993  0.55482147  0.95254943
   0.88960604  0.45091185  0.04662685
   0.77544699  0.88869148  0.95499145
   0.88624346  0.77881328  0.05198808
unknown system                          
           1
     8.339618    4.808548    0.000000
    -8.370246    4.861750    0.000000
     0.000000    0.000000   30.000000
   V    Mo   W    S 
   3   3   3  18
Direct configuration=    22
   0.34728979  0.31936161  0.00074655
   0.66401003  0.65250059 -0.00235703
   0.35155791  0.69597032  0.00130465
   0.32633617  0.00119485 -0.00012356
   0.65173141  0.30329007 -0.00033028
   0.02390507  0.00120286  0.00010004
   0.96426531  0.29962211 -0.00084274
   0.02228682  0.70498410  0.00066999
   0.65593386  0.01807673  0.00019401
   0.11748564  0.22737251  0.95024858
   0.22845524  0.11970812  0.05435482
   0.11255276  0.55544641  0.95508281
   0.22056856  0.44378658  0.04116948
   0.11571563  0.89439100  0.94327915
   0.22691105  0.77988257  0.05379627
   0.44070719  0.22330719  0.94584660
   0.54674504  0.10659407  0.05630081
   0.44395654  0.55445319  0.95378363
   0.55549536  0.44418468  0.05006789
   0.44198229  0.88618942  0.94682293
   0.55714239  0.77736285  0.04915896
   0.76819559  0.21509479  0.94226847
   0.88119358  0.10088000  0.05233210
   0.78224863  0.55496450  0.95245848
   0.88995152  0.45100088  0.04642298
   0.77526704  0.88835807  0.95536033
   0.88632405  0.77903439  0.05188398
unknown system                          
           1
     8.337117    4.808599    0.000000
    -8.368477    4.863088    0.000000
     0.000000    0.000000   30.000000
   V    Mo   W    S 
   3   3   3  18
Direct configuration=    23
   0.34728929  0.31936082  0.00074648
   0.66400811  0.65249672 -0.00235709
   0.35155727  0.69597111  0.00130480
   0.32633701  0.00119514 -0.00012354
   0.65173105  0.30329065 -0.00033033
   0.02390615  0.00120449  0.00010008
   0.96426543  0.29962128 -0.00084290
   0.02228751  0.70498479  0.00067014
   0.65593317  0.01807665  0.00019400
   0.11748585  0.22737256  0.95024832
   0.22845573  0.11970843  0.05435497
   0.11255269  0.55544648  0.95508292
   0.22056873  0.44378670  0.04116930
   0.11571592  0.89439138  0.94327926
   0.22691131  0.77988333  0.05379646
   0.44070731  0.22330725  0.94584646
   0.54674536  0.10659469  0.05630086
   0.44395603  0.55445287  0.95378369
   0.55549513  0.44418454  0.05006809
   0.44198221  0.88618949  0.94682285
   0.55714235  0.77736276  0.04915881
   0.76819527  0.21509453  0.94226846
   0.88119327  0.10087992  0.05233211
   0.78224948  0.55496473  0.95245830
   0.88995207  0.45100105  0.04642268
   0.77526668  0.88835743  0.95536090
   0.88632409  0.77903466  0.05188381
unknown system                          
           1
     8.338262    4.809045    0.000000
    -8.368354    4.861332    0.000000
     0.000000    0.000000   30.000000
   V    Mo   W    S 
   3   3   3  18
Direct configuration=    24
   0.34700705  0.31911375  0.00074877
   0.66396625  0.65250175 -0.00235699
   0.35164016  0.69620693  0.00130976
   0.32636329  0.00122513 -0.00012336
   0.65176870  0.30326390 -0.00033108
   0.02410971  0.00148685  0.00010710
   0.96430203  0.29957242 -0.00084750
   0.02242336  0.70511210  0.00067346
   0.65576508  0.01794373  0.00018651
   0.11746930  0.22727174  0.95024430
   0.22837946  0.11961102  0.05432843
   0.11260720  0.55539874  0.95507046
   0.22059769  0.44383663  0.04115702
   0.11575322  0.89452605  0.94328594
   0.22702237  0.77993057  0.05381500
   0.44069522  0.22325600  0.94584309
   0.54672882  0.10657467  0.05629929
   0.44392556  0.55450280  0.95378633
   0.55551537  0.44418177  0.05007223
   0.44197155  0.88614788  0.94683367