<?xml version="1.0" encoding="ISO-8859-1"?>
<modeling>
 <generator>
  <i name="program" type="string">vasp </i>
  <i name="version" type="string">5.4.1  </i>
  <i name="subversion" type="string">05Feb16 (build Jul 05 2020 17:13:04) complex                          parallel </i>
  <i name="platform" type="string">IFC91_ompi </i>
  <i name="date" type="string">2024 04 20 </i>
  <i name="time" type="string">14:09:40 </i>
 </generator>
 <incar>
  <i type="int" name="ISTART">     0</i>
  <i type="string" name="PREC">normal</i>
  <i type="string" name="ALGO"> Normal</i>
  <i type="int" name="ISPIN">     1</i>
  <i type="int" name="ICHARG">     2</i>
  <i type="int" name="IBRION">     1</i>
  <i type="int" name="NSW">   100</i>
  <i type="int" name="ISIF">     3</i>
  <i type="int" name="ISYM">     0</i>
  <i name="SYMPREC">      0.00000001</i>
  <i name="POTIM">      0.50000000</i>
  <i type="logical" name="LREAL"> F  </i>
  <i type="logical" name="LPLANE"> F  </i>
  <i type="int" name="ISMEAR">     0</i>
  <i type="logical" name="LWAVE"> F  </i>
  <i type="logical" name="LCHARG"> F  </i>
  <v type="int" name="KPOINT_BSE">    -1     0     0     0</v>
 </incar>
 <kpoints>
  <generation param="Gamma">
   <v type="int" name="divisions">       8        8        1 </v>
   <v name="usershift">      0.00000000       0.00000000       0.00000000 </v>
   <v name="genvec1">      0.12500000       0.00000000       0.00000000 </v>
   <v name="genvec2">     -0.00000000       0.12500000       0.00000000 </v>
   <v name="genvec3">      0.00000000       0.00000000       1.00000000 </v>
   <v name="shift">      0.00000000       0.00000000       0.00000000 </v>
  </generation>
  <varray name="kpointlist" >
   <v>       0.00000000       0.00000000       0.00000000 </v>
   <v>       0.12500000       0.00000000       0.00000000 </v>
   <v>       0.25000000       0.00000000       0.00000000 </v>
   <v>       0.37500000       0.00000000       0.00000000 </v>
   <v>       0.50000000       0.00000000       0.00000000 </v>
   <v>       0.00000000       0.12500000       0.00000000 </v>
   <v>       0.12500000       0.12500000       0.00000000 </v>
   <v>       0.25000000       0.12500000       0.00000000 </v>
   <v>       0.37500000       0.12500000       0.00000000 </v>
   <v>       0.50000000       0.12500000       0.00000000 </v>
   <v>      -0.37500000       0.12500000       0.00000000 </v>
   <v>      -0.25000000       0.12500000       0.00000000 </v>
   <v>      -0.12500000       0.12500000       0.00000000 </v>
   <v>       0.00000000       0.25000000       0.00000000 </v>
   <v>       0.12500000       0.25000000       0.00000000 </v>
   <v>       0.25000000       0.25000000       0.00000000 </v>
   <v>       0.37500000       0.25000000       0.00000000 </v>
   <v>       0.50000000       0.25000000       0.00000000 </v>
   <v>      -0.37500000       0.25000000       0.00000000 </v>
   <v>      -0.25000000       0.25000000       0.00000000 </v>
   <v>      -0.12500000       0.25000000       0.00000000 </v>
   <v>      -0.00000000       0.37500000       0.00000000 </v>
   <v>       0.12500000       0.37500000       0.00000000 </v>
   <v>       0.25000000       0.37500000       0.00000000 </v>
   <v>       0.37500000       0.37500000       0.00000000 </v>
   <v>       0.50000000       0.37500000       0.00000000 </v>
   <v>      -0.37500000       0.37500000       0.00000000 </v>
   <v>      -0.25000000       0.37500000       0.00000000 </v>
   <v>      -0.12500000       0.37500000       0.00000000 </v>
   <v>       0.00000000       0.50000000       0.00000000 </v>
   <v>       0.12500000       0.50000000       0.00000000 </v>
   <v>       0.25000000       0.50000000       0.00000000 </v>
   <v>       0.37500000       0.50000000       0.00000000 </v>
   <v>       0.50000000       0.50000000       0.00000000 </v>
  </varray>
  <varray name="weights" >
   <v>       0.01562500 </v>
   <v>       0.03125000 </v>
   <v>       0.03125000 </v>
   <v>       0.03125000 </v>
   <v>       0.01562500 </v>
   <v>       0.03125000 </v>
   <v>       0.03125000 </v>
   <v>       0.03125000 </v>
   <v>       0.03125000 </v>
   <v>       0.03125000 </v>
   <v>       0.03125000 </v>
   <v>       0.03125000 </v>
   <v>       0.03125000 </v>
   <v>       0.03125000 </v>
   <v>       0.03125000 </v>
   <v>       0.03125000 </v>
   <v>       0.03125000 </v>
   <v>       0.03125000 </v>
   <v>       0.03125000 </v>
   <v>       0.03125000 </v>
   <v>       0.03125000 </v>
   <v>       0.03125000 </v>
   <v>       0.03125000 </v>
   <v>       0.03125000 </v>
   <v>       0.03125000 </v>
   <v>       0.03125000 </v>
   <v>       0.03125000 </v>
   <v>       0.03125000 </v>
   <v>       0.03125000 </v>
   <v>       0.01562500 </v>
   <v>       0.03125000 </v>
   <v>       0.03125000 </v>
   <v>       0.03125000 </v>
   <v>       0.01562500 </v>
  </varray>
 </kpoints>
 <parameters>
  <separator name="general" >
   <i type="string" name="SYSTEM">unknown system</i>
   <i type="logical" name="LCOMPAT"> F  </i>
  </separator>
  <separator name="electronic" >
   <i type="string" name="PREC">normal</i>
   <i name="ENMAX">    280.00000000</i>
   <i name="ENAUG">    373.43800000</i>
   <i name="EDIFF">      0.00010000</i>
   <i type="int" name="IALGO">    38</i>
   <i type="int" name="IWAVPR">    11</i>
   <i type="int" name="NBANDS">   120</i>
   <i name="NELECT">    159.00000000</i>
   <i type="int" name="TURBO">     0</i>
   <i type="int" name="IRESTART">     0</i>
   <i type="int" name="NREBOOT">     0</i>
   <i type="int" name="NMIN">     0</i>
   <i name="EREF">      0.00000000</i>
   <separator name="electronic smearing" >
    <i type="int" name="ISMEAR">     0</i>
    <i name="SIGMA">      0.20000000</i>
    <i name="KSPACING">      0.50000000</i>
    <i type="logical" name="KGAMMA"> T  </i>
   </separator>
   <separator name="electronic projectors" >
    <i type="logical" name="LREAL"> F  </i>
    <v name="ROPT">      0.00000000      0.00000000      0.00000000      0.00000000</v>
    <i type="int" name="LMAXPAW">  -100</i>
    <i type="int" name="LMAXMIX">     2</i>
    <i type="logical" name="NLSPLINE"> F  </i>
   </separator>
   <separator name="electronic startup" >
    <i type="int" name="ISTART">     0</i>
    <i type="int" name="ICHARG">     2</i>
    <i type="int" name="INIWAV">     1</i>
   </separator>
   <separator name="electronic spin" >
    <i type="int" name="ISPIN">     1</i>
    <i type="logical" name="LNONCOLLINEAR"> F  </i>
    <v name="MAGMOM">      1.00000000      1.00000000      1.00000000      1.00000000      1.00000000      1.00000000      1.00000000      1.00000000      1.00000000      1.00000000      1.00000000      1.00000000      1.00000000      1.00000000      1.00000000      1.00000000      1.00000000      1.00000000      1.00000000      1.00000000
      1.00000000      1.00000000      1.00000000      1.00000000      1.00000000      1.00000000      1.00000000</v>
    <i name="NUPDOWN">     -1.00000000</i>
    <i type="logical" name="LSORBIT"> F  </i>
    <v name="SAXIS">      0.00000000      0.00000000      1.00000000</v>
    <i type="logical" name="LSPIRAL"> F  </i>
    <v name="QSPIRAL">      0.00000000      0.00000000      0.00000000</v>
    <i type="logical" name="LZEROZ"> F  </i>
   </separator>
   <separator name="electronic exchange-correlation" >
    <i type="logical" name="LASPH"> F  </i>
    <i type="logical" name="LMETAGGA"> F  </i>
   </separator>
   <separator name="electronic convergence" >
    <i type="int" name="NELM">    60</i>
    <i type="int" name="NELMDL">    -5</i>
    <i type="int" name="NELMIN">     2</i>
    <i name="ENINI">    280.00000000</i>
    <separator name="electronic convergence detail" >
     <i type="logical" name="LDIAG"> T  </i>
     <i type="logical" name="LSUBROT"> F  </i>
     <i name="WEIMIN">      0.00100000</i>
     <i name="EBREAK">      0.00000021</i>
     <i name="DEPER">      0.30000000</i>
     <i type="int" name="NRMM">     4</i>
     <i name="TIME">      0.40000000</i>
    </separator>
   </separator>
   <separator name="electronic mixer" >
    <i name="AMIX">      0.40000000</i>
    <i name="BMIX">      1.00000000</i>
    <i name="AMIN">      0.10000000</i>
    <i name="AMIX_MAG">      1.60000000</i>
    <i name="BMIX_MAG">      1.00000000</i>
    <separator name="electronic mixer details" >
     <i type="int" name="IMIX">     4</i>
     <i type="logical" name="MIXFIRST"> F  </i>
     <i type="int" name="MAXMIX">   -45</i>
     <i name="WC">    100.00000000</i>
     <i type="int" name="INIMIX">     1</i>
     <i type="int" name="MIXPRE">     1</i>
     <i type="int" name="MREMOVE">     5</i>
    </separator>
   </separator>
   <separator name="electronic dipolcorrection" >
    <i type="logical" name="LDIPOL"> F  </i>
    <i type="logical" name="LMONO"> F  </i>
    <i type="int" name="IDIPOL">     0</i>
    <i name="EPSILON">      1.00000000</i>
    <v name="DIPOL">   -100.00000000   -100.00000000   -100.00000000</v>
    <i name="EFIELD">      0.00000000</i>
   </separator>
  </separator>
  <separator name="grids" >
   <i type="int" name="NGX">    42</i>
   <i type="int" name="NGY">    42</i>
   <i type="int" name="NGZ">   126</i>
   <i type="int" name="NGXF">    84</i>
   <i type="int" name="NGYF">    84</i>
   <i type="int" name="NGZF">   252</i>
   <i type="logical" name="ADDGRID"> F  </i>
  </separator>
  <separator name="ionic" >
   <i type="int" name="NSW">   100</i>
   <i type="int" name="IBRION">     1</i>
   <i type="int" name="ISIF">     3</i>
   <i name="PSTRESS">      0.00000000</i>
   <i name="EDIFFG">      0.00100000</i>
   <i type="int" name="NFREE">     0</i>
   <i name="POTIM">      0.50000000</i>
   <i name="SMASS">     -3.00000000</i>
   <i name="SCALEE">      1.00000000</i>
  </separator>
  <separator name="ionic md" >
   <i name="TEBEG">      0.00010000</i>
   <i name="TEEND">      0.00010000</i>
   <i type="int" name="NBLOCK">     1</i>
   <i type="int" name="KBLOCK">   100</i>
   <i type="int" name="NPACO">   256</i>
   <i name="APACO">     16.00000000</i>
  </separator>
  <separator name="symmetry" >
   <i type="int" name="ISYM">     0</i>
   <i name="SYMPREC">      0.00000001</i>
  </separator>
  <separator name="dos" >
   <i type="logical" name="LORBIT"> F  </i>
   <v name="RWIGS">     -1.00000000     -1.00000000     -1.00000000     -1.00000000</v>
   <i type="int" name="NEDOS">   301</i>
   <i name="EMIN">     10.00000000</i>
   <i name="EMAX">    -10.00000000</i>
   <i name="EFERMI">      0.00000000</i>
  </separator>
  <separator name="writing" >
   <i type="int" name="NWRITE">     2</i>
   <i type="logical" name="LWAVE"> F  </i>
   <i type="logical" name="LCHARG"> F  </i>
   <i type="logical" name="LPARD"> F  </i>
   <i type="logical" name="LVTOT"> F  </i>
   <i type="logical" name="LVHAR"> F  </i>
   <i type="logical" name="LELF"> F  </i>
   <i type="logical" name="LOPTICS"> F  </i>
   <v name="STM">      0.00000000      0.00000000      0.00000000      0.00000000      0.00000000      0.00000000      0.00000000</v>
  </separator>
  <separator name="performance" >
   <i type="int" name="NPAR">    40</i>
   <i type="int" name="NSIM">     4</i>
   <i type="int" name="NBLK">    -1</i>
   <i type="logical" name="LPLANE"> F  </i>
   <i type="logical" name="LSCALAPACK"> T  </i>
   <i type="logical" name="LSCAAWARE"> F  </i>
   <i type="logical" name="LSCALU"> F  </i>
   <i type="logical" name="LASYNC"> F  </i>
   <i type="logical" name="LORBITALREAL"> F  </i>
  </separator>
  <separator name="miscellaneous" >
   <i type="int" name="IDIOT">     3</i>
   <i type="logical" name="LMUSIC"> F  </i>
   <v name="POMASS">     50.94100000     95.94000000    183.85000000     32.06600000</v>
   <v name="DARWINR">      0.00000000      0.00000000      0.00000000      0.00000000</v>
   <v name="DARWINV">      1.00000000      1.00000000      1.00000000      1.00000000</v>
   <i type="logical" name="LCORR"> T  </i>
  </separator>
  <i type="logical" name="GGA_COMPAT"> T  </i>
  <i type="logical" name="LBERRY"> F  </i>
  <i type="int" name="ICORELEVEL">     0</i>
  <i type="logical" name="LDAU"> F  </i>
  <i type="int" name="I_CONSTRAINED_M">     0</i>
  <separator name="electronic exchange-correlation" >
   <i type="string" name="GGA">--</i>
   <i type="int" name="VOSKOWN">     0</i>
   <i type="logical" name="LHFCALC"> F  </i>
   <i type="string" name="PRECFOCK"></i>
   <i type="logical" name="LSYMGRAD"> F  </i>
   <i type="logical" name="LHFONE"> F  </i>
   <i type="logical" name="LRHFCALC"> F  </i>
   <i type="logical" name="LTHOMAS"> F  </i>
   <i type="logical" name="LMODELHF"> F  </i>
   <i name="ENCUT4O">     -1.00000000</i>
   <i type="int" name="EXXOEP">     0</i>
   <i type="int" name="FOURORBIT">     0</i>
   <i name="AEXX">      0.00000000</i>
   <i name="HFALPHA">      0.00000000</i>
   <i name="MCALPHA">      0.00000000</i>
   <i name="ALDAX">      1.00000000</i>
   <i name="AGGAX">      1.00000000</i>
   <i name="ALDAC">      1.00000000</i>
   <i name="AGGAC">      1.00000000</i>
   <i type="int" name="NKREDX">     1</i>
   <i type="int" name="NKREDY">     1</i>
   <i type="int" name="NKREDZ">     1</i>
   <i type="logical" name="SHIFTRED"> F  </i>
   <i type="logical" name="ODDONLY"> F  </i>
   <i type="logical" name="EVENONLY"> F  </i>
   <i type="int" name="LMAXFOCK">     0</i>
   <i type="int" name="NMAXFOCKAE">     0</i>
   <i type="logical" name="LFOCKAEDFT"> F  </i>
   <i name="HFSCREEN">      0.00000000</i>
   <i name="HFSCREENC">      0.00000000</i>
   <i type="int" name="NBANDSGWLOW">     0</i>
  </separator>
  <separator name="vdW DFT" >
   <i type="logical" name="LUSE_VDW"> F  </i>
   <i name="Zab_VDW">     -0.84910000</i>
   <i name="PARAM1">      0.12340000</i>
   <i name="PARAM2">      1.00000000</i>
   <i name="PARAM3">      0.00000000</i>
  </separator>
  <separator name="model GW" >
   <i type="int" name="MODEL_GW">     0</i>
   <i name="MODEL_EPS0">     58.26239943</i>
   <i name="MODEL_ALPHA">      1.00000000</i>
  </separator>
  <separator name="linear response parameters" >
   <i type="logical" name="LEPSILON"> F  </i>
   <i type="logical" name="LRPA"> F  </i>
   <i type="logical" name="LNABLA"> F  </i>
   <i type="logical" name="LVEL"> F  </i>
   <i type="int" name="KINTER">     0</i>
   <i name="CSHIFT">      0.10000000</i>
   <i name="OMEGAMAX">     -1.00000000</i>
   <i name="DEG_THRESHOLD">      0.00200000</i>
  </separator>
  <separator name="orbital magnetization" >
   <i type="logical" name="NUCIND"> F  </i>
   <v name="MAGPOS">      0.00000000      0.00000000      0.00000000</v>
   <i type="logical" name="LNICSALL"> T  </i>
   <i type="logical" name="ORBITALMAG"> F  </i>
   <i type="logical" name="LMAGBLOCH"> F  </i>
   <i type="logical" name="LCHIMAG"> F  </i>
   <i type="logical" name="LGAUGE"> T  </i>
   <i type="int" name="MAGATOM">     0</i>
   <v name="MAGDIPOL">      0.00000000      0.00000000      0.00000000</v>
   <v name="AVECCONST">      0.00000000      0.00000000      0.00000000</v>
  </separator>
  <separator name="response functions" >
   <i type="logical" name="LADDER"> F  </i>
   <i type="logical" name="LFXC"> F  </i>
   <i type="logical" name="LHARTREE"> T  </i>
   <i type="int" name="IBSE">     0</i>
   <v type="int" name="KPOINT">    -1     0     0     0</v>
   <i type="logical" name="LTCTE"> F  </i>
   <i type="logical" name="LTETE"> F  </i>
   <i type="logical" name="LTRIPLET"> F  </i>
   <i type="logical" name="LFXCEPS"> F  </i>
   <i type="logical" name="LFXHEG"> F  </i>
   <i type="int" name="NATURALO">     0</i>
   <i type="logical" name="L2ORDER"> F  </i>
   <i type="logical" name="LUSEW"> F  </i>
   <i name="ENCUTGW">     -2.00000000</i>
   <i name="ENCUTGWSOFT">     -2.00000000</i>
   <i name="ENCUTLF">     -1.00000000</i>
   <i type="int" name="LMAXMP2">    -1</i>
   <i name="SCISSOR">      0.00000000</i>
   <i type="int" name="NOMEGA">     0</i>
   <i type="int" name="NOMEGAR">     0</i>
   <i type="int" name="NBANDSGW">    -1</i>
   <i type="int" name="NBANDSO">    -1</i>
   <i type="int" name="NBANDSV">    -1</i>
   <i type="int" name="NELM">     1</i>
   <i type="int" name="NELMHF">     1</i>
   <i type="int" name="DIM">     3</i>
   <i type="int" name="ANTIRES">     0</i>
   <i name="OMEGAMAX">    -30.00000000</i>
   <i name="OMEGAMIN">    -30.00000000</i>
   <i name="OMEGATL">   -200.00000000</i>
   <i type="int" name="OMEGAGRID">     0</i>
   <i name="CSHIFT">     -0.10000000</i>
   <i type="logical" name="SELFENERGY"> F  </i>
   <i type="logical" name="LSPECTRAL"> F  </i>
   <i type="logical" name="LSPECTRALGW"> F  </i>
   <i type="logical" name="LSINGLES"> F  </i>
   <i type="logical" name="LFERMIGW"> F  </i>
   <i type="logical" name="ODDONLYGW"> F  </i>
   <i type="logical" name="EVENONLYGW"> F  </i>
   <i type="int" name="NKREDLFX">     1</i>
   <i type="int" name="NKREDLFY">     1</i>
   <i type="int" name="NKREDLFZ">     1</i>
   <i type="int" name="MAXMEM">  1800</i>
   <i type="int" name="TELESCOPE">     0</i>
   <i type="int" name="TAUPAR">     1</i>
   <i type="int" name="OMEGAPAR">    -1</i>
   <i name="LAMBDA">      1.00000000</i>
  </separator>
  <separator name="External order field" >
   <i name="OFIELD_KAPPA">      0.00000000</i>
   <v name="OFIELD_K">      0.00000000      0.00000000      0.00000000</v>
   <i name="OFIELD_Q6_NEAR">      0.00000000</i>
   <i name="OFIELD_Q6_FAR">      0.00000000</i>
   <i name="OFIELD_A">      0.00000000</i>
  </separator>
 </parameters>
 <atominfo>
  <atoms>      27 </atoms>
  <types>       4 </types>
  <array name="atoms" >
   <dimension dim="1">ion</dimension>
   <field type="string">element</field>
   <field type="int">atomtype</field>
   <set>
    <rc><c>V </c><c>   1</c></rc>
    <rc><c>V </c><c>   1</c></rc>
    <rc><c>V </c><c>   1</c></rc>
    <rc><c>Mo</c><c>   2</c></rc>
    <rc><c>Mo</c><c>   2</c></rc>
    <rc><c>Mo</c><c>   2</c></rc>
    <rc><c>W </c><c>   3</c></rc>
    <rc><c>W </c><c>   3</c></rc>
    <rc><c>W </c><c>   3</c></rc>
    <rc><c>S </c><c>   4</c></rc>
    <rc><c>S </c><c>   4</c></rc>
    <rc><c>S </c><c>   4</c></rc>
    <rc><c>S </c><c>   4</c></rc>
    <rc><c>S </c><c>   4</c></rc>
    <rc><c>S </c><c>   4</c></rc>
    <rc><c>S </c><c>   4</c></rc>
    <rc><c>S </c><c>   4</c></rc>
    <rc><c>S </c><c>   4</c></rc>
    <rc><c>S </c><c>   4</c></rc>
    <rc><c>S </c><c>   4</c></rc>
    <rc><c>S </c><c>   4</c></rc>
    <rc><c>S </c><c>   4</c></rc>
    <rc><c>S </c><c>   4</c></rc>
    <rc><c>S </c><c>   4</c></rc>
    <rc><c>S </c><c>   4</c></rc>
    <rc><c>S </c><c>   4</c></rc>
    <rc><c>S </c><c>   4</c></rc>
   </set>
  </array>
  <array name="atomtypes" >
   <dimension dim="1">type</dimension>
   <field type="int">atomspertype</field>
   <field type="string">element</field>
   <field>mass</field>
   <field>valence</field>
   <field type="string">pseudopotential</field>
   <set>
    <rc><c>   3</c><c>V </c><c>     50.94100000</c><c>      5.00000000</c><c> PAW_PBE V 08Apr2002                    </c></rc>
    <rc><c>   3</c><c>Mo</c><c>     95.94000000</c><c>      6.00000000</c><c> PAW_PBE Mo 08Apr2002                   </c></rc>
    <rc><c>   3</c><c>W </c><c>    183.85000000</c><c>      6.00000000</c><c> PAW_PBE W 08Apr2002                    </c></rc>
    <rc><c>  18</c><c>S </c><c>     32.06600000</c><c>      6.00000000</c><c>  PAW_PBE S 17Jan2003                   </c></rc>
   </set>
  </array>
 </atominfo>
 <structure name="initialpos" >
  <crystal>
   <varray name="basis" >
    <v>       8.66999996       5.03999989       0.00000000 </v>
    <v>      -8.66999982       5.04000013       0.00000000 </v>
    <v>       0.00000000       0.00000000      30.00000000 </v>
   </varray>
   <i name="volume">   2621.80797419 </i>
   <varray name="rec_basis" >
    <v>       0.05767013       0.09920635       0.00000000 </v>
    <v>      -0.05767013       0.09920635       0.00000000 </v>
    <v>       0.00000000       0.00000000       0.03333333 </v>
   </varray>
  </crystal>
  <varray name="positions" >
   <v>       0.66666669       0.66666669       0.00000000 </v>
   <v>       0.00000000       0.66666669       0.00000000 </v>
   <v>       1.00000000       0.33333334       0.00000000 </v>
   <v>       0.33333334       0.66666669       0.00000000 </v>
   <v>       0.66666669       0.33333334       0.00000000 </v>
   <v>       0.33333334       0.33333334       0.00000000 </v>
   <v>       0.00000000       0.00000000       0.00000000 </v>
   <v>       0.33333334       0.00000000       0.00000000 </v>
   <v>       0.66666669       0.00000000       0.00000000 </v>
   <v>       0.11068511       0.22244981       0.95539999 </v>
   <v>       0.22244981       0.11068511       0.04460000 </v>
   <v>       0.11068511       0.55578315       0.95539999 </v>
   <v>       0.22244981       0.44401845       0.04460000 </v>
   <v>       0.11068511       0.88911647       0.95539999 </v>
   <v>       0.22244981       0.77735180       0.04460000 </v>
   <v>       0.44401845       0.22244981       0.95539999 </v>
   <v>       0.55578315       0.11068511       0.04460000 </v>
   <v>       0.44401845       0.55578315       0.95539999 </v>
   <v>       0.55578315       0.44401845       0.04460000 </v>
   <v>       0.44401845       0.88911647       0.95539999 </v>
   <v>       0.55578315       0.77735180       0.04460000 </v>
   <v>       0.77735180       0.22244981       0.95539999 </v>
   <v>       0.88911647       0.11068511       0.04460000 </v>
   <v>       0.77735180       0.55578315       0.95539999 </v>
   <v>       0.88911647       0.44401845       0.04460000 </v>
   <v>       0.77735180       0.88911647       0.95539999 </v>
   <v>       0.88911647       0.77735180       0.04460000 </v>
  </varray>
 </structure>
 <calculation>
  <scstep>
   <time name="dav">   21.73   21.79</time>
   <time name="total">   21.78   21.84</time>
   <energy>
    <i name="alphaZ">     81.65567618 </i>
    <i name="ewald">  41890.25209520 </i>
    <i name="hartreedc"> -47722.89515140 </i>
    <i name="XCdc">   -242.92702724 </i>
    <i name="pawpsdc">   3467.42045192 </i>
    <i name="pawaedc">  -2871.19716117 </i>
    <i name="eentropy">     -0.53150410 </i>
    <i name="bandstr">   -239.58452157 </i>
    <i name="atom">   6761.44252427 </i>
    <i name="e_fr_energy">   1123.63538209 </i>
    <i name="e_wo_entrp">   1124.16688619 </i>
    <i name="e_0_energy">   1123.90113414 </i>
   </energy>
  </scstep>
  <scstep>
   <time name="dav">   28.46   28.53</time>
   <time name="total">   28.46   28.54</time>
   <energy>
    <i name="e_fr_energy">     -5.35134944 </i>
    <i name="e_wo_entrp">     -5.13647464 </i>
    <i name="e_0_energy">     -5.24391204 </i>
   </energy>
  </scstep>
  <scstep>
   <time name="dav">   27.59   27.65</time>
   <time name="total">   27.59   27.66</time>
   <energy>
    <i name="e_fr_energy">   -200.13938623 </i>
    <i name="e_wo_entrp">   -199.85983986 </i>
    <i name="e_0_energy">   -199.99961305 </i>
   </energy>
  </scstep>
  <scstep>
   <time name="dav">   30.12   30.19</time>
   <time name="total">   30.12   30.20</time>
   <energy>
    <i name="e_fr_energy">   -209.01611345 </i>
    <i name="e_wo_entrp">   -208.71100095 </i>
    <i name="e_0_energy">   -208.86355720 </i>
   </energy>
  </scstep>
  <scstep>
   <time name="dav">   28.90   28.97</time>
   <time name="total">   29.37   29.44</time>
   <energy>
    <i name="e_fr_energy">   -209.32461526 </i>
    <i name="e_wo_entrp">   -209.02227389 </i>
    <i name="e_0_energy">   -209.17344458 </i>
   </energy>
  </scstep>
  <scstep>
   <time name="dav">   30.97   31.04</time>
   <time name="total">   31.46   31.54</time>
   <energy>
    <i name="e_fr_energy">   -237.09076428 </i>
    <i name="e_wo_entrp">   -236.81209484 </i>
    <i name="e_0_energy">   -236.95142956 </i>
   </energy>
  </scstep>
  <scstep>
   <time name="dav">   32.27   32.35</time>
   <time name="total">   32.77   32.86</time>
   <energy>
    <i name="e_fr_energy">   -196.44972516 </i>
    <i name="e_wo_entrp">   -196.13303445 </i>
    <i name="e_0_energy">   -196.29137980 </i>
   </energy>
  </scstep>
  <scstep>
   <time name="dav">   30.01   30.08</time>
   <time name="total">   30.52   30.60</time>
   <energy>
    <i name="e_fr_energy">   -189.40177506 </i>
    <i name="e_wo_entrp">   -189.11009644 </i>
    <i name="e_0_energy">   -189.25593575 </i>
   </energy>
  </scstep>
  <scstep>
   <time name="dav">   32.01   32.08</time>
   <time name="total">   32.53   32.61</time>
   <energy>
    <i name="e_fr_energy">   -188.16884255 </i>
    <i name="e_wo_entrp">   -187.82965021 </i>
    <i name="e_0_energy">   -187.99924638 </i>
   </energy>
  </scstep>
  <scstep>
   <time name="dav">   33.00   33.08</time>
   <time name="total">   33.53   33.62</time>
   <energy>
    <i name="e_fr_energy">   -186.99942273 </i>
    <i name="e_wo_entrp">   -186.65186925 </i>
    <i name="e_0_energy">   -186.82564599 </i>
   </energy>
  </scstep>
  <scstep>
   <time name="dav">   32.33   32.41</time>
   <time name="total">   32.86   32.95</time>
   <energy>
    <i name="e_fr_energy">   -186.96765853 </i>
    <i name="e_wo_entrp">   -186.61786885 </i>
    <i name="e_0_energy">   -186.79276369 </i>
   </energy>
  </scstep>
  <scstep>
   <time name="dav">   30.26   30.33</time>
   <time name="total">   30.79   30.87</time>
   <energy>
    <i name="e_fr_energy">   -187.08953748 </i>
    <i name="e_wo_entrp">   -186.74970730 </i>
    <i name="e_0_energy">   -186.91962239 </i>
   </energy>
  </scstep>
  <scstep>
   <time name="dav">   31.81   31.89</time>
   <time name="total">   32.34   32.43</time>
   <energy>
    <i name="e_fr_energy">   -186.88106670 </i>
    <i name="e_wo_entrp">   -186.54419863 </i>
    <i name="e_0_energy">   -186.71263267 </i>
   </energy>
  </scstep>
  <scstep>
   <time name="dav">   32.67   32.75</time>
   <time name="total">   33.20   33.29</time>
   <energy>
    <i name="e_fr_energy">   -186.85673563 </i>
    <i name="e_wo_entrp">   -186.51205094 </i>
    <i name="e_0_energy">   -186.68439328 </i>
   </energy>
  </scstep>
  <scstep>
   <time name="dav">   29.65   29.72</time>
   <time name="total">   30.18   30.26</time>
   <energy>
    <i name="e_fr_energy">   -186.83721169 </i>
    <i name="e_wo_entrp">   -186.49043025 </i>
    <i name="e_0_energy">   -186.66382097 </i>
   </energy>
  </scstep>
  <scstep>
   <time name="dav">   29.47   29.54</time>
   <time name="total">   30.00   30.08</time>
   <energy>
    <i name="e_fr_energy">   -186.82956839 </i>
    <i name="e_wo_entrp">   -186.48279745 </i>
    <i name="e_0_energy">   -186.65618292 </i>
   </energy>
  </scstep>
  <scstep>
   <time name="dav">   31.08   31.15</time>
   <time name="total">   31.61   31.70</time>
   <energy>
    <i name="e_fr_energy">   -186.82768229 </i>
    <i name="e_wo_entrp">   -186.48287149 </i>
    <i name="e_0_energy">   -186.65527689 </i>
   </energy>
  </scstep>
  <scstep>
   <time name="dav">   28.85   28.92</time>
   <time name="total">   29.38   29.46</time>
   <energy>
    <i name="e_fr_energy">   -186.82722895 </i>
    <i name="e_wo_entrp">   -186.48217406 </i>
    <i name="e_0_energy">   -186.65470150 </i>
   </energy>
  </scstep>
  <scstep>
   <time name="dav">   27.49   27.56</time>
   <time name="total">   28.03   28.10</time>
   <energy>
    <i name="e_fr_energy">   -186.82687573 </i>
    <i name="e_wo_entrp">   -186.48153477 </i>
    <i name="e_0_energy">   -186.65420525 </i>
   </energy>
  </scstep>
  <scstep>
   <time name="dav">   24.15   24.20</time>
   <time name="total">   24.68   24.74</time>
   <energy>
    <i name="e_fr_energy">   -186.82761387 </i>
    <i name="e_wo_entrp">   -186.48245095 </i>
    <i name="e_0_energy">   -186.65503241 </i>
   </energy>
  </scstep>
  <scstep>
   <time name="dav">   21.45   21.51</time>
   <time name="total">   21.99   22.05</time>
   <energy>
    <i name="e_fr_energy">   -186.82820364 </i>
    <i name="e_wo_entrp">   -186.48320890 </i>
    <i name="e_0_energy">   -186.65570627 </i>
   </energy>
  </scstep>
  <scstep>
   <time name="dav">   20.71   20.76</time>
   <time name="total">   21.23   21.29</time>
   <energy>
    <i name="e_fr_energy">   -186.82936761 </i>
    <i name="e_wo_entrp">   -186.48421155 </i>
    <i name="e_0_energy">   -186.65678958 </i>
   </energy>
  </scstep>
  <scstep>
   <time name="dav">   20.31   20.36</time>
   <time name="total">   20.84   20.90</time>
   <energy>
    <i name="e_fr_energy">   -186.83059525 </i>
    <i name="e_wo_entrp">   -186.48554768 </i>
    <i name="e_0_energy">   -186.65807147 </i>
   </energy>
  </scstep>
  <scstep>
   <time name="dav">   18.94   18.99</time>
   <time name="total">   19.47   19.52</time>
   <energy>
    <i name="e_fr_energy">   -186.83118344 </i>
    <i name="e_wo_entrp">   -186.48611781 </i>
    <i name="e_0_energy">   -186.65865062 </i>
   </energy>
  </scstep>
  <scstep>
   <time name="dav">   17.15   17.19</time>
   <time name="total">   17.68   17.73</time>
   <energy>
    <i name="e_fr_energy">   -186.83154889 </i>
    <i name="e_wo_entrp">   -186.48644403 </i>
    <i name="e_0_energy">   -186.65899646 </i>
   </energy>
  </scstep>
  <scstep>
   <time name="dav">   18.76   18.81</time>
   <time name="total">   19.29   19.35</time>
   <energy>
    <i name="e_fr_energy">   -186.83178415 </i>
    <i name="e_wo_entrp">   -186.48669554 </i>
    <i name="e_0_energy">   -186.65923985 </i>
   </energy>
  </scstep>
  <scstep>
   <time name="dav">   19.90   19.95</time>
   <time name="total">   20.43   20.49</time>
   <energy>
    <i name="e_fr_energy">   -186.83188724 </i>
    <i name="e_wo_entrp">   -186.48679653 </i>
    <i name="e_0_energy">   -186.65934189 </i>
   </energy>
  </scstep>
  <scstep>
   <time name="dav">   20.44   20.49</time>
   <time name="total">   20.47   20.53</time>
   <energy>
    <i name="alphaZ">     81.65567618 </i>
    <i name="ewald">  41890.25209520 </i>
    <i name="hartreedc"> -47832.89587928 </i>
    <i name="XCdc">   -231.61130930 </i>
    <i name="pawpsdc">   4192.00797090 </i>
    <i name="pawaedc">  -3610.01042772 </i>
    <i name="eentropy">     -0.34508805 </i>
    <i name="bandstr">  -1437.32749010 </i>
    <i name="atom">   6761.44252427 </i>
    <i name="e_fr_energy">   -186.83192791 </i>
    <i name="e_wo_entrp">   -186.48683985 </i>
    <i name="e_0_energy">   -186.65938388 </i>
   </energy>
  </scstep>
  <structure>
   <crystal>
    <varray name="basis" >
     <v>       8.66999996       5.03999989       0.00000000 </v>
     <v>      -8.66999982       5.04000013       0.00000000 </v>
     <v>       0.00000000       0.00000000      30.00000000 </v>
    </varray>
    <i name="volume">   2621.80797419 </i>
    <varray name="rec_basis" >
     <v>       0.05767013       0.09920635       0.00000000 </v>
     <v>      -0.05767013       0.09920635       0.00000000 </v>
     <v>       0.00000000       0.00000000       0.03333333 </v>
    </varray>
   </crystal>
   <varray name="positions" >
    <v>       0.66666669       0.66666669       0.00000000 </v>
    <v>       0.00000000       0.66666669       0.00000000 </v>
    <v>       1.00000000       0.33333334       0.00000000 </v>
    <v>       0.33333334       0.66666669       0.00000000 </v>
    <v>       0.66666669       0.33333334       0.00000000 </v>
    <v>       0.33333334       0.33333334       0.00000000 </v>
    <v>       0.00000000       0.00000000       0.00000000 </v>
    <v>       0.33333334       0.00000000       0.00000000 </v>
    <v>       0.66666669       0.00000000       0.00000000 </v>
    <v>       0.11068511       0.22244981       0.95539999 </v>
    <v>       0.22244981       0.11068511       0.04460000 </v>
    <v>       0.11068511       0.55578315       0.95539999 </v>
    <v>       0.22244981       0.44401845       0.04460000 </v>
    <v>       0.11068511       0.88911647       0.95539999 </v>
    <v>       0.22244981       0.77735180       0.04460000 </v>
    <v>       0.44401845       0.22244981       0.95539999 </v>
    <v>       0.55578315       0.11068511       0.04460000 </v>
    <v>       0.44401845       0.55578315       0.95539999 </v>
    <v>       0.55578315       0.44401845       0.04460000 </v>
    <v>       0.44401845       0.88911647       0.95539999 </v>
    <v>       0.55578315       0.77735180       0.04460000 </v>
    <v>       0.77735180       0.22244981       0.95539999 </v>
    <v>       0.88911647       0.11068511       0.04460000 </v>
    <v>       0.77735180       0.55578315       0.95539999 </v>
    <v>       0.88911647       0.44401845       0.04460000 </v>
    <v>       0.77735180       0.88911647       0.95539999 </v>
    <v>       0.88911647       0.77735180       0.04460000 </v>
   </varray>
  </structure>
  <varray name="forces" >
   <v>       0.07612917      -0.44186090       0.08838378 </v>
   <v>       0.19799833      -0.20416262       0.01160879 </v>
   <v>      -0.06695238       0.28427018      -0.09893588 </v>
   <v>       0.25276749      -0.15798014       0.00430318 </v>
   <v>      -0.24692614      -0.08870952      -0.01506186 </v>
   <v>      -0.01783766       0.28634539      -0.09320779 </v>
   <v>       0.01670382       0.23050082       0.02646976 </v>
   <v>       0.00972941       0.27600239       0.02466173 </v>
   <v>      -0.25154749      -0.13432226       0.09483532 </v>
   <v>      -0.68196806      -0.14756714      -2.14092821 </v>
   <v>      -0.03891967      -0.14139954       2.88575695 </v>
   <v>      -0.30952658      -0.69685397      -1.44806508 </v>
   <v>      -0.53405226      -0.69277252       2.14413697 </v>
   <v>       0.46990591      -0.56029733      -2.16519468 </v>
   <v>      -0.61611732      -0.53822731       2.10966039 </v>
   <v>       0.18498935      -0.16757688      -2.91086301 </v>
   <v>      -0.03515781      -0.14876260       2.95240318 </v>
   <v>       0.52230283       0.67555439      -2.17928985 </v>
   <v>      -0.52597602       0.73162154       2.18668290 </v>
   <v>       0.04043376       0.11095081      -2.90994397 </v>
   <v>       0.69029082       0.16654662       2.13415176 </v>
   <v>       0.62486282       0.57673437      -2.14041355 </v>
   <v>      -0.46379065       0.55311988       2.15201725 </v>
   <v>      -0.31550700       0.66351419      -1.41862067 </v>
   <v>       0.31623975       0.66814247       1.41638138 </v>
   <v>       0.47913353      -0.56965725      -2.12098910 </v>
   <v>       0.22279204      -0.53315308       1.41006033 </v>
  </varray>
  <varray name="stress" >
   <v>       7.30468676       0.13857954      -1.63163931 </v>
   <v>       0.13857950       4.42462253       0.14743446 </v>
   <v>      -1.63163919       0.14743455      30.32925772 </v>
  </varray>
  <energy>
   <i name="e_fr_energy">   -186.83192791 </i>
   <i name="e_wo_entrp">   -186.65938388 </i>
   <i name="e_0_energy">     -0.34508805 </i>
  </energy>
  <time name="totalsc">  804.74  806.91</time>
 </calculation>
 <calculation>
  <scstep>
   <time name="dav">   21.71   21.76</time>
   <time name="total">   22.25   22.30</time>
   <energy>
    <i name="alphaZ">     78.92708069 </i>
    <i name="ewald">  39382.16441322 </i>
    <i name="hartreedc"> -45339.65215794 </i>
    <i name="XCdc">   -239.06724224 </i>
    <i name="pawpsdc">   4192.00806218 </i>
    <i name="pawaedc">  -3610.01051299 </i>
    <i name="eentropy">     -0.28732133 </i>
    <i name="bandstr">  -1412.98418487 </i>
    <i name="atom">   6761.44252427 </i>
    <i name="e_fr_energy">   -187.45933900 </i>
    <i name="e_wo_entrp">   -187.17201767 </i>
    <i name="e_0_energy">   -187.31567834 </i>
   </energy>
  </scstep>
  <scstep>
   <time name="dav">   30.37   30.44</time>
   <time name="total">   30.90   30.99</time>
   <energy>
    <i name="e_fr_energy">   -189.25932307 </i>
    <i name="e_wo_entrp">   -188.94392159 </i>
    <i name="e_0_energy">   -189.10162233 </i>
   </energy>
  </scstep>
  <scstep>
   <time name="dav">   30.48   30.56</time>
   <time name="total">   31.03   31.11</time>
   <energy>
    <i name="e_fr_energy">   -189.36715216 </i>
    <i name="e_wo_entrp">   -189.08610183 </i>
    <i name="e_0_energy">   -189.22662699 </i>
   </energy>
  </scstep>
  <scstep>
   <time name="dav">   30.94   31.01</time>
   <time name="total">   31.48   31.56</time>
   <energy>
    <i name="e_fr_energy">   -188.72454375 </i>
    <i name="e_wo_entrp">   -188.43834464 </i>
    <i name="e_0_energy">   -188.58144419 </i>
   </energy>
  </scstep>
  <scstep>
   <time name="dav">   25.87   25.94</time>
   <time name="total">   26.42   26.49</time>
   <energy>
    <i name="e_fr_energy">   -188.72045756 </i>
    <i name="e_wo_entrp">   -188.43259554 </i>
    <i name="e_0_energy">   -188.57652655 </i>
   </energy>
  </scstep>
  <scstep>
   <time name="dav">   27.33   27.40</time>
   <time name="total">   27.88   27.94</time>
   <energy>
    <i name="e_fr_energy">   -188.66026268 </i>
    <i name="e_wo_entrp">   -188.37371796 </i>
    <i name="e_0_energy">   -188.51699032 </i>
   </energy>
  </scstep>
  <scstep>
   <time name="dav">   29.74   29.81</time>
   <time name="total">   30.28   30.36</time>
   <energy>
    <i name="e_fr_energy">   -188.64469845 </i>
    <i name="e_wo_entrp">   -188.35957968 </i>
    <i name="e_0_energy">   -188.50213906 </i>
   </energy>
  </scstep>
  <scstep>
   <time name="dav">   29.52   29.60</time>
   <time name="total">   30.06   30.14</time>
   <energy>
    <i name="e_fr_energy">   -188.63878758 </i>
    <i name="e_wo_entrp">   -188.35316355 </i>
    <i name="e_0_energy">   -188.49597556 </i>
   </energy>
  </scstep>
  <scstep>
   <time name="dav">   31.82   31.90</time>
   <time name="total">   32.36   32.45</time>
   <energy>
    <i name="e_fr_energy">   -188.63373184 </i>
    <i name="e_wo_entrp">   -188.34859047 </i>
    <i name="e_0_energy">   -188.49116115 </i>
   </energy>
  </scstep>
  <scstep>
   <time name="dav">   31.66   31.74</time>
   <time name="total">   32.20   32.29</time>
   <energy>
    <i name="e_fr_energy">   -188.63356942 </i>
    <i name="e_wo_entrp">   -188.34860953 </i>
    <i name="e_0_energy">   -188.49108947 </i>
   </energy>
  </scstep>
  <scstep>
   <time name="dav">   32.80   32.88</time>
   <time name="total">   33.34   33.43</time>
   <energy>
    <i name="e_fr_energy">   -188.63352078 </i>
    <i name="e_wo_entrp">   -188.34926949 </i>
    <i name="e_0_energy">   -188.49139513 </i>
   </energy>
  </scstep>
  <scstep>
   <time name="dav">   25.13   25.19</time>
   <time name="total">   25.67   25.74</time>
   <energy>
    <i name="e_fr_energy">   -188.63330615 </i>
    <i name="e_wo_entrp">   -188.34885974 </i>
    <i name="e_0_energy">   -188.49108295 </i>
   </energy>
  </scstep>
  <scstep>
   <time name="dav">   19.81   19.86</time>
   <time name="total">   19.84   19.90</time>
   <energy>
    <i name="alphaZ">     78.92708069 </i>
    <i name="ewald">  39382.16441322 </i>
    <i name="hartreedc"> -45350.41827739 </i>
    <i name="XCdc">   -237.98169863 </i>
    <i name="pawpsdc">   3950.20891668 </i>
    <i name="pawaedc">  -3364.71055750 </i>
    <i name="eentropy">     -0.28455431 </i>
    <i name="bandstr">  -1407.98110982 </i>
    <i name="atom">   6761.44252427 </i>
    <i name="e_fr_energy">   -188.63326279 </i>
    <i name="e_wo_entrp">   -188.34870847 </i>
    <i name="e_0_energy">   -188.49098563 </i>
   </energy>
  </scstep>
  <structure>
   <crystal>
    <varray name="basis" >
     <v>       8.85721544       5.10871541       0.00000000 </v>
     <v>      -8.85313100       5.10168969       0.00000000 </v>
     <v>       0.00000000       0.00000000      30.00000000 </v>
    </varray>
    <i name="volume">   2712.44674295 </i>
    <varray name="rec_basis" >
     <v>       0.05642533       0.09791674       0.00000000 </v>
     <v>      -0.05650303       0.09796191       0.00000000 </v>
     <v>       0.00000000       0.00000000       0.03333333 </v>
    </varray>
   </crystal>
   <varray name="positions" >
    <v>       0.66476375       0.66434015       0.00014213 </v>
    <v>      -0.00042625       0.66513871       0.00001867 </v>
    <v>       1.00117424       0.33488013      -0.00015910 </v>
    <v>       0.33328049       0.66520736       0.00000692 </v>
    <v>       0.66555514       0.33359577      -0.00002422 </v>
    <v>       0.33465416       0.33475341      -0.00014989 </v>
    <v>       0.00114964       0.00105670       0.00004257 </v>
    <v>       0.33468135       0.00129387       0.00003966 </v>
    <v>       0.66532398       0.00005698       0.00015250 </v>
    <v>       0.10808151       0.22364090       0.95195719 </v>
    <v>       0.22166479       0.11011666       0.04924055 </v>
    <v>       0.10648883       0.55330918       0.95307137 </v>
    <v>       0.21764840       0.44218868       0.04804796 </v>
    <v>       0.10931089       0.88512754       0.95191817 </v>
    <v>       0.21815973       0.77648999       0.04799252 </v>
    <v>       0.44373110       0.22113312       0.95071906 </v>
    <v>       0.55497336       0.11007095       0.04934772 </v>
    <v>       0.44870477       0.55756321       0.95189550 </v>
    <v>       0.55782133       0.44898333       0.04811638 </v>
    <v>       0.44466195       0.88953498       0.95072054 </v>
    <v>       0.55850074       0.77622839       0.04803190 </v>
    <v>       0.78185050       0.22347158       0.95195802 </v>
    <v>       0.89047335       0.11462267       0.04806063 </v>
    <v>       0.77964957       0.55983651       0.95311872 </v>
    <v>       0.89319401       0.44633634       0.04687767 </v>
    <v>       0.77595846       0.88505707       0.95198925 </v>
    <v>       0.88718465       0.77418029       0.04686750 </v>
   </varray>
  </structure>
  <varray name="forces" >
   <v>       0.02204564      -0.40638734       0.01447328 </v>
   <v>       0.13883320      -0.12067407       0.07303497 </v>
   <v>       0.01719499       0.24245660      -0.02142831 </v>
   <v>       0.23260381      -0.00016112       0.06981555 </v>
   <v>      -0.16977977      -0.43171721      -0.06623730 </v>
   <v>       0.09078458       0.14853712      -0.02483396 </v>
   <v>       0.04674544       0.30702054      -0.01341560 </v>
   <v>       0.03538896       0.41531948       0.00420132 </v>
   <v>      -0.37395271      -0.21338305      -0.06489800 </v>
   <v>       0.01255159      -0.09586663      -0.03390677 </v>
   <v>       0.06649586      -0.08727055       0.00588374 </v>
   <v>       0.00070998      -0.05862378      -0.03128062 </v>
   <v>      -0.02979469      -0.06895288       0.03867109 </v>
   <v>      -0.05414681       0.05738228       0.14663192 </v>
   <v>      -0.07616600       0.04172957      -0.13333496 </v>
   <v>       0.03733257      -0.10956555      -0.18086269 </v>
   <v>       0.07242281      -0.10468491       0.14976314 </v>
   <v>       0.03825838       0.07363544      -0.15428652 </v>
   <v>      -0.04257367       0.08880495       0.16123991 </v>
   <v>      -0.07161160       0.09859358       0.00875940 </v>
   <v>       0.00096978       0.10877021       0.02843531 </v>
   <v>       0.08142926      -0.05378931       0.10232592 </v>
   <v>       0.04065048      -0.05306767      -0.14267971 </v>
   <v>      -0.00830694       0.04404333       0.06978607 </v>
   <v>      -0.00537615       0.04270065      -0.08858497 </v>
   <v>      -0.04342115       0.06225224       0.27123698 </v>
   <v>      -0.05928784       0.07289807      -0.18850919 </v>
  </varray>
  <varray name="stress" >
   <v>     -19.91056939      -0.01388616      -0.02513076 </v>
   <v>      -0.01388608     -19.50453458       0.00952093 </v>
   <v>      -0.02513101       0.00952090      -1.74383268 </v>
  </varray>
  <energy>
   <i name="e_fr_energy">   -188.63326279 </i>
   <i name="e_wo_entrp">   -188.49098563 </i>
   <i name="e_0_energy">     -0.28455431 </i>
  </energy>
  <time name="totalsc">  416.10  417.19</time>
 </calculation>
 <calculation>
  <scstep>
   <time name="dav">   23.98   24.04</time>
   <time name="total">   24.51   24.57</time>
   <energy>
    <i name="alphaZ">     82.35512992 </i>
    <i name="ewald">  41307.65765377 </i>
    <i name="hartreedc"> -47306.38905312 </i>
    <i name="XCdc">   -233.85573695 </i>
    <i name="pawpsdc">   3949.24605396 </i>
    <i name="pawaedc">  -3363.73904663 </i>
    <i name="eentropy">     -0.23673694 </i>
    <i name="bandstr">  -1387.03149780 </i>
    <i name="atom">   6761.44252427 </i>
    <i name="e_fr_energy">   -190.55070952 </i>
    <i name="e_wo_entrp">   -190.31397259 </i>
    <i name="e_0_energy">   -190.43234105 </i>
   </energy>
  </scstep>
  <scstep>
   <time name="dav">   28.61   28.68</time>
   <time name="total">   29.13   29.21</time>
   <energy>
    <i name="e_fr_energy">   -190.54338890 </i>
    <i name="e_wo_entrp">   -190.30385223 </i>
    <i name="e_0_energy">   -190.42362056 </i>
   </energy>
  </scstep>
  <scstep>
   <time name="dav">   30.35   30.43</time>
   <time name="total">   30.88   30.96</time>
   <energy>
    <i name="e_fr_energy">   -190.02416907 </i>
    <i name="e_wo_entrp">   -189.77554738 </i>
    <i name="e_0_energy">   -189.89985822 </i>
   </energy>
  </scstep>
  <scstep>
   <time name="dav">   31.54   31.62</time>
   <time name="total">   32.08   32.16</time>
   <energy>
    <i name="e_fr_energy">   -189.81927064 </i>
    <i name="e_wo_entrp">   -189.58169991 </i>
    <i name="e_0_energy">   -189.70048527 </i>
   </energy>
  </scstep>
  <scstep>
   <time name="dav">   28.35   28.41</time>
   <time name="total">   28.87   28.95</time>
   <energy>
    <i name="e_fr_energy">   -189.73715790 </i>
    <i name="e_wo_entrp">   -189.49512642 </i>
    <i name="e_0_energy">   -189.61614216 </i>
   </energy>
  </scstep>
  <scstep>
   <time name="dav">   29.45   29.52</time>
   <time name="total">   29.98   30.06</time>
   <energy>
    <i name="e_fr_energy">   -189.72215135 </i>
    <i name="e_wo_entrp">   -189.48321923 </i>
    <i name="e_0_energy">   -189.60268529 </i>
   </energy>
  </scstep>
  <scstep>
   <time name="dav">   30.35   30.42</time>
   <time name="total">   30.88   30.96</time>
   <energy>
    <i name="e_fr_energy">   -189.71635452 </i>
    <i name="e_wo_entrp">   -189.47643266 </i>
    <i name="e_0_energy">   -189.59639359 </i>
   </energy>
  </scstep>
  <scstep>
   <time name="dav">   27.12   27.18</time>
   <time name="total">   27.64   27.72</time>
   <energy>
    <i name="e_fr_energy">   -189.71623329 </i>
    <i name="e_wo_entrp">   -189.47673297 </i>
    <i name="e_0_energy">   -189.59648313 </i>
   </energy>
  </scstep>
  <scstep>
   <time name="dav">   26.85   26.92</time>
   <time name="total">   27.38   27.45</time>
   <energy>
    <i name="e_fr_energy">   -189.71632876 </i>
    <i name="e_wo_entrp">   -189.47651917 </i>
    <i name="e_0_energy">   -189.59642396 </i>
   </energy>
  </scstep>
  <scstep>
   <time name="dav">   26.22   26.28</time>
   <time name="total">   26.75   26.82</time>
   <energy>
    <i name="e_fr_energy">   -189.71688130 </i>
    <i name="e_wo_entrp">   -189.47713682 </i>
    <i name="e_0_energy">   -189.59700906 </i>
   </energy>
  </scstep>
  <scstep>
   <time name="dav">   25.34   25.40</time>
   <time name="total">   25.87   25.94</time>
   <energy>
    <i name="e_fr_energy">   -189.71622937 </i>
    <i name="e_wo_entrp">   -189.47644912 </i>
    <i name="e_0_energy">   -189.59633925 </i>
   </energy>
  </scstep>
  <scstep>
   <time name="dav">   17.08   17.12</time>
   <time name="total">   17.11   17.16</time>
   <energy>
    <i name="alphaZ">     82.35512992 </i>
    <i name="ewald">  41307.65765377 </i>
    <i name="hartreedc"> -47279.91828202 </i>
    <i name="XCdc">   -235.24849174 </i>
    <i name="pawpsdc">   4038.68629240 </i>
    <i name="pawaedc">  -3454.38521077 </i>
    <i name="eentropy">     -0.23971491 </i>
    <i name="bandstr">  -1410.06615067 </i>
    <i name="atom">   6761.44252427 </i>
    <i name="e_fr_energy">   -189.71624976 </i>
    <i name="e_wo_entrp">   -189.47653484 </i>
    <i name="e_0_energy">   -189.59639230 </i>
   </energy>
  </scstep>
  <structure>
   <crystal>
    <varray name="basis" >
     <v>       8.66891974       5.00223545       0.00000000 </v>
     <v>      -8.66507342       4.99561846       0.00000000 </v>
     <v>       0.00000000       0.00000000      30.00000000 </v>
    </varray>
    <i name="volume">   2599.54058902 </i>
    <varray name="rec_basis" >
     <v>       0.05765194       0.09999929       0.00000000 </v>
     <v>      -0.05772830       0.10004367       0.00000000 </v>
     <v>       0.00000000       0.00000000       0.03333333 </v>
    </varray>
   </crystal>
   <varray name="positions" >
    <v>       0.66410761       0.66364131       0.00015034 </v>
    <v>      -0.00049404       0.66480396       0.00006011 </v>
    <v>       1.00159485       0.33526788      -0.00017126 </v>
    <v>       0.33350363       0.66498338       0.00004653 </v>
    <v>       0.66467253       0.33303919      -0.00006180 </v>
    <v>       0.33498892       0.33491378      -0.00016398 </v>
    <v>       0.00170625       0.00152369       0.00003495 </v>
    <v>       0.33540755       0.00195236       0.00004204 </v>
    <v>       0.66460917       0.00006083       0.00011568 </v>
    <v>       0.10793379       0.22346898       0.95193795 </v>
    <v>       0.22158321       0.10990718       0.04924389 </v>
    <v>       0.10639180       0.55321074       0.95305363 </v>
    <v>       0.21750486       0.44210236       0.04806990 </v>
    <v>       0.10935453       0.88527530       0.95200136 </v>
    <v>       0.21815613       0.77663283       0.04791687 </v>
    <v>       0.44358435       0.22091452       0.95061645 </v>
    <v>       0.55486844       0.10982674       0.04943270 </v>
    <v>       0.44886424       0.55764920       0.95180796 </v>
    <v>       0.55792845       0.44917235       0.04820786 </v>
    <v>       0.44475750       0.88976826       0.95072551 </v>
    <v>       0.55868296       0.77640882       0.04804804 </v>
    <v>       0.78183906       0.22330357       0.95201607 </v>
    <v>       0.89042394       0.11449508       0.04797968 </v>
    <v>       0.77971500       0.55991794       0.95315832 </v>
    <v>       0.89326002       0.44641271       0.04682740 </v>
    <v>       0.77602051       0.88520264       0.95214315 </v>
    <v>       0.88724921       0.77435887       0.04676054 </v>
   </varray>
  </structure>
  <varray name="forces" >
   <v>      -0.01212223      -0.40216740      -0.00596519 </v>
   <v>       0.12018985      -0.07902591       0.07428872 </v>
   <v>       0.06596217       0.21721952       0.00315397 </v>
   <v>       0.22104739       0.05268418       0.06846761 </v>
   <v>      -0.13816610      -0.54448623      -0.05584957 </v>
   <v>       0.12895578       0.09552911      -0.00201058 </v>
   <v>       0.05463231       0.33402385      -0.01877546 </v>
   <v>       0.04403476       0.46816829       0.00292024 </v>
   <v>      -0.42840100      -0.23626424      -0.08203354 </v>
   <v>      -0.10352443      -0.00658145      -0.54614629 </v>
   <v>       0.02942996      -0.00527024       0.56902364 </v>
   <v>      -0.03485995      -0.11009360      -0.49063991 </v>
   <v>      -0.05840138      -0.13574165       0.52590368 </v>
   <v>       0.03504542      -0.06207776      -0.35630883 </v>
   <v>      -0.07551307      -0.07853735       0.34483102 </v>
   <v>      -0.00941325      -0.04339454      -0.75444529 </v>
   <v>       0.02324717      -0.02824657       0.74642764 </v>
   <v>       0.07916024       0.14116909      -0.65798125 </v>
   <v>      -0.07668993       0.14341178       0.66443239 </v>
   <v>      -0.03505679       0.01512465      -0.55569784 </v>
   <v>       0.11713358       0.04541758       0.53657419 </v>
   <v>       0.07169818       0.08120392      -0.38941443 </v>
   <v>      -0.04665870       0.07184411       0.35274862 </v>
   <v>      -0.04354880       0.10420859      -0.37250498 </v>
   <v>       0.02599060       0.08502820       0.34558997 </v>
   <v>       0.03141778      -0.06130897      -0.20951689 </v>
   <v>       0.01441045      -0.06183696       0.26292839 </v>
  </varray>
  <varray name="stress" >
   <v>     -10.17746038      -0.03966070      -0.03599456 </v>
   <v>      -0.03966066      -9.83142733      -0.02349694 </v>
   <v>      -0.03599435      -0.02349693       6.51788481 </v>
  </varray>
  <energy>
   <i name="e_fr_energy">   -189.71624976 </i>
   <i name="e_wo_entrp">   -189.59639230 </i>
   <i name="e_0_energy">     -0.23971491 </i>
  </energy>
  <time name="totalsc">  373.26  374.24</time>
 </calculation>
 <calculation>
  <scstep>
   <time name="dav">   21.69   21.74</time>
   <time name="total">   22.20   22.26</time>
   <energy>
    <i name="alphaZ">     85.83948911 </i>
    <i name="ewald">  42840.56135775 </i>
    <i name="hartreedc"> -48857.42766575 </i>
    <i name="XCdc">   -232.96155694 </i>
    <i name="pawpsdc">   4038.69758024 </i>
    <i name="pawaedc">  -3454.39373274 </i>
    <i name="eentropy">     -0.19621680 </i>
    <i name="bandstr">  -1372.82898864 </i>
    <i name="atom">   6761.44252427 </i>
    <i name="e_fr_energy">   -191.26720951 </i>
    <i name="e_wo_entrp">   -191.07099270 </i>
    <i name="e_0_energy">   -191.16910111 </i>
   </energy>
  </scstep>
  <scstep>
   <time name="dav">   32.56   32.64</time>
   <time name="total">   33.07   33.16</time>
   <energy>
    <i name="e_fr_energy">   -191.14767587 </i>
    <i name="e_wo_entrp">   -190.94500185 </i>
    <i name="e_0_energy">   -191.04633886 </i>
   </energy>
  </scstep>
  <scstep>
   <time name="dav">   30.09   30.17</time>
   <time name="total">   30.60   30.68</time>
   <energy>
    <i name="e_fr_energy">   -191.18859596 </i>
    <i name="e_wo_entrp">   -190.97204281 </i>
    <i name="e_0_energy">   -191.08031938 </i>
   </energy>
  </scstep>
  <scstep>
   <time name="dav">   30.88   30.95</time>
   <time name="total">   31.39   31.48</time>
   <energy>
    <i name="e_fr_energy">   -190.83253823 </i>
    <i name="e_wo_entrp">   -190.62826975 </i>
    <i name="e_0_energy">   -190.73040399 </i>
   </energy>
  </scstep>
  <scstep>
   <time name="dav">   29.59   29.66</time>
   <time name="total">   30.10   30.18</time>
   <energy>
    <i name="e_fr_energy">   -190.82857426 </i>
    <i name="e_wo_entrp">   -190.63054572 </i>
    <i name="e_0_energy">   -190.72955999 </i>
   </energy>
  </scstep>
  <scstep>
   <time name="dav">   29.90   29.97</time>
   <time name="total">   30.42   30.50</time>
   <energy>
    <i name="e_fr_energy">   -190.68510282 </i>
    <i name="e_wo_entrp">   -190.48091425 </i>
    <i name="e_0_energy">   -190.58300854 </i>
   </energy>
  </scstep>
  <scstep>
   <time name="dav">   30.38   30.45</time>
   <time name="total">   30.89   30.97</time>
   <energy>
    <i name="e_fr_energy">   -190.67969861 </i>
    <i name="e_wo_entrp">   -190.47756865 </i>
    <i name="e_0_energy">   -190.57863363 </i>
   </energy>
  </scstep>
  <scstep>
   <time name="dav">   28.95   29.02</time>
   <time name="total">   29.46   29.54</time>
   <energy>
    <i name="e_fr_energy">   -190.67796899 </i>
    <i name="e_wo_entrp">   -190.47562211 </i>
    <i name="e_0_energy">   -190.57679555 </i>
   </energy>
  </scstep>
  <scstep>
   <time name="dav">   28.32   28.39</time>
   <time name="total">   28.84   28.93</time>
   <energy>
    <i name="e_fr_energy">   -190.67603365 </i>
    <i name="e_wo_entrp">   -190.47358364 </i>
    <i name="e_0_energy">   -190.57480865 </i>
   </energy>
  </scstep>
  <scstep>
   <time name="dav">   26.47   26.54</time>
   <time name="total">   26.99   27.06</time>
   <energy>
    <i name="e_fr_energy">   -190.67629266 </i>
    <i name="e_wo_entrp">   -190.47355986 </i>
    <i name="e_0_energy">   -190.57492626 </i>
   </energy>
  </scstep>
  <scstep>
   <time name="dav">   26.65   26.72</time>
   <time name="total">   27.16   27.24</time>
   <energy>
    <i name="e_fr_energy">   -190.67613484 </i>
    <i name="e_wo_entrp">   -190.47362774 </i>
    <i name="e_0_energy">   -190.57488129 </i>
   </energy>
  </scstep>
  <scstep>
   <time name="dav">   20.04   20.09</time>
   <time name="total">   20.08   20.13</time>
   <energy>
    <i name="alphaZ">     85.83948911 </i>
    <i name="ewald">  42840.56135775 </i>
    <i name="hartreedc"> -48828.76633042 </i>
    <i name="XCdc">   -234.29869267 </i>
    <i name="pawpsdc">   4063.08485432 </i>
    <i name="pawaedc">  -3478.95265470 </i>
    <i name="eentropy">     -0.20252544 </i>
    <i name="bandstr">  -1399.38414998 </i>
    <i name="atom">   6761.44252427 </i>
    <i name="e_fr_energy">   -190.67612777 </i>
    <i name="e_wo_entrp">   -190.47360233 </i>
    <i name="e_0_energy">   -190.57486505 </i>
   </energy>
  </scstep>
  <structure>
   <crystal>
    <varray name="basis" >
     <v>       8.48526412       4.90091444       0.00000000 </v>
     <v>      -8.48335549       4.89764831       0.00000000 </v>
     <v>       0.00000000       0.00000000      30.00000000 </v>
    </varray>
    <i name="volume">   2494.02116866 </i>
    <varray name="rec_basis" >
     <v>       0.05891267       0.10204431       0.00000000 </v>
     <v>      -0.05895196       0.10206727       0.00000000 </v>
     <v>       0.00000000       0.00000000       0.03333333 </v>
    </varray>
   </crystal>
   <varray name="positions" >
    <v>       0.66150471       0.66122336       0.00012062 </v>
    <v>      -0.00047782       0.66400443       0.00021505 </v>
    <v>       1.00320175       0.33625787      -0.00014383 </v>
    <v>       0.33474794       0.66466245       0.00018721 </v>
    <v>       0.66052478       0.32979807      -0.00016866 </v>
    <v>       0.33597623       0.33485874      -0.00014875 </v>
    <v>       0.00407584       0.00347639      -0.00000849 </v>
    <v>       0.33864516       0.00484795       0.00004700 </v>
    <v>       0.66144483       0.00015095      -0.00006880 </v>
    <v>       0.10757432       0.22419251       0.95037137 </v>
    <v>       0.22180791       0.11002583       0.05090111 </v>
    <v>       0.10539619       0.55256930       0.95164696 </v>
    <v>       0.21623521       0.44133700       0.04957330 </v>
    <v>       0.10892222       0.88433244       0.95083591 </v>
    <v>       0.21709174       0.77611235       0.04903749 </v>
    <v>       0.44337630       0.22090909       0.94856627 </v>
    <v>       0.55489550       0.10982725       0.05148588 </v>
    <v>       0.45026248       0.55835762       0.95001699 </v>
    <v>       0.55863733       0.45053457       0.05001177 </v>
    <v>       0.44456982       0.88972883       0.94909477 </v>
    <v>       0.55939986       0.77594418       0.04959131 </v>
    <v>       0.78293007       0.22390442       0.95079157 </v>
    <v>       0.89089181       0.11555211       0.04913137 </v>
    <v>       0.78031021       0.56092993       0.95201086 </v>
    <v>       0.89403762       0.44691231       0.04791222 </v>
    <v>       0.77554902       0.88428816       0.95130061 </v>
    <v>       0.88668342       0.77347636       0.04768880 </v>
   </varray>
  </structure>
  <varray name="forces" >
   <v>      -0.02054034      -0.37361114      -0.05223095 </v>
   <v>       0.07235520      -0.06191908       0.04842259 </v>
   <v>       0.15206022       0.21636330       0.04794201 </v>
   <v>       0.22589480       0.06531190       0.03184579 </v>
   <v>      -0.09609513      -0.61306774      -0.01047450 </v>
   <v>       0.15011700       0.02030085       0.02448660 </v>
   <v>       0.10847975       0.37773266      -0.02821325 </v>
   <v>       0.03328628       0.52919868      -0.00631503 </v>
   <v>      -0.53326683      -0.26398997      -0.05191220 </v>
   <v>      -0.04275747       0.08127626      -0.41272668 </v>
   <v>       0.01635229       0.06461583       0.40488261 </v>
   <v>       0.01715839      -0.00217855      -0.37420946 </v>
   <v>       0.00238075      -0.01545744       0.36351729 </v>
   <v>       0.05352497       0.01594295      -0.20718637 </v>
   <v>      -0.01099506       0.01532428       0.18947664 </v>
   <v>      -0.04839342      -0.00896237      -0.61096753 </v>
   <v>      -0.01985815       0.01647837       0.61748076 </v>
   <v>       0.04756829       0.03264704      -0.45839687 </v>
   <v>      -0.01203573       0.02030105       0.47679326 </v>
   <v>      -0.02381089      -0.06800063      -0.39983956 </v>
   <v>       0.04517355       0.02594792       0.38102649 </v>
   <v>      -0.02838928       0.03019636      -0.25076630 </v>
   <v>      -0.05459985       0.01970085       0.15243868 </v>
   <v>       0.01005616      -0.03781765      -0.24600672 </v>
   <v>      -0.02992599      -0.04699215       0.21514288 </v>
   <v>       0.00073824      -0.01605230      -0.01791790 </v>
   <v>      -0.01447776      -0.02328930       0.17370773 </v>
  </varray>
  <varray name="stress" >
   <v>      -5.85611540       0.07856161      -0.05363646 </v>
   <v>       0.07856157      -5.79138177       0.05244221 </v>
   <v>      -0.05363642       0.05244226       4.50897208 </v>
  </varray>
  <energy>
   <i name="e_fr_energy">   -190.67612777 </i>
   <i name="e_wo_entrp">   -190.57486505 </i>
   <i name="e_0_energy">     -0.20252544 </i>
  </energy>
  <time name="totalsc">  383.28  384.31</time>
 </calculation>
 <calculation>
  <scstep>
   <time name="dav">   21.67   21.72</time>
   <time name="total">   22.17   22.23</time>
   <energy>
    <i name="alphaZ">     90.31428395 </i>
    <i name="ewald">  44727.83048862 </i>
    <i name="hartreedc"> -50772.70825855 </i>
    <i name="XCdc">   -231.75564726 </i>
    <i name="pawpsdc">   4063.03222659 </i>
    <i name="pawaedc">  -3478.89489182 </i>
    <i name="eentropy">     -0.17965333 </i>
    <i name="bandstr">  -1351.18826161 </i>
    <i name="atom">   6761.44252427 </i>
    <i name="e_fr_energy">   -192.10718912 </i>
    <i name="e_wo_entrp">   -191.92753579 </i>
    <i name="e_0_energy">   -192.01736245 </i>
   </energy>
  </scstep>
  <scstep>
   <time name="dav">   29.67   29.74</time>
   <time name="total">   30.17   30.25</time>
   <energy>
    <i name="e_fr_energy">   -191.86822213 </i>
    <i name="e_wo_entrp">   -191.67646103 </i>
    <i name="e_0_energy">   -191.77234158 </i>
   </energy>
  </scstep>
  <scstep>
   <time name="dav">   30.01   30.08</time>
   <time name="total">   30.51   30.59</time>
   <energy>
    <i name="e_fr_energy">   -192.25919917 </i>
    <i name="e_wo_entrp">   -192.05757608 </i>
    <i name="e_0_energy">   -192.15838762 </i>
   </energy>
  </scstep>
  <scstep>
   <time name="dav">   29.86   29.94</time>
   <time name="total">   30.37   30.45</time>
   <energy>
    <i name="e_fr_energy">   -191.57639817 </i>
    <i name="e_wo_entrp">   -191.38884546 </i>
    <i name="e_0_energy">   -191.48262182 </i>
   </energy>
  </scstep>
  <scstep>
   <time name="dav">   30.07   30.14</time>
   <time name="total">   30.58   30.66</time>
   <energy>
    <i name="e_fr_energy">   -191.40348024 </i>
    <i name="e_wo_entrp">   -191.21876343 </i>
    <i name="e_0_energy">   -191.31112183 </i>
   </energy>
  </scstep>
  <scstep>
   <time name="dav">   30.47   30.54</time>
   <time name="total">   30.97   31.05</time>
   <energy>
    <i name="e_fr_energy">   -191.37098481 </i>
    <i name="e_wo_entrp">   -191.17759725 </i>
    <i name="e_0_energy">   -191.27429103 </i>
   </energy>
  </scstep>
  <scstep>
   <time name="dav">   30.21   30.28</time>
   <time name="total">   30.71   30.80</time>
   <energy>
    <i name="e_fr_energy">   -191.34937305 </i>
    <i name="e_wo_entrp">   -191.16282173 </i>
    <i name="e_0_energy">   -191.25609739 </i>
   </energy>
  </scstep>
  <scstep>
   <time name="dav">   27.07   27.13</time>
   <time name="total">   27.57   27.65</time>
   <energy>
    <i name="e_fr_energy">   -191.34212570 </i>
    <i name="e_wo_entrp">   -191.15411030 </i>
    <i name="e_0_energy">   -191.24811800 </i>
   </energy>
  </scstep>
  <scstep>
   <time name="dav">   30.51   30.58</time>
   <time name="total">   31.01   31.09</time>
   <energy>
    <i name="e_fr_energy">   -191.34361660 </i>
    <i name="e_wo_entrp">   -191.15532814 </i>
    <i name="e_0_energy">   -191.24947237 </i>
   </energy>
  </scstep>
  <scstep>
   <time name="dav">   28.55   28.62</time>
   <time name="total">   29.06   29.14</time>
   <energy>
    <i name="e_fr_energy">   -191.34243520 </i>
    <i name="e_wo_entrp">   -191.15417222 </i>
    <i name="e_0_energy">   -191.24830371 </i>
   </energy>
  </scstep>
  <scstep>
   <time name="dav">   26.08   26.14</time>
   <time name="total">   26.58   26.66</time>
   <energy>
    <i name="e_fr_energy">   -191.34226837 </i>
    <i name="e_wo_entrp">   -191.15393898 </i>
    <i name="e_0_energy">   -191.24810368 </i>
   </energy>
  </scstep>
  <scstep>
   <time name="dav">   20.49   20.54</time>
   <time name="total">   20.52   20.58</time>
   <energy>
    <i name="alphaZ">     90.31428395 </i>
    <i name="ewald">  44727.83048862 </i>
    <i name="hartreedc"> -50737.73352237 </i>
    <i name="XCdc">   -233.33449427 </i>
    <i name="pawpsdc">   4085.34695562 </i>
    <i name="pawaedc">  -3501.29450854 </i>
    <i name="eentropy">     -0.18828895 </i>
    <i name="bandstr">  -1383.72566976 </i>
    <i name="atom">   6761.44252427 </i>
    <i name="e_fr_energy">   -191.34223143 </i>
    <i name="e_wo_entrp">   -191.15394248 </i>
    <i name="e_0_energy">   -191.24808695 </i>
   </energy>
  </scstep>
  <structure>
   <crystal>
    <varray name="basis" >
     <v>       8.27197127       4.78265014       0.00000000 </v>
     <v>      -8.26625649       4.77279104       0.00000000 </v>
     <v>       0.00000000       0.00000000      30.00000000 </v>
    </varray>
    <i name="volume">   2370.45009451 </i>
    <varray name="rec_basis" >
     <v>       0.06040361       0.10461629       0.00000000 </v>
     <v>      -0.06052838       0.10468862       0.00000000 </v>
     <v>       0.00000000       0.00000000       0.03333333 </v>
    </varray>
   </crystal>
   <varray name="positions" >
    <v>       0.65662116       0.65673356      -0.00008643 </v>
    <v>      -0.00061954       0.66279170       0.00042688 </v>
    <v>       1.00691229       0.33778683       0.00005078 </v>
    <v>       0.33729375       0.66401019       0.00033507 </v>
    <v>       0.65200081       0.32262872      -0.00022556 </v>
    <v>       0.33732343       0.33395987      -0.00004102 </v>
    <v>       0.00952201       0.00744356      -0.00012314 </v>
    <v>       0.34554777       0.01122318       0.00002516 </v>
    <v>       0.65431825       0.00066792      -0.00031306 </v>
    <v>       0.10813513       0.22588284       0.94810988 </v>
    <v>       0.22280218       0.11088566       0.05319873 </v>
    <v>       0.10504485       0.55219459       0.94960410 </v>
    <v>       0.21554935       0.44083371       0.05162595 </v>
    <v>       0.10915319       0.88352676       0.94940883 </v>
    <v>       0.21662625       0.77592954       0.05037127 </v>
    <v>       0.44301244       0.22132321       0.94543360 </v>
    <v>       0.55506595       0.11036572       0.05466019 </v>
    <v>       0.45149547       0.55870573       0.94754261 </v>
    <v>       0.55905294       0.45136679       0.05255372 </v>
    <v>       0.44349901       0.88889780       0.94682082 </v>
    <v>       0.56016195       0.77552000       0.05173222 </v>
    <v>       0.78366908       0.22488786       0.94920471 </v>
    <v>       0.89106152       0.11678837       0.05035688 </v>
    <v>       0.78021882       0.56091950       0.95049962 </v>
    <v>       0.89369608       0.44678415       0.04929228 </v>
    <v>       0.77507027       0.88348350       0.95064023 </v>
    <v>       0.88598004       0.77267319       0.04889557 </v>
   </varray>
  </structure>
  <varray name="forces" >
   <v>       0.02655040      -0.34288175      -0.00403507 </v>
   <v>      -0.01152647      -0.10945283       0.05225894 </v>
   <v>       0.25149649       0.30481505       0.01223454 </v>
   <v>       0.18325312       0.00559862      -0.02548608 </v>
   <v>      -0.03252225      -0.29099313       0.02425088 </v>
   <v>       0.00895017      -0.08950191      -0.03982904 </v>
   <v>       0.24803202       0.45105969      -0.04606053 </v>
   <v>      -0.07430707       0.26857851      -0.06669613 </v>
   <v>      -0.46185644      -0.22301813       0.05750599 </v>
   <v>       0.01794219       0.12734878      -0.13095371 </v>
   <v>       0.07575103       0.09938409       0.19569855 </v>
   <v>       0.06596133       0.06985885      -0.02505127 </v>
   <v>       0.08259343       0.10946633       0.11569662 </v>
   <v>       0.07558716       0.15874148       0.02291020 </v>
   <v>       0.04416953       0.17955279      -0.12295690 </v>
   <v>      -0.09189674      -0.01408025      -0.27991165 </v>
   <v>      -0.03012178       0.00185037       0.35529305 </v>
   <v>       0.02293852      -0.07881350      -0.12740445 </v>
   <v>       0.07081600      -0.10322982       0.12182395 </v>
   <v>      -0.09588594      -0.13969317      -0.15363239 </v>
   <v>      -0.04095061       0.04718955       0.04575988 </v>
   <v>      -0.13669152      -0.07275961       0.07397682 </v>
   <v>      -0.03326447      -0.08090106      -0.18889768 </v>
   <v>       0.06562114      -0.20128773       0.01340376 </v>
   <v>      -0.04553511      -0.18681541      -0.09482431 </v>
   <v>      -0.11894308       0.07828283       0.31710967 </v>
   <v>      -0.06616103       0.03170135      -0.10218365 </v>
  </varray>
  <varray name="stress" >
   <v>      -0.15229565       0.19005260       0.28427167 </v>
   <v>       0.19005271       0.27774789       0.19278182 </v>
   <v>       0.28427155       0.19278188      -0.47967594 </v>
  </varray>
  <energy>
   <i name="e_fr_energy">   -191.34223143 </i>
   <i name="e_wo_entrp">   -191.24808695 </i>
   <i name="e_0_energy">     -0.18828895 </i>
  </energy>
  <time name="totalsc">  382.28  383.31</time>
 </calculation>
 <calculation>
  <scstep>
   <time name="dav">   21.70   21.76</time>
   <time name="total">   22.21   22.26</time>
   <energy>
    <i name="alphaZ">     90.28503560 </i>
    <i name="ewald">  44693.56456909 </i>
    <i name="hartreedc"> -50703.89597990 </i>
    <i name="XCdc">   -233.44141295 </i>
    <i name="pawpsdc">   4085.23347060 </i>
    <i name="pawaedc">  -3501.17572227 </i>
    <i name="eentropy">     -0.18954509 </i>
    <i name="bandstr">  -1383.24674601 </i>
    <i name="atom">   6761.44252427 </i>
    <i name="e_fr_energy">   -191.42380665 </i>
    <i name="e_wo_entrp">   -191.23426157 </i>
    <i name="e_0_energy">   -191.32903411 </i>
   </energy>
  </scstep>
  <scstep>
   <time name="dav">   33.08   33.16</time>
   <time name="total">   33.58   33.67</time>
   <energy>
    <i name="e_fr_energy">   -191.48937405 </i>
    <i name="e_wo_entrp">   -191.28877333 </i>
    <i name="e_0_energy">   -191.38907369 </i>
   </energy>
  </scstep>
  <scstep>
   <time name="dav">   30.32   30.39</time>
   <time name="total">   30.83   30.91</time>
   <energy>
    <i name="e_fr_energy">   -191.43791972 </i>
    <i name="e_wo_entrp">   -191.24765155 </i>
    <i name="e_0_energy">   -191.34278563 </i>
   </energy>
  </scstep>
  <scstep>
   <time name="dav">   28.76   28.83</time>
   <time name="total">   29.27   29.34</time>
   <energy>
    <i name="e_fr_energy">   -191.43867569 </i>
    <i name="e_wo_entrp">   -191.24733523 </i>
    <i name="e_0_energy">   -191.34300546 </i>
   </energy>
  </scstep>
  <scstep>
   <time name="dav">   29.36   29.43</time>
   <time name="total">   29.86   29.94</time>
   <energy>
    <i name="e_fr_energy">   -191.43392477 </i>
    <i name="e_wo_entrp">   -191.24246145 </i>
    <i name="e_0_energy">   -191.33819311 </i>
   </energy>
  </scstep>
  <scstep>
   <time name="dav">   27.13   27.20</time>
   <time name="total">   27.64   27.71</time>
   <energy>
    <i name="e_fr_energy">   -191.43359415 </i>
    <i name="e_wo_entrp">   -191.24197869 </i>
    <i name="e_0_energy">   -191.33778642 </i>
   </energy>
  </scstep>
  <scstep>
   <time name="dav">   26.18   26.25</time>
   <time name="total">   26.69   26.76</time>
   <energy>
    <i name="e_fr_energy">   -191.43335765 </i>
    <i name="e_wo_entrp">   -191.24166285 </i>
    <i name="e_0_energy">   -191.33751025 </i>
   </energy>
  </scstep>
  <scstep>
   <time name="dav">   22.35   22.40</time>
   <time name="total">   22.39   22.45</time>
   <energy>
    <i name="alphaZ">     90.28503560 </i>
    <i name="ewald">  44693.56456909 </i>
    <i name="hartreedc"> -50705.09451231 </i>
    <i name="XCdc">   -233.40624275 </i>
    <i name="pawpsdc">   4082.90775462 </i>
    <i name="pawaedc">  -3498.81143515 </i>
    <i name="eentropy">     -0.19152933 </i>
    <i name="bandstr">  -1382.12947287 </i>
    <i name="atom">   6761.44252427 </i>
    <i name="e_fr_energy">   -191.43330883 </i>
    <i name="e_wo_entrp">   -191.24177950 </i>
    <i name="e_0_energy">   -191.33754416 </i>
   </energy>
  </scstep>
  <structure>
   <crystal>
    <varray name="basis" >
     <v>       8.27101313       4.79030436       0.00000000 </v>
     <v>      -8.26049727       4.77212451       0.00000000 </v>
     <v>       0.00000000       0.00000000      30.00000000 </v>
    </varray>
    <i name="volume">   2371.21801530 </i>
    <varray name="rec_basis" >
     <v>       0.06037561       0.10450955       0.00000000 </v>
     <v>      -0.06060562       0.10464259       0.00000000 </v>
     <v>       0.00000000       0.00000000       0.03333333 </v>
    </varray>
   </crystal>
   <varray name="positions" >
    <v>       0.65496616       0.65492253      -0.00009297 </v>
    <v>      -0.00120578       0.66227209       0.00051100 </v>
    <v>       1.00918534       0.33859258       0.00007051 </v>
    <v>       0.33785686       0.66350303       0.00029411 </v>
    <v>       0.65043470       0.32125172      -0.00018656 </v>
    <v>       0.33689795       0.33348129      -0.00010506 </v>
    <v>       0.01252377       0.00899893      -0.00019727 </v>
    <v>       0.34668888       0.01279877      -0.00008214 </v>
    <v>       0.65184412       0.00089043      -0.00022061 </v>
    <v>       0.10883053       0.22647432       0.94789857 </v>
    <v>       0.22352505       0.11116675       0.05351421 </v>
    <v>       0.10558970       0.55235474       0.94956322 </v>
    <v>       0.21634257       0.44114534       0.05181266 </v>
    <v>       0.11017502       0.88410770       0.94944525 </v>
    <v>       0.21766136       0.77670759       0.05017388 </v>
    <v>       0.44267338       0.22152064       0.94498244 </v>
    <v>       0.55498754       0.11046322       0.05523263 </v>
    <v>       0.45116478       0.55824064       0.94733696 </v>
    <v>       0.55873832       0.45063864       0.05275041 </v>
    <v>       0.44251391       0.88847188       0.94657302 </v>
    <v>       0.56028104       0.77587789       0.05180644 </v>
    <v>       0.78290350       0.22491985       0.94932324 </v>
    <v>       0.89055617       0.11647718       0.05005338 </v>
    <v>       0.77939384       0.55971089       0.95052074 </v>
    <v>       0.89262010       0.44597329       0.04914015 </v>
    <v>       0.77511861       0.88422620       0.95115012 </v>
    <v>       0.88594701       0.77302634       0.04873156 </v>
   </varray>
  </structure>
  <varray name="forces" >
   <v>       0.07323311      -0.38869000       0.00083074 </v>
   <v>      -0.03202432      -0.16202030       0.10290654 </v>
   <v>       0.25102810       0.34128823       0.02219648 </v>
   <v>       0.21967197       0.00755641      -0.00444602 </v>
   <v>      -0.08094743      -0.30446404       0.00134827 </v>
   <v>      -0.02329546      -0.08774700      -0.01104258 </v>
   <v>       0.32712963       0.52079093      -0.02502458 </v>
   <v>      -0.09834850       0.29142852      -0.00997424 </v>
   <v>      -0.50296672      -0.28061977       0.00018540 </v>
   <v>       0.00670252       0.08897093      -0.15121286 </v>
   <v>       0.05154640       0.08003498       0.17421810 </v>
   <v>       0.04700731       0.04231448      -0.00364265 </v>
   <v>       0.05451108       0.08161124       0.10119448 </v>
   <v>       0.06034080       0.10418978      -0.00850153 </v>
   <v>       0.02317958       0.11998044      -0.18280733 </v>
   <v>      -0.07486550       0.00673181      -0.19962774 </v>
   <v>      -0.05413826      -0.02871351       0.25560661 </v>
   <v>       0.03059145      -0.04352234      -0.11654925 </v>
   <v>       0.02325377      -0.07669804       0.09612197 </v>
   <v>      -0.07395581      -0.09452914      -0.08256303 </v>
   <v>      -0.01947316       0.02983752       0.01360360 </v>
   <v>      -0.07480241      -0.05031915       0.12749678 </v>
   <v>      -0.00601869      -0.06429734      -0.24065915 </v>
   <v>       0.03483765      -0.13022204       0.02778559 </v>
   <v>      -0.00853369      -0.12466986      -0.12540666 </v>
   <v>      -0.08449514       0.09032053       0.39471750 </v>
   <v>      -0.06916829       0.03145676      -0.15675445 </v>
  </varray>
  <varray name="stress" >
   <v>      -0.05319304       0.05431931       0.13412273 </v>
   <v>       0.05431914      -0.02108032       0.03989927 </v>
   <v>       0.13412260       0.03989929      -1.23695982 </v>
  </varray>
  <energy>
   <i name="e_fr_energy">   -191.43330883 </i>
   <i name="e_wo_entrp">   -191.33754416 </i>
   <i name="e_0_energy">     -0.19152933 </i>
  </energy>
  <time name="totalsc">  264.51  265.21</time>
 </calculation>
 <calculation>
  <scstep>
   <time name="dav">   21.72   21.77</time>
   <time name="total">   22.22   22.28</time>
   <energy>
    <i name="alphaZ">     90.28729031 </i>
    <i name="ewald">  44695.23565003 </i>
    <i name="hartreedc"> -50706.76464129 </i>
    <i name="XCdc">   -233.40247181 </i>
    <i name="pawpsdc">   4082.87107665 </i>
    <i name="pawaedc">  -3498.77428277 </i>
    <i name="eentropy">     -0.19123992 </i>
    <i name="bandstr">  -1382.15421635 </i>
    <i name="atom">   6761.44252427 </i>
    <i name="e_fr_energy">   -191.45031087 </i>
    <i name="e_wo_entrp">   -191.25907095 </i>
    <i name="e_0_energy">   -191.35469091 </i>
   </energy>
  </scstep>
  <scstep>
   <time name="dav">   32.99   33.07</time>
   <time name="total">   33.49   33.58</time>
   <energy>
    <i name="e_fr_energy">   -191.45204429 </i>
    <i name="e_wo_entrp">   -191.25888740 </i>
    <i name="e_0_energy">   -191.35546584 </i>
   </energy>
  </scstep>
  <scstep>
   <time name="dav">   27.80   27.87</time>
   <time name="total">   28.30   28.38</time>
   <energy>
    <i name="e_fr_energy">   -191.45067003 </i>
    <i name="e_wo_entrp">   -191.25933879 </i>
    <i name="e_0_energy">   -191.35500441 </i>
   </energy>
  </scstep>
  <scstep>
   <time name="dav">   22.68   22.73</time>
   <time name="total">   22.71   22.78</time>
   <energy>
    <i name="alphaZ">     90.28729031 </i>
    <i name="ewald">  44695.23565003 </i>
    <i name="hartreedc"> -50706.98809459 </i>
    <i name="XCdc">   -233.40055507 </i>
    <i name="pawpsdc">   4083.09584800 </i>
    <i name="pawaedc">  -3499.00528030 </i>
    <i name="eentropy">     -0.19145584 </i>
    <i name="bandstr">  -1381.92667457 </i>
    <i name="atom">   6761.44252427 </i>
    <i name="e_fr_energy">   -191.45074777 </i>
    <i name="e_wo_entrp">   -191.25929193 </i>
    <i name="e_0_energy">   -191.35501985 </i>
   </energy>
  </scstep>
  <structure>
   <crystal>
    <varray name="basis" >
     <v>       8.27097208       4.79048895       0.00000000 </v>
     <v>      -8.26021364       4.77188946       0.00000000 </v>
     <v>       0.00000000       0.00000000      30.00000000 </v>
    </varray>
    <i name="volume">   2371.15879983 </i>
    <varray name="rec_basis" >
     <v>       0.06037414       0.10450857       0.00000000 </v>
     <v>      -0.06060947       0.10464468       0.00000000 </v>
[...]
      <set comment="kpoint 31">
       <r>  -17.5723    1.0000 </r>
       <r>  -17.2261    1.0000 </r>
       <r>  -16.9286    1.0000 </r>
       <r>  -16.5892    1.0000 </r>
       <r>  -16.5386    1.0000 </r>
       <r>  -16.4735    1.0000 </r>
       <r>  -16.2872    1.0000 </r>
       <r>  -16.2078    1.0000 </r>
       <r>  -16.1376    1.0000 </r>
       <r>  -16.0702    1.0000 </r>
       <r>  -15.9594    1.0000 </r>
       <r>  -15.9108    1.0000 </r>
       <r>  -15.7727    1.0000 </r>
       <r>  -15.6435    1.0000 </r>
       <r>  -15.6165    1.0000 </r>
       <r>  -15.4638    1.0000 </r>
       <r>  -15.3515    1.0000 </r>
       <r>  -15.2448    1.0000 </r>
       <r>   -9.7710    1.0000 </r>
       <r>   -9.5248    1.0000 </r>
       <r>   -9.2678    1.0000 </r>
       <r>   -9.0383    1.0000 </r>
       <r>   -8.8924    1.0000 </r>
       <r>   -8.7260    1.0000 </r>
       <r>   -8.5995    1.0000 </r>
       <r>   -8.5180    1.0000 </r>
       <r>   -8.4175    1.0000 </r>
       <r>   -8.3369    1.0000 </r>
       <r>   -8.2701    1.0000 </r>
       <r>   -8.2027    1.0000 </r>
       <r>   -8.1322    1.0000 </r>
       <r>   -8.0434    1.0000 </r>
       <r>   -7.9311    1.0000 </r>
       <r>   -7.9056    1.0000 </r>
       <r>   -7.7963    1.0000 </r>
       <r>   -7.6620    1.0000 </r>
       <r>   -7.5765    1.0000 </r>
       <r>   -7.5232    1.0000 </r>
       <r>   -7.3781    1.0000 </r>
       <r>   -7.2670    1.0000 </r>
       <r>   -7.2242    1.0000 </r>
       <r>   -7.0694    1.0000 </r>
       <r>   -7.0131    1.0000 </r>
       <r>   -6.9460    1.0000 </r>
       <r>   -6.7920    1.0000 </r>
       <r>   -6.7287    1.0000 </r>
       <r>   -6.6599    1.0000 </r>
       <r>   -6.6106    1.0000 </r>
       <r>   -6.5581    1.0000 </r>
       <r>   -6.5345    1.0000 </r>
       <r>   -6.4226    1.0000 </r>
       <r>   -6.3373    1.0000 </r>
       <r>   -6.2963    1.0000 </r>
       <r>   -6.1797    1.0000 </r>
       <r>   -6.0464    1.0000 </r>
       <r>   -6.0068    1.0000 </r>
       <r>   -5.9620    1.0000 </r>
       <r>   -5.8825    1.0000 </r>
       <r>   -5.8542    1.0000 </r>
       <r>   -5.7537    1.0000 </r>
       <r>   -5.7169    1.0000 </r>
       <r>   -5.6045    1.0000 </r>
       <r>   -5.5067    1.0000 </r>
       <r>   -5.4299    1.0000 </r>
       <r>   -5.3502    1.0000 </r>
       <r>   -5.1323    1.0000 </r>
       <r>   -5.0706    1.0000 </r>
       <r>   -4.8775    1.0000 </r>
       <r>   -4.7691    1.0000 </r>
       <r>   -4.7048    1.0000 </r>
       <r>   -4.5971    1.0000 </r>
       <r>   -4.3972    1.0000 </r>
       <r>   -4.3082    1.0000 </r>
       <r>   -4.1544    1.0000 </r>
       <r>   -4.0185    1.0000 </r>
       <r>   -3.8096    0.9994 </r>
       <r>   -3.7377    0.9967 </r>
       <r>   -3.6549    0.9833 </r>
       <r>   -3.5452    0.9117 </r>
       <r>   -3.5122    0.8682 </r>
       <r>   -3.0394    0.0130 </r>
       <r>   -2.8318    0.0001 </r>
       <r>   -2.7179    0.0000 </r>
       <r>   -2.5905    0.0000 </r>
       <r>   -2.5812    0.0000 </r>
       <r>   -2.4500    0.0000 </r>
       <r>   -2.2410    0.0000 </r>
       <r>   -2.1184    0.0000 </r>
       <r>   -2.0072    0.0000 </r>
       <r>   -1.8319    0.0000 </r>
       <r>   -1.6075    0.0000 </r>
       <r>   -1.5180    0.0000 </r>
       <r>   -1.4418    0.0000 </r>
       <r>   -1.3452    0.0000 </r>
       <r>   -1.2853    0.0000 </r>
       <r>   -1.2217    0.0000 </r>
       <r>   -1.1265    0.0000 </r>
       <r>   -1.0572    0.0000 </r>
       <r>   -0.9906    0.0000 </r>
       <r>   -0.8693    0.0000 </r>
       <r>   -0.8320    0.0000 </r>
       <r>   -0.7221    0.0000 </r>
       <r>   -0.6476    0.0000 </r>
       <r>   -0.5898    0.0000 </r>
       <r>   -0.3707    0.0000 </r>
       <r>   -0.2753    0.0000 </r>
       <r>   -0.1957    0.0000 </r>
       <r>   -0.1032    0.0000 </r>
       <r>    0.0395    0.0000 </r>
       <r>    0.0959    0.0000 </r>
       <r>    0.3577    0.0000 </r>
       <r>    0.5728    0.0000 </r>
       <r>    0.7006    0.0000 </r>
       <r>    1.0452    0.0000 </r>
       <r>    1.1444    0.0000 </r>
       <r>    1.2528    0.0000 </r>
       <r>    1.3456    0.0000 </r>
       <r>    2.1424    0.0000 </r>
       <r>    2.2851    0.0000 </r>
       <r>    2.4019    0.0000 </r>
      </set>
      <set comment="kpoint 32">
       <r>  -17.5630    1.0000 </r>
       <r>  -17.2018    1.0000 </r>
       <r>  -17.0193    1.0000 </r>
       <r>  -16.5880    1.0000 </r>
       <r>  -16.5134    1.0000 </r>
       <r>  -16.3344    1.0000 </r>
       <r>  -16.3017    1.0000 </r>
       <r>  -16.2613    1.0000 </r>
       <r>  -16.1712    1.0000 </r>
       <r>  -16.0495    1.0000 </r>
       <r>  -15.9734    1.0000 </r>
       <r>  -15.9314    1.0000 </r>
       <r>  -15.7899    1.0000 </r>
       <r>  -15.6369    1.0000 </r>
       <r>  -15.6101    1.0000 </r>
       <r>  -15.4575    1.0000 </r>
       <r>  -15.3497    1.0000 </r>
       <r>  -15.2405    1.0000 </r>
       <r>   -9.7165    1.0000 </r>
       <r>   -9.6253    1.0000 </r>
       <r>   -9.3421    1.0000 </r>
       <r>   -8.9897    1.0000 </r>
       <r>   -8.7575    1.0000 </r>
       <r>   -8.6553    1.0000 </r>
       <r>   -8.5660    1.0000 </r>
       <r>   -8.4853    1.0000 </r>
       <r>   -8.4130    1.0000 </r>
       <r>   -8.3383    1.0000 </r>
       <r>   -8.3026    1.0000 </r>
       <r>   -8.2753    1.0000 </r>
       <r>   -8.1901    1.0000 </r>
       <r>   -8.0731    1.0000 </r>
       <r>   -8.0092    1.0000 </r>
       <r>   -7.9127    1.0000 </r>
       <r>   -7.8645    1.0000 </r>
       <r>   -7.6018    1.0000 </r>
       <r>   -7.5356    1.0000 </r>
       <r>   -7.4972    1.0000 </r>
       <r>   -7.3207    1.0000 </r>
       <r>   -7.2914    1.0000 </r>
       <r>   -7.2078    1.0000 </r>
       <r>   -7.1097    1.0000 </r>
       <r>   -6.9955    1.0000 </r>
       <r>   -6.9682    1.0000 </r>
       <r>   -6.8279    1.0000 </r>
       <r>   -6.7680    1.0000 </r>
       <r>   -6.6787    1.0000 </r>
       <r>   -6.6296    1.0000 </r>
       <r>   -6.5453    1.0000 </r>
       <r>   -6.5243    1.0000 </r>
       <r>   -6.4156    1.0000 </r>
       <r>   -6.3573    1.0000 </r>
       <r>   -6.2806    1.0000 </r>
       <r>   -6.1298    1.0000 </r>
       <r>   -6.0465    1.0000 </r>
       <r>   -5.9877    1.0000 </r>
       <r>   -5.9384    1.0000 </r>
       <r>   -5.9174    1.0000 </r>
       <r>   -5.8107    1.0000 </r>
       <r>   -5.7146    1.0000 </r>
       <r>   -5.6563    1.0000 </r>
       <r>   -5.5981    1.0000 </r>
       <r>   -5.5116    1.0000 </r>
       <r>   -5.4194    1.0000 </r>
       <r>   -5.3344    1.0000 </r>
       <r>   -5.2493    1.0000 </r>
       <r>   -5.0173    1.0000 </r>
       <r>   -4.8860    1.0000 </r>
       <r>   -4.8311    1.0000 </r>
       <r>   -4.7102    1.0000 </r>
       <r>   -4.5676    1.0000 </r>
       <r>   -4.4688    1.0000 </r>
       <r>   -4.2871    1.0000 </r>
       <r>   -4.1412    1.0000 </r>
       <r>   -4.0011    1.0000 </r>
       <r>   -3.8602    0.9998 </r>
       <r>   -3.7594    0.9979 </r>
       <r>   -3.6766    0.9887 </r>
       <r>   -3.4919    0.8352 </r>
       <r>   -3.4654    0.7845 </r>
       <r>   -3.0779    0.0254 </r>
       <r>   -2.8447    0.0002 </r>
       <r>   -2.6902    0.0000 </r>
       <r>   -2.5949    0.0000 </r>
       <r>   -2.5467    0.0000 </r>
       <r>   -2.4546    0.0000 </r>
       <r>   -2.2379    0.0000 </r>
       <r>   -2.1035    0.0000 </r>
       <r>   -2.0137    0.0000 </r>
       <r>   -1.8828    0.0000 </r>
       <r>   -1.6173    0.0000 </r>
       <r>   -1.5453    0.0000 </r>
       <r>   -1.4440    0.0000 </r>
       <r>   -1.3412    0.0000 </r>
       <r>   -1.2563    0.0000 </r>
       <r>   -1.2336    0.0000 </r>
       <r>   -1.0942    0.0000 </r>
       <r>   -1.0067    0.0000 </r>
       <r>   -0.9714    0.0000 </r>
       <r>   -0.9037    0.0000 </r>
       <r>   -0.8240    0.0000 </r>
       <r>   -0.7317    0.0000 </r>
       <r>   -0.6206    0.0000 </r>
       <r>   -0.5932    0.0000 </r>
       <r>   -0.3534    0.0000 </r>
       <r>   -0.2901    0.0000 </r>
       <r>   -0.1980    0.0000 </r>
       <r>   -0.1043    0.0000 </r>
       <r>    0.0711    0.0000 </r>
       <r>    0.1364    0.0000 </r>
       <r>    0.3166    0.0000 </r>
       <r>    0.5475    0.0000 </r>
       <r>    0.7266    0.0000 </r>
       <r>    0.9895    0.0000 </r>
       <r>    1.0968    0.0000 </r>
       <r>    1.2826    0.0000 </r>
       <r>    1.3525    0.0000 </r>
       <r>    2.1116    0.0000 </r>
       <r>    2.2564    0.0000 </r>
       <r>    2.5789    0.0000 </r>
      </set>
      <set comment="kpoint 33">
       <r>  -17.5259    1.0000 </r>
       <r>  -17.3151    1.0000 </r>
       <r>  -16.8940    1.0000 </r>
       <r>  -16.5940    1.0000 </r>
       <r>  -16.5117    1.0000 </r>
       <r>  -16.4697    1.0000 </r>
       <r>  -16.3114    1.0000 </r>
       <r>  -16.1984    1.0000 </r>
       <r>  -16.1521    1.0000 </r>
       <r>  -16.0425    1.0000 </r>
       <r>  -15.9812    1.0000 </r>
       <r>  -15.8687    1.0000 </r>
       <r>  -15.8055    1.0000 </r>
       <r>  -15.6666    1.0000 </r>
       <r>  -15.5979    1.0000 </r>
       <r>  -15.4716    1.0000 </r>
       <r>  -15.3467    1.0000 </r>
       <r>  -15.2400    1.0000 </r>
       <r>   -9.8150    1.0000 </r>
       <r>   -9.4583    1.0000 </r>
       <r>   -9.3273    1.0000 </r>
       <r>   -8.9654    1.0000 </r>
       <r>   -8.8124    1.0000 </r>
       <r>   -8.7512    1.0000 </r>
       <r>   -8.6396    1.0000 </r>
       <r>   -8.5705    1.0000 </r>
       <r>   -8.4171    1.0000 </r>
       <r>   -8.3380    1.0000 </r>
       <r>   -8.2649    1.0000 </r>
       <r>   -8.2114    1.0000 </r>
       <r>   -8.1235    1.0000 </r>
       <r>   -8.0697    1.0000 </r>
       <r>   -7.9726    1.0000 </r>
       <r>   -7.8983    1.0000 </r>
       <r>   -7.8103    1.0000 </r>
       <r>   -7.6434    1.0000 </r>
       <r>   -7.5607    1.0000 </r>
       <r>   -7.4979    1.0000 </r>
       <r>   -7.3641    1.0000 </r>
       <r>   -7.2728    1.0000 </r>
       <r>   -7.1198    1.0000 </r>
       <r>   -7.0748    1.0000 </r>
       <r>   -7.0358    1.0000 </r>
       <r>   -6.9338    1.0000 </r>
       <r>   -6.8841    1.0000 </r>
       <r>   -6.7721    1.0000 </r>
       <r>   -6.6693    1.0000 </r>
       <r>   -6.6287    1.0000 </r>
       <r>   -6.5669    1.0000 </r>
       <r>   -6.5223    1.0000 </r>
       <r>   -6.4333    1.0000 </r>
       <r>   -6.3223    1.0000 </r>
       <r>   -6.2507    1.0000 </r>
       <r>   -6.1572    1.0000 </r>
       <r>   -6.0827    1.0000 </r>
       <r>   -6.0103    1.0000 </r>
       <r>   -5.9533    1.0000 </r>
       <r>   -5.8977    1.0000 </r>
       <r>   -5.8500    1.0000 </r>
       <r>   -5.7520    1.0000 </r>
       <r>   -5.6942    1.0000 </r>
       <r>   -5.6345    1.0000 </r>
       <r>   -5.5169    1.0000 </r>
       <r>   -5.3991    1.0000 </r>
       <r>   -5.3235    1.0000 </r>
       <r>   -5.1461    1.0000 </r>
       <r>   -5.0328    1.0000 </r>
       <r>   -4.9023    1.0000 </r>
       <r>   -4.7467    1.0000 </r>
       <r>   -4.6678    1.0000 </r>
       <r>   -4.5703    1.0000 </r>
       <r>   -4.4465    1.0000 </r>
       <r>   -4.2846    1.0000 </r>
       <r>   -4.1578    1.0000 </r>
       <r>   -4.0031    1.0000 </r>
       <r>   -3.8868    0.9999 </r>
       <r>   -3.8208    0.9995 </r>
       <r>   -3.6979    0.9925 </r>
       <r>   -3.4796    0.8125 </r>
       <r>   -3.4312    0.7073 </r>
       <r>   -3.1310    0.0573 </r>
       <r>   -2.8624    0.0003 </r>
       <r>   -2.6770    0.0000 </r>
       <r>   -2.5938    0.0000 </r>
       <r>   -2.5031    0.0000 </r>
       <r>   -2.4518    0.0000 </r>
       <r>   -2.2384    0.0000 </r>
       <r>   -2.0761    0.0000 </r>
       <r>   -1.9997    0.0000 </r>
       <r>   -1.9026    0.0000 </r>
       <r>   -1.6331    0.0000 </r>
       <r>   -1.5784    0.0000 </r>
       <r>   -1.4296    0.0000 </r>
       <r>   -1.3434    0.0000 </r>
       <r>   -1.2483    0.0000 </r>
       <r>   -1.2085    0.0000 </r>
       <r>   -1.1036    0.0000 </r>
       <r>   -1.0064    0.0000 </r>
       <r>   -0.9442    0.0000 </r>
       <r>   -0.8941    0.0000 </r>
       <r>   -0.8099    0.0000 </r>
       <r>   -0.7311    0.0000 </r>
       <r>   -0.6329    0.0000 </r>
       <r>   -0.5638    0.0000 </r>
       <r>   -0.4177    0.0000 </r>
       <r>   -0.3090    0.0000 </r>
       <r>   -0.2443    0.0000 </r>
       <r>   -0.1050    0.0000 </r>
       <r>    0.1000    0.0000 </r>
       <r>    0.2541    0.0000 </r>
       <r>    0.3039    0.0000 </r>
       <r>    0.5353    0.0000 </r>
       <r>    0.6855    0.0000 </r>
       <r>    0.9736    0.0000 </r>
       <r>    1.1006    0.0000 </r>
       <r>    1.3154    0.0000 </r>
       <r>    1.3635    0.0000 </r>
       <r>    2.1442    0.0000 </r>
       <r>    2.2925    0.0000 </r>
       <r>    2.4036    0.0000 </r>
      </set>
      <set comment="kpoint 34">
       <r>  -17.4805    1.0000 </r>
       <r>  -17.3957    1.0000 </r>
       <r>  -16.7402    1.0000 </r>
       <r>  -16.6746    1.0000 </r>
       <r>  -16.5552    1.0000 </r>
       <r>  -16.5126    1.0000 </r>
       <r>  -16.3118    1.0000 </r>
       <r>  -16.1944    1.0000 </r>
       <r>  -16.1237    1.0000 </r>
       <r>  -16.0406    1.0000 </r>
       <r>  -15.9792    1.0000 </r>
       <r>  -15.8333    1.0000 </r>
       <r>  -15.7761    1.0000 </r>
       <r>  -15.7115    1.0000 </r>
       <r>  -15.5931    1.0000 </r>
       <r>  -15.4848    1.0000 </r>
       <r>  -15.3449    1.0000 </r>
       <r>  -15.2408    1.0000 </r>
       <r>   -9.8528    1.0000 </r>
       <r>   -9.3338    1.0000 </r>
       <r>   -9.2809    1.0000 </r>
       <r>   -9.0118    1.0000 </r>
       <r>   -8.8918    1.0000 </r>
       <r>   -8.8112    1.0000 </r>
       <r>   -8.7074    1.0000 </r>
       <r>   -8.5899    1.0000 </r>
       <r>   -8.4160    1.0000 </r>
       <r>   -8.3497    1.0000 </r>
       <r>   -8.2227    1.0000 </r>
       <r>   -8.1633    1.0000 </r>
       <r>   -8.1602    1.0000 </r>
       <r>   -7.9992    1.0000 </r>
       <r>   -7.9572    1.0000 </r>
       <r>   -7.8874    1.0000 </r>
       <r>   -7.6923    1.0000 </r>
       <r>   -7.6301    1.0000 </r>
       <r>   -7.5685    1.0000 </r>
       <r>   -7.5545    1.0000 </r>
       <r>   -7.4079    1.0000 </r>
       <r>   -7.3430    1.0000 </r>
       <r>   -7.1430    1.0000 </r>
       <r>   -7.0051    1.0000 </r>
       <r>   -6.9712    1.0000 </r>
       <r>   -6.9424    1.0000 </r>
       <r>   -6.8746    1.0000 </r>
       <r>   -6.7452    1.0000 </r>
       <r>   -6.6899    1.0000 </r>
       <r>   -6.6216    1.0000 </r>
       <r>   -6.5827    1.0000 </r>
       <r>   -6.4773    1.0000 </r>
       <r>   -6.4445    1.0000 </r>
       <r>   -6.3613    1.0000 </r>
       <r>   -6.2698    1.0000 </r>
       <r>   -6.1793    1.0000 </r>
       <r>   -6.0749    1.0000 </r>
       <r>   -6.0535    1.0000 </r>
       <r>   -5.9957    1.0000 </r>
       <r>   -5.8864    1.0000 </r>
       <r>   -5.8585    1.0000 </r>
       <r>   -5.7314    1.0000 </r>
       <r>   -5.6925    1.0000 </r>
       <r>   -5.6215    1.0000 </r>
       <r>   -5.5952    1.0000 </r>
       <r>   -5.4424    1.0000 </r>
       <r>   -5.3296    1.0000 </r>
       <r>   -5.0212    1.0000 </r>
       <r>   -4.9810    1.0000 </r>
       <r>   -4.9236    1.0000 </r>
       <r>   -4.7830    1.0000 </r>
       <r>   -4.6288    1.0000 </r>
       <r>   -4.5431    1.0000 </r>
       <r>   -4.3506    1.0000 </r>
       <r>   -4.3299    1.0000 </r>
       <r>   -4.1839    1.0000 </r>
       <r>   -4.0068    1.0000 </r>
       <r>   -3.8872    0.9999 </r>
       <r>   -3.8691    0.9999 </r>
       <r>   -3.7108    0.9942 </r>
       <r>   -3.4813    0.8157 </r>
       <r>   -3.4198    0.6789 </r>
       <r>   -3.1565    0.0812 </r>
       <r>   -2.8716    0.0003 </r>
       <r>   -2.6779    0.0000 </r>
       <r>   -2.5900    0.0000 </r>
       <r>   -2.4895    0.0000 </r>
       <r>   -2.4396    0.0000 </r>
       <r>   -2.2442    0.0000 </r>
       <r>   -2.0608    0.0000 </r>
       <r>   -1.9853    0.0000 </r>
       <r>   -1.8980    0.0000 </r>
       <r>   -1.6500    0.0000 </r>
       <r>   -1.5910    0.0000 </r>
       <r>   -1.4204    0.0000 </r>
       <r>   -1.3455    0.0000 </r>
       <r>   -1.2452    0.0000 </r>
       <r>   -1.1771    0.0000 </r>
       <r>   -1.1430    0.0000 </r>
       <r>   -1.0003    0.0000 </r>
       <r>   -0.9293    0.0000 </r>
       <r>   -0.8823    0.0000 </r>
       <r>   -0.8055    0.0000 </r>
       <r>   -0.7455    0.0000 </r>
       <r>   -0.6241    0.0000 </r>
       <r>   -0.5539    0.0000 </r>
       <r>   -0.4497    0.0000 </r>
       <r>   -0.3538    0.0000 </r>
       <r>   -0.2430    0.0000 </r>
       <r>   -0.1020    0.0000 </r>
       <r>    0.0929    0.0000 </r>
       <r>    0.3047    0.0000 </r>
       <r>    0.3403    0.0000 </r>
       <r>    0.5175    0.0000 </r>
       <r>    0.6564    0.0000 </r>
       <r>    0.9742    0.0000 </r>
       <r>    1.1151    0.0000 </r>
       <r>    1.3296    0.0000 </r>
       <r>    1.3717    0.0000 </r>
       <r>    2.2296    0.0000 </r>
       <r>    2.2543    0.0000 </r>
       <r>    2.3744    0.0000 </r>
      </set>
     </set>
    </set>
   </array>
  </eigenvalues>
  <separator name="orbital magnetization" >
   <v name="MAGDIPOLOUT">      0.00000000      0.00000000      0.00000000</v>
  </separator>
 </calculation>
 <structure name="finalpos" >
  <crystal>
   <varray name="basis" >
    <v>       8.33601638       4.83644480       0.00000000 </v>
    <v>      -8.31700582       4.80362558       0.00000000 </v>
    <v>       0.00000000       0.00000000      30.00000000 </v>
   </varray>
   <i name="volume">   2408.03523197 </i>
   <varray name="rec_basis" >
    <v>       0.05984496       0.10361567       0.00000000 </v>
    <v>      -0.06025383       0.10385251       0.00000000 </v>
    <v>       0.00000000       0.00000000       0.03333333 </v>
   </varray>
  </crystal>
  <varray name="positions" >
   <v>       0.63521713       0.63316489       0.00099191 </v>
   <v>       0.03361502       0.67144148      -0.00091670 </v>
   <v>       1.03791622       0.35753529      -0.00091385 </v>
   <v>       0.33705870       0.66406628       0.00014046 </v>
   <v>       0.62937948       0.31191788       0.00198419 </v>
   <v>       0.33653869       0.33479808      -0.00048590 </v>
   <v>      -0.00590649       0.02743830      -0.00000606 </v>
   <v>       0.35802645       0.00620383      -0.00118162 </v>
   <v>       0.64226761      -0.00144223       0.00073963 </v>
   <v>       0.10991364       0.22944585       0.94546474 </v>
   <v>       0.21542619       0.10105228       0.04900999 </v>
   <v>       0.11707441       0.55543102       0.94611781 </v>
   <v>       0.22543180       0.44585603       0.05335713 </v>
   <v>       0.10969958       0.88907278       0.95240152 </v>
   <v>       0.22655427       0.77879830       0.05189242 </v>
   <v>       0.43566530       0.21514039       0.94453215 </v>
   <v>       0.54969929       0.10744504       0.05797695 </v>
   <v>       0.44816175       0.55239829       0.94603181 </v>
   <v>       0.54987598       0.44317298       0.05567488 </v>
   <v>       0.44367933       0.88493395       0.94466385 </v>
   <v>       0.56467758       0.77732085       0.05193617 </v>
   <v>       0.78465483       0.23066608       0.95491960 </v>
   <v>       0.89093481       0.13120909       0.05066062 </v>
   <v>       0.77706033       0.55369465       0.95518587 </v>
   <v>       0.89215593       0.44619177       0.04424698 </v>
   <v>       0.76693573       0.87863761       0.95330522 </v>
   <v>       0.88650090       0.77262369       0.04227010 </v>
  </varray>
 </structure>
</modeling>
