unknown system                          
           1
     8.855603    5.106350    0.000000
    -8.854544    5.104528    0.000000
     0.000000    0.000000   30.000000
   V    Mo   W    S 
   3   3   3  18
Direct configuration=     1
   0.00000000  0.00000000  0.00000000
   0.00000000  0.66666669  0.00000000
   0.66666669  0.33333334  0.00000000
   1.00000000  0.33333334  0.00000000
   0.33333334  0.00000000  0.00000000
   0.33333334  0.33333334  0.00000000
   0.33333334  0.66666669  0.00000000
   0.66666669  0.00000000  0.00000000
   0.66666669  0.66666669  0.00000000
   0.11068511  0.22244981  0.95539999
   0.22244981  0.11068511  0.04460000
   0.11068511  0.55578315  0.95539999
   0.22244981  0.44401845  0.04460000
   0.11068511  0.88911647  0.95539999
   0.22244981  0.77735180  0.04460000
   0.44401845  0.22244981  0.95539999
   0.55578315  0.11068511  0.04460000
   0.44401845  0.55578315  0.95539999
   0.55578315  0.44401845  0.04460000
   0.44401845  0.88911647  0.95539999
   0.55578315  0.77735180  0.04460000
   0.77735180  0.22244981  0.95539999
   0.88911647  0.11068511  0.04460000
   0.77735180  0.55578315  0.95539999
   0.88911647  0.44401845  0.04460000
   0.77735180  0.88911647  0.95539999
   0.88911647  0.77735180  0.04460000
unknown system                          
           1
     8.667223    4.999754    0.000000
    -8.666388    4.998321    0.000000
     0.000000    0.000000   30.000000
   V    Mo   W    S 
   3   3   3  18
Direct configuration=     2
   0.00237553  0.00189041 -0.00018978
   0.00069371  0.66660836  0.00004296
   0.66590193  0.33255943  0.00019714
   1.00114358  0.33340739  0.00011210
   0.33304737  0.00139652 -0.00011482
   0.33198124  0.33187906 -0.00023153
   0.33157282  0.66512174  0.00000759
   0.66684437  0.00171196  0.00019203
   0.66591669  0.66516004  0.00002128
   0.10882049  0.21754345  0.95186789
   0.21767666  0.10876408  0.04810119
   0.10965895  0.55840272  0.95196059
   0.22265213  0.44543907  0.04923913
   0.10656642  0.88691471  0.95310271
   0.21816860  0.77505854  0.04806037
   0.44872895  0.22433191  0.95194473
   0.55828235  0.11517750  0.04815230
   0.44474212  0.55621413  0.95070638
   0.55851622  0.44288070  0.04800265
   0.44470513  0.88822863  0.95080927
   0.55540821  0.77783645  0.04930909
   0.77488060  0.22362855  0.95200375
   0.89016126  0.10809701  0.04796821
   0.77941240  0.55374006  0.95304635
   0.88654770  0.44644933  0.04691723
   0.78155010  0.89058755  0.95193188
   0.89225892  0.77918516  0.04683922
unknown system                          
           1
     8.487306    4.900649    0.000000
    -8.486787    4.899762    0.000000
     0.000000    0.000000   30.000000
   V    Mo   W    S 
   3   3   3  18
Direct configuration=     3
   0.00314264  0.00259318 -0.00021534
   0.00099843  0.66658546  0.00009447
   0.66559760  0.33216367  0.00021912
   1.00180759  0.33351788  0.00015434
   0.33326515  0.00185161 -0.00016331
   0.33151138  0.33170134 -0.00025705
   0.33127793  0.66456772  0.00001354
   0.66668817  0.00201176  0.00016425
   0.66526912  0.66481038  0.00002702
   0.10872146  0.21736902  0.95175283
   0.21751957  0.10866358  0.04816678
   0.10981868  0.55854076  0.95191924
   0.22280311  0.44565357  0.04931930
   0.10647829  0.88686081  0.95311897
   0.21816881  0.77488786  0.04803054
   0.44888719  0.22443450  0.95189740
   0.55849049  0.11522562  0.04821086
   0.44481569  0.55642754  0.95067975
   0.55866190  0.44304614  0.04800390
   0.44483943  0.88811783  0.95086663
   0.55539446  0.77783481  0.04925166
   0.77474894  0.22346749  0.95203366
   0.88997025  0.10790604  0.04796028
   0.77931778  0.55382532  0.95313536
   0.88653037  0.44648804  0.04684657
   0.78141172  0.89054292  0.95205713
   0.89207831  0.77911960  0.04671201
unknown system                          
           1
     8.268900    4.775144    0.000000
    -8.267923    4.773463    0.000000
     0.000000    0.000000   30.000000
   V    Mo   W    S 
   3   3   3  18
Direct configuration=     4
   0.00582780  0.00530838 -0.00021567
   0.00234220  0.66647604  0.00026853
   0.66411132  0.33026222  0.00021951
   1.00466974  0.33404791  0.00024380
   0.33464475  0.00350217 -0.00026463
   0.32991825  0.33176705 -0.00024486
   0.33092359  0.66255962  0.00002692
   0.66550084  0.00243188 -0.00001378
   0.66215430  0.66372888  0.00004296
   0.10798070  0.21599634  0.94983164
   0.21624904  0.10796946  0.04981246
   0.10912675  0.55896272  0.95029486
   0.22306535  0.44558556  0.05125495
   0.10536739  0.88620132  0.95187299
   0.21712409  0.77444600  0.04932808
   0.45031592  0.22533923  0.95029677
   0.55909116  0.11656117  0.04994124
   0.44463323  0.55638438  0.94892109
   0.55896518  0.44234126  0.04945842
   0.44488981  0.88798658  0.94950979
   0.55526646  0.77786002  0.05067978
   0.77447365  0.22423133  0.95072834
   0.89045811  0.10716850  0.04937271
   0.77977607  0.55334339  0.95215728
   0.88608806  0.44701085  0.04786501
   0.78234361  0.89106240  0.95109169
   0.89290709  0.77967979  0.04752002
unknown system                          
           1
     8.268877    4.775442    0.000000
    -8.265118    4.768943    0.000000
     0.000000    0.000000   30.000000
   V    Mo   W    S 
   3   3   3  18
Direct configuration=     5
   0.01104595  0.01063832 -0.00002365
   0.00505456  0.66622081  0.00048171
   0.66082562  0.32598886  0.00003608
   1.01108107  0.33545513  0.00023604
   0.33806138  0.00705249 -0.00031057
   0.32692900  0.33310672 -0.00012252
   0.33084223  0.65794778  0.00004049
   0.66233719  0.00282221 -0.00028042
   0.65558384  0.66142995  0.00008543
   0.10757904  0.21487152  0.94687884
   0.21534363  0.10752428  0.05206413
   0.10827547  0.55891399  0.94807289
   0.22314876  0.44497634  0.05418234
   0.10475967  0.88583513  0.95001619
   0.21646172  0.77448804  0.05100726
   0.45148111  0.22649934  0.94802691
   0.55940431  0.11811012  0.05255169
   0.44356082  0.55528929  0.94619378
   0.55844580  0.44107466  0.05143694
   0.44415676  0.88760251  0.94769873
   0.55459881  0.77807004  0.05274801
   0.77515834  0.22574197  0.94916486
   0.89119927  0.10676562  0.05111863
   0.77997713  0.55270655  0.95098558
   0.88592545  0.44710470  0.04935209
   0.78352820  0.89162306  0.94996520
   0.89344933  0.78035503  0.04839322
unknown system                          
           1
     8.269891    4.776168    0.000000
    -8.265638    4.768813    0.000000
     0.000000    0.000000   30.000000
   V    Mo   W    S 
   3   3   3  18
Direct configuration=     6
   0.01298004  0.01212196 -0.00003848
   0.00597439  0.66624299  0.00052796
   0.65962154  0.32444478 -0.00000440
   1.01293918  0.33619737  0.00018386
   0.33926207  0.00813095 -0.00033285
   0.32668004  0.33424891 -0.00013337
   0.33118997  0.65640084  0.00008344
   0.66050027  0.00243269 -0.00025065
   0.65337158  0.66043832  0.00010687
   0.10801994  0.21530758  0.94659879
   0.21603182  0.10805096  0.05223708
   0.10863215  0.55864280  0.94793553
   0.22310816  0.44480799  0.05460898
   0.10539478  0.88632808  0.94997712
   0.21735180  0.77478522  0.05093399
   0.45091088  0.22668522  0.94789996
   0.55927414  0.11802473  0.05284396
   0.44284761  0.55458814  0.94574947
   0.55780032  0.44088846  0.05149459
   0.44327242  0.88708635  0.94764198
   0.55405739  0.77817540  0.05296436
   0.77601445  0.22605942  0.94927688
   0.89114550  0.10716053  0.05095954
   0.77947859  0.55264337  0.95115048
   0.88621008  0.44643232  0.04926668
   0.78328835  0.89154874  0.95021886
   0.89285699  0.78034033  0.04809927
unknown system                          
           1
     8.264853    4.772569    0.000000
    -8.262179    4.767950    0.000000
     0.000000    0.000000   30.000000
   V    Mo   W    S 
   3   3   3  18
Direct configuration=     7
   0.01438968  0.01300730 -0.00002793
   0.00658925  0.66629119  0.00058457
   0.65890553  0.32349456 -0.00004005
   1.01422428  0.33682978  0.00018065
   0.33997982  0.00888238 -0.00033344
   0.32653865  0.33491238 -0.00010892
   0.33140583  0.65541796  0.00010565
   0.65913356  0.00210799 -0.00027688
   0.65187562  0.65974774  0.00009956
   0.10824532  0.21549963  0.94645708
   0.21637032  0.10833426  0.05229247
   0.10884891  0.55857741  0.94786766
   0.22311729  0.44474155  0.05481762
   0.10567964  0.88657606  0.94997400
   0.21780128  0.77491306  0.05085447
   0.45069759  0.22682558  0.94784301
   0.55919762  0.11801225  0.05301519
   0.44254278  0.55431308  0.94550998
   0.55752705  0.44080046  0.05152936
   0.44280468  0.88677964  0.94763535
   0.55379595  0.77818743  0.05307817
   0.77633247  0.22612727  0.94939253
   0.89104775  0.10725701  0.05079747
   0.77920984  0.55260689  0.95129288
   0.88629232  0.44611040  0.04915942
   0.78312551  0.89152485  0.95043043
   0.89253592  0.78033635  0.04786959
unknown system                          
           1
     8.258799    4.765930    0.000000
    -8.258477    4.765386    0.000000
     0.000000    0.000000   30.000000
   V    Mo   W    S 
   3   3   3  18
Direct configuration=     8
   0.01231639  0.01191175 -0.00001126
   0.00567269  0.66607741  0.00050543
   0.65969483  0.32454061 -0.00000834
   1.01268992  0.33602312  0.00020553
   0.33931762  0.00795293 -0.00031074
   0.32672130  0.33443880 -0.00010528
   0.33108050  0.65634387  0.00008361
   0.66117021  0.00278853 -0.00027282
   0.65367759  0.66055816  0.00008966
   0.10805703  0.21535391  0.94654321
   0.21606879  0.10804474  0.05221874
   0.10862561  0.55858624  0.94792060
   0.22304056  0.44473045  0.05458176
   0.10547909  0.88633590  0.94995896
   0.21732296  0.77478718  0.05096217
   0.45087111  0.22667310  0.94790616
   0.55929026  0.11804084  0.05282895
   0.44283212  0.55456253  0.94577363
   0.55766265  0.44077265  0.05147672
   0.44343721  0.88717615  0.94764351
   0.55401851  0.77821630  0.05296853
   0.77607590  0.22617202  0.94921776
   0.89124027  0.10731101  0.05109966
   0.77945561  0.55261077  0.95109670
   0.88623920  0.44637862  0.04932274
   0.78327215  0.89151498  0.95010713
   0.89288440  0.78031189  0.04819718
unknown system                          
           1
     8.254345    4.763920    0.000000
    -8.252685    4.761057    0.000000
     0.000000    0.000000   30.000000
   V    Mo   W    S 
   3   3   3  18
Direct configuration=     9
   0.00747400  0.01000776  0.00000825
   0.00371020  0.66548872  0.00033368
   0.66111423  0.32637626  0.00003739
   1.00984075  0.33400334  0.00012441
   0.33828314  0.00590055 -0.00031183
   0.32673816  0.33414398 -0.00020425
   0.33003907  0.65742297  0.00004333
   0.66630443  0.00493200 -0.00024839
   0.65712539  0.66225796  0.00016451
   0.10775698  0.21514924  0.94671450
   0.21555919  0.10755224  0.05200984
   0.10830092  0.55848646  0.94800820
   0.22276621  0.44471071  0.05435635
   0.10527380  0.88597244  0.95004016
   0.21649992  0.77440725  0.05114047
   0.45093660  0.22638883  0.94804889
   0.55971469  0.11817261  0.05256068
   0.44318138  0.55488695  0.94613818
   0.55765974  0.44057367  0.05139679
   0.44478431  0.88772022  0.94772590
   0.55433047  0.77841636  0.05270368
   0.77601199  0.22661294  0.94875233
   0.89179484  0.10774810  0.05192820
   0.77978086  0.55255193  0.95062694
   0.88622213  0.44667576  0.04971122
   0.78356028  0.89143849  0.94932974
   0.89345078  0.78021670  0.04886069
unknown system                          
           1
     8.261417    4.768259    0.000000
    -8.259155    4.764353    0.000000
     0.000000    0.000000   30.000000
   V    Mo   W    S 
   3   3   3  18
Direct configuration=    10
   0.00712063  0.01070503  0.00006170
   0.00389708  0.66547519  0.00039927
   0.66065933  0.32567251  0.00002625
   1.01021479  0.33337846  0.00019440
   0.33897451  0.00610128 -0.00030793
   0.32648537  0.33500661 -0.00010887
   0.32964400  0.65611717  0.00005668
   0.66718961  0.00588305 -0.00025283
   0.65635140  0.66198413  0.00020276
   0.10784062  0.21509759  0.94654119
   0.21570285  0.10771038  0.05184022
   0.10843870  0.55832691  0.94792587
   0.22261947  0.44459488  0.05456758
   0.10542685  0.88626411  0.95018086
   0.21679600  0.77436868  0.05106092
   0.45057303  0.22645421  0.94804682
   0.55995736  0.11812942  0.05264324
   0.44311187  0.55485771  0.94593209
   0.55730849  0.44056929  0.05135439
   0.44495708  0.88745979  0.94788120
   0.55424856  0.77873065  0.05265302
   0.77642001  0.22681202  0.94871728
   0.89192853  0.10798656  0.05200114
   0.77942244  0.55260258  0.95070011
   0.88633407  0.44632317  0.04960684
   0.78349458  0.89140746  0.94939844
   0.89309720  0.78019561  0.04867726
unknown system                          
           1
     8.264316    4.769293    0.000000
    -8.261872    4.765074    0.000000
     0.000000    0.000000   30.000000
   V    Mo   W    S 
   3   3   3  18
Direct configuration=    11
   0.00897646  0.01164567  0.00003281
   0.00474247  0.66566003  0.00045391
   0.65991071  0.32469230 -0.00001070
   1.01153791  0.33416132  0.00016051
   0.33963699  0.00700064 -0.00032823
   0.32644108  0.33549044 -0.00012614
   0.32988535  0.65523016  0.00006313
   0.66538840  0.00539427 -0.00027222
   0.65467567  0.66113399  0.00018199
   0.10802396  0.21523535  0.94644693
   0.21597366  0.10795250  0.05193998
   0.10859286  0.55829825  0.94788270
   0.22267419  0.44457653  0.05477735
   0.10558161  0.88645067  0.95017157
   0.21719888  0.77449768  0.05098944
   0.45048513  0.22660808  0.94799199
   0.55985569  0.11813961  0.05281228
   0.44287570  0.55464516  0.94571199
   0.55720910  0.44055803  0.05141397
   0.44442710  0.88713499  0.94786842
   0.55403410  0.77869207  0.05276476
   0.77659883  0.22678788  0.94886887
   0.89174720  0.10789391  0.05176911
   0.77922923  0.55258279  0.95088425
   0.88632828  0.44609322  0.04946460
   0.78336993  0.89142597  0.94967811
   0.89281396  0.78023294  0.04840854
unknown system                          
           1
     8.261765    4.767815    0.000000
    -8.259453    4.763823    0.000000
     0.000000    0.000000   30.000000
   V    Mo   W    S 
   3   3   3  18
Direct configuration=    12
   0.01084485  0.01297282  0.00003055
   0.00573687  0.66585498  0.00053540
   0.65886418  0.32327747 -0.00005563
   1.01311155  0.33476690  0.00014323
   0.34070341  0.00809348 -0.00034486
   0.32631755  0.33652532 -0.00012006
   0.32986839  0.65352400  0.00009065
   0.66402315  0.00556437 -0.00030191
   0.65245157  0.65996719  0.00018021
   0.10829620  0.21540794  0.94628560
   0.21634038  0.10828491  0.05197290
   0.10880098  0.55818969  0.94782113
   0.22263774  0.44447775  0.05508144
   0.10584249  0.88673721  0.95022330
   0.21776583  0.77461747  0.05086352
   0.45026741  0.22679902  0.94794328
   0.55983256  0.11816906  0.05302792
   0.44257048  0.55439644  0.94538931
   0.55694554  0.44048929  0.05146073
   0.44394172  0.88664617  0.94794679
   0.55369828  0.77872066  0.05282736
   0.77695568  0.22692005  0.94899832
   0.89161975  0.10789878  0.05158443
   0.77889658  0.55255437  0.95111666
   0.88633476  0.44570411  0.04926031
   0.78316761  0.89139650  0.94999474
   0.89237895  0.78025855  0.04804456
unknown system                          
           1
     8.261887    4.767961    0.000000
    -8.259200    4.763319    0.000000
     0.000000    0.000000   30.000000
   V    Mo   W    S 
   3   3   3  18
Direct configuration=    13
   0.00998058  0.01244572  0.00002917
   0.00529085  0.66575333  0.00049609
   0.65929417  0.32385240 -0.00003943
   1.01250115  0.33447681  0.00014359
   0.34029177  0.00761868 -0.00033696
   0.32633505  0.33614833 -0.00012796
   0.32989773  0.65419800  0.00007417
   0.66463197  0.00547276 -0.00028910
   0.65334965  0.66048556  0.00017761
   0.10818722  0.21532883  0.94635007
   0.21618551  0.10814031  0.05194791
   0.10872105  0.55822450  0.94785059
   0.22265290  0.44452757  0.05496358
   0.10574183  0.88663766  0.95021446
   0.21753187  0.77456754  0.05091397
   0.45033725  0.22671824  0.94797301
   0.55985446  0.11814654  0.05293268
   0.44270997  0.55450412  0.94552794
   0.55703690  0.44052218  0.05143405
   0.44417858  0.88685699  0.94791761
   0.55384020  0.77873657  0.05280413
   0.77682249  0.22685990  0.94894842
   0.89167961  0.10791022  0.05167459
   0.77901561  0.55257144  0.95102178
   0.88633843  0.44584366  0.04934549
   0.78325739  0.89141530  0.94985378
   0.89255027  0.78025128  0.04819865
unknown system                          
           1
     8.262101    4.767377    0.000000
    -8.259610    4.763076    0.000000
     0.000000    0.000000   30.000000
   V    Mo   W    S 
   3   3   3  18
Direct configuration=    14
   0.00785803  0.01152692  0.00005569
   0.00412453  0.66552465  0.00040973
   0.66016357  0.32503180  0.00000220
   1.01149961  0.33363363  0.00014770
   0.33953351  0.00658782 -0.00029904
   0.32619090  0.33556650 -0.00012256
   0.33013358  0.65545876  0.00005238
   0.66607400  0.00513892 -0.00025384
   0.65507629  0.66169450  0.00019553
   0.10797028  0.21507988  0.94640567
   0.21582896  0.10784407  0.05184799
   0.10857158  0.55829369  0.94788667
   0.22269812  0.44466620  0.05480373
   0.10551993  0.88647042  0.95022358
   0.21705947  0.77441110  0.05101842
   0.45038011  0.22660603  0.94802056
   0.55998397  0.11810497  0.05277337
   0.44296895  0.55468542  0.94571592
   0.55713627  0.44054782  0.05137052
   0.44471575  0.88720588  0.94782138
   0.55410642  0.77886947  0.05282372
   0.77669640  0.22681155  0.94881299
   0.89190517  0.10800909  0.05195099
   0.77921798  0.55260556  0.95079490
   0.88635232  0.44602609  0.04953166
   0.78355017  0.89150566  0.94947496
   0.89289857  0.78030806  0.04853509
unknown system                          
           1
     8.263657    4.768225    0.000000
    -8.261134    4.763869    0.000000
     0.000000    0.000000   30.000000
   V    Mo   W    S 
   3   3   3  18
Direct configuration=    15
   0.00961431  0.01274362  0.00005048
   0.00514440  0.66564499  0.00050957
   0.65916949  0.32360386 -0.00005656
   1.01301870  0.33441764  0.00012836
   0.34069836  0.00764384 -0.00034353
   0.32612430  0.33665473 -0.00012515
   0.32997721  0.65375966  0.00007127
   0.66471274  0.00538043 -0.00030712
   0.65295220  0.66057651  0.00019492
   0.10827307  0.21531240  0.94625421
   0.21624434  0.10821659  0.05188214
   0.10881285  0.55817194  0.94787157
   0.22265740  0.44457377  0.05508225
   0.10576426  0.88671079  0.95029303
   0.21758324  0.77446844  0.05085988
   0.45020496  0.22678705  0.94800944
   0.55999300  0.11815305  0.05296453
   0.44266934  0.55445338  0.94541453
   0.55688584  0.44050739  0.05139668
   0.44423431  0.88671139  0.94793626
   0.55375639  0.77883099  0.05287078
   0.77704468  0.22692300  0.94899094
   0.89176115  0.10804237  0.05175557
   0.77887285  0.55259151  0.95105824
   0.88637420  0.44565061  0.04928726
   0.78327079  0.89141029  0.94980391
   0.89240007  0.78027423  0.04814642
unknown system                          
           1
     8.269769    4.771922    0.000000
    -8.266959    4.767068    0.000000
     0.000000    0.000000   30.000000
   V    Mo   W    S 
   3   3   3  18
Direct configuration=    16
   0.00993440  0.01295834  0.00005223
   0.00531364  0.66568216  0.00052502
   0.65899744  0.32336671 -0.00006286
   1.01326112  0.33452515  0.00012960
   0.34087845  0.00782698 -0.00034529
   0.32611158  0.33680756 -0.00012198
   0.32996986  0.65349504  0.00008003
   0.66448114  0.00541294 -0.00030836
   0.65259900  0.66038964  0.00019603
   0.10831795  0.21534386  0.94622743
   0.21630749  0.10827456  0.05188770
   0.10884365  0.55815515  0.94785689
   0.22265016  0.44455395  0.05513249
   0.10580327  0.88675028  0.95029868
   0.21767672  0.77448888  0.05084096
   0.45017830  0.22681959  0.94799784
   0.55998879  0.11816120  0.05300238
   0.44261917  0.55441451  0.94535681
   0.55684785  0.44049549  0.05140619
   0.44414368  0.88662315  0.94794549
   0.55369735  0.77882402  0.05288084
   0.77710365  0.22695004  0.94900898
   0.89173936  0.10804359  0.05172116
   0.77882078  0.55258483  0.95109558
   0.88637060  0.44558948  0.04925466
   0.78323117  0.89139853  0.94985544
   0.89232790  0.78027881  0.04808593
unknown system                          
           1
     8.269943    4.771396    0.000000
    -8.267353    4.766924    0.000000
     0.000000    0.000000   30.000000
   V    Mo   W    S 
   3   3   3  18
Direct configuration=    17
   0.01094709  0.01365118  0.00005932
   0.00577775  0.66579896  0.00057132
   0.65841219  0.32257488 -0.00007842
   1.01394271  0.33476736  0.00013886
   0.34147667  0.00850154 -0.00034318
   0.32606150  0.33718889 -0.00010677
   0.32997193  0.65269533  0.00011630
   0.66378659  0.00559504 -0.00030386
   0.65154805  0.65979346  0.00020345
   0.10844723  0.21541723  0.94613389
   0.21648607  0.10844783  0.05191120
   0.10893264  0.55808549  0.94778599
   0.22262372  0.44448384  0.05530216
   0.10592263  0.88690149  0.95030445
   0.21798158  0.77457208  0.05079526
   0.45014076  0.22694254  0.94795896
   0.55998718  0.11822535  0.05312379
   0.44247625  0.55429487  0.94515851
   0.55674992  0.44043740  0.05143807
   0.44386330  0.88635434  0.94796214
   0.55351680  0.77879780  0.05291477
   0.77726623  0.22705752  0.94905884
   0.89169179  0.10804059  0.05160976
   0.77863318  0.55251869  0.95120302
   0.88631654  0.44536855  0.04915795
   0.78313051  0.89137336  0.95001549
   0.89212363  0.78032886  0.04790863
unknown system                          
           1
     8.269691    4.771259    0.000000
    -8.267062    4.766719    0.000000
     0.000000    0.000000   30.000000
   V    Mo   W    S 
   3   3   3  18
Direct configuration=    18
   0.01275810  0.01471798  0.00004783
   0.00676413  0.66604052  0.00064728
   0.65762476  0.32149712 -0.00011350
   1.01515639  0.33540406  0.00013097
   0.34222228  0.00934512 -0.00037599
   0.32600904  0.33789752 -0.00010548
   0.32988644  0.65140073  0.00013081
   0.66251583  0.00569072 -0.00034262
   0.64975333  0.65880177  0.00019206
   0.10865978  0.21560199  0.94605427
   0.21679873  0.10872171  0.05194888
   0.10909970  0.55802911  0.94777014
   0.22258958  0.44437758  0.05549232
   0.10613763  0.88708178  0.95034344
   0.21844854  0.77468318  0.05067765
   0.44997123  0.22705459  0.94790010
   0.55990666  0.11820770  0.05330679
   0.44220730  0.55410588  0.94494701
   0.55658095  0.44042657  0.05148350
   0.44338643  0.88595138  0.94805514
   0.55323816  0.77874266  0.05293390
   0.77752636  0.22712775  0.94916761
   0.89153352  0.10799981  0.05140664
   0.77842552  0.55253455  0.95140822
   0.88635220  0.44514396  0.04898385
   0.78290027  0.89131333  0.95032666
   0.89176161  0.78031536  0.04758243
unknown system                          
           1
     8.275006    4.772067    0.000000
    -8.273051    4.768698    0.000000
     0.000000    0.000000   30.000000
   V    Mo   W    S 
   3   3   3  18
Direct configuration=    19
   0.01330021  0.01504786  0.00004267
   0.00702298  0.66611177  0.00066839
   0.65737208  0.32116014 -0.00012236
   1.01546809  0.33553937  0.00012939
   0.34245729  0.00964948 -0.00038542
   0.32598256  0.33803675 -0.00010386
   0.32986739  0.65104406  0.00013609
   0.66215480  0.00576038 -0.00035412
   0.64926229  0.65850762  0.00018971
   0.10871407  0.21564208  0.94602962
   0.21687923  0.10879551  0.05196322
   0.10914768  0.55800313  0.94775956
   0.22257877  0.44434264  0.05554973
   0.10619915  0.88715058  0.95035193
   0.21859136  0.77472400  0.05064721
   0.44994651  0.22709672  0.94788411
   0.55988969  0.11822124  0.05336039
   0.44213430  0.55405112  0.94488275
   0.55654638  0.44041654  0.05149470
   0.44324932  0.88583968  0.94808195
   0.55316100  0.77872327  0.05293897
   0.77758820  0.22715483  0.94920065
   0.89149747  0.10798093  0.05134416
   0.77835187  0.55251676  0.95146646
   0.88634115  0.44506476  0.04893232
   0.78284600  0.89130328  0.95042142
   0.89166461  0.78032997  0.04749028
unknown system                          
           1
     8.270945    4.771358    0.000000
    -8.268513    4.767161    0.000000
     0.000000    0.000000   30.000000
   V    Mo   W    S 
   3   3   3  18
Direct configuration=    20
   0.00948398  0.01329866  0.00010327
   0.00479312  0.66554104  0.00050085
   0.65931724  0.32340038 -0.00008856
   1.01337173  0.33407173  0.00009796
   0.34091401  0.00769457 -0.00035654
   0.32567154  0.33711625 -0.00014928
   0.33012217  0.65315655  0.00007084
   0.66505460  0.00554396 -0.00032304
   0.65258913  0.66060387  0.00020343
   0.10828816  0.21521324  0.94628593
   0.21617050  0.10825794  0.05172822
   0.10890476  0.55813657  0.94787430
   0.22258992  0.44458673  0.05523647
   0.10573869  0.88677575  0.95040575
   0.21764001  0.77441271  0.05081178
   0.45015870  0.22679848  0.94812027
   0.56012488  0.11817196  0.05295360
   0.44278818  0.55456432  0.94531025
   0.55684349  0.44055546  0.05131769
   0.44440657  0.88658306  0.94800178
   0.55363850  0.77886340  0.05286315
   0.77715148  0.22691871  0.94908862
   0.89189789  0.10821029  0.05171231
   0.77865192  0.55254180  0.95112495
   0.88634050  0.44545365  0.04922609
   0.78320266  0.89134110  0.94981743
   0.89236011  0.78040226  0.04806239
unknown system                          
           1
     8.273636    4.772801    0.000000
    -8.271206    4.768606    0.000000
     0.000000    0.000000   30.000000
   V    Mo   W    S 
   3   3   3  18
Direct configuration=    21
   0.01175925  0.01451544  0.00007357
   0.00609950  0.66583877  0.00062959
   0.65815200  0.32180894 -0.00008105
   1.01493415  0.33507628  0.00013879
   0.34212786  0.00891929 -0.00037081
   0.32579405  0.33811525 -0.00008777
   0.32991251  0.65144904  0.00013292
   0.66328456  0.00576689 -0.00032265
   0.65024625  0.65925468  0.00023046
   0.10859026  0.21548212  0.94606800
   0.21671089  0.10870221  0.05181728
   0.10911788  0.55801985  0.94783818
   0.22254970  0.44444325  0.05546052
   0.10601260  0.88702662  0.95043579
   0.21826978  0.77452477  0.05062608
   0.44996801  0.22703452  0.94802360
   0.56004754  0.11819947  0.05317884
   0.44236005  0.55422798  0.94498783
   0.55656565  0.44046753  0.05135546
   0.44367319  0.88598067  0.94810746
   0.55328240  0.77878539  0.05288774
   0.77757161  0.22713136  0.94916699
   0.89166719  0.10814239  0.05150087
   0.77837105  0.55252842  0.95137704
   0.88637326  0.44512184  0.04898102
   0.78294770  0.89127682  0.95020653
   0.89182556  0.78037466  0.04763761
unknown system                          
           1
     8.282308    4.778013    0.000000
    -8.279830    4.773735    0.000000
     0.000000    0.000000   30.000000
   V    Mo   W    S 
   3   3   3  18
Direct configuration=    22
   0.01216846  0.01476092  0.00006858
   0.00630631  0.66588362  0.00064479
   0.65797488  0.32153388 -0.00009636
   1.01518099  0.33520994  0.00013143
   0.34233443  0.00914933 -0.00038028
   0.32578811  0.33826826 -0.00009629
   0.32987462  0.65114476  0.00013557
   0.66301599  0.00584255 -0.00033253
   0.64984683  0.65901877  0.00022215
   0.10864191  0.21552768  0.94604184
   0.21679271  0.10877295  0.05183397
   0.10914707  0.55800300  0.94782281
   0.22253623  0.44441570  0.05552559
   0.10605265  0.88706271  0.95043830
   0.21837639  0.77455031  0.05060788
   0.44994754  0.22707803  0.94801291
   0.56003305  0.11820763  0.05323325
   0.44229624  0.55417525  0.94492686
   0.55652402  0.44044035  0.05137401
   0.44355674  0.88587121  0.94812082
   0.55321500  0.77877848  0.05290316
   0.77763346  0.22716046  0.94918426
   0.89163532  0.10813151  0.05146465
   0.77832227  0.55251821  0.95142020
   0.88636381  0.44506341  0.04895136
   0.78290501  0.89126523  0.95027095
   0.89174443  0.78038032  0.04757001
unknown system                          
           1
     8.281375    4.778176    0.000000
    -8.278584    4.773355    0.000000
     0.000000    0.000000   30.000000
   V    Mo   W    S 
   3   3   3  18
Direct configuration=    23
   0.01446714  0.01591810  0.00004772
   0.00761320  0.66618240  0.00073697
   0.65696751  0.32019394 -0.00015568
   1.01646558  0.33606203  0.00012278
   0.34326143  0.01029515 -0.00041500
   0.32587238  0.33893715 -0.00010409
   0.32965321  0.64971513  0.00016664
   0.66141105  0.00608926 -0.00036840
   0.64779042  0.65774535  0.00019908
   0.10890192  0.21579432  0.94591868
   0.21721606  0.10911759  0.05194044
   0.10928311  0.55794264  0.94774691
   0.22249850  0.44426960  0.05578436
   0.10628641  0.88723496  0.95042772
   0.21892356  0.77470517  0.05051355
   0.44982287  0.22726455  0.94791836
   0.55990976  0.11822582  0.05349351
   0.44192985  0.55389528  0.94464131
   0.55633439  0.44034515  0.05147530
   0.44290336  0.88536170  0.94817912
   0.55288956  0.77870688  0.05295447
   0.77790893  0.22727184  0.94927473
   0.89142001  0.10803305  0.05123151
   0.77813380  0.55251047  0.95164818
   0.88635689  0.44483614  0.04878424
   0.78266448  0.89121734  0.95063108
   0.89132906  0.78034343  0.04720641
unknown system                          
           1
     8.279491    4.777899    0.000000
    -8.276306    4.772395    0.000000
     0.000000    0.000000   30.000000
   V    Mo   W    S 
   3   3   3  18
Direct configuration=    24
   0.01556297  0.01644815  0.00003872
   0.00824487  0.66631368  0.00078276
   0.65648390  0.31960201 -0.00017061
   1.01700728  0.33642581  0.00013338
   0.34365335  0.01086745 -0.00042995
   0.32590430  0.33913744 -0.00008845
   0.32952850  0.64911529  0.00018982
   0.66066286  0.00622908 -0.00038010
   0.64691015  0.65714727  0.00020321
   0.10899335  0.21589797  0.94588430
   0.21738960  0.10925650  0.05198085
   0.10934047  0.55791877  0.94771325
   0.22249304  0.44420030  0.05586300
   0.10638592  0.88732175  0.95042574
   0.21917184  0.77478317  0.05047008
   0.44979443  0.22734311  0.94788331
   0.55985752  0.11825058  0.05358087
   0.44176126  0.55378015  0.94453133
   0.55628703  0.44031933  0.05149853
   0.44261518  0.88515912  0.94821545