   27   27  100    1
  0.9710400E+02  0.1002848E-08  0.1002848E-08  0.3000000E-08  0.5000000E-15
  1.000000000000000E-004
  CAR 
 unknown system                          
    159     34    120
 
  0.0000000E+00  0.0000000E+00  0.0000000E+00  0.1562500E-01
    1      -17.849921   1.000000
    2      -16.766910   1.000000
    3      -16.672999   1.000000
    4      -16.553900   1.000000
    5      -16.543997   1.000000
    6      -16.535914   1.000000
    7      -16.404471   1.000000
    8      -16.322515   1.000000
    9      -16.235809   1.000000
   10      -16.119172   1.000000
   11      -16.051167   1.000000
   12      -15.975646   1.000000
   13      -15.900141   1.000000
   14      -15.649223   1.000000
   15      -15.602276   1.000000
   16      -15.446293   1.000000
   17      -15.243827   1.000000
   18      -15.168564   1.000000
   19       -9.468066   1.000000
   20       -9.008153   1.000000
   21       -8.978484   1.000000
   22       -8.862576   1.000000
   23       -8.739854   1.000000
   24       -8.686303   1.000000
   25       -8.599390   1.000000
   26       -8.578019   1.000000
   27       -8.559687   1.000000
   28       -8.479027   1.000000
   29       -8.451520   1.000000
   30       -8.397010   1.000000
   31       -8.351565   1.000000
   32       -8.167212   1.000000
   33       -8.145314   1.000000
   34       -8.044662   1.000000
   35       -7.809931   1.000000
   36       -7.743861   1.000000
   37       -7.652713   1.000000
   38       -7.615579   1.000000
   39       -7.491828   1.000000
   40       -7.378103   1.000000
   41       -7.362200   1.000000
   42       -7.183554   1.000000
   43       -7.059110   1.000000
   44       -6.883748   1.000000
   45       -6.871413   1.000000
   46       -6.831925   1.000000
   47       -6.811751   1.000000
   48       -6.725437   1.000000
   49       -6.599967   1.000000
   50       -6.489207   1.000000
   51       -6.425196   1.000000
   52       -6.301298   1.000000
   53       -6.224953   1.000000
   54       -6.159240   1.000000
   55       -6.119376   1.000000
   56       -6.026075   1.000000
   57       -5.940750   1.000000
   58       -5.866577   1.000000
   59       -5.858730   1.000000
   60       -5.796245   1.000000
   61       -5.560378   1.000000
   62       -5.349395   1.000000
   63       -5.294776   1.000000
   64       -5.047207   1.000000
   65       -5.005506   1.000000
   66       -4.919867   1.000000
   67       -4.845788   1.000000
   68       -4.802491   1.000000
   69       -4.724786   1.000000
   70       -4.695675   1.000000
   71       -4.648023   1.000000
   72       -4.554920   1.000000
   73       -4.489201   1.000000
   74       -4.344671   1.000000
   75       -4.264425   1.000000
   76       -4.010836   1.000000
   77       -3.757491   0.999808
   78       -3.583998   0.989947
   79       -3.449768   0.915467
   80       -3.226804   0.420202
   81       -3.182944   0.304495
   82       -2.844312   0.001830
   83       -2.655985   0.000011
   84       -2.629051   0.000005
   85       -2.537044   0.000000
   86       -2.471187   0.000000
   87       -2.277144   0.000000
   88       -2.211560   0.000000
   89       -2.187817   0.000000
   90       -2.000251   0.000000
   91       -1.843822   0.000000
   92       -1.589880   0.000000
   93       -1.386956   0.000000
   94       -1.157781   0.000000
   95       -1.126301   0.000000
   96       -1.056108   0.000000
   97       -1.035387   0.000000
   98       -0.904014   0.000000
   99       -0.860154   0.000000
  100       -0.606158   0.000000
  101       -0.579894   0.000000
  102       -0.507913   0.000000
  103       -0.311203   0.000000
  104       -0.280732   0.000000
  105       -0.128367   0.000000
  106       -0.062251   0.000000
  107       -0.011171   0.000000
  108        0.028749   0.000000
  109        0.128983   0.000000
  110        0.222211   0.000000
  111        0.392003   0.000000
  112        0.459059   0.000000
  113        0.529937   0.000000
  114        0.939146   0.000000
  115        0.984405   0.000000
  116        1.060011   0.000000
  117        1.126009   0.000000
  118        1.649872   0.000000
  119        1.843316   0.000000
  120        2.172432   0.000000
 
  0.1250000E+00  0.2775558E-16  0.0000000E+00  0.3125000E-01
    1      -17.825703   1.000000
    2      -16.807425   1.000000
    3      -16.739534   1.000000
    4      -16.619110   1.000000
    5      -16.550574   1.000000
    6      -16.455420   1.000000
    7      -16.398811   1.000000
    8      -16.341492   1.000000
    9      -16.252286   1.000000
   10      -16.058039   1.000000
   11      -16.006954   1.000000
   12      -15.974728   1.000000
   13      -15.867192   1.000000
   14      -15.646745   1.000000
   15      -15.598733   1.000000
   16      -15.452043   1.000000
   17      -15.260524   1.000000
   18      -15.175778   1.000000
   19       -9.473717   1.000000
   20       -9.144430   1.000000
   21       -9.037903   1.000000
   22       -8.989644   1.000000
   23       -8.757390   1.000000
   24       -8.698131   1.000000
   25       -8.658290   1.000000
   26       -8.581365   1.000000
   27       -8.529426   1.000000
   28       -8.492782   1.000000
   29       -8.441361   1.000000
   30       -8.315193   1.000000
   31       -8.237208   1.000000
   32       -8.102366   1.000000
   33       -8.018029   1.000000
   34       -7.900177   1.000000
   35       -7.832847   1.000000
   36       -7.756508   1.000000
   37       -7.697215   1.000000
   38       -7.524012   1.000000
   39       -7.448101   1.000000
   40       -7.381011   1.000000
   41       -7.325390   1.000000
   42       -7.216312   1.000000
   43       -7.127925   1.000000
   44       -6.951834   1.000000
   45       -6.897679   1.000000
   46       -6.875557   1.000000
   47       -6.802810   1.000000
   48       -6.691899   1.000000
   49       -6.600938   1.000000
   50       -6.498373   1.000000
   51       -6.401239   1.000000
   52       -6.303648   1.000000
   53       -6.239590   1.000000
   54       -6.161347   1.000000
   55       -6.131253   1.000000
   56       -5.996754   1.000000
   57       -5.950970   1.000000
   58       -5.861748   1.000000
   59       -5.838885   1.000000
   60       -5.664541   1.000000
   61       -5.519384   1.000000
   62       -5.378084   1.000000
   63       -5.316532   1.000000
   64       -5.205460   1.000000
   65       -5.082163   1.000000
   66       -5.007106   1.000000
   67       -4.921797   1.000000
   68       -4.855184   1.000000
   69       -4.743616   1.000000
   70       -4.687883   1.000000
   71       -4.517201   1.000000
   72       -4.500153   1.000000
   73       -4.346179   1.000000
   74       -4.323673   1.000000
   75       -4.245942   1.000000
   76       -3.933239   0.999999
   77       -3.816864   0.999964
   78       -3.670120   0.998323
   79       -3.484899   0.947772
   80       -3.387528   0.825134
   81       -3.006674   0.039379
   82       -2.844077   0.001821
   83       -2.693404   0.000035
   84       -2.603148   0.000002
   85       -2.536509   0.000000
   86       -2.469436   0.000000
   87       -2.257613   0.000000
   88       -2.220045   0.000000
   89       -2.122389   0.000000
   90       -2.011659   0.000000
   91       -1.809097   0.000000
   92       -1.572605   0.000000
   93       -1.395857   0.000000
   94       -1.158846   0.000000
   95       -1.115225   0.000000
   96       -1.063406   0.000000
   97       -1.038894   0.000000
   98       -0.906655   0.000000
   99       -0.855251   0.000000
  100       -0.643990   0.000000
  101       -0.620519   0.000000
  102       -0.576370   0.000000
  103       -0.435828   0.000000
  104       -0.311809   0.000000
  105       -0.208460   0.000000
  106       -0.125728   0.000000
  107       -0.052466   0.000000
  108        0.053891   0.000000
  109        0.123995   0.000000
  110        0.232290   0.000000
  111        0.357284   0.000000
  112        0.505344   0.000000
  113        0.580460   0.000000
  114        0.916059   0.000000
  115        1.008466   0.000000
  116        1.091356   0.000000
  117        1.211101   0.000000
  118        1.695213   0.000000
  119        1.882126   0.000000
  120        2.207930   0.000000
 
  0.2500000E+00  0.5551115E-16  0.0000000E+00  0.3125000E-01
    1      -17.755480   1.000000
    2      -16.992714   1.000000
    3      -16.751259   1.000000
    4      -16.663123   1.000000
    5      -16.598674   1.000000
    6      -16.473075   1.000000
    7      -16.378083   1.000000
    8      -16.286502   1.000000
    9      -16.209375   1.000000
   10      -16.042000   1.000000
   11      -15.996086   1.000000
   12      -15.871827   1.000000
   13      -15.811126   1.000000
   14      -15.638382   1.000000
   15      -15.575208   1.000000
   16      -15.459402   1.000000
   17      -15.301018   1.000000
   18      -15.199229   1.000000
   19       -9.583601   1.000000
   20       -9.317005   1.000000
   21       -9.162658   1.000000
   22       -9.073164   1.000000
   23       -8.873962   1.000000
   24       -8.771554   1.000000
   25       -8.647115   1.000000
   26       -8.569588   1.000000
   27       -8.482812   1.000000
   28       -8.391081   1.000000
   29       -8.377084   1.000000
   30       -8.224018   1.000000
   31       -8.138546   1.000000
   32       -8.079893   1.000000
   33       -7.978193   1.000000
   34       -7.811472   1.000000
   35       -7.756024   1.000000
   36       -7.608606   1.000000
   37       -7.579496   1.000000
   38       -7.510385   1.000000
   39       -7.421583   1.000000
   40       -7.357872   1.000000
   41       -7.347424   1.000000
   42       -7.228629   1.000000
   43       -7.066360   1.000000
   44       -7.032724   1.000000
   45       -6.987817   1.000000
   46       -6.866206   1.000000
   47       -6.806558   1.000000
   48       -6.675464   1.000000
   49       -6.573666   1.000000
   50       -6.481155   1.000000
   51       -6.353418   1.000000
   52       -6.317479   1.000000
   53       -6.268997   1.000000
   54       -6.179692   1.000000
   55       -6.119521   1.000000
   56       -6.009608   1.000000
   57       -5.847467   1.000000
   58       -5.829006   1.000000
   59       -5.787264   1.000000
   60       -5.701491   1.000000
   61       -5.525644   1.000000
   62       -5.470844   1.000000
   63       -5.437893   1.000000
   64       -5.285103   1.000000
   65       -5.196111   1.000000
   66       -5.140292   1.000000
   67       -5.011484   1.000000
   68       -4.844951   1.000000
   69       -4.752921   1.000000
   70       -4.663022   1.000000
   71       -4.429765   1.000000
   72       -4.374077   1.000000
   73       -4.271212   1.000000
   74       -4.199902   1.000000
   75       -4.138185   1.000000
   76       -4.055611   1.000000
   77       -3.943595   0.999999
   78       -3.738956   0.999687
   79       -3.502287   0.959645
   80       -3.402470   0.851008
   81       -2.949961   0.015427
   82       -2.857533   0.002458
   83       -2.733138   0.000111
   84       -2.531253   0.000000
   85       -2.519511   0.000000
   86       -2.455949   0.000000
   87       -2.294584   0.000000
   88       -2.115382   0.000000
   89       -2.054266   0.000000
   90       -1.999926   0.000000
   91       -1.761720   0.000000
   92       -1.518100   0.000000
   93       -1.393163   0.000000
   94       -1.186316   0.000000
   95       -1.128793   0.000000
   96       -1.088326   0.000000
   97       -1.030087   0.000000
   98       -0.916776   0.000000
   99       -0.845650   0.000000
  100       -0.768427   0.000000
  101       -0.741547   0.000000
  102       -0.681641   0.000000
  103       -0.581232   0.000000
  104       -0.426699   0.000000
  105       -0.368865   0.000000
  106       -0.174254   0.000000
  107       -0.124335   0.000000
  108       -0.038775   0.000000
  109        0.081472   0.000000
  110        0.187545   0.000000
  111        0.321370   0.000000
  112        0.582614   0.000000
  113        0.633556   0.000000
  114        0.992390   0.000000
  115        1.041006   0.000000
  116        1.216134   0.000000
  117        1.335030   0.000000
  118        1.820861   0.000000
  119        1.993998   0.000000
  120        2.312980   0.000000
 
  0.3750000E+00  0.0000000E+00  0.0000000E+00  0.3125000E-01
    1      -17.651180   1.000000
    2      -17.187975   1.000000
    3      -16.765378   1.000000
    4      -16.673536   1.000000
    5      -16.639229   1.000000
    6      -16.520068   1.000000
    7      -16.348518   1.000000
    8      -16.235870   1.000000
    9      -16.170791   1.000000
   10      -16.031486   1.000000
   11      -15.937251   1.000000
   12      -15.868687   1.000000
   13      -15.748972   1.000000
   14      -15.627245   1.000000
   15      -15.568459   1.000000
   16      -15.423042   1.000000
   17      -15.335412   1.000000
   18      -15.240055   1.000000
   19       -9.766204   1.000000
   20       -9.409158   1.000000
   21       -9.203701   1.000000
   22       -9.073535   1.000000
   23       -8.972390   1.000000
   24       -8.834742   1.000000
   25       -8.634473   1.000000
   26       -8.495584   1.000000
   27       -8.433357   1.000000
   28       -8.371180   1.000000
   29       -8.270837   1.000000
   30       -8.212275   1.000000
   31       -8.113623   1.000000
   32       -8.028473   1.000000
   33       -7.989300   1.000000
   34       -7.826426   1.000000
   35       -7.761775   1.000000
   36       -7.603984   1.000000
   37       -7.540010   1.000000
   38       -7.509792   1.000000
   39       -7.480663   1.000000
   40       -7.347867   1.000000
   41       -7.230750   1.000000
   42       -7.107789   1.000000
   43       -7.034340   1.000000
   44       -6.957884   1.000000
   45       -6.927574   1.000000
   46       -6.844948   1.000000
   47       -6.711909   1.000000
   48       -6.653595   1.000000
   49       -6.519544   1.000000
   50       -6.463987   1.000000
   51       -6.361647   1.000000
   52       -6.265237   1.000000
   53       -6.209894   1.000000
   54       -6.157098   1.000000
   55       -6.100101   1.000000
   56       -6.057448   1.000000
   57       -6.010626   1.000000
   58       -5.918429   1.000000
   59       -5.846039   1.000000
   60       -5.718212   1.000000
   61       -5.686385   1.000000
   62       -5.503792   1.000000
   63       -5.454405   1.000000
   64       -5.339519   1.000000
   65       -5.187276   1.000000
   66       -5.128992   1.000000
   67       -5.018227   1.000000
   68       -4.806102   1.000000
   69       -4.768961   1.000000
   70       -4.708057   1.000000
   71       -4.510372   1.000000
   72       -4.398319   1.000000
   73       -4.299968   1.000000
   74       -4.134494   1.000000
   75       -4.106255   1.000000
   76       -4.033376   1.000000
   77       -3.884993   0.999996
   78       -3.753870   0.999789
   79       -3.572386   0.987527
   80       -3.270178   0.541940
   81       -3.001965   0.036628
   82       -2.904003   0.006497
   83       -2.702237   0.000046
   84       -2.525656   0.000000
   85       -2.488197   0.000000
   86       -2.404204   0.000000
   87       -2.303412   0.000000
   88       -2.052136   0.000000
   89       -2.013663   0.000000
   90       -1.919428   0.000000
   91       -1.748513   0.000000
   92       -1.475670   0.000000
   93       -1.344285   0.000000
   94       -1.248897   0.000000
   95       -1.163526   0.000000
   96       -1.122783   0.000000
   97       -1.065235   0.000000
   98       -0.940037   0.000000
   99       -0.907865   0.000000
  100       -0.825276   0.000000
  101       -0.804806   0.000000
  102       -0.754866   0.000000
  103       -0.675677   0.000000
  104       -0.534533   0.000000
  105       -0.502214   0.000000
  106       -0.227218   0.000000
  107       -0.182144   0.000000
  108       -0.142903   0.000000
  109        0.017835   0.000000
  110        0.094705   0.000000
  111        0.339214   0.000000
  112        0.625076   0.000000
  113        0.653479   0.000000
  114        1.084161   0.000000
  115        1.107195   0.000000
  116        1.322428   0.000000
  117        1.441902   0.000000
  118        2.007953   0.000000
  119        2.169990   0.000000
  120        2.476341   0.000000
 
  0.5000000E+00  0.1110223E-15  0.0000000E+00  0.1562500E-01
    1      -17.577009   1.000000
    2      -17.294911   1.000000
    3      -16.774160   1.000000
    4      -16.672129   1.000000
    5      -16.651391   1.000000
    6      -16.540048   1.000000
    7      -16.334664   1.000000
    8      -16.229729   1.000000
    9      -16.157259   1.000000
   10      -15.993182   1.000000
   11      -15.928190   1.000000
   12      -15.886128   1.000000
   13      -15.698473   1.000000
   14      -15.648724   1.000000
   15      -15.574557   1.000000
   16      -15.402198   1.000000
   17      -15.310505   1.000000
   18      -15.287495   1.000000
   19       -9.840238   1.000000
   20       -9.446092   1.000000
   21       -9.223159   1.000000
   22       -9.038254   1.000000
   23       -9.001869   1.000000
   24       -8.858857   1.000000
   25       -8.619576   1.000000
   26       -8.552013   1.000000
   27       -8.369845   1.000000
   28       -8.348430   1.000000
   29       -8.200273   1.000000
   30       -8.187688   1.000000
   31       -8.137739   1.000000
   32       -8.029795   1.000000
   33       -7.935816   1.000000
   34       -7.887824   1.000000
   35       -7.752160   1.000000
   36       -7.686227   1.000000
   37       -7.585011   1.000000
   38       -7.509038   1.000000
   39       -7.501893   1.000000
   40       -7.360745   1.000000
   41       -7.204756   1.000000
   42       -7.045477   1.000000
   43       -6.960739   1.000000
   44       -6.881352   1.000000
   45       -6.774504   1.000000
   46       -6.710316   1.000000
   47       -6.653962   1.000000
   48       -6.601258   1.000000
   49       -6.548526   1.000000
   50       -6.537989   1.000000
   51       -6.416076   1.000000
   52       -6.397352   1.000000
   53       -6.295302   1.000000
   54       -6.193501   1.000000
   55       -6.081320   1.000000
   56       -6.064284   1.000000
   57       -5.936064   1.000000
   58       -5.880159   1.000000
   59       -5.818867   1.000000
   60       -5.725552   1.000000
   61       -5.659781   1.000000
   62       -5.583113   1.000000
   63       -5.517405   1.000000
   64       -5.396228   1.000000
   65       -5.206083   1.000000
   66       -5.033596   1.000000
   67       -5.017571   1.000000
   68       -4.988763   1.000000
   69       -4.785150   1.000000
   70       -4.603884   1.000000
   71       -4.541907   1.000000
   72       -4.445684   1.000000
   73       -4.351925   1.000000
   74       -4.142605   1.000000
   75       -4.070212   1.000000
   76       -3.961589   1.000000
   77       -3.793825   0.999930
   78       -3.710796   0.999361
   79       -3.701648   0.999201
   80       -3.176764   0.289373
   81       -3.018896   0.047310
   82       -2.961489   0.018880
   83       -2.685647   0.000028
   84       -2.523819   0.000000
   85       -2.487287   0.000000
   86       -2.372607   0.000000
   87       -2.298792   0.000000
   88       -2.035160   0.000000
   89       -1.995715   0.000000
   90       -1.875288   0.000000
   91       -1.748547   0.000000
   92       -1.459327   0.000000
   93       -1.319416   0.000000
   94       -1.274404   0.000000
   95       -1.191042   0.000000
   96       -1.137557   0.000000
   97       -1.102801   0.000000
   98       -0.981959   0.000000
   99       -0.904238   0.000000
  100       -0.874140   0.000000
  101       -0.803850   0.000000
  102       -0.728805   0.000000
  103       -0.694632   0.000000
  104       -0.638957   0.000000
  105       -0.545323   0.000000
  106       -0.236554   0.000000
  107       -0.211877   0.000000
  108       -0.181309   0.000000
  109       -0.010920   0.000000
  110        0.061577   0.000000
  111        0.345013   0.000000
  112        0.639849   0.000000
  113        0.661664   0.000000
  114        1.103467   0.000000
  115        1.147045   0.000000
  116        1.361745   0.000000
  117        1.485839   0.000000
  118        2.232279   0.000000
  119        2.256925   0.000000
  120        2.393416   0.000000
 
  0.0000000E+00  0.1250000E+00  0.0000000E+00  0.3125000E-01
    1      -17.826412   1.000000
    2      -16.820871   1.000000
    3      -16.716643   1.000000
    4      -16.606236   1.000000
    5      -16.586224   1.000000
    6      -16.471216   1.000000
    7      -16.389442   1.000000
    8      -16.303058   1.000000
    9      -16.237859   1.000000
   10      -16.096072   1.000000
   11      -15.977357   1.000000
   12      -15.963751   1.000000
   13      -15.897813   1.000000
   14      -15.647690   1.000000
   15      -15.609184   1.000000
   16      -15.465041   1.000000
   17      -15.245159   1.000000
   18      -15.171720   1.000000
   19       -9.464427   1.000000
   20       -9.139195   1.000000
   21       -9.034069   1.000000
   22       -8.993902   1.000000
   23       -8.823445   1.000000
   24       -8.725090   1.000000
   25       -8.648816   1.000000
   26       -8.590574   1.000000
   27       -8.508699   1.000000
   28       -8.455834   1.000000
   29       -8.410654   1.000000
   30       -8.279819   1.000000
   31       -8.188956   1.000000
   32       -8.119093   1.000000
   33       -8.064983   1.000000
   34       -7.978803   1.000000
   35       -7.760480   1.000000
   36       -7.716377   1.000000
   37       -7.656000   1.000000
   38       -7.567863   1.000000
   39       -7.525098   1.000000
   40       -7.463392   1.000000
   41       -7.309317   1.000000
   42       -7.182549   1.000000
   43       -7.095206   1.000000
   44       -7.001197   1.000000
   45       -6.936701   1.000000
   46       -6.806624   1.000000
   47       -6.737266   1.000000
   48       -6.643407   1.000000
   49       -6.552545   1.000000
   50       -6.456321   1.000000
   51       -6.432556   1.000000
   52       -6.343600   1.000000
   53       -6.228629   1.000000
   54       -6.161869   1.000000
   55       -6.125231   1.000000
   56       -6.092314   1.000000
   57       -5.964218   1.000000
   58       -5.894863   1.000000
   59       -5.791633   1.000000
   60       -5.721322   1.000000
   61       -5.531026   1.000000
   62       -5.449804   1.000000
   63       -5.385194   1.000000
   64       -5.126591   1.000000
   65       -5.082158   1.000000
   66       -4.925415   1.000000
   67       -4.867820   1.000000
   68       -4.771641   1.000000
   69       -4.759498   1.000000
   70       -4.651943   1.000000
   71       -4.604694   1.000000
   72       -4.467869   1.000000
   73       -4.447006   1.000000
   74       -4.306955   1.000000
   75       -4.239335   1.000000
   76       -4.064028   1.000000
   77       -3.776528   0.999886
   78       -3.661560   0.997966
   79       -3.524512   0.971528
   80       -3.180094   0.297477
   81       -3.137989   0.203440
   82       -2.807550   0.000773
   83       -2.630795   0.000005
   84       -2.598998   0.000002
   85       -2.543915   0.000000
   86       -2.466842   0.000000
   87       -2.248240   0.000000
   88       -2.193955   0.000000
   89       -2.137983   0.000000
   90       -1.990086   0.000000
   91       -1.855441   0.000000
   92       -1.588899   0.000000
   93       -1.376046   0.000000
   94       -1.174503   0.000000
   95       -1.143777   0.000000
   96       -1.085738   0.000000
   97       -1.003557   0.000000
   98       -0.916361   0.000000
   99       -0.857983   0.000000
  100       -0.697709   0.000000
  101       -0.639327   0.000000
  102       -0.558440   0.000000
  103       -0.443990   0.000000
  104       -0.339353   0.000000
  105       -0.184924   0.000000
  106       -0.093703   0.000000
  107       -0.003476   0.000000
  108        0.057694   0.000000
  109        0.165588   0.000000
  110        0.245337   0.000000
  111        0.447112   0.000000
  112        0.487024   0.000000
  113        0.547491   0.000000
  114        0.942450   0.000000
  115        0.981460   0.000000
  116        1.067552   0.000000
  117        1.105514   0.000000
  118        1.691704   0.000000
  119        1.884096   0.000000
  120        2.206926   0.000000
 
  0.1250000E+00  0.1250000E+00  0.0000000E+00  0.3125000E-01
    1      -17.780158   1.000000
    2      -16.911231   1.000000
    3      -16.795678   1.000000
    4      -16.701403   1.000000
    5      -16.488441   1.000000
    6      -16.454607   1.000000
    7      -16.387086   1.000000
    8      -16.320334   1.000000
    9      -16.231011   1.000000
   10      -16.034498   1.000000
   11      -15.993728   1.000000
   12      -15.889461   1.000000
   13      -15.842388   1.000000
   14      -15.650646   1.000000
   15      -15.604768   1.000000
   16      -15.481260   1.000000
   17      -15.265802   1.000000
   18      -15.179698   1.000000
   19       -9.493565   1.000000
   20       -9.271250   1.000000
   21       -9.219416   1.000000
   22       -9.098999   1.000000
   23       -8.841639   1.000000
   24       -8.721925   1.000000
   25       -8.598831   1.000000
   26       -8.555791   1.000000
   27       -8.516581   1.000000
   28       -8.441246   1.000000
   29       -8.328293   1.000000
   30       -8.265497   1.000000
   31       -8.153698   1.000000
   32       -8.086990   1.000000
   33       -7.941033   1.000000
   34       -7.883918   1.000000
   35       -7.761134   1.000000
   36       -7.699607   1.000000
   37       -7.609042   1.000000
   38       -7.548004   1.000000
   39       -7.441800   1.000000
   40       -7.344921   1.000000
   41       -7.281295   1.000000
   42       -7.235869   1.000000
   43       -7.149452   1.000000
   44       -7.024194   1.000000
   45       -6.944072   1.000000
   46       -6.834188   1.000000
   47       -6.800810   1.000000
   48       -6.641179   1.000000
   49       -6.531085   1.000000
   50       -6.436887   1.000000
   51       -6.376907   1.000000
   52       -6.342217   1.000000
   53       -6.244852   1.000000
   54       -6.217828   1.000000
   55       -6.124690   1.000000
   56       -6.036125   1.000000
   57       -5.952749   1.000000
   58       -5.872181   1.000000
   59       -5.820187   1.000000
   60       -5.601942   1.000000
   61       -5.550289   1.000000
   62       -5.490320   1.000000
   63       -5.444625   1.000000
   64       -5.243741   1.000000
   65       -5.221062   1.000000
   66       -5.076821   1.000000
   67       -4.889997   1.000000
   68       -4.833681   1.000000
   69       -4.721347   1.000000
   70       -4.637760   1.000000
   71       -4.475543   1.000000
   72       -4.409515   1.000000
   73       -4.314523   1.000000
   74       -4.248670   1.000000
   75       -4.205337   1.000000
   76       -4.103250   1.000000
   77       -3.922315   0.999999
   78       -3.694983   0.999062
   79       -3.525523   0.971990
   80       -3.296981   0.615943
   81       -2.982068   0.026685
   82       -2.798486   0.000619
   83       -2.661284   0.000013
   84       -2.546578   0.000000
   85       -2.535104   0.000000
   86       -2.453498   0.000000
   87       -2.206556   0.000000
   88       -2.166372   0.000000
   89       -2.062529   0.000000
   90       -1.990507   0.000000
   91       -1.833576   0.000000
   92       -1.568250   0.000000
   93       -1.378762   0.000000
   94       -1.178936   0.000000
   95       -1.161809   0.000000
   96       -1.122747   0.000000
   97       -0.992375   0.000000
   98       -0.921515   0.000000
   99       -0.866944   0.000000
  100       -0.771822   0.000000
  101       -0.717721   0.000000
  102       -0.656266   0.000000
  103       -0.581445   0.000000
  104       -0.435547   0.000000
  105       -0.251233   0.000000
  106       -0.122761   0.000000
  107       -0.084537   0.000000
  108        0.008588   0.000000
  109        0.174497   0.000000
  110        0.261559   0.000000
  111        0.365078   0.000000
  112        0.538384   0.000000
  113        0.605587   0.000000
  114        0.961903   0.000000
  115        1.013891   0.000000
  116        1.134138   0.000000
  117        1.180388   0.000000
  118        1.775329   0.000000
  119        1.961411   0.000000
  120        2.276534   0.000000
 
  0.2500000E+00  0.1250000E+00  0.0000000E+00  0.3125000E-01
    1      -17.692494   1.000000
    2      -17.075659   1.000000
    3      -16.899177   1.000000
    4      -16.690027   1.000000
    5      -16.494709   1.000000
    6      -16.452889   1.000000
    7      -16.370054   1.000000
    8      -16.283962   1.000000
    9      -16.194449   1.000000
   10      -16.043795   1.000000
   11      -15.952962   1.000000
   12      -15.865548   1.000000
   13      -15.747911   1.000000
   14      -15.649928   1.000000
   15      -15.594632   1.000000
   16      -15.466286   1.000000
   17      -15.310631   1.000000
   18      -15.197789   1.000000
   19       -9.649752   1.000000
   20       -9.419648   1.000000
   21       -9.332623   1.000000
   22       -9.129078   1.000000
   23       -8.855914   1.000000
   24       -8.693447   1.000000
   25       -8.582657   1.000000
   26       -8.494985   1.000000
   27       -8.424293   1.000000
   28       -8.397456   1.000000
   29       -8.330133   1.000000
   30       -8.259838   1.000000
   31       -8.123595   1.000000
   32       -8.040249   1.000000
   33       -7.968848   1.000000
   34       -7.898317   1.000000
   35       -7.798015   1.000000
   36       -7.676017   1.000000
   37       -7.512644   1.000000
   38       -7.479106   1.000000
   39       -7.364355   1.000000
   40       -7.326935   1.000000
   41       -7.237824   1.000000
   42       -7.222579   1.000000
   43       -7.087969   1.000000
   44       -7.015935   1.000000
   45       -6.931495   1.000000
   46       -6.820589   1.000000
   47       -6.705865   1.000000