       N       E                     dE             d eps       ncg     rms          rms(c)
DAV:   1     0.112569015581E+04    0.11257E+04   -0.35982E+04  8160   0.577E+02
DAV:   2    -0.252997953978E+01   -0.11282E+04   -0.10882E+04 11040   0.173E+02
DAV:   3    -0.199642970694E+03   -0.19711E+03   -0.18890E+03 10880   0.820E+01
DAV:   4    -0.209004315709E+03   -0.93613E+01   -0.90388E+01 12280   0.260E+01
DAV:   5    -0.209310419658E+03   -0.30610E+00   -0.30511E+00 11480   0.348E+00    0.275E+01
DAV:   6    -0.237167720126E+03   -0.27857E+02   -0.10604E+02 12640   0.604E+01    0.594E+01
DAV:   7    -0.196495387964E+03    0.40672E+02   -0.17629E+02 13280   0.152E+02    0.201E+01
DAV:   8    -0.189441508599E+03    0.70539E+01   -0.17475E+01 11680   0.127E+01    0.125E+01
DAV:   9    -0.188235821547E+03    0.12057E+01   -0.35834E+00 12520   0.614E+00    0.931E+00
DAV:  10    -0.187081115281E+03    0.11547E+01   -0.20110E+00 13200   0.735E+00    0.318E+00
DAV:  11    -0.187033051324E+03    0.48064E-01   -0.72294E-01 13520   0.323E+00    0.346E+00
DAV:  12    -0.187173772978E+03   -0.14072E+00   -0.11421E+00 12720   0.556E+00    0.483E+00
DAV:  13    -0.186930071700E+03    0.24370E+00   -0.48644E-01 13200   0.356E+00    0.217E+00
DAV:  14    -0.186880689078E+03    0.49383E-01   -0.11180E-01 13480   0.163E+00    0.668E-01
DAV:  15    -0.186879616828E+03    0.10722E-02   -0.30125E-02 12440   0.938E-01    0.944E-01
DAV:  16    -0.186875039546E+03    0.45773E-02   -0.14222E-02 13520   0.668E-01    0.588E-01
DAV:  17    -0.186871466166E+03    0.35734E-02   -0.97515E-03 12640   0.524E-01    0.217E-01
DAV:  18    -0.186871300297E+03    0.16587E-03   -0.20811E-03 11800   0.147E-01    0.157E-01
DAV:  19    -0.186870934186E+03    0.36611E-03   -0.92202E-04 11400   0.105E-01    0.505E-02
DAV:  20    -0.186871658360E+03   -0.72417E-03   -0.70607E-04  9120   0.609E-02    0.543E-02
DAV:  21    -0.186872209031E+03   -0.55067E-03   -0.22632E-04  8240   0.450E-02    0.331E-02
DAV:  22    -0.186873408658E+03   -0.11996E-02   -0.20162E-04  7600   0.443E-02    0.326E-02
DAV:  23    -0.186874637058E+03   -0.12284E-02   -0.12994E-04  7640   0.401E-02    0.107E-02
DAV:  24    -0.186875226845E+03   -0.58979E-03   -0.25783E-05  6640   0.130E-02    0.854E-03
DAV:  25    -0.186875606406E+03   -0.37956E-03   -0.15060E-05  5680   0.122E-02    0.480E-03
DAV:  26    -0.186875830095E+03   -0.22369E-03   -0.87960E-06  6800   0.708E-03    0.215E-03
DAV:  27    -0.186875928197E+03   -0.98102E-04   -0.37224E-06  7120   0.419E-03
   1 F= -.18687593E+03 E0= -.18670432E+03  d E =-.186876E+03
       N       E                     dE             d eps       ncg     rms          rms(c)
DAV:   1    -0.187499175399E+03   -0.62335E+00   -0.27013E+02  8160   0.349E+01    0.461E+00
DAV:   2    -0.189359889605E+03   -0.18607E+01   -0.20035E+01 12240   0.151E+01    0.863E+00
DAV:   3    -0.189378964723E+03   -0.19075E-01   -0.42480E+00 12440   0.121E+01    0.660E+00
DAV:   4    -0.188755566267E+03    0.62340E+00   -0.59593E-01 12440   0.459E+00    0.167E+00
DAV:   5    -0.188797885903E+03   -0.42320E-01   -0.34241E-01 11520   0.263E+00    0.357E+00
DAV:   6    -0.188762836717E+03    0.35049E-01   -0.52346E-01 12800   0.406E+00    0.310E+00
DAV:   7    -0.188690028874E+03    0.72808E-01   -0.20278E-01 12680   0.204E+00    0.108E+00
DAV:   8    -0.188674947706E+03    0.15081E-01   -0.55550E-02 11640   0.966E-01    0.901E-01
DAV:   9    -0.188669863620E+03    0.50841E-02   -0.16826E-02 12200   0.751E-01    0.504E-01
DAV:  10    -0.188668319594E+03    0.15440E-02   -0.50565E-03 13280   0.353E-01    0.246E-01
DAV:  11    -0.188667682976E+03    0.63662E-03   -0.28695E-03 12760   0.208E-01    0.131E-01
DAV:  12    -0.188667666343E+03    0.16633E-04   -0.98391E-04 11640   0.937E-02
   2 F= -.18866767E+03 E0= -.18852787E+03  d E =-.179174E+01
       N       E                     dE             d eps       ncg     rms          rms(c)
DAV:   1    -0.190584460089E+03   -0.19168E+01   -0.30814E+01  9200   0.141E+01    0.445E+00
DAV:   2    -0.190564495341E+03    0.19965E-01   -0.28022E+00 11000   0.964E+00    0.738E+00
DAV:   3    -0.190059789106E+03    0.50471E+00   -0.13030E+00 12280   0.865E+00    0.416E+00
DAV:   4    -0.189854054866E+03    0.20573E+00   -0.68822E-01 12680   0.413E+00    0.248E+00
DAV:   5    -0.189787698407E+03    0.66356E-01   -0.30920E-01 11080   0.233E+00    0.192E+00
DAV:   6    -0.189758226331E+03    0.29472E-01   -0.10309E-01 12640   0.191E+00    0.870E-01
DAV:   7    -0.189750373026E+03    0.78533E-02   -0.15468E-02 12560   0.607E-01    0.193E-01
DAV:   8    -0.189750362117E+03    0.10909E-04   -0.25885E-03 11080   0.157E-01    0.131E-01
DAV:   9    -0.189750956219E+03   -0.59410E-03   -0.13024E-03 10520   0.213E-01    0.236E-01
DAV:  10    -0.189750817579E+03    0.13864E-03   -0.14855E-03 10560   0.270E-01    0.173E-01
DAV:  11    -0.189750496195E+03    0.32138E-03   -0.54462E-04  9320   0.132E-01    0.303E-02
DAV:  12    -0.189750511827E+03   -0.15633E-04   -0.82604E-05  6280   0.332E-02
   3 F= -.18975051E+03 E0= -.18963309E+03  d E =-.108285E+01
       N       E                     dE             d eps       ncg     rms          rms(c)
DAV:   1    -0.191287411582E+03   -0.15369E+01   -0.70392E+01  8160   0.192E+01    0.459E+00
DAV:   2    -0.191179320690E+03    0.10809E+00   -0.53558E+00 13400   0.835E+00    0.518E+00
DAV:   3    -0.191227896850E+03   -0.48576E-01   -0.15666E+00 11680   0.918E+00    0.684E+00
DAV:   4    -0.190904136795E+03    0.32376E+00   -0.15570E+00 12520   0.783E+00    0.412E+00
DAV:   5    -0.190890965362E+03    0.13171E-01   -0.87034E-01 11200   0.587E+00    0.359E+00
DAV:   6    -0.190708765129E+03    0.18220E+00   -0.20542E-01 11280   0.296E+00    0.604E-01
DAV:   7    -0.190707147806E+03    0.16173E-02   -0.36928E-02 11360   0.693E-01    0.451E-01
DAV:   8    -0.190703754823E+03    0.33930E-02   -0.72517E-03 10200   0.352E-01    0.164E-01
DAV:   9    -0.190704387988E+03   -0.63316E-03   -0.19613E-03 12400   0.293E-01    0.265E-01
DAV:  10    -0.190704101899E+03    0.28609E-03   -0.16016E-03 10720   0.277E-01    0.123E-01
DAV:  11    -0.190703958689E+03    0.14321E-03   -0.59645E-04 10240   0.108E-01    0.451E-02
DAV:  12    -0.190703966431E+03   -0.77424E-05   -0.13545E-04  7320   0.442E-02
   4 F= -.19070397E+03 E0= -.19060538E+03  d E =-.953455E+00
       N       E                     dE             d eps       ncg     rms          rms(c)
DAV:   1    -0.192124853261E+03   -0.14209E+01   -0.15167E+02  8160   0.277E+01    0.586E+00
DAV:   2    -0.191968263517E+03    0.15659E+00   -0.99446E+00 12200   0.959E+00    0.556E+00
DAV:   3    -0.192424660255E+03   -0.45640E+00   -0.33693E+00 12240   0.127E+01    0.948E+00
DAV:   4    -0.191545664258E+03    0.87900E+00   -0.22175E+00 12320   0.107E+01    0.306E+00
DAV:   5    -0.191517773627E+03    0.27891E-01   -0.55814E-01 11840   0.496E+00    0.422E+00
DAV:   6    -0.191375641216E+03    0.14213E+00   -0.61121E-01 12200   0.522E+00    0.161E+00
DAV:   7    -0.191350500067E+03    0.25141E-01   -0.72047E-02 11920   0.146E+00    0.694E-01
DAV:   8    -0.191349053686E+03    0.14464E-02   -0.25157E-02 12080   0.112E+00    0.762E-01
DAV:   9    -0.191343351622E+03    0.57021E-02   -0.10115E-02 11440   0.757E-01    0.233E-01
DAV:  10    -0.191343474495E+03   -0.12287E-03   -0.28216E-03 11640   0.227E-01    0.116E-01
DAV:  11    -0.191343346601E+03    0.12789E-03   -0.86730E-04 10720   0.108E-01    0.657E-02
DAV:  12    -0.191343307718E+03    0.38883E-04   -0.14277E-04  7200   0.483E-02
   5 F= -.19134331E+03 E0= -.19124986E+03  d E =-.639341E+00
       N       E                     dE             d eps       ncg     rms          rms(c)
DAV:   1    -0.191395350122E+03   -0.52004E-01   -0.47119E+00  8160   0.460E+00    0.639E-01
DAV:   2    -0.191456542587E+03   -0.61192E-01   -0.25283E-01 12400   0.268E+00    0.233E+00
DAV:   3    -0.191406531530E+03    0.50011E-01   -0.12264E-01 11920   0.234E+00    0.562E-01
DAV:   4    -0.191406768797E+03   -0.23727E-03   -0.16317E-02 11400   0.865E-01    0.603E-01
DAV:   5    -0.191403023605E+03    0.37452E-02   -0.74422E-03 11440   0.634E-01    0.195E-01
DAV:   6    -0.191403048088E+03   -0.24483E-04   -0.23404E-03 11440   0.298E-01    0.226E-01
DAV:   7    -0.191403065111E+03   -0.17023E-04   -0.25865E-03 11720   0.383E-01    0.219E-01
DAV:   8    -0.191402511581E+03    0.55353E-03   -0.93050E-04  9960   0.207E-01    0.310E-02
DAV:   9    -0.191402525208E+03   -0.13627E-04   -0.91091E-05  6080   0.376E-02
   6 F= -.19140253E+03 E0= -.19130668E+03  d E =-.592175E-01
       N       E                     dE             d eps       ncg     rms          rms(c)
DAV:   1    -0.191464545343E+03   -0.62034E-01   -0.80923E+00  8160   0.601E+00    0.801E-01
DAV:   2    -0.191561046622E+03   -0.96501E-01   -0.35726E-01 13080   0.326E+00    0.312E+00
DAV:   3    -0.191477537275E+03    0.83509E-01   -0.22881E-01 12080   0.304E+00    0.748E-01
DAV:   4    -0.191477067654E+03    0.46962E-03   -0.26753E-02 11640   0.111E+00    0.756E-01
DAV:   5    -0.191471297965E+03    0.57697E-02   -0.12318E-02 11600   0.792E-01    0.267E-01
DAV:   6    -0.191471416345E+03   -0.11838E-03   -0.45458E-03 11440   0.443E-01    0.333E-01
DAV:   7    -0.191470853420E+03    0.56293E-03   -0.41394E-03 11240   0.485E-01    0.219E-01
DAV:   8    -0.191470266892E+03    0.58653E-03   -0.11102E-03  9920   0.214E-01    0.392E-02
DAV:   9    -0.191470259307E+03    0.75857E-05   -0.12712E-04  6720   0.463E-02
   7 F= -.19147026E+03 E0= -.19137244E+03  d E =-.677341E-01
       N       E                     dE             d eps       ncg     rms          rms(c)
DAV:   1    -0.191503970247E+03   -0.33703E-01   -0.21664E+00  8160   0.315E+00    0.450E-01
DAV:   2    -0.191532946703E+03   -0.28976E-01   -0.11105E-01 12720   0.191E+00    0.168E+00
DAV:   3    -0.191507169932E+03    0.25777E-01   -0.59513E-02 12160   0.163E+00    0.378E-01
DAV:   4    -0.191507620458E+03   -0.45053E-03   -0.83626E-03 11520   0.626E-01    0.448E-01
DAV:   5    -0.191505626081E+03    0.19944E-02   -0.44586E-03 11320   0.469E-01    0.161E-01
DAV:   6    -0.191505724368E+03   -0.98287E-04   -0.17413E-03  9880   0.280E-01    0.206E-01
DAV:   7    -0.191505431354E+03    0.29301E-03   -0.14155E-03  9840   0.280E-01    0.110E-01
DAV:   8    -0.191505273620E+03    0.15773E-03   -0.30466E-04  7520   0.108E-01    0.234E-02
DAV:   9    -0.191505270291E+03    0.33289E-05   -0.54328E-05  6960   0.303E-02
   8 F= -.19150527E+03 E0= -.19140705E+03  d E =-.350110E-01
       N       E                     dE             d eps       ncg     rms          rms(c)
DAV:   1    -0.191558091777E+03   -0.52818E-01   -0.59843E+00  8160   0.522E+00    0.649E-01
DAV:   2    -0.191612152848E+03   -0.54061E-01   -0.23989E-01 13080   0.251E+00    0.228E+00
DAV:   3    -0.191568052687E+03    0.44100E-01   -0.12335E-01 12280   0.226E+00    0.592E-01
DAV:   4    -0.191568973515E+03   -0.92083E-03   -0.18431E-02 11480   0.919E-01    0.691E-01
DAV:   5    -0.191564142628E+03    0.48309E-02   -0.10338E-02 11280   0.732E-01    0.248E-01
DAV:   6    -0.191564132148E+03    0.10481E-04   -0.34220E-03 11480   0.384E-01    0.270E-01
DAV:   7    -0.191563893228E+03    0.23892E-03   -0.30708E-03 11160   0.429E-01    0.207E-01
DAV:   8    -0.191563308925E+03    0.58430E-03   -0.93825E-04  9640   0.213E-01    0.336E-02
DAV:   9    -0.191563306957E+03    0.19684E-05   -0.10190E-04  6760   0.408E-02
   9 F= -.19156331E+03 E0= -.19146632E+03  d E =-.580367E-01
       N       E                     dE             d eps       ncg     rms          rms(c)
DAV:   1    -0.191556371377E+03    0.69375E-02   -0.11513E-01  8160   0.723E-01    0.907E-02
DAV:   2    -0.191557278894E+03   -0.90752E-03   -0.43899E-03 12480   0.314E-01    0.284E-01
DAV:   3    -0.191556484760E+03    0.79413E-03   -0.18739E-03  9760   0.302E-01    0.822E-02
DAV:   4    -0.191556461570E+03    0.23189E-04   -0.23736E-04  6000   0.921E-02
  10 F= -.19155646E+03 E0= -.19145910E+03  d E =0.684539E-02
       N       E                     dE             d eps       ncg     rms          rms(c)
DAV:   1    -0.191558072149E+03   -0.15874E-02   -0.72782E-03  8920   0.207E-01    0.576E-02
DAV:   2    -0.191558494882E+03   -0.42273E-03   -0.12333E-03 10320   0.228E-01    0.214E-01
DAV:   3    -0.191558014102E+03    0.48078E-03   -0.84093E-04  8760   0.209E-01    0.412E-02
DAV:   4    -0.191558039715E+03   -0.25613E-04   -0.11128E-04  5840   0.733E-02
  11 F= -.19155804E+03 E0= -.19146100E+03  d E =-.157814E-02
       N       E                     dE             d eps       ncg     rms          rms(c)
DAV:   1    -0.191588109689E+03   -0.30096E-01   -0.15491E+00  8160   0.268E+00    0.340E-01
DAV:   2    -0.191596367435E+03   -0.82577E-02   -0.57328E-02 13360   0.106E+00    0.853E-01
DAV:   3    -0.191590382622E+03    0.59848E-02   -0.21276E-02 11560   0.955E-01    0.354E-01
DAV:   4    -0.191590261160E+03    0.12146E-03   -0.56464E-03 11400   0.507E-01    0.362E-01
DAV:   5    -0.191588933524E+03    0.13276E-02   -0.31592E-03 10960   0.421E-01    0.148E-01
DAV:   6    -0.191588847290E+03    0.86234E-04   -0.13070E-03  9760   0.211E-01    0.130E-01
DAV:   7    -0.191588817225E+03    0.30065E-04   -0.90226E-04  9680   0.226E-01
  12 F= -.19158882E+03 E0= -.19149276E+03  d E =-.307775E-01
       N       E                     dE             d eps       ncg     rms          rms(c)
DAV:   1    -0.191607021416E+03   -0.18174E-01   -0.61069E-01  8160   0.167E+00    0.198E-01
DAV:   2    -0.191610159702E+03   -0.31383E-02   -0.20993E-02 12520   0.578E-01    0.476E-01
DAV:   3    -0.191608072259E+03    0.20874E-02   -0.69344E-03 11600   0.594E-01    0.209E-01
DAV:   4    -0.191607849833E+03    0.22243E-03   -0.13933E-03  9600   0.222E-01    0.154E-01
DAV:   5    -0.191607740001E+03    0.10983E-03   -0.99729E-04  8600   0.221E-01    0.132E-01
DAV:   6    -0.191607605267E+03    0.13473E-03   -0.48619E-04  8160   0.139E-01    0.553E-02
DAV:   7    -0.191607607233E+03   -0.19656E-05   -0.16225E-04  6320   0.910E-02
  13 F= -.19160761E+03 E0= -.19151300E+03  d E =-.187900E-01
       N       E                     dE             d eps       ncg     rms          rms(c)
DAV:   1    -0.191638175667E+03   -0.30570E-01   -0.15756E+00  8160   0.268E+00    0.274E-01
DAV:   2    -0.191642384260E+03   -0.42086E-02   -0.46319E-02 12200   0.686E-01    0.435E-01
DAV:   3    -0.191642035831E+03    0.34843E-03   -0.11209E-02 11840   0.687E-01    0.418E-01
DAV:   4    -0.191640551346E+03    0.14845E-02   -0.35610E-03 12040   0.387E-01    0.169E-01
DAV:   5    -0.191640352780E+03    0.19857E-03   -0.11824E-03  9960   0.247E-01    0.150E-01
DAV:   6    -0.191640286095E+03    0.66685E-04   -0.10568E-03 10800   0.229E-01    0.114E-01
DAV:   7    -0.191640215297E+03    0.70799E-04   -0.47703E-04  8200   0.158E-01
  14 F= -.19164022E+03 E0= -.19154791E+03  d E =-.326081E-01
       N       E                     dE             d eps       ncg     rms          rms(c)
DAV:   1    -0.191607313865E+03    0.32972E-01   -0.15205E+00  8160   0.264E+00    0.280E-01
DAV:   2    -0.191611722478E+03   -0.44086E-02   -0.45649E-02 12080   0.742E-01    0.463E-01
DAV:   3    -0.191610311819E+03    0.14107E-02   -0.95380E-03 12360   0.714E-01    0.342E-01
DAV:   4    -0.191609471627E+03    0.84019E-03   -0.37006E-03 11480   0.403E-01    0.229E-01
DAV:   5    -0.191609120789E+03    0.35084E-03   -0.18429E-03  9720   0.310E-01    0.176E-01
DAV:   6    -0.191608960912E+03    0.15988E-03   -0.11618E-03  9600   0.225E-01    0.117E-01
DAV:   7    -0.191608981122E+03   -0.20210E-04   -0.75201E-04  8840   0.197E-01
  15 F= -.19160898E+03 E0= -.19151377E+03  d E =0.312342E-01
       N       E                     dE             d eps       ncg     rms          rms(c)
DAV:   1    -0.191667276541E+03   -0.58316E-01   -0.56489E+00  8160   0.512E+00    0.593E-01
DAV:   2    -0.191683705589E+03   -0.16429E-01   -0.18765E-01 12680   0.158E+00    0.968E-01
DAV:   3    -0.191678864413E+03    0.48412E-02   -0.45207E-02 12080   0.145E+00    0.735E-01
DAV:   4    -0.191675087337E+03    0.37771E-02   -0.16593E-02 12160   0.876E-01    0.549E-01
DAV:   5    -0.191672525007E+03    0.25623E-02   -0.83080E-03 12160   0.710E-01    0.314E-01
DAV:   6    -0.191671736208E+03    0.78880E-03   -0.41809E-03 11240   0.394E-01    0.156E-01
DAV:   7    -0.191671410288E+03    0.32592E-03   -0.15631E-03 11440   0.211E-01    0.118E-01
DAV:   8    -0.191671308395E+03    0.10189E-03   -0.55155E-04  9080   0.181E-01    0.786E-02
DAV:   9    -0.191671229572E+03    0.78823E-04   -0.12353E-04  6000   0.832E-02
  16 F= -.19167123E+03 E0= -.19158114E+03  d E =-.622484E-01
       N       E                     dE             d eps       ncg     rms          rms(c)
DAV:   1    -0.191683693534E+03   -0.12385E-01   -0.22870E-01  8160   0.102E+00    0.106E-01
DAV:   2    -0.191684361272E+03   -0.66774E-03   -0.69987E-03 12120   0.300E-01    0.168E-01
DAV:   3    -0.191684170881E+03    0.19039E-03   -0.11365E-03 10880   0.265E-01    0.121E-01
DAV:   4    -0.191684057163E+03    0.11372E-03   -0.39242E-04  8040   0.145E-01    0.733E-02
DAV:   5    -0.191684042527E+03    0.14636E-04   -0.27382E-04  6400   0.118E-01
  17 F= -.19168404E+03 E0= -.19159556E+03  d E =-.128130E-01
       N       E                     dE             d eps       ncg     rms          rms(c)
DAV:   1    -0.191722497430E+03   -0.38440E-01   -0.21712E+00  8160   0.315E+00    0.320E-01
DAV:   2    -0.191726542221E+03   -0.40448E-02   -0.60911E-02 12040   0.737E-01    0.339E-01
DAV:   3    -0.191727739044E+03   -0.11968E-02   -0.97734E-03 11720   0.704E-01    0.511E-01
DAV:   4    -0.191725472476E+03    0.22666E-02   -0.61143E-03 10640   0.537E-01    0.218E-01
DAV:   5    -0.191725302358E+03    0.17012E-03   -0.18899E-03 10080   0.350E-01    0.194E-01
DAV:   6    -0.191725075707E+03    0.22665E-03   -0.11080E-03 11640   0.256E-01    0.105E-01
DAV:   7    -0.191724880888E+03    0.19482E-03   -0.35427E-04  8200   0.105E-01    0.388E-02
DAV:   8    -0.191724882929E+03   -0.20404E-05   -0.94571E-05  6760   0.761E-02
  18 F= -.19172488E+03 E0= -.19164012E+03  d E =-.408404E-01
       N       E                     dE             d eps       ncg     rms          rms(c)
DAV:   1    -0.191738778571E+03   -0.13898E-01   -0.23838E-01  8160   0.105E+00    0.116E-01
DAV:   2    -0.191739215899E+03   -0.43733E-03   -0.79911E-03 12120   0.242E-01    0.840E-02
DAV:   3    -0.191739392318E+03   -0.17642E-03   -0.93067E-04 11080   0.201E-01    0.165E-01
DAV:   4    -0.191739127176E+03    0.26514E-03   -0.61236E-04  8400   0.187E-01    0.721E-02
DAV:   5    -0.191739112758E+03    0.14418E-04   -0.16691E-04  5840   0.982E-02
  19 F= -.19173911E+03 E0= -.19165540E+03  d E =-.142298E-01
       N       E                     dE             d eps       ncg     rms          rms(c)
DAV:   1    -0.191719430200E+03    0.19697E-01   -0.58542E-01  8160   0.162E+00    0.221E-01
DAV:   2    -0.191726378229E+03   -0.69480E-02   -0.30767E-02 11720   0.997E-01    0.739E-01
DAV:   3    -0.191720660086E+03    0.57181E-02   -0.10020E-02 11560   0.795E-01    0.179E-01
DAV:   4    -0.191720602842E+03    0.57244E-04   -0.16273E-03  9920   0.278E-01    0.172E-01
DAV:   5    -0.191720330178E+03    0.27266E-03   -0.81502E-04  9160   0.209E-01    0.943E-02
DAV:   6    -0.191720234633E+03    0.95544E-04   -0.23191E-04  6040   0.925E-02
  20 F= -.19172023E+03 E0= -.19163490E+03  d E =0.188781E-01
       N       E                     dE             d eps       ncg     rms          rms(c)
DAV:   1    -0.191640089468E+03    0.80241E-01   -0.74016E+00  8160   0.588E+00    0.752E-01
DAV:   2    -0.191654185860E+03   -0.14096E-01   -0.26841E-01 12280   0.158E+00    0.839E-01
DAV:   3    -0.191661551556E+03   -0.73657E-02   -0.60033E-02 11760   0.169E+00    0.137E+00
DAV:   4    -0.191646032932E+03    0.15519E-01   -0.46119E-02 11760   0.133E+00    0.473E-01
DAV:   5    -0.191645325976E+03    0.70696E-03   -0.10885E-02 10840   0.714E-01    0.465E-01
DAV:   6    -0.191643733549E+03    0.15924E-02   -0.83600E-03 11200   0.665E-01    0.288E-01
DAV:   7    -0.191642931627E+03    0.80192E-03   -0.30183E-03 11320   0.354E-01    0.161E-01
DAV:   8    -0.191642732587E+03    0.19904E-03   -0.92150E-04 10760   0.241E-01    0.966E-02
DAV:   9    -0.191642614930E+03    0.11766E-03   -0.21023E-04  7560   0.105E-01    0.254E-02
DAV:  10    -0.191642623244E+03   -0.83145E-05   -0.66811E-05  6680   0.288E-02
  21 F= -.19164262E+03 E0= -.19155144E+03  d E =0.776114E-01
       N       E                     dE             d eps       ncg     rms          rms(c)
DAV:   1    -0.191743201918E+03   -0.10059E+00   -0.15601E+01  8160   0.855E+00    0.958E-01
DAV:   2    -0.191775726873E+03   -0.32525E-01   -0.51570E-01 11560   0.213E+00    0.102E+00
DAV:   3    -0.191784508558E+03   -0.87817E-02   -0.93035E-02 12440   0.215E+00    0.142E+00
DAV:   4    -0.191763328035E+03    0.21181E-01   -0.40436E-02 12280   0.158E+00    0.573E-01
DAV:   5    -0.191761066834E+03    0.22612E-02   -0.13167E-02 11560   0.844E-01    0.510E-01
DAV:   6    -0.191760020490E+03    0.10463E-02   -0.11102E-02 12320   0.855E-01    0.383E-01
DAV:   7    -0.191758147460E+03    0.18730E-02   -0.40802E-03 11440   0.451E-01    0.179E-01
DAV:   8    -0.191757928672E+03    0.21879E-03   -0.13489E-03 10200   0.277E-01    0.122E-01
DAV:   9    -0.191757747671E+03    0.18100E-03   -0.36317E-04  9040   0.133E-01    0.358E-02
DAV:  10    -0.191757729834E+03    0.17837E-04   -0.12611E-04  7160   0.390E-02
  22 F= -.19175773E+03 E0= -.19167559E+03  d E =-.115107E+00
       N       E                     dE             d eps       ncg     rms          rms(c)
DAV:   1    -0.191785143227E+03   -0.27396E-01   -0.93376E-01  8160   0.207E+00    0.218E-01
DAV:   2    -0.191787907101E+03   -0.27639E-02   -0.29220E-02 12160   0.588E-01    0.356E-01
DAV:   3    -0.191787243310E+03    0.66379E-03   -0.53270E-03 12440   0.557E-01    0.274E-01
DAV:   4    -0.191786535256E+03    0.70805E-03   -0.16100E-03 10080   0.278E-01    0.117E-01
DAV:   5    -0.191786541576E+03   -0.63202E-05   -0.77019E-04  9560   0.209E-01
  23 F= -.19178654E+03 E0= -.19170645E+03  d E =-.288117E-01
       N       E                     dE             d eps       ncg     rms          rms(c)
DAV:   1    -0.191676604954E+03    0.10993E+00   -0.11271E+01  8160   0.718E+00    0.876E-01
DAV:   2    -0.191758938154E+03   -0.82333E-01   -0.46454E-01 13000   0.306E+00    0.275E+00
DAV:   3    -0.191701719455E+03    0.57219E-01   -0.20317E-01 12200   0.285E+00    0.852E-01
DAV:   4    -0.191695872171E+03    0.58473E-02   -0.21337E-02 11280   0.903E-01    0.576E-01
DAV:   5    -0.191693316665E+03    0.25555E-02   -0.13543E-02 12200   0.898E-01    0.456E-01
DAV:   6    -0.191691692029E+03    0.16246E-02   -0.74838E-03 12520   0.592E-01    0.257E-01
DAV:   7    -0.191691775156E+03   -0.83126E-04   -0.37693E-03 11640   0.461E-01    0.288E-01
DAV:   8    -0.191690749301E+03    0.10259E-02   -0.15545E-03 10720   0.328E-01    0.535E-02
DAV:   9    -0.191690719687E+03    0.29614E-04   -0.14952E-04  6400   0.586E-02
  24 F= -.19169072E+03 E0= -.19160330E+03  d E =0.958219E-01
       N       E                     dE             d eps       ncg     rms          rms(c)
DAV:   1    -0.191615763712E+03    0.74986E-01   -0.79459E+00  8160   0.602E+00    0.648E-01
DAV:   2    -0.191652295611E+03   -0.36532E-01   -0.27375E-01 12600   0.201E+00    0.169E+00
DAV:   3    -0.191633410356E+03    0.18885E-01   -0.90767E-02 12320   0.185E+00    0.718E-01
DAV:   4    -0.191628330007E+03    0.50803E-02   -0.12222E-02 11520   0.591E-01    0.289E-01
DAV:   5    -0.191627351838E+03    0.97817E-03   -0.44855E-03 12120   0.375E-01    0.261E-01
DAV:   6    -0.191628378345E+03   -0.10265E-02   -0.55815E-03 11560   0.588E-01    0.387E-01
DAV:   7    -0.191626574998E+03    0.18033E-02   -0.28058E-03 11160   0.398E-01    0.612E-02
DAV:   8    -0.191626602025E+03   -0.27027E-04   -0.28958E-04  9000   0.119E-01
  25 F= -.19162660E+03 E0= -.19153382E+03  d E =0.641177E-01
       N       E                     dE             d eps       ncg     rms          rms(c)
DAV:   1    -0.191619574818E+03    0.70002E-02   -0.28602E+00  8160   0.363E+00    0.437E-01
DAV:   2    -0.191640362173E+03   -0.20787E-01   -0.92307E-02 13520   0.165E+00    0.129E+00
DAV:   3    -0.191622628673E+03    0.17733E-01   -0.31903E-02 12280   0.141E+00    0.340E-01
DAV:   4    -0.191623745404E+03   -0.11167E-02   -0.71070E-03 10640   0.563E-01    0.497E-01
DAV:   5    -0.191621608836E+03    0.21366E-02   -0.60160E-03 11600   0.543E-01    0.223E-01
DAV:   6    -0.191621638920E+03   -0.30084E-04   -0.23854E-03 11200   0.338E-01    0.214E-01
DAV:   7    -0.191621345447E+03    0.29347E-03   -0.15218E-03 10400   0.306E-01    0.123E-01
DAV:   8    -0.191621091112E+03    0.25433E-03   -0.37566E-04  8440   0.124E-01    0.165E-02
DAV:   9    -0.191621096347E+03   -0.52351E-05   -0.51972E-05  6680   0.224E-02
  26 F= -.19162110E+03 E0= -.19152791E+03  d E =0.550568E-02
       N       E                     dE             d eps       ncg     rms          rms(c)
DAV:   1    -0.191652112947E+03   -0.31022E-01   -0.25012E+00  8160   0.344E+00    0.453E-01
DAV:   2    -0.191659487047E+03   -0.73741E-02   -0.98023E-02 12760   0.116E+00    0.677E-01
DAV:   3    -0.191657078525E+03    0.24085E-02   -0.21428E-02 12320   0.108E+00    0.530E-01
DAV:   4    -0.191654908037E+03    0.21705E-02   -0.95271E-03 12280   0.650E-01    0.411E-01
DAV:   5    -0.191653890134E+03    0.10179E-02   -0.56917E-03 12080   0.547E-01    0.292E-01
DAV:   6    -0.191653339640E+03    0.55049E-03   -0.30997E-03 10920   0.353E-01    0.181E-01
DAV:   7    -0.191653206669E+03    0.13297E-03   -0.15751E-03 10080   0.299E-01    0.159E-01
DAV:   8    -0.191652912340E+03    0.29433E-03   -0.53039E-04  8720   0.179E-01    0.352E-02
DAV:   9    -0.191652895966E+03    0.16375E-04   -0.59807E-05  6520   0.377E-02
  27 F= -.19165290E+03 E0= -.19156113E+03  d E =-.317996E-01
       N       E                     dE             d eps       ncg     rms          rms(c)
DAV:   1    -0.191672305108E+03   -0.19393E-01   -0.23532E+00  8160   0.329E+00    0.403E-01
DAV:   2    -0.191690288668E+03   -0.17984E-01   -0.95759E-02 13040   0.145E+00    0.122E+00
DAV:   3    -0.191677149415E+03    0.13139E-01   -0.33194E-02 12320   0.130E+00    0.379E-01
DAV:   4    -0.191677539291E+03   -0.38988E-03   -0.63864E-03 11040   0.572E-01    0.437E-01
DAV:   5    -0.191675528354E+03    0.20109E-02   -0.41476E-03 11160   0.503E-01    0.147E-01
DAV:   6    -0.191675767798E+03   -0.23944E-03   -0.16382E-03 11320   0.269E-01    0.191E-01
DAV:   7    -0.191675442401E+03    0.32540E-03   -0.10597E-03 10320   0.264E-01    0.963E-02
DAV:   8    -0.191675298865E+03    0.14354E-03   -0.21775E-04  7040   0.102E-01    0.203E-02
DAV:   9    -0.191675297981E+03    0.88359E-06   -0.47806E-05  6920   0.251E-02
  28 F= -.19167530E+03 E0= -.19158563E+03  d E =-.224020E-01
       N       E                     dE             d eps       ncg     rms          rms(c)
DAV:   1    -0.191697880199E+03   -0.22581E-01   -0.13782E+00  8160   0.252E+00    0.275E-01
DAV:   2    -0.191700126096E+03   -0.22459E-02   -0.41995E-02 12200   0.554E-01    0.192E-01
DAV:   3    -0.191700323884E+03   -0.19779E-03   -0.39364E-03 12320   0.380E-01    0.282E-01
DAV:   4    -0.191699602918E+03    0.72097E-03   -0.23661E-03 11840   0.389E-01    0.185E-01
DAV:   5    -0.191699353810E+03    0.24911E-03   -0.14171E-03  9760   0.244E-01    0.132E-01
DAV:   6    -0.191699490591E+03   -0.13678E-03   -0.10654E-03  9680   0.250E-01    0.178E-01
DAV:   7    -0.191699173023E+03    0.31757E-03   -0.59008E-04  8240   0.178E-01    0.522E-02
DAV:   8    -0.191699164922E+03    0.81005E-05   -0.98752E-05  6000   0.801E-02
  29 F= -.19169916E+03 E0= -.19161119E+03  d E =-.238669E-01
       N       E                     dE             d eps       ncg     rms          rms(c)
DAV:   1    -0.191679317764E+03    0.19855E-01   -0.82007E-01  8160   0.194E+00    0.209E-01
DAV:   2    -0.191681111410E+03   -0.17936E-02   -0.25965E-02 12160   0.468E-01    0.228E-01
DAV:   3    -0.191681420399E+03   -0.30899E-03   -0.40473E-03 12040   0.493E-01    0.310E-01
DAV:   4    -0.191680470802E+03    0.94960E-03   -0.19458E-03 10200   0.335E-01    0.132E-01
DAV:   5    -0.191680423936E+03    0.46867E-04   -0.93657E-04  8960   0.209E-01
  30 F= -.19168042E+03 E0= -.19159025E+03  d E =0.187410E-01
       N       E                     dE             d eps       ncg     rms          rms(c)
DAV:   1    -0.191641848515E+03    0.38622E-01   -0.33989E+00  8160   0.396E+00    0.443E-01
DAV:   2    -0.191650161564E+03   -0.83130E-02   -0.10294E-01 12560   0.105E+00    0.658E-01
DAV:   3    -0.191649719162E+03    0.44240E-03   -0.22290E-02 12120   0.110E+00    0.679E-01
DAV:   4    -0.191646289763E+03    0.34294E-02   -0.11023E-02 11840   0.665E-01    0.358E-01
DAV:   5    -0.191645356155E+03    0.93361E-03   -0.42602E-03 11040   0.501E-01    0.243E-01
DAV:   6    -0.191645107510E+03    0.24864E-03   -0.26611E-03 11960   0.335E-01    0.176E-01
DAV:   7    -0.191644922731E+03    0.18478E-03   -0.15302E-03 11280   0.284E-01    0.150E-01
DAV:   8    -0.191644650006E+03    0.27272E-03   -0.42018E-04  9240   0.164E-01    0.307E-02
DAV:   9    -0.191644647643E+03    0.23626E-05   -0.57503E-05  6400   0.358E-02
  31 F= -.19164465E+03 E0= -.19155288E+03  d E =0.357763E-01
       N       E                     dE             d eps       ncg     rms          rms(c)
DAV:   1    -0.191628179074E+03    0.16471E-01   -0.99292E-01  8160   0.215E+00    0.238E-01
DAV:   2    -0.191630027782E+03   -0.18487E-02   -0.29851E-02 11640   0.482E-01    0.222E-01
DAV:   3    -0.191630551446E+03   -0.52366E-03   -0.47182E-03 12320   0.499E-01    0.353E-01
DAV:   4    -0.191629409754E+03    0.11417E-02   -0.24926E-03 11240   0.395E-01    0.149E-01
DAV:   5    -0.191629270609E+03    0.13914E-03   -0.10149E-03  9640   0.200E-01    0.145E-01
DAV:   6    -0.191629270854E+03   -0.24498E-06   -0.96964E-04  9200   0.219E-01
  32 F= -.19162927E+03 E0= -.19153763E+03  d E =0.153768E-01
       N       E                     dE             d eps       ncg     rms          rms(c)
DAV:   1    -0.191640002849E+03   -0.10732E-01   -0.66669E-01  8160   0.175E+00    0.249E-01
DAV:   2    -0.191650728233E+03   -0.10725E-01   -0.36140E-02 11880   0.107E+00    0.108E+00
DAV:   3    -0.191641022591E+03    0.97056E-02   -0.19274E-02 11080   0.918E-01    0.174E-01
DAV:   4    -0.191641037009E+03   -0.14418E-04   -0.15328E-03 10680   0.258E-01    0.181E-01
DAV:   5    -0.191640687081E+03    0.34993E-03   -0.79087E-04 11320   0.235E-01    0.885E-02
DAV:   6    -0.191640621732E+03    0.65349E-04   -0.36836E-04  8480   0.121E-01
  33 F= -.19164062E+03 E0= -.19155004E+03  d E =-.113509E-01
       N       E                     dE             d eps       ncg     rms          rms(c)
DAV:   1    -0.191653972732E+03   -0.13286E-01   -0.86346E-01  8160   0.201E+00    0.275E-01
DAV:   2    -0.191663702727E+03   -0.97300E-02   -0.41112E-02 11840   0.103E+00    0.101E+00
DAV:   3    -0.191655275942E+03    0.84268E-02   -0.17814E-02 11600   0.900E-01    0.205E-01
DAV:   4    -0.191655409620E+03   -0.13368E-03   -0.22419E-03 11040   0.316E-01    0.236E-01
DAV:   5    -0.191654807690E+03    0.60193E-03   -0.14179E-03 10680   0.299E-01    0.110E-01
DAV:   6    -0.191654818731E+03   -0.11040E-04   -0.60867E-04  9520   0.166E-01
  34 F= -.19165482E+03 E0= -.19156604E+03  d E =-.141970E-01
       N       E                     dE             d eps       ncg     rms          rms(c)
DAV:   1    -0.191684326632E+03   -0.29519E-01   -0.48900E+00  8160   0.473E+00    0.579E-01
DAV:   2    -0.191718985063E+03   -0.34658E-01   -0.18145E-01 13040   0.205E+00    0.183E+00
DAV:   3    -0.191692417908E+03    0.26567E-01   -0.67768E-02 12040   0.179E+00    0.516E-01
DAV:   4    -0.191693939211E+03   -0.15213E-02   -0.13196E-02 10760   0.871E-01    0.655E-01
DAV:   5    -0.191689045979E+03    0.48932E-02   -0.81828E-03 11160   0.730E-01    0.198E-01
DAV:   6    -0.191689695216E+03   -0.64924E-03   -0.31592E-03 11600   0.392E-01    0.294E-01
DAV:   7    -0.191688762367E+03    0.93285E-03   -0.19930E-03 11000   0.386E-01    0.109E-01
DAV:   8    -0.191688581219E+03    0.18115E-03   -0.34444E-04  8400   0.123E-01    0.276E-02
DAV:   9    -0.191688571908E+03    0.93113E-05   -0.68930E-05  7600   0.337E-02
  35 F= -.19168857E+03 E0= -.19160368E+03  d E =-.337532E-01
       N       E                     dE             d eps       ncg     rms          rms(c)
DAV:   1    -0.191704257405E+03   -0.15676E-01   -0.11987E+00  8160   0.232E+00    0.233E-01
DAV:   2    -0.191707997082E+03   -0.37397E-02   -0.34442E-02 12880   0.648E-01    0.461E-01
DAV:   3    -0.191706782745E+03    0.12143E-02   -0.70659E-03 11520   0.599E-01    0.297E-01
DAV:   4    -0.191706062970E+03    0.71977E-03   -0.16297E-03  9800   0.275E-01    0.146E-01
DAV:   5    -0.191705955827E+03    0.10714E-03   -0.85829E-04 10440   0.233E-01    0.124E-01
DAV:   6    -0.191705911468E+03    0.44359E-04   -0.65110E-04 10040   0.179E-01
  36 F= -.19170591E+03 E0= -.19162294E+03  d E =-.173396E-01
       N       E                     dE             d eps       ncg     rms          rms(c)
DAV:   1    -0.191694743538E+03    0.11212E-01   -0.45721E-01  8160   0.145E+00    0.167E-01
DAV:   2    -0.191697399318E+03   -0.26558E-02   -0.14734E-02 12800   0.593E-01    0.446E-01
DAV:   3    -0.191695307315E+03    0.20920E-02   -0.41347E-03 11480   0.531E-01    0.130E-01
DAV:   4    -0.191695352849E+03   -0.45535E-04   -0.83732E-04  9680   0.190E-01
  37 F= -.19169535E+03 E0= -.19161178E+03  d E =0.105586E-01
       N       E                     dE             d eps       ncg     rms          rms(c)
DAV:   1    -0.191686789925E+03    0.85174E-02   -0.62957E-01  8160   0.170E+00    0.251E-01
DAV:   2    -0.191692532220E+03   -0.57423E-02   -0.25299E-02 13280   0.951E-01    0.723E-01
DAV:   3    -0.191686903241E+03    0.56290E-02   -0.10020E-02 12080   0.798E-01    0.189E-01
DAV:   4    -0.191687305350E+03   -0.40211E-03   -0.22430E-03  9720   0.344E-01    0.301E-01
DAV:   5    -0.191686545461E+03    0.75989E-03   -0.17638E-03  9840   0.319E-01    0.121E-01
DAV:   6    -0.191686464812E+03    0.80649E-04   -0.63465E-04 10120   0.174E-01
  38 F= -.19168646E+03 E0= -.19160142E+03  d E =0.888804E-02
       N       E                     dE             d eps       ncg     rms          rms(c)
DAV:   1    -0.191654666329E+03    0.31879E-01   -0.49577E+00  8160   0.474E+00    0.524E-01
DAV:   2    -0.191674182316E+03   -0.19516E-01   -0.14099E-01 12960   0.172E+00    0.111E+00
DAV:   3    -0.191660670607E+03    0.13512E-01   -0.30717E-02 11840   0.143E+00    0.416E-01
DAV:   4    -0.191659805257E+03    0.86535E-03   -0.59517E-03 11400   0.567E-01    0.389E-01
DAV:   5    -0.191658744501E+03    0.10608E-02   -0.46355E-03 11880   0.534E-01    0.265E-01
DAV:   6    -0.191659412307E+03   -0.66781E-03   -0.36568E-03 11760   0.433E-01    0.364E-01
DAV:   7    -0.191658154955E+03    0.12574E-02   -0.22528E-03 10400   0.383E-01    0.983E-02
DAV:   8    -0.191658032913E+03    0.12204E-03   -0.28592E-04  7960   0.989E-02    0.244E-02
DAV:   9    -0.191658030910E+03    0.20029E-05   -0.61612E-05  7720   0.302E-02
  39 F= -.19165803E+03 E0= -.19156980E+03  d E =0.284339E-01
       N       E                     dE             d eps       ncg     rms          rms(c)
DAV:   1    -0.191695865253E+03   -0.37832E-01   -0.96378E+00  8160   0.665E+00    0.782E-01
DAV:   2    -0.191744264506E+03   -0.48399E-01   -0.30418E-01 12960   0.269E+00    0.197E+00
DAV:   3    -0.191706717072E+03    0.37547E-01   -0.92971E-02 12160   0.238E+00    0.566E-01
DAV:   4    -0.191703079306E+03    0.36378E-02   -0.98109E-03 12240   0.677E-01    0.396E-01
DAV:   5    -0.191702892850E+03    0.18646E-03   -0.76163E-03 11280   0.748E-01    0.441E-01
DAV:   6    -0.191701707256E+03    0.11856E-02   -0.62971E-03 11680   0.604E-01    0.307E-01
DAV:   7    -0.191701263710E+03    0.44355E-03   -0.34456E-03 10520   0.427E-01    0.259E-01
DAV:   8    -0.191700559806E+03    0.70390E-03   -0.11508E-03  9760   0.242E-01    0.470E-02
DAV:   9    -0.191700533655E+03    0.26151E-04   -0.12227E-04  6400   0.468E-02
  40 F= -.19170053E+03 E0= -.19161659E+03  d E =-.425027E-01
       N       E                     dE             d eps       ncg     rms          rms(c)
DAV:   1    -0.191700089171E+03    0.47063E-03   -0.92596E-02  8160   0.653E-01    0.912E-02
DAV:   2    -0.191700920467E+03   -0.83130E-03   -0.42188E-03 12640   0.365E-01    0.261E-01
DAV:   3    -0.191700232349E+03    0.68812E-03   -0.13548E-03 10000   0.294E-01    0.926E-02
DAV:   4    -0.191700205808E+03    0.26541E-04   -0.27198E-04  7520   0.123E-01
  41 F= -.19170021E+03 E0= -.19161583E+03  d E =0.327847E-03
       N       E                     dE             d eps       ncg     rms          rms(c)
DAV:   1    -0.191715755377E+03   -0.15523E-01   -0.12086E+00  8160   0.233E+00    0.243E-01
DAV:   2    -0.191720000213E+03   -0.42448E-02   -0.33361E-02 12960   0.743E-01    0.520E-01
DAV:   3    -0.191717671272E+03    0.23289E-02   -0.74588E-03 12200   0.658E-01    0.253E-01
DAV:   4    -0.191717648202E+03    0.23070E-04   -0.21158E-03 10720   0.347E-01    0.262E-01
DAV:   5    -0.191716988748E+03    0.65945E-03   -0.14229E-03  9800   0.307E-01    0.106E-01
DAV:   6    -0.191717077876E+03   -0.89128E-04   -0.68671E-04  9960   0.179E-01
  42 F= -.19171708E+03 E0= -.19163476E+03  d E =-.168721E-01
       N       E                     dE             d eps       ncg     rms          rms(c)
DAV:   1    -0.191670384037E+03    0.46605E-01   -0.85372E+00  8160   0.623E+00    0.675E-01
DAV:   2    -0.191697902783E+03   -0.27519E-01   -0.23642E-01 12680   0.200E+00    0.130E+00
DAV:   3    -0.191681587605E+03    0.16315E-01   -0.49335E-02 12240   0.178E+00    0.637E-01
DAV:   4    -0.191680173803E+03    0.14138E-02   -0.14661E-02 11880   0.853E-01    0.629E-01
DAV:   5    -0.191677301507E+03    0.28723E-02   -0.10893E-02 12120   0.808E-01    0.389E-01
DAV:   6    -0.191676863986E+03    0.43752E-03   -0.56510E-03 12440   0.501E-01    0.302E-01
DAV:   7    -0.191676137348E+03    0.72664E-03   -0.29665E-03 11360   0.445E-01    0.187E-01
DAV:   8    -0.191675661866E+03    0.47548E-03   -0.81159E-04 10120   0.213E-01    0.383E-02
DAV:   9    -0.191675650277E+03    0.11589E-04   -0.10938E-04  6800   0.434E-02
  43 F= -.19167565E+03 E0= -.19158903E+03  d E =0.414276E-01
       N       E                     dE             d eps       ncg     rms          rms(c)
DAV:   1    -0.191717433092E+03   -0.41771E-01   -0.10560E+01  8160   0.696E+00    0.812E-01
DAV:   2    -0.191762691895E+03   -0.45259E-01   -0.32296E-01 12600   0.259E+00    0.194E+00
DAV:   3    -0.191730814061E+03    0.31878E-01   -0.92957E-02 12240   0.229E+00    0.730E-01
DAV:   4    -0.191732732794E+03   -0.19187E-02   -0.23081E-02 12240   0.120E+00    0.968E-01
DAV:   5    -0.191723633892E+03    0.90989E-02   -0.18409E-02 11720   0.108E+00    0.356E-01
DAV:   6    -0.191724587609E+03   -0.95372E-03   -0.75383E-03 11560   0.643E-01    0.451E-01
DAV:   7    -0.191722445166E+03    0.21424E-02   -0.48367E-03 11520   0.593E-01    0.160E-01
DAV:   8    -0.191722053046E+03    0.39212E-03   -0.78284E-04 10160   0.173E-01    0.430E-02
DAV:   9    -0.191722021989E+03    0.31057E-04   -0.13515E-04  7840   0.443E-02
  44 F= -.19172202E+03 E0= -.19163997E+03  d E =-.463717E-01
       N       E                     dE             d eps       ncg     rms          rms(c)
DAV:   1    -0.191716495417E+03    0.55576E-02   -0.18024E-01  8160   0.922E-01    0.130E-01
DAV:   2    -0.191717150716E+03   -0.65530E-03   -0.60695E-03 12480   0.384E-01    0.253E-01
DAV:   3    -0.191716478843E+03    0.67187E-03   -0.16980E-03 10600   0.336E-01    0.103E-01
DAV:   4    -0.191716410171E+03    0.68672E-04   -0.44431E-04  8160   0.154E-01
  45 F= -.19171641E+03 E0= -.19163382E+03  d E =0.561182E-02
       N       E                     dE             d eps       ncg     rms          rms(c)
DAV:   1    -0.191727686297E+03   -0.11207E-01   -0.67380E-01  8160   0.174E+00    0.182E-01
DAV:   2    -0.191731717516E+03   -0.40312E-02   -0.22091E-02 12640   0.636E-01    0.553E-01
DAV:   3    -0.191728956980E+03    0.27605E-02   -0.61501E-03 10720   0.572E-01    0.173E-01
DAV:   4    -0.191728944447E+03    0.12533E-04   -0.10488E-03  9640   0.236E-01    0.164E-01
DAV:   5    -0.191728648607E+03    0.29584E-03   -0.53015E-04  8920   0.196E-01    0.621E-02
DAV:   6    -0.191728676833E+03   -0.28226E-04   -0.28337E-04  7960   0.105E-01
  46 F= -.19172868E+03 E0= -.19164745E+03  d E =-.122667E-01
       N       E                     dE             d eps       ncg     rms          rms(c)
DAV:   1    -0.191728704750E+03   -0.56143E-04   -0.28730E-02  8160   0.412E-01    0.996E-02
DAV:   2    -0.191729881312E+03   -0.11766E-02   -0.33412E-03 12240   0.442E-01    0.330E-01
DAV:   3    -0.191728595178E+03    0.12861E-02   -0.16819E-03  9760   0.369E-01    0.500E-02
DAV:   4    -0.191728620815E+03   -0.25637E-04   -0.17001E-04  5520   0.832E-02
  47 F= -.19172862E+03 E0= -.19164796E+03  d E =0.560186E-04
       N       E                     dE             d eps       ncg     rms          rms(c)
DAV:   1    -0.191746964279E+03   -0.18369E-01   -0.13967E+00  8160   0.254E+00    0.292E-01
DAV:   2    -0.191750659781E+03   -0.36955E-02   -0.43140E-02 12760   0.810E-01    0.466E-01
DAV:   3    -0.191749059129E+03    0.16007E-02   -0.76978E-03 12200   0.705E-01    0.286E-01
DAV:   4    -0.191748449107E+03    0.61002E-03   -0.24223E-03 11400   0.380E-01    0.246E-01
DAV:   5    -0.191748119344E+03    0.32976E-03   -0.17938E-03 10680   0.357E-01    0.184E-01
DAV:   6    -0.191747986287E+03    0.13306E-03   -0.11405E-03  9680   0.241E-01    0.144E-01
DAV:   7    -0.191747807855E+03    0.17843E-03   -0.56298E-04  8200   0.204E-01    0.708E-02
DAV:   8    -0.191747739939E+03    0.67916E-04   -0.10576E-04  6320   0.764E-02
  48 F= -.19174774E+03 E0= -.19166803E+03  d E =-.191191E-01
       N       E                     dE             d eps       ncg     rms          rms(c)
DAV:   1    -0.191755397600E+03   -0.75897E-02   -0.22536E-01  8160   0.101E+00    0.103E-01
DAV:   2    -0.191755828380E+03   -0.43078E-03   -0.54906E-03 12240   0.244E-01    0.146E-01
DAV:   3    -0.191755800042E+03    0.28338E-04   -0.10689E-03 11120   0.249E-01    0.144E-01
DAV:   4    -0.191755622531E+03    0.17751E-03   -0.38055E-04  7880   0.148E-01    0.666E-02
DAV:   5    -0.191755640491E+03   -0.17959E-04   -0.19205E-04  6440   0.125E-01
  49 F= -.19175564E+03 E0= -.19167704E+03  d E =-.790055E-02
       N       E                     dE             d eps       ncg     rms          rms(c)
DAV:   1    -0.191746937767E+03    0.86848E-02   -0.33200E-01  8160   0.124E+00    0.133E-01
DAV:   2    -0.191748364009E+03   -0.14262E-02   -0.10922E-02 11840   0.429E-01    0.292E-01
DAV:   3    -0.191747595967E+03    0.76804E-03   -0.22878E-03 10560   0.361E-01    0.144E-01
DAV:   4    -0.191747509449E+03    0.86519E-04   -0.68622E-04  8440   0.190E-01
  50 F= -.19174751E+03 E0= -.19166802E+03  d E =0.813104E-02
       N       E                     dE             d eps       ncg     rms          rms(c)
DAV:   1    -0.191769557886E+03   -0.21962E-01   -0.19812E+00  8160   0.300E+00    0.315E-01
DAV:   2    -0.191776354240E+03   -0.67964E-02   -0.57355E-02 12320   0.102E+00    0.646E-01
DAV:   3    -0.191772769200E+03    0.35850E-02   -0.11491E-02 12160   0.831E-01    0.304E-01
DAV:   4    -0.191772865234E+03   -0.96033E-04   -0.34582E-03 11320   0.479E-01    0.354E-01
DAV:   5    -0.191771577268E+03    0.12880E-02   -0.20492E-03 10640   0.397E-01    0.109E-01
DAV:   6    -0.191771587948E+03   -0.10680E-04   -0.87050E-04 10080   0.166E-01
  51 F= -.19177159E+03 E0= -.19169362E+03  d E =-.240785E-01
       N       E                     dE             d eps       ncg     rms          rms(c)
DAV:   1    -0.191776729123E+03   -0.51519E-02   -0.98566E-02  8160   0.693E-01    0.106E-01
DAV:   2    -0.191778273109E+03   -0.15440E-02   -0.50867E-03 13280   0.455E-01    0.353E-01
DAV:   3    -0.191776782824E+03    0.14903E-02   -0.21010E-03 10000   0.398E-01    0.511E-02
DAV:   4    -0.191776829773E+03   -0.46949E-04   -0.14024E-04  5960   0.903E-02
  52 F= -.19177683E+03 E0= -.19169882E+03  d E =-.524183E-02
       N       E                     dE             d eps       ncg     rms          rms(c)
DAV:   1    -0.191763715488E+03    0.13067E-01   -0.54177E-01  8160   0.156E+00    0.157E-01
DAV:   2    -0.191765709718E+03   -0.19942E-02   -0.15467E-02 11760   0.522E-01    0.336E-01
DAV:   3    -0.191764632461E+03    0.10773E-02   -0.28379E-03 11560   0.450E-01    0.150E-01
DAV:   4    -0.191764571490E+03    0.60971E-04   -0.70896E-04  9200   0.201E-01
  53 F= -.19176457E+03 E0= -.19168546E+03  d E =0.122583E-01
       N       E                     dE             d eps       ncg     rms          rms(c)
DAV:   1    -0.191731389413E+03    0.33243E-01   -0.36218E+00  8160   0.404E+00    0.427E-01
DAV:   2    -0.191741788329E+03   -0.10399E-01   -0.10000E-01 12640   0.129E+00    0.744E-01
DAV:   3    -0.191737484074E+03    0.43043E-02   -0.19349E-02 12560   0.109E+00    0.441E-01
DAV:   4    -0.191736478988E+03    0.10051E-02   -0.58251E-03 11480   0.568E-01    0.377E-01
DAV:   5    -0.191735565975E+03    0.91301E-03   -0.36004E-03 11680   0.525E-01    0.262E-01
DAV:   6    -0.191735366182E+03    0.19979E-03   -0.22393E-03 12080   0.329E-01    0.187E-01
DAV:   7    -0.191735068463E+03    0.29772E-03   -0.11022E-03 10440   0.275E-01    0.126E-01
DAV:   8    -0.191734863086E+03    0.20538E-03   -0.35761E-04  8920   0.146E-01    0.246E-02
DAV:   9    -0.191734859451E+03    0.36351E-05   -0.54691E-05  7560   0.284E-02
  54 F= -.19173486E+03 E0= -.19165496E+03  d E =0.297120E-01
       N       E                     dE             d eps       ncg     rms          rms(c)
DAV:   1    -0.191711446113E+03    0.23417E-01   -0.24702E+00  8160   0.334E+00    0.329E-01
DAV:   2    -0.191717163130E+03   -0.57170E-02   -0.66912E-02 11840   0.907E-01    0.439E-01
DAV:   3    -0.191716567243E+03    0.59589E-03   -0.96931E-03 12520   0.785E-01    0.401E-01
DAV:   4    -0.191715253166E+03    0.13141E-02   -0.38646E-03 12040   0.486E-01    0.261E-01
DAV:   5    -0.191714879110E+03    0.37406E-03   -0.18651E-03 10400   0.367E-01    0.194E-01
DAV:   6    -0.191714854352E+03    0.24759E-04   -0.13410E-03  9880   0.261E-01    0.155E-01
DAV:   7    -0.191714645329E+03    0.20902E-03   -0.70850E-04  9520   0.219E-01    0.102E-01
DAV:   8    -0.191714517284E+03    0.12804E-03   -0.22474E-04  8200   0.112E-01    0.173E-02
DAV:   9    -0.191714519020E+03   -0.17356E-05   -0.34307E-05  6720   0.218E-02
  55 F= -.19171452E+03 E0= -.19163375E+03  d E =0.203404E-01
       N       E                     dE             d eps       ncg     rms          rms(c)
DAV:   1    -0.191723946624E+03   -0.94293E-02   -0.52404E-01  8160   0.157E+00    0.196E-01
DAV:   2    -0.191725788080E+03   -0.18415E-02   -0.19877E-02 12320   0.595E-01    0.313E-01
DAV:   3    -0.191724942074E+03    0.84601E-03   -0.31792E-03 11240   0.478E-01    0.175E-01
DAV:   4    -0.191724648875E+03    0.29320E-03   -0.93770E-04  9800   0.239E-01    0.118E-01
DAV:   5    -0.191724615051E+03    0.33824E-04   -0.68003E-04  9400   0.207E-01
  56 F= -.19172462E+03 E0= -.19164423E+03  d E =-.100960E-01
       N       E                     dE             d eps       ncg     rms          rms(c)
DAV:   1    -0.191729344854E+03   -0.46960E-02   -0.38100E-01  8160   0.135E+00    0.162E-01
DAV:   2    -0.191730862931E+03   -0.15181E-02   -0.12036E-02 12800   0.389E-01    0.318E-01
DAV:   3    -0.191730081828E+03    0.78110E-03   -0.34310E-03 10960   0.432E-01    0.226E-01
DAV:   4    -0.191729671726E+03    0.41010E-03   -0.10045E-03  9560   0.226E-01    0.101E-01
DAV:   5    -0.191729616767E+03    0.54959E-04   -0.37826E-04  8560   0.161E-01
  57 F= -.19172962E+03 E0= -.19164994E+03  d E =-.500172E-02
       N       E                     dE             d eps       ncg     rms          rms(c)
DAV:   1    -0.191730292240E+03   -0.62051E-03   -0.47033E-03  8600   0.204E-01    0.551E-02
DAV:   2    -0.191730696535E+03   -0.40430E-03   -0.88968E-04 11360   0.239E-01    0.184E-01
DAV:   3    -0.191730262113E+03    0.43442E-03   -0.54273E-04  9000   0.206E-01    0.302E-02
DAV:   4    -0.191730272254E+03   -0.10141E-04   -0.40004E-05  5840   0.480E-02
  58 F= -.19173027E+03 E0= -.19165077E+03  d E =-.655487E-03
       N       E                     dE             d eps       ncg     rms          rms(c)
DAV:   1    -0.191734573866E+03   -0.43118E-02   -0.11293E-01  8160   0.714E-01    0.861E-02
DAV:   2    -0.191735271237E+03   -0.69737E-03   -0.35648E-03 12960   0.303E-01    0.238E-01
DAV:   3    -0.191734706655E+03    0.56458E-03   -0.11528E-03  9880   0.270E-01    0.835E-02
DAV:   4    -0.191734689874E+03    0.16781E-04   -0.22498E-04  7080   0.108E-01
  59 F= -.19173469E+03 E0= -.19165595E+03  d E =-.441762E-02
       N       E                     dE             d eps       ncg     rms          rms(c)
DAV:   1    -0.191734651716E+03    0.54940E-04   -0.21774E-01  8160   0.106E+00    0.194E-01
DAV:   2    -0.191736423988E+03   -0.17723E-02   -0.11298E-02 12600   0.564E-01    0.431E-01
DAV:   3    -0.191734429296E+03    0.19947E-02   -0.47892E-03 10960   0.567E-01    0.184E-01
DAV:   4    -0.191734409143E+03    0.20154E-04   -0.14255E-03  9600   0.270E-01    0.203E-01
DAV:   5    -0.191734019216E+03    0.38993E-03   -0.88806E-04  9600   0.240E-01    0.862E-02
DAV:   6    -0.191733981471E+03    0.37745E-04   -0.25796E-04  6880   0.124E-01
  60 F= -.19173398E+03 E0= -.19165405E+03  d E =0.708403E-03
       N       E                     dE             d eps       ncg     rms          rms(c)
DAV:   1    -0.191733702644E+03    0.31657E-03   -0.75797E-02  8160   0.601E-01    0.877E-02
DAV:   2    -0.191734421876E+03   -0.71923E-03   -0.35165E-03 12640   0.320E-01    0.230E-01
DAV:   3    -0.191733825090E+03    0.59679E-03   -0.10471E-03 10000   0.282E-01    0.759E-02
DAV:   4    -0.191733857952E+03   -0.32862E-04   -0.24938E-04  7000   0.122E-01
  61 F= -.19173386E+03 E0= -.19165342E+03  d E =0.123519E-03
       N       E                     dE             d eps       ncg     rms          rms(c)
DAV:   1    -0.191750681404E+03   -0.16856E-01   -0.12426E+00  8160   0.238E+00    0.237E-01
DAV:   2    -0.191753001667E+03   -0.23203E-02   -0.30115E-02 12400   0.593E-01    0.300E-01
DAV:   3    -0.191752788236E+03    0.21343E-03   -0.44961E-03 12280   0.538E-01    0.281E-01
DAV:   4    -0.191752055652E+03    0.73258E-03   -0.15684E-03 10480   0.325E-01    0.170E-01
DAV:   5    -0.191751993576E+03    0.62076E-04   -0.10415E-03 10080   0.279E-01    0.160E-01
DAV:   6    -0.191751843642E+03    0.14993E-03   -0.70195E-04  9440   0.195E-01    0.967E-02
DAV:   7    -0.191751772253E+03    0.71390E-04   -0.30191E-04  8560   0.150E-01
  62 F= -.19175177E+03 E0= -.19167328E+03  d E =-.179143E-01
       N       E                     dE             d eps       ncg     rms          rms(c)
DAV:   1    -0.191744505941E+03    0.73377E-02   -0.18826E-01  8160   0.932E-01    0.919E-02
DAV:   2    -0.191744814337E+03   -0.30840E-03   -0.44918E-03 12040   0.205E-01    0.105E-01
DAV:   3    -0.191744834766E+03   -0.20429E-04   -0.71754E-04 10840   0.215E-01
  63 F= -.19174483E+03 E0= -.19166562E+03  d E =0.693749E-02
       N       E                     dE             d eps       ncg     rms          rms(c)
DAV:   1    -0.191746255119E+03   -0.14408E-02   -0.28843E-01  8160   0.113E+00    0.208E-01
DAV:   2    -0.191753475275E+03   -0.72202E-02   -0.19648E-02 12200   0.105E+00    0.793E-01
DAV:   3    -0.191746210973E+03    0.72643E-02   -0.95788E-03 11120   0.847E-01    0.904E-02
DAV:   4    -0.191746396709E+03   -0.18574E-03   -0.66873E-04  9320   0.197E-01    0.163E-01
DAV:   5    -0.191746165658E+03    0.23105E-03   -0.50760E-04  8280   0.195E-01    0.756E-02
DAV:   6    -0.191746149817E+03    0.15841E-04   -0.22013E-04  7040   0.107E-01
  64 F= -.19174615E+03 E0= -.19166731E+03  d E =-.131505E-02
       N       E                     dE             d eps       ncg     rms          rms(c)
DAV:   1    -0.191726339084E+03    0.19827E-01   -0.23176E+00  8160   0.328E+00    0.438E-01
DAV:   2    -0.191749622247E+03   -0.23283E-01   -0.87196E-02 13040   0.178E+00    0.140E+00
DAV:   3    -0.191728221052E+03    0.21401E-01   -0.36787E-02 12280   0.155E+00    0.292E-01
DAV:   4    -0.191729656518E+03   -0.14355E-02   -0.56221E-03 11480   0.607E-01    0.486E-01
DAV:   5    -0.191727244892E+03    0.24116E-02   -0.36396E-03 11320   0.520E-01    0.150E-01
DAV:   6    -0.191727662124E+03   -0.41723E-03   -0.16988E-03 10440   0.330E-01    0.233E-01
DAV:   7    -0.191727049294E+03    0.61283E-03   -0.91609E-04 10000   0.250E-01    0.432E-02
DAV:   8    -0.191727025483E+03    0.23812E-04   -0.93341E-05  6240   0.494E-02
  65 F= -.19172703E+03 E0= -.19164598E+03  d E =0.191243E-01
       N       E                     dE             d eps       ncg     rms          rms(c)
DAV:   1    -0.191715430886E+03    0.11618E-01   -0.11629E+00  8160   0.231E+00    0.244E-01
DAV:   2    -0.191719282313E+03   -0.38514E-02   -0.30755E-02 12720   0.725E-01    0.485E-01
DAV:   3    -0.191717201953E+03    0.20804E-02   -0.69541E-03 12480   0.649E-01    0.251E-01
DAV:   4    -0.191717304656E+03   -0.10270E-03   -0.23665E-03 10760   0.363E-01    0.273E-01
DAV:   5    -0.191716544758E+03    0.75990E-03   -0.12709E-03  9800   0.312E-01    0.899E-02
DAV:   6    -0.191716698942E+03   -0.15418E-03   -0.65340E-04  9560   0.171E-01    0.126E-01
DAV:   7    -0.191716534749E+03    0.16419E-03   -0.46245E-04  9040   0.176E-01    0.654E-02
DAV:   8    -0.191716482899E+03    0.51849E-04   -0.77155E-05  6000   0.687E-02
  66 F= -.19171648E+03 E0= -.19163383E+03  d E =0.105426E-01
       N       E                     dE             d eps       ncg     rms          rms(c)
DAV:   1    -0.191713672162E+03    0.28626E-02   -0.19329E+00  8160   0.300E+00    0.333E-01
DAV:   2    -0.191720126688E+03   -0.64545E-02   -0.63381E-02 13280   0.934E-01    0.547E-01
DAV:   3    -0.191717401225E+03    0.27255E-02   -0.11125E-02 12240   0.803E-01    0.323E-01
DAV:   4    -0.191717026314E+03    0.37491E-03   -0.36791E-03 12280   0.435E-01    0.298E-01
DAV:   5    -0.191716320045E+03    0.70627E-03   -0.22055E-03 10960   0.374E-01    0.185E-01
DAV:   6    -0.191716243546E+03    0.76499E-04   -0.12687E-03 10080   0.249E-01    0.137E-01
DAV:   7    -0.191716212072E+03    0.31474E-04   -0.83665E-04 10240   0.230E-01
  67 F= -.19171621E+03 E0= -.19163194E+03  d E =0.270827E-03
       N       E                     dE             d eps       ncg     rms          rms(c)
DAV:   1    -0.191718847327E+03   -0.26038E-02   -0.63897E-01  8160   0.173E+00    0.210E-01
DAV:   2    -0.191722256498E+03   -0.34092E-02   -0.21466E-02 12720   0.690E-01    0.507E-01
DAV:   3    -0.191719787118E+03    0.24694E-02   -0.68637E-03 12240   0.612E-01    0.204E-01
DAV:   4    -0.191719813860E+03   -0.26742E-04   -0.15890E-03  9720   0.283E-01    0.203E-01
DAV:   5    -0.191719385516E+03    0.42834E-03   -0.84817E-04  9920   0.252E-01    0.885E-02
DAV:   6    -0.191719387979E+03   -0.24629E-05   -0.40086E-04  9080   0.137E-01
  68 F= -.19171939E+03 E0= -.19163445E+03  d E =-.317591E-02
       N       E                     dE             d eps       ncg     rms          rms(c)
DAV:   1    -0.191728178504E+03   -0.87930E-02   -0.59321E-01  8160   0.166E+00    0.210E-01
DAV:   2    -0.191731375297E+03   -0.31968E-02   -0.20521E-02 12280   0.699E-01    0.493E-01
DAV:   3    -0.191728691704E+03    0.26836E-02   -0.53546E-03 12200   0.594E-01    0.136E-01
DAV:   4    -0.191728646013E+03    0.45691E-04   -0.86680E-04  9680   0.214E-01
  69 F= -.19172865E+03 E0= -.19164462E+03  d E =-.925803E-02
       N       E                     dE             d eps       ncg     rms          rms(c)
DAV:   1    -0.191727556098E+03    0.11356E-02   -0.67037E-03 10720   0.291E-01    0.121E-01
DAV:   2    -0.191731034878E+03   -0.34788E-02   -0.57365E-03 11520   0.648E-01    0.578E-01
DAV:   3    -0.191727437421E+03    0.35975E-02   -0.40314E-03 10040   0.547E-01    0.707E-02
DAV:   4    -0.191727430337E+03    0.70843E-05   -0.13881E-04  6080   0.892E-02
  70 F= -.19172743E+03 E0= -.19164304E+03  d E =0.121568E-02
       N       E                     dE             d eps       ncg     rms          rms(c)
DAV:   1    -0.191736269696E+03   -0.88323E-02   -0.54198E-01  8160   0.159E+00    0.202E-01
DAV:   2    -0.191739057076E+03   -0.27874E-02   -0.20933E-02 12400   0.688E-01    0.436E-01
DAV:   3    -0.191737159372E+03    0.18977E-02   -0.47720E-03 12360   0.574E-01    0.169E-01
DAV:   4    -0.191737058872E+03    0.10050E-03   -0.10328E-03  9800   0.236E-01    0.160E-01
DAV:   5    -0.191736903101E+03    0.15577E-03   -0.88094E-04 10000   0.231E-01    0.126E-01
DAV:   6    -0.191736838023E+03    0.65077E-04   -0.53165E-04  8520   0.164E-01
  71 F= -.19173684E+03 E0= -.19165248E+03  d E =-.940769E-02
       N       E                     dE             d eps       ncg     rms          rms(c)
DAV:   1    -0.191739605920E+03   -0.27028E-02   -0.58915E-02  8160   0.547E-01    0.894E-02
DAV:   2    -0.191740341732E+03   -0.73581E-03   -0.31839E-03 12880   0.327E-01    0.248E-01
DAV:   3    -0.191739605602E+03    0.73613E-03   -0.14020E-03 10040   0.304E-01    0.694E-02
DAV:   4    -0.191739575754E+03    0.29849E-04   -0.15786E-04  6320   0.769E-02
  72 F= -.19173958E+03 E0= -.19165566E+03  d E =-.273773E-02
       N       E                     dE             d eps       ncg     rms          rms(c)
DAV:   1    -0.191750523736E+03   -0.10918E-01   -0.59830E-01  8160   0.167E+00    0.222E-01
DAV:   2    -0.191754524478E+03   -0.40007E-02   -0.21634E-02 11080   0.750E-01    0.582E-01
DAV:   3    -0.191750979977E+03    0.35445E-02   -0.67421E-03 11960   0.640E-01    0.163E-01
DAV:   4    -0.191751138262E+03   -0.15829E-03   -0.14335E-03  9960   0.282E-01    0.204E-01
DAV:   5    -0.191750739824E+03    0.39844E-03   -0.11175E-03 10400   0.276E-01    0.106E-01
DAV:   6    -0.191750707295E+03    0.32529E-04   -0.42666E-04  9000   0.150E-01
  73 F= -.19175071E+03 E0= -.19166725E+03  d E =-.111315E-01
       N       E                     dE             d eps       ncg     rms          rms(c)
DAV:   1    -0.191751367773E+03   -0.62795E-03   -0.24223E-03 10640   0.179E-01    0.651E-02
DAV:   2    -0.191752116069E+03   -0.74830E-03   -0.14272E-03 11000   0.324E-01    0.248E-01
DAV:   3    -0.191751310600E+03    0.80547E-03   -0.92572E-04  9760   0.273E-01    0.332E-02
DAV:   4    -0.191751320560E+03   -0.99603E-05   -0.40433E-05  5600   0.494E-02
  74 F= -.19175132E+03 E0= -.19166798E+03  d E =-.613265E-03
       N       E                     dE             d eps       ncg     rms          rms(c)
DAV:   1    -0.191765239593E+03   -0.13929E-01   -0.87864E-01  8160   0.203E+00    0.240E-01
DAV:   2    -0.191767913391E+03   -0.26738E-02   -0.26835E-02 11080   0.661E-01    0.424E-01
DAV:   3    -0.191766595307E+03    0.13181E-02   -0.61343E-03 12560   0.619E-01    0.262E-01
DAV:   4    -0.191766054822E+03    0.54048E-03   -0.16265E-03 10440   0.286E-01    0.159E-01
DAV:   5    -0.191765986890E+03    0.67932E-04   -0.12440E-03 10080   0.281E-01    0.157E-01
DAV:   6    -0.191765805838E+03    0.18105E-03   -0.67763E-04  9520   0.194E-01    0.735E-02
DAV:   7    -0.191765719785E+03    0.86053E-04   -0.17095E-04  6680   0.835E-02
  75 F= -.19176572E+03 E0= -.19168308E+03  d E =-.143992E-01
       N       E                     dE             d eps       ncg     rms          rms(c)
DAV:   1    -0.191768292868E+03   -0.24870E-02   -0.26455E-02  8160   0.356E-01    0.517E-02
DAV:   2    -0.191768512864E+03   -0.22000E-03   -0.10892E-03 12280   0.177E-01    0.131E-01
DAV:   3    -0.191768304870E+03    0.20799E-03   -0.38363E-04  8880   0.158E-01    0.352E-02
DAV:   4    -0.191768324347E+03   -0.19477E-04   -0.75603E-05  5680   0.665E-02
  76 F= -.19176832E+03 E0= -.19168594E+03  d E =-.260456E-02
       N       E                     dE             d eps       ncg     rms          rms(c)
DAV:   1    -0.191783828121E+03   -0.15523E-01   -0.93388E-01  8160   0.208E+00    0.259E-01
DAV:   2    -0.191787435979E+03   -0.36079E-02   -0.31066E-02 10920   0.749E-01    0.507E-01
DAV:   3    -0.191785019107E+03    0.24169E-02   -0.75427E-03 12040   0.670E-01    0.236E-01
DAV:   4    -0.191784813059E+03    0.20605E-03   -0.19975E-03 11400   0.323E-01    0.202E-01
DAV:   5    -0.191784515303E+03    0.29776E-03   -0.14079E-03  9880   0.310E-01    0.152E-01
DAV:   6    -0.191784372847E+03    0.14246E-03   -0.71452E-04 10480   0.199E-01    0.882E-02
DAV:   7    -0.191784340657E+03    0.32189E-04   -0.35303E-04  8480   0.152E-01
  77 F= -.19178434E+03 E0= -.19170302E+03  d E =-.160163E-01
       N       E                     dE             d eps       ncg     rms          rms(c)
DAV:   1    -0.191785285436E+03   -0.91259E-03   -0.41980E-03  8160   0.165E-01    0.289E-02
DAV:   2    -0.191785315835E+03   -0.30398E-04   -0.21671E-04  7960   0.743E-02
  78 F= -.19178532E+03 E0= -.19170407E+03  d E =-.975177E-03
       N       E                     dE             d eps       ncg     rms          rms(c)
DAV:   1    -0.191807680350E+03   -0.22395E-01   -0.18137E+00  8160   0.290E+00    0.334E-01
DAV:   2    -0.191813059276E+03   -0.53789E-02   -0.48219E-02 11280   0.907E-01    0.614E-01
DAV:   3    -0.191809632506E+03    0.34268E-02   -0.11866E-02 12560   0.877E-01    0.303E-01
DAV:   4    -0.191808861823E+03    0.77068E-03   -0.25138E-03 11440   0.346E-01    0.187E-01
DAV:   5    -0.191808913172E+03   -0.51349E-04   -0.20390E-03 11600   0.357E-01    0.231E-01
DAV:   6    -0.191808516957E+03    0.39622E-03   -0.14192E-03 10760   0.297E-01    0.105E-01
DAV:   7    -0.191808353353E+03    0.16360E-03   -0.36474E-04  8720   0.112E-01    0.326E-02
DAV:   8    -0.191808346180E+03    0.71725E-05   -0.64017E-05  7520   0.600E-02
  79 F= -.19180835E+03 E0= -.19172856E+03  d E =-.230303E-01
       N       E                     dE             d eps       ncg     rms          rms(c)
DAV:   1    -0.191800142940E+03    0.82104E-02   -0.28805E-01  8160   0.117E+00    0.146E-01
DAV:   2    -0.191801137942E+03   -0.99500E-03   -0.82600E-03 11680   0.449E-01    0.302E-01
DAV:   3    -0.191800199246E+03    0.93870E-03   -0.24681E-03 12000   0.400E-01    0.113E-01
DAV:   4    -0.191800062716E+03    0.13653E-03   -0.45755E-04  8840   0.140E-01    0.700E-02
DAV:   5    -0.191800045933E+03    0.16783E-04   -0.32855E-04  8360   0.121E-01
  80 F= -.19180005E+03 E0= -.19171951E+03  d E =0.830025E-02
       N       E                     dE             d eps       ncg     rms          rms(c)
DAV:   1    -0.191820004021E+03   -0.19941E-01   -0.13234E+00  8160   0.248E+00    0.313E-01
DAV:   2    -0.191828162100E+03   -0.81581E-02   -0.50328E-02 10960   0.109E+00    0.759E-01
DAV:   3    -0.191821794666E+03    0.63674E-02   -0.13445E-02 12080   0.933E-01    0.235E-01
DAV:   4    -0.191821616748E+03    0.17792E-03   -0.23795E-03 11200   0.340E-01    0.209E-01
DAV:   5    -0.191821315117E+03    0.30163E-03   -0.16423E-03 10880   0.339E-01    0.173E-01
DAV:   6    -0.191821087272E+03    0.22784E-03   -0.85943E-04 10840   0.223E-01    0.915E-02
DAV:   7    -0.191821100129E+03   -0.12856E-04   -0.46854E-04  8600   0.175E-01
  81 F= -.19182110E+03 E0= -.19174196E+03  d E =-.210542E-01
       N       E                     dE             d eps       ncg     rms          rms(c)
DAV:   1    -0.191819851685E+03    0.12356E-02   -0.37612E-03  8400   0.175E-01    0.171E-02
DAV:   2    -0.191819876597E+03   -0.24912E-04   -0.11375E-04  6200   0.559E-02
  82 F= -.19181988E+03 E0= -.19174061E+03  d E =0.122353E-02
       N       E                     dE             d eps       ncg     rms          rms(c)
DAV:   1    -0.191841852415E+03   -0.22001E-01   -0.15505E+00  8160   0.268E+00    0.315E-01
DAV:   2    -0.191847839666E+03   -0.59873E-02   -0.51756E-02 11160   0.937E-01    0.599E-01
DAV:   3    -0.191844654969E+03    0.31847E-02   -0.11122E-02 12360   0.859E-01    0.310E-01
DAV:   4    -0.191843772253E+03    0.88272E-03   -0.21917E-03 11560   0.335E-01    0.160E-01
DAV:   5    -0.191843782119E+03   -0.98655E-05   -0.15144E-03 11360   0.306E-01    0.186E-01
DAV:   6    -0.191843562175E+03    0.21994E-03   -0.10477E-03 10560   0.260E-01    0.102E-01
DAV:   7    -0.191843408184E+03    0.15399E-03   -0.35342E-04  8680   0.116E-01    0.351E-02
DAV:   8    -0.191843402308E+03    0.58758E-05   -0.65997E-05  7760   0.673E-02
  83 F= -.19184340E+03 E0= -.19176548E+03  d E =-.235257E-01
       N       E                     dE             d eps       ncg     rms          rms(c)
DAV:   1    -0.191847197657E+03   -0.37895E-02   -0.41256E-02  8160   0.438E-01    0.673E-02
DAV:   2    -0.191847508179E+03   -0.31052E-03   -0.18506E-03 11400   0.241E-01    0.164E-01
DAV:   3    -0.191847201358E+03    0.30682E-03   -0.57043E-04  8760   0.201E-01    0.421E-02
DAV:   4    -0.191847208207E+03   -0.68492E-05   -0.89680E-05  5560   0.750E-02
  84 F= -.19184721E+03 E0= -.19176971E+03  d E =-.380590E-02
       N       E                     dE             d eps       ncg     rms          rms(c)
DAV:   1    -0.191872405952E+03   -0.25205E-01   -0.17952E+00  8160   0.289E+00    0.364E-01
DAV:   2    -0.191881184701E+03   -0.87787E-02   -0.63283E-02 11280   0.115E+00    0.774E-01
DAV:   3    -0.191874818153E+03    0.63665E-02   -0.15364E-02 12160   0.102E+00    0.288E-01
DAV:   4    -0.191874359539E+03    0.45861E-03   -0.29968E-03 11440   0.395E-01    0.224E-01
DAV:   5    -0.191874057891E+03    0.30165E-03   -0.20392E-03 11560   0.389E-01    0.198E-01
DAV:   6    -0.191873815687E+03    0.24220E-03   -0.12024E-03 11160   0.269E-01    0.115E-01
DAV:   7    -0.191873754770E+03    0.60917E-04   -0.60827E-04  8600   0.199E-01
  85 F= -.19187375E+03 E0= -.19179798E+03  d E =-.265466E-01
       N       E                     dE             d eps       ncg     rms          rms(c)
DAV:   1    -0.191878286795E+03   -0.44711E-02   -0.53965E-02  8160   0.512E-01    0.739E-02
DAV:   2    -0.191878610692E+03   -0.32390E-03   -0.23286E-03 12800   0.217E-01    0.154E-01
DAV:   3    -0.191878372442E+03    0.23825E-03   -0.59933E-04  9360   0.214E-01    0.683E-02
DAV:   4    -0.191878344094E+03    0.28349E-04   -0.10637E-04  6040   0.816E-02
  86 F= -.19187834E+03 E0= -.19180274E+03  d E =-.458932E-02
       N       E                     dE             d eps       ncg     rms          rms(c)
DAV:   1    -0.191904096497E+03   -0.25724E-01   -0.18204E+00  8160   0.291E+00    0.355E-01
DAV:   2    -0.191912501051E+03   -0.84046E-02   -0.62281E-02 12560   0.111E+00    0.731E-01
DAV:   3    -0.191907072136E+03    0.54289E-02   -0.13885E-02 12280   0.998E-01    0.305E-01
DAV:   4    -0.191906256339E+03    0.81580E-03   -0.24002E-03 11600   0.340E-01    0.174E-01
DAV:   5    -0.191906222225E+03    0.34114E-04   -0.17104E-03 11520   0.330E-01    0.193E-01
DAV:   6    -0.191906042665E+03    0.17956E-03   -0.12090E-03 10760   0.287E-01    0.122E-01
DAV:   7    -0.191905842439E+03    0.20023E-03   -0.47506E-04  8760   0.154E-01    0.559E-02
DAV:   8    -0.191905812665E+03    0.29774E-04   -0.99951E-05  7400   0.853E-02
  87 F= -.19190581E+03 E0= -.19183135E+03  d E =-.274686E-01
       N       E                     dE             d eps       ncg     rms          rms(c)
DAV:   1    -0.191912900370E+03   -0.70579E-02   -0.12082E-01  8160   0.748E-01    0.987E-02
DAV:   2    -0.191913630094E+03   -0.72972E-03   -0.47908E-03 11400   0.339E-01    0.228E-01
DAV:   3    -0.191913068986E+03    0.56111E-03   -0.11969E-03 10640   0.288E-01    0.723E-02
DAV:   4    -0.191913065972E+03    0.30144E-05   -0.18560E-04  6720   0.113E-01
  88 F= -.19191307E+03 E0= -.19183907E+03  d E =-.725331E-02
       N       E                     dE             d eps       ncg     rms          rms(c)
DAV:   1    -0.191937136926E+03   -0.24068E-01   -0.14997E+00  8160   0.264E+00    0.337E-01
DAV:   2    -0.191944850097E+03   -0.77132E-02   -0.53985E-02 11800   0.106E+00    0.718E-01
DAV:   3    -0.191939395266E+03    0.54548E-02   -0.12277E-02 12120   0.947E-01    0.273E-01
DAV:   4    -0.191938876775E+03    0.51849E-03   -0.24278E-03 11360   0.353E-01    0.185E-01
DAV:   5    -0.191938699787E+03    0.17699E-03   -0.15820E-03 11280   0.335E-01    0.174E-01
DAV:   6    -0.191938530481E+03    0.16931E-03   -0.97556E-04 10880   0.251E-01    0.105E-01
DAV:   7    -0.191938441483E+03    0.88998E-04   -0.43877E-04  8720   0.162E-01
  89 F= -.19193844E+03 E0= -.19186569E+03  d E =-.253755E-01
       N       E                     dE             d eps       ncg     rms          rms(c)
DAV:   1    -0.191950908543E+03   -0.12378E-01   -0.38757E-01  8160   0.134E+00    0.173E-01
DAV:   2    -0.191952740428E+03   -0.18319E-02   -0.14113E-02 12880   0.513E-01    0.346E-01
DAV:   3    -0.191951566155E+03    0.11743E-02   -0.32144E-03 12400   0.494E-01    0.160E-01
DAV:   4    -0.191951334645E+03    0.23151E-03   -0.57255E-04  9360   0.173E-01    0.797E-02
DAV:   5    -0.191951328100E+03    0.65450E-05   -0.35147E-04  9480   0.149E-01
  90 F= -.19195133E+03 E0= -.19187884E+03  d E =-.128866E-01
       N       E                     dE             d eps       ncg     rms          rms(c)
DAV:   1    -0.191975436124E+03   -0.24101E-01   -0.15758E+00  8160   0.270E+00    0.333E-01
DAV:   2    -0.191983441298E+03   -0.80052E-02   -0.53444E-02 12240   0.104E+00    0.724E-01
DAV:   3    -0.191977890332E+03    0.55510E-02   -0.12134E-02 12360   0.968E-01    0.255E-01
DAV:   4    -0.191977240845E+03    0.64949E-03   -0.15403E-03 11560   0.279E-01    0.142E-01
DAV:   5    -0.191977405999E+03   -0.16515E-03   -0.12518E-03 11560   0.316E-01    0.187E-01
DAV:   6    -0.191977157236E+03    0.24876E-03   -0.84702E-04 10720   0.237E-01    0.929E-02
DAV:   7    -0.191977043145E+03    0.11409E-03   -0.31799E-04  8680   0.137E-01    0.494E-02
DAV:   8    -0.191977014939E+03    0.28206E-04   -0.55056E-05  7560   0.611E-02
  91 F= -.19197701E+03 E0= -.19190536E+03  d E =-.256868E-01
       N       E                     dE             d eps       ncg     rms          rms(c)
DAV:   1    -0.191996894382E+03   -0.19851E-01   -0.10768E+00  8160   0.223E+00    0.282E-01
DAV:   2    -0.192002803333E+03   -0.59090E-02   -0.39979E-02 11600   0.956E-01    0.621E-01
DAV:   3    -0.191998596538E+03    0.42068E-02   -0.91341E-03 12320   0.826E-01    0.212E-01
DAV:   4    -0.191998311773E+03    0.28477E-03   -0.15341E-03 11080   0.297E-01    0.161E-01
DAV:   5    -0.191998154543E+03    0.15723E-03   -0.95562E-04 11440   0.283E-01    0.135E-01
DAV:   6    -0.191998059953E+03    0.94590E-04   -0.59019E-04 10720   0.187E-01
  92 F= -.19199806E+03 E0= -.19192737E+03  d E =-.210450E-01
       N       E                     dE             d eps       ncg     rms          rms(c)
DAV:   1    -0.192021309748E+03   -0.23155E-01   -0.16577E+00  8160   0.277E+00    0.340E-01
DAV:   2    -0.192029774760E+03   -0.84650E-02   -0.59556E-02 12800   0.110E+00    0.719E-01
DAV:   3    -0.192024272045E+03    0.55027E-02   -0.12228E-02 12160   0.973E-01    0.277E-01
DAV:   4    -0.192023676632E+03    0.59541E-03   -0.19502E-03 11480   0.336E-01    0.179E-01
DAV:   5    -0.192023496584E+03    0.18005E-03   -0.12105E-03 11560   0.315E-01    0.148E-01
DAV:   6    -0.192023453345E+03    0.43239E-04   -0.78147E-04 10880   0.217E-01
  93 F= -.19202345E+03 E0= -.19195362E+03  d E =-.253934E-01
       N       E                     dE             d eps       ncg     rms          rms(c)
DAV:   1    -0.192060148017E+03   -0.36651E-01   -0.56443E+00  8160   0.509E+00    0.623E-01
DAV:   2    -0.192087531677E+03   -0.27384E-01   -0.20087E-01 12000   0.203E+00    0.126E+00
DAV:   3    -0.192070306268E+03    0.17225E-01   -0.38967E-02 12200   0.175E+00    0.501E-01
DAV:   4    -0.192068281777E+03    0.20245E-02   -0.70045E-03 11760   0.661E-01    0.335E-01
DAV:   5    -0.192067562897E+03    0.71888E-03   -0.41005E-03 11920   0.597E-01    0.270E-01
DAV:   6    -0.192067239742E+03    0.32315E-03   -0.24778E-03 11840   0.382E-01    0.174E-01
DAV:   7    -0.192066910466E+03    0.32928E-03   -0.12861E-03 10960   0.272E-01    0.131E-01
DAV:   8    -0.192066706507E+03    0.20396E-03   -0.35106E-04  9040   0.155E-01    0.272E-02
DAV:   9    -0.192066703864E+03    0.26432E-05   -0.52338E-05  6640   0.336E-02
  94 F= -.19206670E+03 E0= -.19199893E+03  d E =-.432505E-01
       N       E                     dE             d eps       ncg     rms          rms(c)
DAV:   1    -0.192097112841E+03   -0.30406E-01   -0.29351E+01  8160   0.116E+01    0.135E+00
DAV:   2    -0.192225119700E+03   -0.12801E+00   -0.10291E+00 12520   0.417E+00    0.252E+00
DAV:   3    -0.192158098766E+03    0.67021E-01   -0.17779E-01 12280   0.377E+00    0.119E+00
DAV:   4    -0.192143275212E+03    0.14824E-01   -0.35078E-02 12600   0.142E+00    0.595E-01
DAV:   5    -0.192140521314E+03    0.27539E-02   -0.17989E-02 12600   0.107E+00    0.526E-01
DAV:   6    -0.192140117256E+03    0.40406E-03   -0.11341E-02 12960   0.926E-01    0.435E-01
DAV:   7    -0.192136899673E+03    0.32176E-02   -0.43989E-03 12320   0.446E-01    0.777E-02
DAV:   8    -0.192137054403E+03   -0.15473E-03   -0.78712E-04 11440   0.193E-01    0.124E-01
DAV:   9    -0.192136875173E+03    0.17923E-03   -0.34307E-04 10320   0.160E-01    0.394E-02
DAV:  10    -0.192136853906E+03    0.21267E-04   -0.97580E-05  6680   0.510E-02
  95 F= -.19213685E+03 E0= -.19207253E+03  d E =-.701500E-01
       N       E                     dE             d eps       ncg     rms          rms(c)
DAV:   1    -0.192142944118E+03   -0.60689E-02   -0.38104E-01  8160   0.132E+00    0.154E-01
DAV:   2    -0.192144287154E+03   -0.13430E-02   -0.16051E-02 11800   0.448E-01    0.206E-01
DAV:   3    -0.192144058523E+03    0.22863E-03   -0.17901E-03 12480   0.363E-01    0.160E-01
DAV:   4    -0.192143751773E+03    0.30675E-03   -0.52921E-04 10000   0.200E-01    0.807E-02
DAV:   5    -0.192143783826E+03   -0.32053E-04   -0.32146E-04  9720   0.171E-01
  96 F= -.19214378E+03 E0= -.19207990E+03  d E =-.692992E-02
       N       E                     dE             d eps       ncg     rms          rms(c)
DAV:   1    -0.192154640859E+03   -0.10889E-01   -0.28543E+00  8160   0.359E+00    0.449E-01
DAV:   2    -0.192169998921E+03   -0.15358E-01   -0.11302E-01 12440   0.155E+00    0.933E-01
DAV:   3    -0.192160465055E+03    0.95339E-02   -0.20133E-02 12360   0.130E+00    0.346E-01
DAV:   4    -0.192159220076E+03    0.12450E-02   -0.29047E-03 11840   0.440E-01    0.216E-01
DAV:   5    -0.192159099847E+03    0.12023E-03   -0.19670E-03 11680   0.418E-01    0.202E-01
DAV:   6    -0.192158770743E+03    0.32910E-03   -0.12467E-03 11960   0.270E-01    0.937E-02
DAV:   7    -0.192158676169E+03    0.94574E-04   -0.40882E-04  9200   0.153E-01
  97 F= -.19215868E+03 E0= -.19209619E+03  d E =-.148923E-01
       N       E                     dE             d eps       ncg     rms          rms(c)
DAV:   1    -0.192158408035E+03    0.36271E-03   -0.90771E-02  8240   0.679E-01    0.149E-01
DAV:   2    -0.192159006904E+03   -0.59887E-03   -0.59474E-03 11120   0.444E-01    0.291E-01
DAV:   3    -0.192158132694E+03    0.87421E-03   -0.20908E-03 11240   0.401E-01    0.114E-01
DAV:   4    -0.192158000947E+03    0.13175E-03   -0.54682E-04  9480   0.189E-01    0.100E-01
DAV:   5    -0.192157947544E+03    0.53403E-04   -0.37142E-04  9600   0.185E-01
  98 F= -.19215795E+03 E0= -.19209502E+03  d E =0.728625E-03
       N       E                     dE             d eps       ncg     rms          rms(c)
DAV:   1    -0.192163627326E+03   -0.56264E-02   -0.10665E+00  8160   0.220E+00    0.267E-01
DAV:   2    -0.192168154484E+03   -0.45272E-02   -0.41093E-02 12560   0.828E-01    0.474E-01
DAV:   3    -0.192166050493E+03    0.21040E-02   -0.71761E-03 12360   0.755E-01    0.247E-01
DAV:   4    -0.192165234374E+03    0.81612E-03   -0.12132E-03 11560   0.262E-01    0.833E-02
DAV:   5    -0.192165299525E+03   -0.65151E-04   -0.70185E-04 10920   0.175E-01
  99 F= -.19216530E+03 E0= -.19210246E+03  d E =-.735198E-02
       N       E                     dE             d eps       ncg     rms          rms(c)
DAV:   1    -0.192164665291E+03    0.56908E-03   -0.69319E-02  8240   0.597E-01    0.138E-01
DAV:   2    -0.192165876702E+03   -0.12114E-02   -0.50693E-03 11920   0.484E-01    0.344E-01
DAV:   3    -0.192164430953E+03    0.14457E-02   -0.21503E-03 11800   0.441E-01    0.102E-01
DAV:   4    -0.192164364629E+03    0.66324E-04   -0.41758E-04  8800   0.155E-01
 100 F= -.19216436E+03 E0= -.19210169E+03  d E =0.934897E-03
