unknown system                          
           1
     8.853396    5.103592    0.000000
    -8.855986    5.108049    0.000000
     0.000000    0.000000   30.000000
   V    Mo   W    S 
   3   3   3  18
Direct configuration=     1
   0.00000000  0.00000000  0.00000000
   0.00000000  0.66666669  0.00000000
   0.66666669  0.00000000  0.00000000
   0.33333334  0.66666669  0.00000000
   1.00000000  0.33333334  0.00000000
   0.66666669  0.33333334  0.00000000
   0.33333334  0.00000000  0.00000000
   0.33333334  0.33333334  0.00000000
   0.66666669  0.66666669  0.00000000
   0.11068511  0.22244981  0.95539999
   0.22244981  0.11068511  0.04460000
   0.11068511  0.55578315  0.95539999
   0.22244981  0.44401845  0.04460000
   0.11068511  0.88911647  0.95539999
   0.22244981  0.77735180  0.04460000
   0.44401845  0.22244981  0.95539999
   0.55578315  0.11068511  0.04460000
   0.44401845  0.55578315  0.95539999
   0.55578315  0.44401845  0.04460000
   0.44401845  0.88911647  0.95539999
   0.55578315  0.77735180  0.04460000
   0.77735180  0.22244981  0.95539999
   0.88911647  0.11068511  0.04460000
   0.77735180  0.55578315  0.95539999
   0.88911647  0.44401845  0.04460000
   0.77735180  0.88911647  0.95539999
   0.88911647  0.77735180  0.04460000
unknown system                          
           1
     8.665470    4.997446    0.000000
    -8.668026    5.001846    0.000000
     0.000000    0.000000   30.000000
   V    Mo   W    S 
   3   3   3  18
Direct configuration=     2
  -0.00036540  0.00078006  0.00002357
   0.00010009  0.66469544 -0.00016332
   0.66707035  0.00130017  0.00018749
   0.33201694  0.66524686 -0.00014965
   0.99965364  0.33449163  0.00003212
   0.66805758  0.33328305  0.00011338
   0.33434526 -0.00065880 -0.00009015
   0.33312708  0.33488049 -0.00003326
   0.66589329  0.66590292  0.00005149
   0.10985982  0.21814568  0.95196281
   0.21850979  0.10935970  0.04806096
   0.10860349  0.55801376  0.95192443
   0.22255868  0.44378251  0.04926478
   0.10751084  0.88720730  0.95313619
   0.21808537  0.77649605  0.04803480
   0.44346098  0.22169333  0.95082043
   0.55703890  0.10811957  0.04808925
   0.44466258  0.55499031  0.95065317
   0.55500510  0.44462166  0.04929274
   0.44828518  0.89138773  0.95193315
   0.55824601  0.78186272  0.04803836
   0.77554956  0.21765371  0.95194087
   0.88668259  0.10648847  0.04688253
   0.78190527  0.55826261  0.95192061
   0.89091908  0.44874134  0.04810454
   0.77919732  0.89228177  0.95313383
   0.89223507  0.77918444  0.04683479
unknown system                          
           1
     8.485513    4.899195    0.000000
    -8.486650    4.901140    0.000000
     0.000000    0.000000   30.000000
   V    Mo   W    S 
   3   3   3  18
Direct configuration=     3
  -0.00036382  0.00104457  0.00003252
   0.00010825  0.66405486 -0.00017994
   0.66712034  0.00177120  0.00020999
   0.33162912  0.66445828 -0.00012998
   0.99982634  0.33509177  0.00003067
   0.66826838  0.33323470  0.00008918
   0.33483106 -0.00060824 -0.00014009
   0.33334999  0.33571664 -0.00003436
   0.66514061  0.66516468  0.00010736
   0.10999613  0.21816252  0.95198632
   0.21868338  0.10941358  0.04796624
   0.10850897  0.55807273  0.95180309
   0.22266536  0.44364692  0.04934272
   0.10768616  0.88725033  0.95324203
   0.21807401  0.77666560  0.04799996
   0.44322033  0.22159255  0.95088419
   0.55688016  0.10794727  0.04815323
   0.44475712  0.55489242  0.95056683
   0.55490053  0.44470975  0.04931078
   0.44828011  0.89157072  0.95195204
   0.55844501  0.78184108  0.04797714
   0.77548450  0.21750185  0.95191402
   0.88660103  0.10642273  0.04686117
   0.78193058  0.55848792  0.95193717
   0.89101905  0.44890652  0.04819082
   0.77911745  0.89209800  0.95322190
   0.89205429  0.77910349  0.04670489
unknown system                          
           1
     8.267765    4.771546    0.000000
    -8.274267    4.782782    0.000000
     0.000000    0.000000   30.000000
   V    Mo   W    S 
   3   3   3  18
Direct configuration=     4
   0.00000034  0.00216738  0.00005116
   0.00023599  0.66169751 -0.00016357
   0.66692815  0.00362701  0.00021010
   0.33033223  0.66099620 -0.00001680
   1.00099588  0.33757906  0.00000379
   0.66840135  0.33278416 -0.00002688
   0.33688355  0.00008303 -0.00026457
   0.33467406  0.33932101 -0.00003429
   0.66143081  0.66164955  0.00026673
   0.10932428  0.21717014  0.95064545
   0.21800019  0.10895733  0.04903112
   0.10780809  0.55861884  0.94986937
   0.22252146  0.44347802  0.05127156
   0.10677808  0.88664973  0.95232566
   0.21697361  0.77619776  0.04928423
   0.44300870  0.22163174  0.94955064
   0.55746696  0.10737972  0.04989259
   0.44477062  0.55498417  0.94854223
   0.55482109  0.44449690  0.05102531
   0.44946823  0.89202292  0.95058965
   0.55903846  0.78288973  0.04918143
   0.77499354  0.21620143  0.95040242
   0.88601519  0.10560109  0.04808027
   0.78310179  0.55930061  0.95054921
   0.89176915  0.45030292  0.04995633
   0.77951961  0.89286631  0.95226276
   0.89295304  0.77956020  0.04751401
unknown system                          
           1
     8.258054    4.767595    0.000000
    -8.270356    4.788886    0.000000
     0.000000    0.000000   30.000000
   V    Mo   W    S 
   3   3   3  18
Direct configuration=     5
   0.00072223  0.00411588  0.00006811
   0.00064968  0.65759929  0.00003767
   0.66686208  0.00806400  0.00003449
   0.32785913  0.65318298  0.00010914
   1.00363586  0.34234746 -0.00006537
   0.66826106  0.33152442 -0.00016796
   0.34088295  0.00168296 -0.00034688
   0.33742201  0.34708479 -0.00001049
   0.65378031  0.65468189  0.00038167
   0.10877810  0.21694318  0.94885223
   0.21782239  0.10911956  0.05030369
   0.10734257  0.55903802  0.94699258
   0.22163163  0.44310228  0.05416874
   0.10599031  0.88578592  0.95107815
   0.21617254  0.77545302  0.05080493
   0.44302162  0.22216346  0.94783728
   0.55862361  0.10728165  0.05242821
   0.44448518  0.55536705  0.94540950
   0.55460652  0.44345596  0.05354221
   0.45068376  0.89156295  0.94890643
   0.55900925  0.78363604  0.05074795
   0.77516137  0.21539164  0.94830977
   0.88560643  0.10572292  0.04990544
   0.78410908  0.55985139  0.94871789
   0.89238854  0.45153964  0.05238273
   0.77941387  0.89312048  0.95116149
   0.89329239  0.77939564  0.04841030
unknown system                          
           1
     8.255887    4.765349    0.000000
    -8.269739    4.789317    0.000000
     0.000000    0.000000   30.000000
   V    Mo   W    S 
   3   3   3  18
Direct configuration=     6
   0.00085476  0.00464199  0.00007612
   0.00079034  0.65657386  0.00002016
   0.66774604  0.01060386  0.00001861
   0.32733094  0.65114558  0.00001302
   1.00414342  0.34292272 -0.00002533
   0.66797072  0.33082463 -0.00012203
   0.34209556  0.00263255 -0.00037586
   0.33774003  0.34859274  0.00013384
   0.65184862  0.65299263  0.00034821
   0.10935774  0.21798838  0.94878038
   0.21871912  0.11007651  0.05020157
   0.10770706  0.55895009  0.94670421
   0.22107230  0.44262691  0.05460457
   0.10638640  0.88568720  0.95117164
   0.21691073  0.77524980  0.05071039
   0.44290466  0.22269301  0.94782995
   0.55899312  0.10771512  0.05271758
   0.44413031  0.55547928  0.94479729
   0.55428069  0.44268619  0.05386408
   0.45037944  0.89066033  0.94902274
   0.55833354  0.78295154  0.05062430
   0.77585041  0.21622610  0.94809098
   0.88573678  0.10653604  0.04998678
   0.78364720  0.55955469  0.94869843
   0.89221212  0.45121755  0.05256545
   0.77873792  0.89247052  0.95133506
   0.89233448  0.77851463  0.04820774
unknown system                          
           1
     8.258459    4.766425    0.000000
    -8.275606    4.796101    0.000000
     0.000000    0.000000   30.000000
   V    Mo   W    S 
   3   3   3  18
Direct configuration=     7
   0.00096654  0.00535079  0.00002408
   0.00105516  0.65522634  0.00002861
   0.66926855  0.01421108 -0.00002999
   0.32629855  0.64810097 -0.00002335
   1.00475478  0.34360828  0.00000737
   0.66757218  0.32979294 -0.00008062
   0.34386212  0.00413464 -0.00044831
   0.33823066  0.35082210  0.00019339
   0.64905520  0.65038817  0.00032349
   0.10993277  0.21890213  0.94878892
   0.21953269  0.11092912  0.05007886
   0.10792604  0.55871405  0.94644948
   0.22050398  0.44221466  0.05499190
   0.10682300  0.88561719  0.95141932
   0.21771780  0.77516022  0.05044411
   0.44272866  0.22320073  0.94791094
   0.55938493  0.10817768  0.05302764
   0.44365679  0.55521111  0.94429340
   0.55398726  0.44200897  0.05410758
   0.45028236  0.88992026  0.94930772
   0.55769663  0.78244814  0.05031087
   0.77649724  0.21708826  0.94788134
   0.88582024  0.10726606  0.05005908
   0.78318382  0.55916919  0.94875185
   0.89204813  0.45100738  0.05267879
   0.77805977  0.89190344  0.95166536
   0.89136860  0.77764054  0.04783806
unknown system                          
           1
     8.258948    4.765434    0.000000
    -8.281162    4.803882    0.000000
     0.000000    0.000000   30.000000
   V    Mo   W    S 
   3   3   3  18
Direct configuration=     8
   0.00102753  0.00580173  0.00000441
   0.00118549  0.65445631  0.00003276
   0.67026916  0.01625271 -0.00003965
   0.32564431  0.64656558 -0.00006258
   1.00494409  0.34381937  0.00003602
   0.66738130  0.32921334 -0.00006712
   0.34490687  0.00513592 -0.00047849
   0.33831715  0.35164638  0.00028261
   0.64773747  0.64903871  0.00031043
   0.11016713  0.21924481  0.94876998
   0.21981008  0.11122511  0.05002146
   0.10800131  0.55860767  0.94631173
   0.22018605  0.44191776  0.05520044
   0.10702341  0.88561039  0.95156935
   0.21807361  0.77512326  0.05029126
   0.44265212  0.22349077  0.94792538
   0.55957184  0.10837386  0.05320123
   0.44341847  0.55511174  0.94401605
   0.55379452  0.44163040  0.05423129
   0.45034042  0.88964017  0.94949052
   0.55744941  0.78232570  0.05010887
   0.77679023  0.21752573  0.94774205
   0.88583534  0.10751281  0.05011763
   0.78301001  0.55904558  0.94877722
   0.89197808  0.45093892  0.05274157
   0.77775550  0.89170705  0.95184975
   0.89094354  0.77725265  0.04761574
unknown system                          
           1
     8.260641    4.766605    0.000000
    -8.282418    4.804296    0.000000
     0.000000    0.000000   30.000000
   V    Mo   W    S 
   3   3   3  18
Direct configuration=     9
   0.00116221  0.00679565 -0.00005161
   0.00136517  0.65298571  0.00003762
   0.67214976  0.01969163 -0.00003630
   0.32439213  0.64408029 -0.00013302
   1.00511132  0.34398028  0.00007867
   0.66710493  0.32823508 -0.00006086
   0.34683247  0.00718423 -0.00054791
   0.33825836  0.35262059  0.00040638
   0.64570605  0.64678328  0.00027840
   0.11048727  0.21966067  0.94877106
   0.22009262  0.11151437  0.04993360
   0.10804281  0.55837119  0.94613622
   0.21964144  0.44140518  0.05547428
   0.10740030  0.88567550  0.95189805
   0.21862483  0.77514847  0.04996569
   0.44255447  0.22395109  0.94797297
   0.55985367  0.10870339  0.05344780
   0.44297627  0.55482318  0.94369694
   0.55348926  0.44106045  0.05437071
   0.45054463  0.88932736  0.94989640
   0.55713092  0.78224009  0.04966127
   0.77722751  0.21825265  0.94752695
   0.88585812  0.10782275  0.05022061
   0.78276279  0.55891291  0.94885634
   0.89186315  0.45084953  0.05280715
   0.77726733  0.89143714  0.95221597
   0.89031468  0.77670182  0.04717654
unknown system                          
           1
     8.261899    4.767319    0.000000
    -8.283573    4.804831    0.000000
     0.000000    0.000000   30.000000
   V    Mo   W    S 
   3   3   3  18
Direct configuration=    10
   0.00116140  0.00672825 -0.00004366
   0.00132347  0.65313834  0.00003663
   0.67193105  0.01922818 -0.00003103
   0.32453704  0.64444044 -0.00012545
   1.00505859  0.34391546  0.00007574
   0.66715498  0.32837641 -0.00006291
   0.34660503  0.00699179 -0.00053636
   0.33821104  0.35237747  0.00040017
   0.64602384  0.64709000  0.00028213
   0.11042468  0.21957632  0.94876138
   0.22001555  0.11143466  0.04995451
   0.10802247  0.55839782  0.94615797
   0.21970533  0.44145907  0.05543478
   0.10734891  0.88567325  0.95186183
   0.21853876  0.77515166  0.05000318
   0.44258248  0.22390218  0.94795432
   0.55981790  0.10866111  0.05341780
   0.44302691  0.55485580  0.94374288
   0.55352603  0.44113123  0.05435018
   0.45053828  0.88938418  0.94985105
   0.55719125  0.78228506  0.04971091
   0.77716740  0.21816210  0.94754847
   0.88585690  0.10776422  0.05021632
   0.78281401  0.55894810  0.94884254
   0.89187752  0.45086255  0.05280018
   0.77733464  0.89148652  0.95216964
   0.89041899  0.77679229  0.04722671
unknown system                          
           1
     8.267857    4.770156    0.000000
    -8.291000    4.810209    0.000000
     0.000000    0.000000   30.000000
   V    Mo   W    S 
   3   3   3  18
Direct configuration=    11
   0.00118608  0.00679164 -0.00004546
   0.00130981  0.65305152  0.00003691
   0.67197140  0.01928101 -0.00002958
   0.32447683  0.64439160 -0.00012578
   1.00504144  0.34392390  0.00007538
   0.66716613  0.32837886 -0.00006428
   0.34666298  0.00708613 -0.00053981
   0.33819530  0.35234398  0.00039999
   0.64601113  0.64703839  0.00028252
   0.11042663  0.21958245  0.94876226
   0.22000885  0.11142831  0.04995919
   0.10800962  0.55838640  0.94616120
   0.21969588  0.44144880  0.05543116
   0.10736219  0.88567062  0.95187712
   0.21853746  0.77515835  0.04998604
   0.44259122  0.22391739  0.94795439
   0.55982451  0.10867279  0.05341975
   0.44300937  0.55483193  0.94375249
   0.55351695  0.44112473  0.05434501
   0.45054833  0.88938988  0.94986933
   0.55719350  0.78228979  0.04969012
   0.77717473  0.21817688  0.94754640
   0.88586327  0.10777100  0.05022144
   0.78282025  0.55895322  0.94884742
   0.89188190  0.45086737  0.05279568
   0.77731403  0.89147756  0.95218062
   0.89041467  0.77677994  0.04721039
unknown system                          
           1
     8.264544    4.767745    0.000000
    -8.289565    4.811050    0.000000
     0.000000    0.000000   30.000000
   V    Mo   W    S 
   3   3   3  18
Direct configuration=    12
   0.00137515  0.00758660 -0.00007834
   0.00128800  0.65204343  0.00003924
   0.67289838  0.02081820 -0.00001256
   0.32373770  0.64323928 -0.00015277
   1.00501673  0.34395047  0.00009438
   0.66711140  0.32801162 -0.00006852
   0.34771542  0.00841966 -0.00057860
   0.33803348  0.35245786  0.00045375
   0.64518814  0.64592774  0.00026862
   0.11052824  0.21973566  0.94874474
   0.22003779  0.11145366  0.04996643
   0.10795407  0.55822841  0.94609107
   0.21942311  0.44119542  0.05552290
   0.10757242  0.88570101  0.95207752
   0.21874572  0.77521312  0.04978529
   0.44262001  0.22417992  0.94794680
   0.55997544  0.10886804  0.05353424
   0.44273921  0.55459536  0.94367096
   0.55336710  0.44086768  0.05438420
   0.45069044  0.88929282  0.95010967
   0.55709222  0.78231640  0.04942159
   0.77738297  0.21853761  0.94743958
   0.88590408  0.10791690  0.05030426
   0.78276784  0.55894185  0.94888363
   0.89184044  0.45083493  0.05281814
   0.77703389  0.89133941  0.95237055
   0.89017505  0.77654142  0.04696311
unknown system                          
           1
     8.264329    4.766897    0.000000
    -8.291436    4.813811    0.000000
     0.000000    0.000000   30.000000
   V    Mo   W    S 
   3   3   3  18
Direct configuration=    13
   0.00146344  0.00805027 -0.00009798
   0.00129939  0.65154267  0.00003903
   0.67348303  0.02183500 -0.00000141
   0.32340355  0.64248605 -0.00017394
   1.00507804  0.34392423  0.00011381
   0.66701031  0.32770813 -0.00006824
   0.34835103  0.00918704 -0.00059494
   0.33795066  0.35265656  0.00050334
   0.64455475  0.64521946  0.00025448
   0.11059152  0.21982884  0.94872215
   0.22007494  0.11147276  0.04995640
   0.10796479  0.55814299  0.94601731
   0.21923769  0.44102556  0.05560474
   0.10770237  0.88575194  0.95218853
   0.21892371  0.77524539  0.04968562
   0.44262690  0.22433555  0.94793407
   0.56006600  0.10898511  0.05361546
   0.44258710  0.55449852  0.94357231
   0.55328042  0.44068045  0.05443596
   0.45074864  0.88919080  0.95023709
   0.55699655  0.78230934  0.04928406
   0.77751979  0.21877173  0.94736447
   0.88591511  0.10800811  0.05035162
   0.78270299  0.55891950  0.94888918
   0.89177931  0.45077197  0.05286105
   0.77689853  0.89125769  0.95248618
   0.89000389  0.77640880  0.04681953
unknown system                          
           1
     8.261988    4.765998    0.000000
    -8.287817    4.810700    0.000000
     0.000000    0.000000   30.000000
   V    Mo   W    S 
   3   3   3  18
Direct configuration=    14
   0.00177060  0.00909471 -0.00012740
   0.00118761  0.65042055  0.00003780
   0.67436489  0.02319777  0.00002312
   0.32272913  0.64138830 -0.00020821
   1.00508870  0.34391112  0.00013641
   0.66698018  0.32744312 -0.00008004
   0.34938247  0.01068021 -0.00062759
   0.33768664  0.35258066  0.00057176
   0.64375755  0.64411734  0.00023517
   0.11064668  0.21993812  0.94867891
   0.22004157  0.11140605  0.04998222
   0.10791165  0.55797821  0.94593020
   0.21895057  0.44074633  0.05569521
   0.10793027  0.88582543  0.95241271
   0.21913525  0.77532659  0.04947390
   0.44271365  0.22461713  0.94789636
   0.56020418  0.10919827  0.05373242
   0.44230524  0.55425667  0.94349241
   0.55312653  0.44039936  0.05448479
   0.45084843  0.88908762  0.95048645
   0.55689052  0.78232454  0.04902064
   0.77773503  0.21915162  0.94725491
   0.88598599  0.10815282  0.05044828
   0.78267217  0.55893460  0.94890583
   0.89171651  0.45070272  0.05290871
   0.77665742  0.89111477  0.95268652
   0.88979501  0.77621982  0.04654842
unknown system                          
           1
     8.271763    4.770524    0.000000
    -8.300821    4.820814    0.000000
     0.000000    0.000000   30.000000
   V    Mo   W    S 
   3   3   3  18
Direct configuration=    15
   0.00124168  0.00770892 -0.00011446
   0.00147121  0.65175306  0.00004403
   0.67366883  0.02224866 -0.00001113
   0.32335941  0.64230067 -0.00017543
   1.00508394  0.34389057  0.00011508
   0.66689876  0.32743044 -0.00006460
   0.34848929  0.00904957 -0.00061078
   0.33805180  0.35301173  0.00051382
   0.64435522  0.64511537  0.00025452
   0.11066680  0.21989051  0.94875950
   0.22016640  0.11158489  0.04989433
   0.10800987  0.55813821  0.94601412
   0.21919842  0.44100353  0.05563190
   0.10773829  0.88577761  0.95217973
   0.21900824  0.77522561  0.04969900
   0.44253144  0.22430944  0.94798462
   0.56008860  0.10898578  0.05363829
   0.44258170  0.55454323  0.94352640
   0.55326658  0.44065150  0.05444345
   0.45082398  0.88917441  0.95024743
   0.55696250  0.78230861  0.04925323
   0.77755064  0.21882851  0.94734276
   0.88586828  0.10802463  0.05033612
   0.78261388  0.55886748  0.94891621
   0.89175938  0.45077372  0.05284954
   0.77685486  0.89127554  0.95250747
   0.88990443  0.77634227  0.04682476
unknown system                          
           1
     8.270408    4.769538    0.000000
    -8.300039    4.820819    0.000000
     0.000000    0.000000   30.000000
   V    Mo   W    S 
   3   3   3  18
Direct configuration=    16
   0.00194548  0.01002639 -0.00015510
   0.00111913  0.64949445  0.00003504
   0.67525248  0.02459161  0.00004694
   0.32213654  0.64042121 -0.00024927
   1.00503017  0.34375658  0.00015293
   0.66698734  0.32708892 -0.00008906
   0.35038601  0.01199351 -0.00064915
   0.33737627  0.35250393  0.00063716
   0.64302828  0.64312950  0.00021035
   0.11070728  0.22003173  0.94861704
   0.21999502  0.11136001  0.05001089
   0.10787027  0.55782275  0.94582760
   0.21865228  0.44047403  0.05582997
   0.10810473  0.88588488  0.95259397
   0.21935752  0.77536981  0.04931223
   0.44277678  0.22491832  0.94783532
   0.56038666  0.10938896  0.05387240
   0.44202627  0.55403396  0.94336101
   0.55299975  0.44011587  0.05456416
   0.45101135  0.88896267  0.95069367
   0.55681271  0.78243138  0.04880210
   0.77794783  0.21950622  0.94713131
   0.88601734  0.10827551  0.05055300
   0.78263109  0.55893072  0.94890490
   0.89163967  0.45062466  0.05297285
   0.77641903  0.89101745  0.95285932
   0.88959717  0.77605944  0.04631831
unknown system                          
           1
     8.266521    4.766817    0.000000
    -8.297533    4.820488    0.000000
     0.000000    0.000000   30.000000
   V    Mo   W    S 
   3   3   3  18
Direct configuration=    17
   0.00201812  0.01046336 -0.00016409
   0.00107583  0.64912104  0.00003126
   0.67558972  0.02512947  0.00006178
   0.32190706  0.64002013 -0.00026209
   1.00499891  0.34367577  0.00016167
   0.66702252  0.32693611 -0.00009576
   0.35079888  0.01253312 -0.00066070
   0.33721978  0.35247041  0.00066520
   0.64273925  0.64274463  0.00020364
   0.11072576  0.22006717  0.94859965
   0.21996874  0.11131847  0.05001187
   0.10785114  0.55775180  0.94580668
   0.21855526  0.44038066  0.05585162
   0.10818575  0.88592264  0.95268296
   0.21943943  0.77539298  0.04923487
   0.44282169  0.22502811  0.94782679
   0.56046048  0.10945860  0.05390301
   0.44191430  0.55392540  0.94334262
   0.55294759  0.44002499  0.05456554
   0.45107184  0.88894259  0.95079270
   0.55679428  0.78246619  0.04869981
   0.77801778  0.21962542  0.94710426
   0.88602187  0.10832028  0.05058147
   0.78261036  0.55892955  0.94891786
   0.89160758  0.45057423  0.05298328
   0.77632645  0.89098271  0.95293904
   0.88952410  0.77600861  0.04621497
unknown system                          
           1
     8.268147    4.767306    0.000000
    -8.300007    4.822443    0.000000
     0.000000    0.000000   30.000000
   V    Mo   W    S 
   3   3   3  18
Direct configuration=    18
   0.00257711  0.01212584 -0.00018300
   0.00073411  0.64769337  0.00002080
   0.67638134  0.02638876  0.00009699
   0.32129010  0.63888021 -0.00029852
   1.00497133  0.34356012  0.00018732
   0.66705632  0.32672985 -0.00011616
   0.35198875  0.01446488 -0.00069143
   0.33680404  0.35210086  0.00073383
   0.64192541  0.64154086  0.00018171
   0.11073661  0.22017128  0.94849717
   0.21985697  0.11112823  0.05010416
   0.10778980  0.55754074  0.94570918
   0.21828214  0.44009697  0.05591658
   0.10844745  0.88602556  0.95296155
   0.21965758  0.77552419  0.04897416
   0.44303939  0.22538306  0.94773891
   0.56063607  0.10970389  0.05400618
   0.44157079  0.55356279  0.94330139
   0.55277546  0.43974255  0.05459839
   0.45112485  0.88886156  0.95109229
   0.55670336  0.78248111  0.04841729
   0.77821840  0.21997112  0.94702145
   0.88610281  0.10847873  0.05070803
   0.78261162  0.55897846  0.94890615
   0.89152473  0.45041920  0.05305716
   0.77606500  0.89079147  0.95316932
   0.88934292  0.77586879  0.04588899
unknown system                          
           1
     8.269823    4.769445    0.000000
    -8.300999    4.823407    0.000000
     0.000000    0.000000   30.000000
   V    Mo   W    S 
   3   3   3  18
Direct configuration=    19
   0.00269483  0.01263121 -0.00018762
   0.00064122  0.64726113  0.00001395
   0.67663013  0.02681987  0.00011312
   0.32110041  0.63853721 -0.00031487
   1.00492570  0.34350448  0.00019448
   0.66710185  0.32662050 -0.00012518
   0.35241597  0.01507727 -0.00069735
   0.33663234  0.35196976  0.00075817
   0.64167462  0.64117008  0.00017043
   0.11075518  0.22022462  0.94844781
   0.21981836  0.11106268  0.05013729
   0.10776484  0.55746564  0.94567158
   0.21816475  0.43999005  0.05595848
   0.10853957  0.88605440  0.95305344
   0.21973350  0.77556025  0.04889355
   0.44311951  0.22553060  0.94770149
   0.56072144  0.10978422  0.05406050
   0.44143853  0.55343150  0.94326754
   0.55270964  0.43962005  0.05461914
   0.45117560  0.88882298  0.95118516
   0.55668734  0.78253299  0.04832503
   0.77830539  0.22009625  0.94697566
   0.88611158  0.10853651  0.05076578
   0.78262236  0.55899330  0.94889864
   0.89149573  0.45036075  0.05308889
   0.77595086  0.89073686  0.95324021
   0.88928322  0.77581930  0.04578454
unknown system                          
           1
     8.251879    4.762013    0.000000
    -8.279495    4.809832    0.000000
     0.000000    0.000000   30.000000
   V    Mo   W    S 
   3   3   3  18
Direct configuration=    20
   0.00276096  0.01214774 -0.00019383
   0.00068401  0.64799328  0.00003553
   0.67634446  0.02622395  0.00006923
   0.32151394  0.63906096 -0.00029408
   1.00496660  0.34328934  0.00018519
   0.66675532  0.32671116 -0.00009884
   0.35178494  0.01438134 -0.00070259
   0.33690903  0.35195994  0.00071854
   0.64204806  0.64165850  0.00017807
   0.11071832  0.22010458  0.94846267
   0.21983227  0.11115307  0.05015807
   0.10787933  0.55757774  0.94563329
   0.21831571  0.44012400  0.05596999
   0.10833270  0.88605317  0.95285365
   0.21970604  0.77553720  0.04907500
   0.44298390  0.22536203  0.94767858
   0.56057450  0.10965745  0.05403853
   0.44166363  0.55369547  0.94325165
   0.55283254  0.43979061  0.05466895
   0.45109424  0.88882576  0.95102645
   0.55666265  0.78244598  0.04850162
   0.77819246  0.21995632  0.94698648
   0.88613836  0.10840510  0.05073505
   0.78253914  0.55898353  0.94883733
   0.89146244  0.45038137  0.05312778
   0.77616894  0.89077884  0.95312349
   0.88934996  0.77595602  0.04597409
unknown system                          
           1
     8.269283    4.768752    0.000000
    -8.301439    4.824408    0.000000
     0.000000    0.000000   30.000000
   V    Mo   W    S 
   3   3   3  18
Direct configuration=    21
   0.00229335  0.00934017 -0.00020689
   0.00126891  0.65070415  0.00011874
   0.67513454  0.02418299 -0.00006326
   0.32263448  0.64075105 -0.00019125
   1.00521833  0.34332758  0.00014702
   0.66593067  0.32695979 -0.00002110
   0.34959173  0.01113366 -0.00071612
   0.33815825  0.35286163  0.00059277
   0.64323804  0.64347179  0.00024682
   0.11071327  0.21984532  0.94867800
   0.22009586  0.11160534  0.05002121
   0.10811245  0.55793939  0.94579453
   0.21892554  0.44069855  0.05580897
   0.10778850  0.88597034  0.95221150
   0.21946880  0.77536794  0.04961233
   0.44237540  0.22452778  0.94782940
   0.56002605  0.10912987  0.05379314
   0.44244998  0.55455364  0.94336332
   0.55322592  0.44050370  0.05464301
   0.45089468  0.88900163  0.95049718
   0.55670803  0.78218197  0.04903241
   0.77774377  0.21940226  0.94716687
   0.88610218  0.10803184  0.05047880
   0.78228644  0.55884732  0.94883675
   0.89152618  0.45063016  0.05298085
   0.77677453  0.89099892  0.95271391
   0.88952860  0.77624566  0.04663100
unknown system                          
           1
     8.270633    4.769123    0.000000
    -8.303565    4.826120    0.000000
     0.000000    0.000000   30.000000
   V    Mo   W    S 
   3   3   3  18
Direct configuration=    22
   0.00336417  0.01367385 -0.00019911
   0.00038088  0.64678686  0.00002948
   0.67701474  0.02728953  0.00010445
   0.32085558  0.63807184 -0.00033086
   1.00493815  0.34324149  0.00020495
   0.66681350  0.32659865 -0.00011822
   0.35269634  0.01603954 -0.00069179
   0.33654706  0.35150377  0.00079253
   0.64147120  0.64066927  0.00014746
   0.11075765  0.22022783  0.94833884
   0.21973315  0.11096407  0.05025680
   0.10779750  0.55736377  0.94562535
   0.21811022  0.43985802  0.05600924
   0.10855929  0.88614530  0.95309206
   0.21988785  0.77563755  0.04880924
   0.44318998  0.22571937  0.94753804
   0.56070267  0.10981011  0.05411268
   0.44136578  0.55333161  0.94321362
   0.55266381  0.43954196  0.05472302
   0.45113518  0.88875659  0.95129762
   0.55662466  0.78251099  0.04826598
   0.77833679  0.22026635  0.94693282
   0.88617134  0.10850205  0.05084367
   0.78253437  0.55897802  0.94883741
   0.89139615  0.45022268  0.05313709
   0.77595382  0.89061989  0.95333844
   0.88921262  0.77588349  0.04568908
unknown system                          
           1
     8.261760    4.764472    0.000000
    -8.292934    4.818429    0.000000
     0.000000    0.000000   30.000000
   V    Mo   W    S 
   3   3   3  18
Direct configuration=    23
   0.00388574  0.01491361 -0.00019833
   0.00006670  0.64590631  0.00000941
   0.67744247  0.02792088  0.00014284
   0.32051549  0.63744149 -0.00036706
   1.00491398  0.34311957  0.00022211
   0.66680788  0.32658331 -0.00014239
   0.35329896  0.01737357 -0.00069506
   0.33624637  0.35100322  0.00081808
   0.64108655  0.63996934  0.00012478
   0.11076383  0.22031248  0.94823664
   0.21963052  0.11079573  0.05036283
   0.10773277  0.55722112  0.94556871
   0.21793917  0.43964075  0.05606457
   0.10870609  0.88621751  0.95327326
   0.22001247  0.77572414  0.04862714
   0.44339238  0.22599061  0.94742575
   0.56081871  0.10994288  0.05418850
   0.44113225  0.55304416  0.94318273
   0.55255296  0.43934810  0.05477358
   0.45111871  0.88869305  0.95149171
   0.55658482  0.78253411  0.04810662
   0.77846168  0.22049114  0.94687951
   0.88621407  0.10857856  0.05093620
   0.78257072  0.55899147  0.94880638
   0.89133142  0.45007376  0.05318853
   0.77583118  0.89050928  0.95349308
   0.88915653  0.77587429  0.04547979
unknown system                          
           1
     8.262102    4.765053    0.000000
    -8.292795    4.818186    0.000000
     0.000000    0.000000   30.000000
   V    Mo   W    S 
   3   3   3  18
Direct configuration=    24
   0.00182383  0.01035513 -0.00024377
   0.00128200  0.64808765  0.00008600
   0.67603499  0.02582518  0.00001202
   0.32128903  0.63947852 -0.00025230
   1.00509196  0.34417531  0.00016102
   0.66709308  0.32693621 -0.00011391
   0.35168831  0.01289488 -0.00080162
   0.33740224  0.35308117  0.00070003
   0.64202797  0.64196410  0.00023757
   0.11083474  0.22004910  0.94863191
   0.22010646  0.11148631  0.04993950
   0.10780477  0.55782782  0.94578083
   0.21831012  0.44036960  0.05597527
   0.10823668  0.88575864  0.95265338
   0.21940472  0.77529388  0.04929576
   0.44247762  0.22489547  0.94795723
   0.56039672  0.10942647  0.05400358
   0.44193211  0.55413805  0.94327704
   0.55294995  0.44000372  0.05461668
   0.45133977  0.88890278  0.95075691