   27   27  100    1
  0.9710400E+02  0.1002848E-08  0.1002848E-08  0.3000000E-08  0.5000000E-15
  1.000000000000000E-004
  CAR 
 unknown system                          
    159     34    120
 
  0.0000000E+00  0.0000000E+00  0.0000000E+00  0.1562500E-01
    1      -17.806465   1.000000
    2      -16.746200   1.000000
    3      -16.629971   1.000000
    4      -16.571802   1.000000
    5      -16.540867   1.000000
    6      -16.435096   1.000000
    7      -16.424176   1.000000
    8      -16.310314   1.000000
    9      -16.220399   1.000000
   10      -16.170013   1.000000
   11      -16.049153   1.000000
   12      -15.976027   1.000000
   13      -15.902749   1.000000
   14      -15.586452   1.000000
   15      -15.539916   1.000000
   16      -15.493244   1.000000
   17      -15.365899   1.000000
   18      -15.247282   1.000000
   19       -9.326881   1.000000
   20       -9.070762   1.000000
   21       -8.962160   1.000000
   22       -8.876264   1.000000
   23       -8.803934   1.000000
   24       -8.773908   1.000000
   25       -8.680291   1.000000
   26       -8.618332   1.000000
   27       -8.523545   1.000000
   28       -8.374669   1.000000
   29       -8.362955   1.000000
   30       -8.241213   1.000000
   31       -8.199494   1.000000
   32       -8.151268   1.000000
   33       -7.998921   1.000000
   34       -7.989205   1.000000
   35       -7.890231   1.000000
   36       -7.777882   1.000000
   37       -7.679881   1.000000
   38       -7.514188   1.000000
   39       -7.496368   1.000000
   40       -7.436023   1.000000
   41       -7.263011   1.000000
   42       -7.188622   1.000000
   43       -7.109756   1.000000
   44       -6.983949   1.000000
   45       -6.863589   1.000000
   46       -6.851162   1.000000
   47       -6.666694   1.000000
   48       -6.620166   1.000000
   49       -6.600457   1.000000
   50       -6.532985   1.000000
   51       -6.448415   1.000000
   52       -6.422338   1.000000
   53       -6.307381   1.000000
   54       -6.280955   1.000000
   55       -6.162044   1.000000
   56       -6.143552   1.000000
   57       -6.062677   1.000000
   58       -5.931146   1.000000
   59       -5.713049   1.000000
   60       -5.597157   1.000000
   61       -5.512966   1.000000
   62       -5.435036   1.000000
   63       -5.255142   1.000000
   64       -5.079194   1.000000
   65       -5.019792   1.000000
   66       -4.955537   1.000000
   67       -4.864796   1.000000
   68       -4.854059   1.000000
   69       -4.833093   1.000000
   70       -4.722990   1.000000
   71       -4.684435   1.000000
   72       -4.551558   1.000000
   73       -4.504956   1.000000
   74       -4.354510   1.000000
   75       -4.331157   1.000000
   76       -4.123046   1.000000
   77       -3.846678   0.999951
   78       -3.631896   0.991281
   79       -3.470271   0.891486
   80       -3.308300   0.535521
   81       -3.268707   0.424340
   82       -2.894890   0.002298
   83       -2.664324   0.000004
   84       -2.619205   0.000001
   85       -2.458076   0.000000
   86       -2.451804   0.000000
   87       -2.345906   0.000000
   88       -2.296948   0.000000
   89       -2.233363   0.000000
   90       -2.126793   0.000000
   91       -2.005734   0.000000
   92       -1.493471   0.000000
   93       -1.353366   0.000000
   94       -1.288261   0.000000
   95       -1.217988   0.000000
   96       -1.025882   0.000000
   97       -0.908756   0.000000
   98       -0.807227   0.000000
   99       -0.730064   0.000000
  100       -0.661541   0.000000
  101       -0.626238   0.000000
  102       -0.502852   0.000000
  103       -0.418612   0.000000
  104       -0.358669   0.000000
  105       -0.211765   0.000000
  106       -0.136997   0.000000
  107       -0.079126   0.000000
  108        0.002233   0.000000
  109        0.213724   0.000000
  110        0.306851   0.000000
  111        0.359859   0.000000
  112        0.391470   0.000000
  113        0.722412   0.000000
  114        0.746455   0.000000
  115        0.904620   0.000000
  116        1.040281   0.000000
  117        1.114888   0.000000
  118        1.641864   0.000000
  119        1.838489   0.000000
  120        2.151962   0.000000
 
  0.1250000E+00  0.2775558E-16  0.0000000E+00  0.3125000E-01
    1      -17.781088   1.000000
    2      -16.789944   1.000000
    3      -16.739857   1.000000
    4      -16.581835   1.000000
    5      -16.493246   1.000000
    6      -16.452309   1.000000
    7      -16.382794   1.000000
    8      -16.331956   1.000000
    9      -16.232431   1.000000
   10      -16.097321   1.000000
   11      -16.025672   1.000000
   12      -15.957671   1.000000
   13      -15.875967   1.000000
   14      -15.595071   1.000000
   15      -15.558337   1.000000
   16      -15.479641   1.000000
   17      -15.375165   1.000000
   18      -15.254370   1.000000
   19       -9.318108   1.000000
   20       -9.204824   1.000000
   21       -9.075567   1.000000
   22       -8.984054   1.000000
   23       -8.829051   1.000000
   24       -8.700919   1.000000
   25       -8.658868   1.000000
   26       -8.584717   1.000000
   27       -8.481959   1.000000
   28       -8.417385   1.000000
   29       -8.404561   1.000000
   30       -8.201015   1.000000
   31       -8.133417   1.000000
   32       -8.041389   1.000000
   33       -8.008406   1.000000
   34       -7.883771   1.000000
   35       -7.864148   1.000000
   36       -7.706018   1.000000
   37       -7.623570   1.000000
   38       -7.551715   1.000000
   39       -7.475075   1.000000
   40       -7.364598   1.000000
   41       -7.343813   1.000000
   42       -7.217903   1.000000
   43       -7.127565   1.000000
   44       -7.010347   1.000000
   45       -6.875832   1.000000
   46       -6.846864   1.000000
   47       -6.731778   1.000000
   48       -6.673472   1.000000
   49       -6.608266   1.000000
   50       -6.472272   1.000000
   51       -6.431598   1.000000
   52       -6.374201   1.000000
   53       -6.326721   1.000000
   54       -6.254046   1.000000
   55       -6.169344   1.000000
   56       -6.117550   1.000000
   57       -6.011204   1.000000
   58       -5.934883   1.000000
   59       -5.706949   1.000000
   60       -5.572398   1.000000
   61       -5.521751   1.000000
   62       -5.470572   1.000000
   63       -5.346467   1.000000
   64       -5.147893   1.000000
   65       -5.123263   1.000000
   66       -5.015860   1.000000
   67       -4.912422   1.000000
   68       -4.874300   1.000000
   69       -4.797325   1.000000
   70       -4.706709   1.000000
   71       -4.585687   1.000000
   72       -4.523047   1.000000
   73       -4.418492   1.000000
   74       -4.360114   1.000000
   75       -4.262600   1.000000
   76       -4.057156   1.000000
   77       -3.909844   0.999993
   78       -3.708732   0.998253
   79       -3.547608   0.962570
   80       -3.406381   0.783097
   81       -3.074565   0.058956
   82       -2.880732   0.001672
   83       -2.706699   0.000016
   84       -2.623633   0.000001
   85       -2.473254   0.000000
   86       -2.407770   0.000000
   87       -2.338415   0.000000
   88       -2.273584   0.000000
   89       -2.191938   0.000000
   90       -2.124074   0.000000
   91       -2.011774   0.000000
   92       -1.485952   0.000000
   93       -1.349870   0.000000
   94       -1.282017   0.000000
   95       -1.187166   0.000000
   96       -1.014523   0.000000
   97       -0.942643   0.000000
   98       -0.839041   0.000000
   99       -0.754262   0.000000
  100       -0.704778   0.000000
  101       -0.674303   0.000000
  102       -0.522598   0.000000
  103       -0.508668   0.000000
  104       -0.325986   0.000000
  105       -0.265712   0.000000
  106       -0.146089   0.000000
  107       -0.120853   0.000000
  108       -0.066424   0.000000
  109        0.171554   0.000000
  110        0.232197   0.000000
  111        0.361860   0.000000
  112        0.533205   0.000000
  113        0.702913   0.000000
  114        0.749829   0.000000
  115        0.936394   0.000000
  116        1.083081   0.000000
  117        1.151418   0.000000
  118        1.686640   0.000000
  119        1.876864   0.000000
  120        2.187320   0.000000
 
  0.2500000E+00  0.5551115E-16  0.0000000E+00  0.3125000E-01
    1      -17.705961   1.000000
    2      -17.001623   1.000000
    3      -16.732545   1.000000
    4      -16.634060   1.000000
    5      -16.573659   1.000000
    6      -16.424296   1.000000
    7      -16.327134   1.000000
    8      -16.278042   1.000000
    9      -16.225271   1.000000
   10      -16.067513   1.000000
   11      -15.975599   1.000000
   12      -15.906159   1.000000
   13      -15.783359   1.000000
   14      -15.621637   1.000000
   15      -15.586368   1.000000
   16      -15.478299   1.000000
   17      -15.383974   1.000000
   18      -15.271484   1.000000
   19       -9.529247   1.000000
   20       -9.240496   1.000000
   21       -9.225023   1.000000
   22       -9.021067   1.000000
   23       -8.916303   1.000000
   24       -8.718166   1.000000
   25       -8.658370   1.000000
   26       -8.530527   1.000000
   27       -8.457126   1.000000
   28       -8.385676   1.000000
   29       -8.321789   1.000000
   30       -8.242658   1.000000
   31       -8.114392   1.000000
   32       -7.966816   1.000000
   33       -7.901843   1.000000
   34       -7.829069   1.000000
   35       -7.714813   1.000000
   36       -7.642581   1.000000
   37       -7.589331   1.000000
   38       -7.476592   1.000000
   39       -7.446509   1.000000
   40       -7.392084   1.000000
   41       -7.287383   1.000000
   42       -7.196283   1.000000
   43       -7.120151   1.000000
   44       -6.989793   1.000000
   45       -6.937829   1.000000
   46       -6.856727   1.000000
   47       -6.766172   1.000000
   48       -6.678253   1.000000
   49       -6.600067   1.000000
   50       -6.502983   1.000000
   51       -6.415385   1.000000
   52       -6.376603   1.000000
   53       -6.267513   1.000000
   54       -6.183240   1.000000
   55       -6.129102   1.000000
   56       -6.066633   1.000000
   57       -5.956564   1.000000
   58       -5.914212   1.000000
   59       -5.773184   1.000000
   60       -5.691734   1.000000
   61       -5.623020   1.000000
   62       -5.554308   1.000000
   63       -5.447905   1.000000
   64       -5.304124   1.000000
   65       -5.164858   1.000000
   66       -5.098804   1.000000
   67       -4.952845   1.000000
   68       -4.864400   1.000000
   69       -4.819111   1.000000
   70       -4.599898   1.000000
   71       -4.511572   1.000000
   72       -4.424700   1.000000
   73       -4.340185   1.000000
   74       -4.273087   1.000000
   75       -4.178964   1.000000
   76       -4.088678   1.000000
   77       -4.006615   1.000000
   78       -3.873624   0.999978
   79       -3.616900   0.988435
   80       -3.332854   0.603641
   81       -2.934570   0.005332
   82       -2.860333   0.001040
   83       -2.777505   0.000124
   84       -2.611512   0.000001
   85       -2.478162   0.000000
   86       -2.384947   0.000000
   87       -2.301528   0.000000
   88       -2.247218   0.000000
   89       -2.138220   0.000000
   90       -2.096926   0.000000
   91       -1.968931   0.000000
   92       -1.465058   0.000000
   93       -1.334726   0.000000
   94       -1.269960   0.000000
   95       -1.143137   0.000000
   96       -1.050567   0.000000
   97       -0.994367   0.000000
   98       -0.924734   0.000000
   99       -0.831226   0.000000
  100       -0.780515   0.000000
  101       -0.726068   0.000000
  102       -0.623589   0.000000
  103       -0.582547   0.000000
  104       -0.444463   0.000000
  105       -0.341869   0.000000
  106       -0.236201   0.000000
  107       -0.191139   0.000000
  108       -0.062579   0.000000
  109        0.081304   0.000000
  110        0.190693   0.000000
  111        0.312600   0.000000
  112        0.614218   0.000000
  113        0.712921   0.000000
  114        0.757265   0.000000
  115        0.974006   0.000000
  116        1.196603   0.000000
  117        1.298929   0.000000
  118        1.810265   0.000000
  119        1.986661   0.000000
  120        2.292079   0.000000
 
  0.3750000E+00  0.0000000E+00  0.0000000E+00  0.3125000E-01
    1      -17.584591   1.000000
    2      -17.217364   1.000000
    3      -16.722953   1.000000
    4      -16.672879   1.000000
    5      -16.625711   1.000000
    6      -16.450982   1.000000
    7      -16.260741   1.000000
    8      -16.235440   1.000000
    9      -16.204926   1.000000
   10      -16.071515   1.000000
   11      -15.918529   1.000000
   12      -15.845608   1.000000
   13      -15.714384   1.000000
   14      -15.643951   1.000000
   15      -15.606854   1.000000
   16      -15.517162   1.000000
   17      -15.366146   1.000000
   18      -15.288805   1.000000
   19       -9.737475   1.000000
   20       -9.378238   1.000000
   21       -9.176438   1.000000
   22       -9.049560   1.000000
   23       -8.912521   1.000000
   24       -8.736823   1.000000
   25       -8.662245   1.000000
   26       -8.516329   1.000000
   27       -8.468359   1.000000
   28       -8.350906   1.000000
   29       -8.298523   1.000000
   30       -8.194687   1.000000
   31       -8.086527   1.000000
   32       -7.968490   1.000000
   33       -7.885681   1.000000
   34       -7.839112   1.000000
   35       -7.741250   1.000000
   36       -7.649969   1.000000
   37       -7.553281   1.000000
   38       -7.496257   1.000000
   39       -7.383991   1.000000
   40       -7.281556   1.000000
   41       -7.176195   1.000000
   42       -7.132350   1.000000
   43       -7.055882   1.000000
   44       -6.973638   1.000000
   45       -6.900665   1.000000
   46       -6.822406   1.000000
   47       -6.687596   1.000000
   48       -6.622387   1.000000
   49       -6.513605   1.000000
   50       -6.475194   1.000000
   51       -6.426549   1.000000
   52       -6.386134   1.000000
   53       -6.230580   1.000000
   54       -6.191813   1.000000
   55       -6.127902   1.000000
   56       -6.079385   1.000000
   57       -5.978351   1.000000
   58       -5.944866   1.000000
   59       -5.863191   1.000000
   60       -5.787781   1.000000
   61       -5.762236   1.000000
   62       -5.688745   1.000000
   63       -5.544405   1.000000
   64       -5.296035   1.000000
   65       -5.173441   1.000000
   66       -5.138901   1.000000
   67       -5.003379   1.000000
   68       -4.857633   1.000000
   69       -4.741069   1.000000
   70       -4.694557   1.000000
   71       -4.460382   1.000000
   72       -4.398367   1.000000
   73       -4.350245   1.000000
   74       -4.243413   1.000000
   75       -4.181860   1.000000
   76       -4.063383   1.000000
   77       -3.989412   1.000000
   78       -3.857802   0.999965
   79       -3.670826   0.996006
   80       -3.246855   0.364925
   81       -2.897803   0.002450
   82       -2.848520   0.000784
   83       -2.778416   0.000127
   84       -2.593594   0.000000
   85       -2.485259   0.000000
   86       -2.384650   0.000000
   87       -2.306720   0.000000
   88       -2.226245   0.000000
   89       -2.097631   0.000000
   90       -2.046011   0.000000
   91       -1.864294   0.000000
   92       -1.461686   0.000000
   93       -1.316135   0.000000
   94       -1.272123   0.000000
   95       -1.214662   0.000000
   96       -1.105134   0.000000
   97       -1.010013   0.000000
   98       -0.960964   0.000000
   99       -0.879181   0.000000
  100       -0.852141   0.000000
  101       -0.783838   0.000000
  102       -0.710567   0.000000
  103       -0.648555   0.000000
  104       -0.534701   0.000000
  105       -0.443708   0.000000
  106       -0.324100   0.000000
  107       -0.213174   0.000000
  108       -0.058382   0.000000
  109        0.015021   0.000000
  110        0.108192   0.000000
  111        0.295150   0.000000
  112        0.628437   0.000000
  113        0.665831   0.000000
  114        0.809801   0.000000
  115        1.034333   0.000000
  116        1.318131   0.000000
  117        1.438903   0.000000
  118        1.995265   0.000000
  119        2.158223   0.000000
  120        2.463232   0.000000
 
  0.5000000E+00  0.1110223E-15  0.0000000E+00  0.1562500E-01
    1      -17.448096   1.000000
    2      -17.387119   1.000000
    3      -16.716114   1.000000
    4      -16.692185   1.000000
    5      -16.639749   1.000000
    6      -16.462554   1.000000
    7      -16.245139   1.000000
    8      -16.220709   1.000000
    9      -16.185122   1.000000
   10      -16.080408   1.000000
   11      -15.887537   1.000000
   12      -15.797757   1.000000
   13      -15.738280   1.000000
   14      -15.627520   1.000000
   15      -15.614183   1.000000
   16      -15.544375   1.000000
   17      -15.353793   1.000000
   18      -15.295918   1.000000
   19       -9.813187   1.000000
   20       -9.426550   1.000000
   21       -9.155249   1.000000
   22       -9.091773   1.000000
   23       -8.797767   1.000000
   24       -8.763486   1.000000
   25       -8.705382   1.000000
   26       -8.581902   1.000000
   27       -8.453832   1.000000
   28       -8.352353   1.000000
   29       -8.203072   1.000000
   30       -8.145363   1.000000
   31       -8.077085   1.000000
   32       -8.036330   1.000000
   33       -7.901809   1.000000
   34       -7.855179   1.000000
   35       -7.797903   1.000000
   36       -7.628940   1.000000
   37       -7.539504   1.000000
   38       -7.501605   1.000000
   39       -7.409026   1.000000
   40       -7.316107   1.000000
   41       -7.059902   1.000000
   42       -7.044202   1.000000
   43       -6.985626   1.000000
   44       -6.929030   1.000000
   45       -6.862137   1.000000
   46       -6.732714   1.000000
   47       -6.633129   1.000000
   48       -6.604825   1.000000
   49       -6.588102   1.000000
   50       -6.464363   1.000000
   51       -6.444766   1.000000
   52       -6.350879   1.000000
   53       -6.329903   1.000000
   54       -6.226734   1.000000
   55       -6.130643   1.000000
   56       -6.036585   1.000000
   57       -5.984336   1.000000
   58       -5.958423   1.000000
   59       -5.897142   1.000000
   60       -5.835624   1.000000
   61       -5.752835   1.000000
   62       -5.708899   1.000000
   63       -5.534637   1.000000
   64       -5.340381   1.000000
   65       -5.265114   1.000000
   66       -5.100158   1.000000
   67       -5.090690   1.000000
   68       -4.917056   1.000000
   69       -4.722688   1.000000
   70       -4.612304   1.000000
   71       -4.460205   1.000000
   72       -4.435636   1.000000
   73       -4.371014   1.000000
   74       -4.236429   1.000000
   75       -4.189340   1.000000
   76       -4.013945   1.000000
   77       -3.893675   0.999988
   78       -3.878864   0.999981
   79       -3.708773   0.998255
   80       -3.208648   0.269117
   81       -2.917372   0.003735
   82       -2.817494   0.000361
   83       -2.774652   0.000115
   84       -2.588086   0.000000
   85       -2.481021   0.000000
   86       -2.395999   0.000000
   87       -2.315423   0.000000
   88       -2.212747   0.000000
   89       -2.069658   0.000000
   90       -2.031898   0.000000
   91       -1.805651   0.000000
   92       -1.468726   0.000000
   93       -1.336058   0.000000
   94       -1.279124   0.000000
   95       -1.243917   0.000000
   96       -1.137967   0.000000
   97       -1.013929   0.000000
   98       -0.944618   0.000000
   99       -0.900640   0.000000
  100       -0.874991   0.000000
  101       -0.813583   0.000000
  102       -0.736353   0.000000
  103       -0.697986   0.000000
  104       -0.555838   0.000000
  105       -0.474367   0.000000
  106       -0.364993   0.000000
  107       -0.215717   0.000000
  108       -0.067455   0.000000
  109       -0.019467   0.000000
  110        0.084005   0.000000
  111        0.294074   0.000000
  112        0.630656   0.000000
  113        0.636854   0.000000
  114        0.840361   0.000000
  115        1.058126   0.000000
  116        1.362924   0.000000
  117        1.494253   0.000000
  118        2.212358   0.000000
  119        2.254125   0.000000
  120        2.383841   0.000000
 
  0.0000000E+00  0.1250000E+00  0.0000000E+00  0.3125000E-01
    1      -17.781084   1.000000
    2      -16.790636   1.000000
    3      -16.738322   1.000000
    4      -16.581786   1.000000
    5      -16.495832   1.000000
    6      -16.453319   1.000000
    7      -16.379752   1.000000
    8      -16.332165   1.000000
    9      -16.232180   1.000000
   10      -16.099858   1.000000
   11      -16.022734   1.000000
   12      -15.956798   1.000000
   13      -15.877597   1.000000
   14      -15.595293   1.000000
   15      -15.558973   1.000000
   16      -15.479537   1.000000
   17      -15.373884   1.000000
   18      -15.254898   1.000000
   19       -9.318151   1.000000
   20       -9.204755   1.000000
   21       -9.075821   1.000000
   22       -8.985374   1.000000
   23       -8.827826   1.000000
   24       -8.699423   1.000000
   25       -8.659338   1.000000
   26       -8.585289   1.000000
   27       -8.484067   1.000000
   28       -8.416807   1.000000
   29       -8.404001   1.000000
   30       -8.201747   1.000000
   31       -8.132475   1.000000
   32       -8.038833   1.000000
   33       -8.010897   1.000000
   34       -7.882256   1.000000
   35       -7.864459   1.000000
   36       -7.706049   1.000000
   37       -7.623917   1.000000
   38       -7.553942   1.000000
   39       -7.475647   1.000000
   40       -7.363372   1.000000
   41       -7.341258   1.000000
   42       -7.217322   1.000000
   43       -7.127312   1.000000
   44       -7.011955   1.000000
   45       -6.876879   1.000000
   46       -6.844533   1.000000
   47       -6.735968   1.000000
   48       -6.666385   1.000000
   49       -6.612948   1.000000
   50       -6.471516   1.000000
   51       -6.432912   1.000000
   52       -6.370018   1.000000
   53       -6.331314   1.000000
   54       -6.252501   1.000000
   55       -6.171419   1.000000
   56       -6.116190   1.000000
   57       -6.011191   1.000000
   58       -5.935937   1.000000
   59       -5.705347   1.000000
   60       -5.570319   1.000000
   61       -5.521101   1.000000
   62       -5.474729   1.000000
   63       -5.341967   1.000000
   64       -5.152435   1.000000
   65       -5.117019   1.000000
   66       -5.018571   1.000000
   67       -4.920194   1.000000
   68       -4.874523   1.000000
   69       -4.793486   1.000000
   70       -4.706856   1.000000
   71       -4.582744   1.000000
   72       -4.529705   1.000000
   73       -4.416913   1.000000
   74       -4.360244   1.000000
   75       -4.258720   1.000000
   76       -4.054803   1.000000
   77       -3.909658   0.999993
   78       -3.713658   0.998439
   79       -3.544436   0.960702
   80       -3.403860   0.777827
   81       -3.078197   0.062035
   82       -2.880504   0.001663
   83       -2.702943   0.000014
   84       -2.629018   0.000001
   85       -2.470383   0.000000
   86       -2.410780   0.000000
   87       -2.334763   0.000000
   88       -2.274507   0.000000
   89       -2.192988   0.000000
   90       -2.125292   0.000000
   91       -2.009841   0.000000
   92       -1.485869   0.000000
   93       -1.350559   0.000000
   94       -1.281122   0.000000
   95       -1.188201   0.000000
   96       -1.016075   0.000000
   97       -0.942406   0.000000
   98       -0.840639   0.000000
   99       -0.753294   0.000000
  100       -0.700844   0.000000
  101       -0.679044   0.000000
  102       -0.521868   0.000000
  103       -0.504811   0.000000
  104       -0.328802   0.000000
  105       -0.265619   0.000000
  106       -0.143945   0.000000
  107       -0.121599   0.000000
  108       -0.065681   0.000000
  109        0.168443   0.000000
  110        0.233143   0.000000
  111        0.365906   0.000000
  112        0.532443   0.000000
  113        0.705868   0.000000
  114        0.745532   0.000000
  115        0.933605   0.000000
  116        1.079506   0.000000
  117        1.156901   0.000000
  118        1.686607   0.000000
  119        1.876809   0.000000
  120        2.187319   0.000000
 
  0.1250000E+00  0.1250000E+00  0.0000000E+00  0.3125000E-01
    1      -17.728840   1.000000
    2      -16.948982   1.000000
    3      -16.733208   1.000000
    4      -16.649263   1.000000
    5      -16.513211   1.000000
    6      -16.400203   1.000000
    7      -16.383109   1.000000
    8      -16.277395   1.000000
    9      -16.229432   1.000000
   10      -16.091444   1.000000
   11      -15.987095   1.000000
   12      -15.936057   1.000000
   13      -15.796314   1.000000
   14      -15.602041   1.000000
   15      -15.578651   1.000000
   16      -15.470504   1.000000
   17      -15.386760   1.000000
   18      -15.271656   1.000000
   19       -9.469417   1.000000
   20       -9.250272   1.000000
   21       -9.198087   1.000000
   22       -8.967397   1.000000
   23       -8.951546   1.000000
   24       -8.677530   1.000000
   25       -8.668341   1.000000
   26       -8.490579   1.000000
   27       -8.456829   1.000000
   28       -8.387257   1.000000
   29       -8.341213   1.000000
   30       -8.249163   1.000000
   31       -8.119395   1.000000
   32       -8.115625   1.000000
   33       -7.912922   1.000000
   34       -7.752709   1.000000
   35       -7.726874   1.000000
   36       -7.689906   1.000000
   37       -7.633390   1.000000
   38       -7.453608   1.000000
   39       -7.414770   1.000000
   40       -7.358317   1.000000
   41       -7.315786   1.000000
   42       -7.213670   1.000000
   43       -7.180758   1.000000
   44       -7.062722   1.000000
   45       -6.870450   1.000000
   46       -6.835066   1.000000
   47       -6.765577   1.000000
   48       -6.710363   1.000000
   49       -6.650394   1.000000
   50       -6.496862   1.000000
   51       -6.417013   1.000000
   52       -6.298436   1.000000
   53       -6.253013   1.000000
   54       -6.213499   1.000000
   55       -6.182238   1.000000
   56       -6.088538   1.000000
   57       -5.949202   1.000000
   58       -5.930386   1.000000
   59       -5.754699   1.000000
   60       -5.677095   1.000000
   61       -5.511480   1.000000
   62       -5.465944   1.000000
   63       -5.406781   1.000000
   64       -5.366103   1.000000
   65       -5.150753   1.000000
   66       -5.123021   1.000000
   67       -4.937583   1.000000
   68       -4.888462   1.000000
   69       -4.783771   1.000000
   70       -4.653236   1.000000
   71       -4.548326   1.000000
   72       -4.437749   1.000000
   73       -4.313663   1.000000
   74       -4.281739   1.000000
   75       -4.224439   1.000000
   76       -4.029485   1.000000
   77       -3.967325   0.999999
   78       -3.871591   0.999977
   79       -3.641945   0.992825
   80       -3.324501   0.580713
   81       -2.928798   0.004739
   82       -2.894641   0.002285
   83       -2.781419   0.000138
   84       -2.633978   0.000001
   85       -2.480071   0.000000
   86       -2.395641   0.000000
   87       -2.335834   0.000000
   88       -2.248391   0.000000
   89       -2.138068   0.000000
   90       -2.090453   0.000000
   91       -2.015475   0.000000
   92       -1.456475   0.000000
   93       -1.335816   0.000000
   94       -1.262768   0.000000
   95       -1.130334   0.000000
   96       -1.028681   0.000000
   97       -0.936349   0.000000
   98       -0.915530   0.000000
   99       -0.806588   0.000000
  100       -0.750696   0.000000
  101       -0.725737   0.000000
  102       -0.591772   0.000000
  103       -0.552916   0.000000
  104       -0.480492   0.000000
  105       -0.280019   0.000000
  106       -0.191443   0.000000
  107       -0.148443   0.000000
  108       -0.094393   0.000000
  109        0.085622   0.000000
  110        0.215344   0.000000
  111        0.291239   0.000000
  112        0.613526   0.000000
  113        0.696057   0.000000
  114        0.755191   0.000000
  115        0.954721   0.000000
  116        1.166140   0.000000
  117        1.276438   0.000000
  118        1.773354   0.000000
  119        1.948765   0.000000
  120        2.257970   0.000000
 
  0.2500000E+00  0.1250000E+00  0.0000000E+00  0.3125000E-01
    1      -17.628379   1.000000
    2      -17.132404   1.000000
    3      -16.817132   1.000000
    4      -16.661247   1.000000
    5      -16.529114   1.000000
    6      -16.411478   1.000000
    7      -16.302791   1.000000
    8      -16.231632   1.000000
    9      -16.209551   1.000000
   10      -16.090740   1.000000
   11      -15.964088   1.000000
   12      -15.896078   1.000000
   13      -15.692942   1.000000
   14      -15.623305   1.000000
   15      -15.597925   1.000000
   16      -15.502919   1.000000
   17      -15.375117   1.000000
   18      -15.288954   1.000000
   19       -9.667982   1.000000
   20       -9.424403   1.000000
   21       -9.136262   1.000000
   22       -9.077969   1.000000
   23       -8.876181   1.000000
   24       -8.705971   1.000000
   25       -8.653057   1.000000
   26       -8.468666   1.000000
   27       -8.439689   1.000000
   28       -8.362637   1.000000
   29       -8.288718   1.000000
   30       -8.234982   1.000000
   31       -8.124695   1.000000
   32       -8.050750   1.000000
   33       -7.905781   1.000000
   34       -7.844717   1.000000
   35       -7.774207   1.000000
   36       -7.614265   1.000000
   37       -7.532703   1.000000
   38       -7.443252   1.000000
   39       -7.410411   1.000000
   40       -7.305088   1.000000
   41       -7.236088   1.000000
   42       -7.165561   1.000000
   43       -7.063016   1.000000
   44       -6.933157   1.000000
   45       -6.900288   1.000000
   46       -6.798427   1.000000
   47       -6.700909   1.000000