       N       E                     dE             d eps       ncg     rms          rms(c)
DAV:   1     0.112406925581E+04    0.11241E+04   -0.35862E+04  8160   0.577E+02
DAV:   2     0.104473418404E+01   -0.11230E+04   -0.10765E+04 11120   0.173E+02
DAV:   3    -0.199693998110E+03   -0.20074E+03   -0.19256E+03 10920   0.825E+01
DAV:   4    -0.209014719544E+03   -0.93207E+01   -0.90275E+01 12120   0.263E+01
DAV:   5    -0.209358323645E+03   -0.34360E+00   -0.34269E+00 11400   0.364E+00    0.277E+01
DAV:   6    -0.240778853717E+03   -0.31421E+02   -0.11567E+02 12560   0.599E+01    0.606E+01
DAV:   7    -0.196258446181E+03    0.44520E+02   -0.17729E+02 13160   0.150E+02    0.199E+01
DAV:   8    -0.189534386740E+03    0.67241E+01   -0.18841E+01 12160   0.128E+01    0.126E+01
DAV:   9    -0.188082344028E+03    0.14520E+01   -0.31305E+00 12760   0.622E+00    0.893E+00
DAV:  10    -0.186925236159E+03    0.11571E+01   -0.15998E+00 13280   0.746E+00    0.203E+00
DAV:  11    -0.187071504185E+03   -0.14627E+00   -0.69327E-01 13280   0.409E+00    0.438E+00
DAV:  12    -0.186908976116E+03    0.16253E+00   -0.49293E-01 13240   0.414E+00    0.270E+00
DAV:  13    -0.186836310313E+03    0.72666E-01   -0.16579E-01 13080   0.217E+00    0.734E-01
DAV:  14    -0.186827226274E+03    0.90840E-02   -0.24715E-02 12280   0.650E-01    0.491E-01
DAV:  15    -0.186825237569E+03    0.19887E-02   -0.84407E-03 13280   0.307E-01    0.288E-01
DAV:  16    -0.186823736887E+03    0.15007E-02   -0.50966E-03 12960   0.278E-01    0.226E-01
DAV:  17    -0.186823217936E+03    0.51895E-03   -0.19981E-03 12840   0.220E-01    0.136E-01
DAV:  18    -0.186823262796E+03   -0.44859E-04   -0.82409E-04 10760   0.154E-01
   1 F= -.18682326E+03 E0= -.18664982E+03  d E =-.186823E+03
       N       E                     dE             d eps       ncg     rms          rms(c)
DAV:   1    -0.187509054154E+03   -0.68584E+00   -0.27792E+02  8160   0.354E+01    0.484E+00
DAV:   2    -0.190015526947E+03   -0.25065E+01   -0.21278E+01 12000   0.170E+01    0.129E+01
DAV:   3    -0.189207123768E+03    0.80840E+00   -0.54805E+00 12280   0.136E+01    0.561E+00
DAV:   4    -0.188749937787E+03    0.45719E+00   -0.56042E-01 12440   0.370E+00    0.173E+00
DAV:   5    -0.188752250497E+03   -0.23127E-02   -0.33663E-01 12640   0.221E+00    0.287E+00
DAV:   6    -0.188745469206E+03    0.67813E-02   -0.43756E-01 12800   0.353E+00    0.313E+00
DAV:   7    -0.188691959976E+03    0.53509E-01   -0.22580E-01 12600   0.244E+00    0.137E+00
DAV:   8    -0.188664819004E+03    0.27141E-01   -0.53811E-02 10120   0.964E-01    0.582E-01
DAV:   9    -0.188664269236E+03    0.54977E-03   -0.13841E-02 13080   0.631E-01    0.502E-01
DAV:  10    -0.188662883324E+03    0.13859E-02   -0.51397E-03 13080   0.341E-01    0.186E-01
DAV:  11    -0.188662440134E+03    0.44319E-03   -0.18145E-03 11120   0.127E-01    0.735E-02
DAV:  12    -0.188662757019E+03   -0.31689E-03   -0.65147E-04 10160   0.706E-02    0.648E-02
DAV:  13    -0.188662793756E+03   -0.36737E-04   -0.21154E-04  7600   0.513E-02
   2 F= -.18866279E+03 E0= -.18852030E+03  d E =-.183953E+01
       N       E                     dE             d eps       ncg     rms          rms(c)
DAV:   1    -0.190636755386E+03   -0.19740E+01   -0.32436E+01  9000   0.145E+01    0.448E+00
DAV:   2    -0.190563949162E+03    0.72806E-01   -0.28391E+00 12520   0.927E+00    0.726E+00
DAV:   3    -0.190118943126E+03    0.44501E+00   -0.15474E+00 12320   0.849E+00    0.433E+00
DAV:   4    -0.189888876920E+03    0.23007E+00   -0.72752E-01 13120   0.438E+00    0.243E+00
DAV:   5    -0.189803470304E+03    0.85407E-01   -0.30152E-01 12080   0.204E+00    0.109E+00
DAV:   6    -0.189792475476E+03    0.10995E-01   -0.61492E-02 12200   0.134E+00    0.905E-01
DAV:   7    -0.189786228936E+03    0.62465E-02   -0.16991E-02 11720   0.720E-01    0.247E-01
DAV:   8    -0.189785836659E+03    0.39228E-03   -0.23281E-03 10960   0.168E-01    0.138E-01
DAV:   9    -0.189786825525E+03   -0.98887E-03   -0.19155E-03 12200   0.266E-01    0.325E-01
DAV:  10    -0.189786181598E+03    0.64393E-03   -0.20146E-03 10000   0.284E-01    0.131E-01
DAV:  11    -0.189785992453E+03    0.18915E-03   -0.37884E-04  7200   0.884E-02    0.252E-02
DAV:  12    -0.189786035657E+03   -0.43205E-04   -0.67819E-05  6880   0.277E-02
   3 F= -.18978604E+03 E0= -.18966449E+03  d E =-.112324E+01
       N       E                     dE             d eps       ncg     rms          rms(c)
DAV:   1    -0.191414555263E+03   -0.16286E+01   -0.83886E+01  8160   0.208E+01    0.462E+00
DAV:   2    -0.191166103137E+03    0.24845E+00   -0.54126E+00 12880   0.689E+00    0.389E+00
DAV:   3    -0.191387222660E+03   -0.22112E+00   -0.15264E+00 12240   0.865E+00    0.679E+00
DAV:   4    -0.190979138076E+03    0.40808E+00   -0.13752E+00 12440   0.814E+00    0.292E+00
DAV:   5    -0.190856531741E+03    0.12261E+00   -0.32459E-01 12320   0.256E+00    0.128E+00
DAV:   6    -0.190857543296E+03   -0.10116E-02   -0.13712E-01 12800   0.223E+00    0.176E+00
DAV:   7    -0.190834587678E+03    0.22956E-01   -0.71026E-02 12160   0.164E+00    0.530E-01
DAV:   8    -0.190830950439E+03    0.36372E-02   -0.81191E-03 11520   0.463E-01    0.288E-01
DAV:   9    -0.190830748484E+03    0.20195E-03   -0.28296E-03 12720   0.336E-01    0.233E-01
DAV:  10    -0.190830603036E+03    0.14545E-03   -0.18850E-03 11840   0.208E-01    0.587E-02
DAV:  11    -0.190830610421E+03   -0.73850E-05   -0.20752E-04  7200   0.579E-02
   4 F= -.19083061E+03 E0= -.19072304E+03  d E =-.104457E+01
       N       E                     dE             d eps       ncg     rms          rms(c)
DAV:   1    -0.192223895650E+03   -0.13933E+01   -0.17733E+02  8160   0.295E+01    0.563E+00
DAV:   2    -0.191931679435E+03    0.29222E+00   -0.91527E+00 10080   0.732E+00    0.313E+00
DAV:   3    -0.191809407609E+03    0.12227E+00   -0.14214E+00 11040   0.470E+00    0.342E+00
DAV:   4    -0.191833823569E+03   -0.24416E-01   -0.88360E-01 12320   0.676E+00    0.485E+00
DAV:   5    -0.191594872281E+03    0.23895E+00   -0.67303E-01 12440   0.552E+00    0.171E+00
DAV:   6    -0.191594356387E+03    0.51589E-03   -0.20642E-01 12360   0.279E+00    0.184E+00
DAV:   7    -0.191562045035E+03    0.32311E-01   -0.84584E-02 12440   0.197E+00    0.544E-01
DAV:   8    -0.191557009437E+03    0.50356E-02   -0.12011E-02 10520   0.544E-01    0.179E-01
DAV:   9    -0.191558806632E+03   -0.17972E-02   -0.53773E-03 12840   0.433E-01    0.455E-01
DAV:  10    -0.191557126129E+03    0.16805E-02   -0.43074E-03 11120   0.396E-01    0.980E-02
DAV:  11    -0.191557085557E+03    0.40571E-04   -0.40238E-04  8960   0.869E-02
   5 F= -.19155709E+03 E0= -.19144967E+03  d E =-.726475E+00
       N       E                     dE             d eps       ncg     rms          rms(c)
DAV:   1    -0.191625918608E+03   -0.68792E-01   -0.45757E+00  8160   0.457E+00    0.709E-01
DAV:   2    -0.191692973571E+03   -0.67055E-01   -0.30385E-01 12520   0.305E+00    0.243E+00
DAV:   3    -0.191634823907E+03    0.58150E-01   -0.12039E-01 12480   0.235E+00    0.474E-01
DAV:   4    -0.191639018066E+03   -0.41942E-02   -0.24695E-02 10840   0.101E+00    0.843E-01
DAV:   5    -0.191631396295E+03    0.76218E-02   -0.13671E-02 10640   0.792E-01    0.207E-01
DAV:   6    -0.191631055257E+03    0.34104E-03   -0.37389E-03 11160   0.225E-01    0.113E-01
DAV:   7    -0.191630947479E+03    0.10778E-03   -0.12070E-03 10680   0.173E-01    0.140E-01
DAV:   8    -0.191630804836E+03    0.14264E-03   -0.56604E-04  8640   0.142E-01    0.567E-02
DAV:   9    -0.191630790066E+03    0.14770E-04   -0.83342E-05  6000   0.487E-02
   6 F= -.19163079E+03 E0= -.19152173E+03  d E =-.737045E-01
       N       E                     dE             d eps       ncg     rms          rms(c)
DAV:   1    -0.191722666610E+03   -0.91862E-01   -0.92423E+00  8160   0.641E+00    0.778E-01
DAV:   2    -0.191801304307E+03   -0.78638E-01   -0.34840E-01 13160   0.276E+00    0.266E+00
DAV:   3    -0.191734890172E+03    0.66414E-01   -0.16730E-01 12480   0.266E+00    0.677E-01
DAV:   4    -0.191737115072E+03   -0.22249E-02   -0.30422E-02 10600   0.109E+00    0.810E-01
DAV:   5    -0.191729662408E+03    0.74527E-02   -0.12948E-02 11200   0.819E-01    0.208E-01
DAV:   6    -0.191729300647E+03    0.36176E-03   -0.32994E-03 10640   0.224E-01    0.128E-01
DAV:   7    -0.191729056192E+03    0.24446E-03   -0.14524E-03 11800   0.159E-01    0.108E-01
DAV:   8    -0.191729071012E+03   -0.14820E-04   -0.81038E-04  9040   0.166E-01
   7 F= -.19172907E+03 E0= -.19161900E+03  d E =-.982809E-01
       N       E                     dE             d eps       ncg     rms          rms(c)
DAV:   1    -0.191780031568E+03   -0.50975E-01   -0.24892E+00  8160   0.337E+00    0.473E-01
DAV:   2    -0.191813543590E+03   -0.33512E-01   -0.13631E-01 12360   0.201E+00    0.182E+00
DAV:   3    -0.191783099099E+03    0.30444E-01   -0.64491E-02 12240   0.165E+00    0.310E-01
DAV:   4    -0.191784293306E+03   -0.11942E-02   -0.84475E-03 10200   0.615E-01    0.462E-01
DAV:   5    -0.191781914120E+03    0.23792E-02   -0.48621E-03 11120   0.505E-01    0.147E-01
DAV:   6    -0.191781838460E+03    0.75660E-04   -0.17925E-03 11120   0.192E-01    0.140E-01
DAV:   7    -0.191782075406E+03   -0.23695E-03   -0.19969E-03 10640   0.261E-01    0.233E-01
DAV:   8    -0.191781566617E+03    0.50879E-03   -0.94662E-04  8400   0.176E-01    0.190E-02
DAV:   9    -0.191781587598E+03   -0.20981E-04   -0.45925E-05  5720   0.225E-02
   8 F= -.19178159E+03 E0= -.19167198E+03  d E =-.525166E-01
       N       E                     dE             d eps       ncg     rms          rms(c)
DAV:   1    -0.191884004716E+03   -0.10244E+00   -0.16470E+01  8160   0.863E+00    0.103E+00
DAV:   2    -0.192039025823E+03   -0.15502E+00   -0.69156E-01 11240   0.414E+00    0.386E+00
DAV:   3    -0.191908973808E+03    0.13005E+00   -0.30987E-01 12400   0.362E+00    0.683E-01
DAV:   4    -0.191905819605E+03    0.31542E-02   -0.24132E-02 12200   0.843E-01    0.647E-01
DAV:   5    -0.191904216458E+03    0.16031E-02   -0.21193E-02 12440   0.972E-01    0.641E-01
DAV:   6    -0.191903573234E+03    0.64322E-03   -0.18605E-02 12520   0.782E-01    0.603E-01
DAV:   7    -0.191901339550E+03    0.22337E-02   -0.11999E-02 12560   0.729E-01    0.316E-01
DAV:   8    -0.191899937045E+03    0.14025E-02   -0.25607E-03 11120   0.293E-01    0.410E-02
DAV:   9    -0.191899959305E+03   -0.22260E-04   -0.27681E-04  9200   0.498E-02
   9 F= -.19189996E+03 E0= -.19179393E+03  d E =-.118372E+00
       N       E                     dE             d eps       ncg     rms          rms(c)
DAV:   1    -0.191928947183E+03   -0.29010E-01   -0.10511E+00  8160   0.228E+00    0.419E-01
DAV:   2    -0.191940427411E+03   -0.11480E-01   -0.72571E-02 11040   0.133E+00    0.114E+00
DAV:   3    -0.191929198774E+03    0.11229E-01   -0.29493E-02 11720   0.116E+00    0.340E-01
DAV:   4    -0.191929139805E+03    0.58969E-04   -0.67908E-03 11160   0.560E-01    0.392E-01
DAV:   5    -0.191927834184E+03    0.13056E-02   -0.51406E-03 10960   0.530E-01    0.245E-01
DAV:   6    -0.191927817223E+03    0.16961E-04   -0.35762E-03 11080   0.338E-01    0.295E-01
DAV:   7    -0.191927144279E+03    0.67294E-03   -0.21700E-03  9560   0.283E-01    0.931E-02
DAV:   8    -0.191927056220E+03    0.88059E-04   -0.22436E-04  6280   0.793E-02
  10 F= -.19192706E+03 E0= -.19182180E+03  d E =-.270969E-01
       N       E                     dE             d eps       ncg     rms          rms(c)
DAV:   1    -0.191961092084E+03   -0.33948E-01   -0.23108E+00  8160   0.321E+00    0.370E-01
DAV:   2    -0.191973929905E+03   -0.12838E-01   -0.85636E-02 10840   0.119E+00    0.965E-01
DAV:   3    -0.191965826794E+03    0.81031E-02   -0.25345E-02 12480   0.109E+00    0.369E-01
DAV:   4    -0.191964656516E+03    0.11703E-02   -0.37446E-03 11200   0.346E-01    0.183E-01
DAV:   5    -0.191964615085E+03    0.41431E-04   -0.22442E-03 12200   0.348E-01    0.209E-01
DAV:   6    -0.191964208922E+03    0.40616E-03   -0.13564E-03 11400   0.262E-01    0.804E-02
DAV:   7    -0.191964129045E+03    0.79877E-04   -0.41184E-04  9440   0.975E-02
  11 F= -.19196413E+03 E0= -.19186108E+03  d E =-.370728E-01
       N       E                     dE             d eps       ncg     rms          rms(c)
DAV:   1    -0.191983507587E+03   -0.19299E-01   -0.62503E-01  8160   0.171E+00    0.248E-01
DAV:   2    -0.191987656713E+03   -0.41491E-02   -0.30214E-02 11400   0.746E-01    0.632E-01
DAV:   3    -0.191984522727E+03    0.31340E-02   -0.10532E-02 11680   0.673E-01    0.249E-01
DAV:   4    -0.191984503347E+03    0.19380E-04   -0.30274E-03 11320   0.332E-01    0.281E-01
DAV:   5    -0.191983967569E+03    0.53578E-03   -0.24523E-03  9560   0.312E-01    0.171E-01
DAV:   6    -0.191983804666E+03    0.16290E-03   -0.95409E-04  9760   0.191E-01    0.110E-01
DAV:   7    -0.191983737941E+03    0.66725E-04   -0.51583E-04  9280   0.173E-01
  12 F= -.19198374E+03 E0= -.19188187E+03  d E =-.196089E-01
       N       E                     dE             d eps       ncg     rms          rms(c)
DAV:   1    -0.192023380688E+03   -0.39576E-01   -0.32973E+00  8160   0.388E+00    0.438E-01
DAV:   2    -0.192034565621E+03   -0.11185E-01   -0.11197E-01 12160   0.115E+00    0.793E-01
DAV:   3    -0.192031199519E+03    0.33661E-02   -0.25674E-02 12440   0.110E+00    0.552E-01
DAV:   4    -0.192028032210E+03    0.31673E-02   -0.59959E-03 11320   0.487E-01    0.171E-01
DAV:   5    -0.192028134950E+03   -0.10274E-03   -0.23547E-03 11440   0.345E-01    0.235E-01
DAV:   6    -0.192027933279E+03    0.20167E-03   -0.25920E-03 12760   0.374E-01    0.193E-01
DAV:   7    -0.192027839880E+03    0.93399E-04   -0.16677E-03 10000   0.253E-01    0.202E-01
DAV:   8    -0.192027468926E+03    0.37095E-03   -0.65886E-04  8560   0.166E-01    0.250E-02
DAV:   9    -0.192027480080E+03   -0.11154E-04   -0.52318E-05  6040   0.281E-02
  13 F= -.19202748E+03 E0= -.19192874E+03  d E =-.437421E-01
       N       E                     dE             d eps       ncg     rms          rms(c)
DAV:   1    -0.192014675537E+03    0.12793E-01   -0.27492E-01  8160   0.112E+00    0.120E-01
DAV:   2    -0.192015190853E+03   -0.51532E-03   -0.81746E-03 11200   0.269E-01    0.118E-01
DAV:   3    -0.192015416757E+03   -0.22590E-03   -0.13912E-03 11160   0.272E-01    0.202E-01
DAV:   4    -0.192015019584E+03    0.39717E-03   -0.75537E-04  8360   0.199E-01    0.738E-02
DAV:   5    -0.192015044019E+03   -0.24435E-04   -0.33948E-04  7800   0.127E-01
  14 F= -.19201504E+03 E0= -.19191505E+03  d E =0.124361E-01
       N       E                     dE             d eps       ncg     rms          rms(c)
DAV:   1    -0.192012013519E+03    0.30061E-02   -0.20574E-01  8160   0.102E+00    0.200E-01
DAV:   2    -0.192011593134E+03    0.42038E-03   -0.85200E-03 11640   0.285E-01    0.171E-01
DAV:   3    -0.192011878681E+03   -0.28555E-03   -0.33307E-03 11760   0.399E-01    0.284E-01
DAV:   4    -0.192011132920E+03    0.74576E-03   -0.21399E-03 10280   0.342E-01    0.149E-01
DAV:   5    -0.192011287864E+03   -0.15494E-03   -0.16163E-03  9840   0.255E-01    0.213E-01
DAV:   6    -0.192010867961E+03    0.41990E-03   -0.86947E-04  8480   0.189E-01    0.636E-02
DAV:   7    -0.192010869661E+03   -0.16997E-05   -0.21811E-04  6960   0.956E-02
  15 F= -.19201087E+03 E0= -.19190999E+03  d E =0.417436E-02
       N       E                     dE             d eps       ncg     rms          rms(c)
DAV:   1    -0.192023213742E+03   -0.12346E-01   -0.31638E-01  8160   0.120E+00    0.136E-01
DAV:   2    -0.192024102352E+03   -0.88861E-03   -0.11363E-02  9920   0.355E-01    0.177E-01
DAV:   3    -0.192024156884E+03   -0.54532E-04   -0.22055E-03 12000   0.335E-01    0.209E-01
DAV:   4    -0.192023785516E+03    0.37137E-03   -0.99226E-04  9040   0.214E-01    0.103E-01
DAV:   5    -0.192023764144E+03    0.21372E-04   -0.49652E-04  8040   0.150E-01
  16 F= -.19202376E+03 E0= -.19192424E+03  d E =-.128945E-01
       N       E                     dE             d eps       ncg     rms          rms(c)
DAV:   1    -0.192043071868E+03   -0.19286E-01   -0.68004E-01  8160   0.177E+00    0.216E-01
DAV:   2    -0.192045875084E+03   -0.28032E-02   -0.22056E-02 12160   0.552E-01    0.478E-01
DAV:   3    -0.192044209778E+03    0.16653E-02   -0.72746E-03 11120   0.557E-01    0.252E-01
DAV:   4    -0.192044120809E+03    0.88969E-04   -0.21994E-03 10040   0.284E-01    0.238E-01
DAV:   5    -0.192043679807E+03    0.44100E-03   -0.15742E-03  9640   0.260E-01    0.127E-01
DAV:   6    -0.192043676645E+03    0.31623E-05   -0.69592E-04  8480   0.172E-01
  17 F= -.19204368E+03 E0= -.19194583E+03  d E =-.199125E-01
       N       E                     dE             d eps       ncg     rms          rms(c)
DAV:   1    -0.192047638568E+03   -0.39588E-02   -0.55068E-02  8160   0.551E-01    0.969E-02
DAV:   2    -0.192048455398E+03   -0.81683E-03   -0.37450E-03 11440   0.336E-01    0.253E-01
DAV:   3    -0.192047671831E+03    0.78357E-03   -0.15006E-03 10360   0.312E-01    0.759E-02
DAV:   4    -0.192047685430E+03   -0.13599E-04   -0.32782E-04  7800   0.115E-01
  18 F= -.19204769E+03 E0= -.19195044E+03  d E =-.400878E-02
       N       E                     dE             d eps       ncg     rms          rms(c)
DAV:   1    -0.192092605249E+03   -0.44933E-01   -0.38624E+00  8160   0.424E+00    0.474E-01
DAV:   2    -0.192099606771E+03   -0.70015E-02   -0.11827E-01 12160   0.988E-01    0.461E-01
DAV:   3    -0.192104954477E+03   -0.53477E-02   -0.27159E-02 12440   0.106E+00    0.912E-01
DAV:   4    -0.192097736598E+03    0.72179E-02   -0.16827E-02 11360   0.821E-01    0.320E-01
DAV:   5    -0.192097317094E+03    0.41950E-03   -0.42252E-03 10640   0.501E-01    0.272E-01
DAV:   6    -0.192096769843E+03    0.54725E-03   -0.25583E-03 12880   0.343E-01    0.147E-01
DAV:   7    -0.192096717446E+03    0.52397E-04   -0.13061E-03 10520   0.253E-01    0.170E-01
DAV:   8    -0.192096417661E+03    0.29978E-03   -0.47995E-04  8680   0.173E-01    0.341E-02
DAV:   9    -0.192096415479E+03    0.21820E-05   -0.57532E-05  6120   0.357E-02
  19 F= -.19209642E+03 E0= -.19200296E+03  d E =-.487300E-01
       N       E                     dE             d eps       ncg     rms          rms(c)
DAV:   1    -0.192028272527E+03    0.68145E-01   -0.66490E+00  8160   0.558E+00    0.629E-01
DAV:   2    -0.192046307144E+03   -0.18035E-01   -0.20873E-01 12440   0.151E+00    0.108E+00
DAV:   3    -0.192043832802E+03    0.24743E-02   -0.58815E-02 12400   0.154E+00    0.930E-01
DAV:   4    -0.192037356401E+03    0.64764E-02   -0.21425E-02 12120   0.871E-01    0.541E-01
DAV:   5    -0.192036163968E+03    0.11924E-02   -0.12244E-02 10240   0.753E-01    0.485E-01
DAV:   6    -0.192034416997E+03    0.17470E-02   -0.64054E-03 12600   0.465E-01    0.206E-01
DAV:   7    -0.192034285248E+03    0.13175E-03   -0.25838E-03 11560   0.351E-01    0.206E-01
DAV:   8    -0.192033779171E+03    0.50608E-03   -0.10574E-03 10760   0.256E-01    0.529E-02
DAV:   9    -0.192033734692E+03    0.44478E-04   -0.95030E-05  6560   0.524E-02
  20 F= -.19203373E+03 E0= -.19193473E+03  d E =0.626808E-01
       N       E                     dE             d eps       ncg     rms          rms(c)
DAV:   1    -0.192004237073E+03    0.29542E-01   -0.25505E+00  8160   0.345E+00    0.391E-01
DAV:   2    -0.192009328180E+03   -0.50911E-02   -0.68586E-02 12800   0.830E-01    0.611E-01
DAV:   3    -0.192009513401E+03   -0.18522E-03   -0.21966E-02 12520   0.920E-01    0.642E-01
DAV:   4    -0.192006467749E+03    0.30457E-02   -0.98251E-03 12240   0.570E-01    0.318E-01
DAV:   5    -0.192006389896E+03    0.77853E-04   -0.52481E-03 10160   0.476E-01    0.351E-01
DAV:   6    -0.192005363761E+03    0.10261E-02   -0.28191E-03 11760   0.330E-01    0.113E-01
DAV:   7    -0.192005208116E+03    0.15565E-03   -0.61224E-04 10040   0.108E-01    0.440E-02
DAV:   8    -0.192005204141E+03    0.39745E-05   -0.13065E-04  8400   0.906E-02
  21 F= -.19200520E+03 E0= -.19190327E+03  d E =0.285306E-01
       N       E                     dE             d eps       ncg     rms          rms(c)
DAV:   1    -0.191990475337E+03    0.14733E-01   -0.28739E+00  8160   0.364E+00    0.395E-01
DAV:   2    -0.191996359163E+03   -0.58838E-02   -0.76317E-02 12480   0.877E-01    0.546E-01
DAV:   3    -0.191996754873E+03   -0.39571E-03   -0.20614E-02 12320   0.942E-01    0.640E-01
DAV:   4    -0.191993874737E+03    0.28801E-02   -0.10276E-02 11800   0.601E-01    0.337E-01
DAV:   5    -0.191993703723E+03    0.17101E-03   -0.58518E-03 11200   0.491E-01    0.365E-01
DAV:   6    -0.191992785360E+03    0.91836E-03   -0.35416E-03 11160   0.364E-01    0.180E-01
DAV:   7    -0.191992935521E+03   -0.15016E-03   -0.17166E-03 10400   0.301E-01    0.193E-01
DAV:   8    -0.191992452244E+03    0.48328E-03   -0.70313E-04  8640   0.195E-01    0.176E-02
DAV:   9    -0.191992462288E+03   -0.10044E-04   -0.58048E-05  6480   0.258E-02
  22 F= -.19199246E+03 E0= -.19188855E+03  d E =0.127419E-01
       N       E                     dE             d eps       ncg     rms          rms(c)
DAV:   1    -0.192006982835E+03   -0.14531E-01   -0.97854E-01  8160   0.218E+00    0.326E-01
DAV:   2    -0.192010983259E+03   -0.40004E-02   -0.43653E-02 12480   0.860E-01    0.629E-01
DAV:   3    -0.192008269910E+03    0.27133E-02   -0.12809E-02 11840   0.787E-01    0.358E-01
DAV:   4    -0.192007499750E+03    0.77016E-03   -0.46440E-03 11840   0.453E-01    0.293E-01
DAV:   5    -0.192007091363E+03    0.40839E-03   -0.35960E-03 11400   0.425E-01    0.257E-01
DAV:   6    -0.192006961737E+03    0.12963E-03   -0.28661E-03 10520   0.310E-01    0.251E-01
DAV:   7    -0.192006459468E+03    0.50227E-03   -0.14944E-03  9840   0.258E-01    0.798E-02
DAV:   8    -0.192006377886E+03    0.81581E-04   -0.16329E-04  6160   0.725E-02
  23 F= -.19200638E+03 E0= -.19190317E+03  d E =-.139156E-01
       N       E                     dE             d eps       ncg     rms          rms(c)
DAV:   1    -0.192012320771E+03   -0.58613E-02   -0.16704E-01  8160   0.883E-01    0.125E-01
DAV:   2    -0.192012797326E+03   -0.47655E-03   -0.67653E-03 10480   0.330E-01    0.186E-01
DAV:   3    -0.192012596622E+03    0.20070E-03   -0.15927E-03 11400   0.301E-01    0.144E-01
DAV:   4    -0.192012495293E+03    0.10133E-03   -0.82231E-04  8800   0.189E-01    0.138E-01
DAV:   5    -0.192012403913E+03    0.91380E-04   -0.65093E-04  8200   0.160E-01
  24 F= -.19201240E+03 E0= -.19190995E+03  d E =-.602603E-02
       N       E                     dE             d eps       ncg     rms          rms(c)
DAV:   1    -0.192027829378E+03   -0.15334E-01   -0.95811E-01  8160   0.210E+00    0.258E-01
DAV:   2    -0.192031043210E+03   -0.32138E-02   -0.28044E-02 12200   0.632E-01    0.513E-01
DAV:   3    -0.192029230084E+03    0.18131E-02   -0.90959E-03 12600   0.667E-01    0.310E-01
DAV:   4    -0.192028297306E+03    0.93278E-03   -0.18187E-03 11400   0.256E-01    0.864E-02
DAV:   5    -0.192028211466E+03    0.85840E-04   -0.63041E-04 10480   0.902E-02
  25 F= -.19202821E+03 E0= -.19192707E+03  d E =-.158076E-01
       N       E                     dE             d eps       ncg     rms          rms(c)
DAV:   1    -0.192026523853E+03    0.17735E-02   -0.86105E-03  8480   0.215E-01    0.583E-02
DAV:   2    -0.192027541581E+03   -0.10177E-02   -0.22684E-03 11160   0.294E-01    0.347E-01
DAV:   3    -0.192026487485E+03    0.10541E-02   -0.17690E-03  9760   0.262E-01    0.360E-02
DAV:   4    -0.192026515993E+03   -0.28508E-04   -0.62624E-05  5880   0.525E-02
  26 F= -.19202652E+03 E0= -.19192512E+03  d E =0.169547E-02
       N       E                     dE             d eps       ncg     rms          rms(c)
DAV:   1    -0.192007784141E+03    0.18703E-01   -0.14480E+00  8160   0.259E+00    0.319E-01
DAV:   2    -0.192013277198E+03   -0.54931E-02   -0.42239E-02 13040   0.887E-01    0.682E-01
DAV:   3    -0.192009677177E+03    0.36000E-02   -0.14667E-02 12360   0.852E-01    0.382E-01
DAV:   4    -0.192010029958E+03   -0.35278E-03   -0.69819E-03 10880   0.497E-01    0.430E-01
DAV:   5    -0.192008442357E+03    0.15876E-02   -0.42912E-03 11240   0.444E-01    0.189E-01
DAV:   6    -0.192008505258E+03   -0.62901E-04   -0.18703E-03  9920   0.277E-01    0.215E-01
DAV:   7    -0.192008179727E+03    0.32553E-03   -0.12293E-03 10160   0.240E-01    0.866E-02
DAV:   8    -0.192008053818E+03    0.12591E-03   -0.22635E-04  7200   0.825E-02    0.137E-02
DAV:   9    -0.192008058410E+03   -0.45915E-05   -0.37188E-05  7560   0.200E-02
  27 F= -.19200806E+03 E0= -.19190554E+03  d E =0.184576E-01
       N       E                     dE             d eps       ncg     rms          rms(c)
DAV:   1    -0.191997649540E+03    0.10404E-01   -0.93219E-01  8160   0.211E+00    0.285E-01
DAV:   2    -0.192001127147E+03   -0.34776E-02   -0.31377E-02 12520   0.817E-01    0.577E-01
DAV:   3    -0.191998520682E+03    0.26065E-02   -0.10718E-02 12240   0.713E-01    0.320E-01
DAV:   4    -0.191999034977E+03   -0.51430E-03   -0.64503E-03 11840   0.479E-01    0.428E-01
DAV:   5    -0.191997438440E+03    0.15965E-02   -0.38898E-03 10440   0.401E-01    0.132E-01
DAV:   6    -0.191997484059E+03   -0.45620E-04   -0.12343E-03 10000   0.199E-01    0.161E-01
DAV:   7    -0.191997287776E+03    0.19628E-03   -0.79794E-04  8360   0.207E-01    0.915E-02
DAV:   8    -0.191997196674E+03    0.91102E-04   -0.17316E-04  6560   0.864E-02
  28 F= -.19199720E+03 E0= -.19189353E+03  d E =0.108617E-01
       N       E                     dE             d eps       ncg     rms          rms(c)
DAV:   1    -0.192014612237E+03   -0.17324E-01   -0.16626E+00  8160   0.277E+00    0.351E-01
DAV:   2    -0.192022262007E+03   -0.76498E-02   -0.54716E-02 11480   0.111E+00    0.764E-01
DAV:   3    -0.192016809411E+03    0.54526E-02   -0.15968E-02 12160   0.965E-01    0.362E-01
DAV:   4    -0.192016935546E+03   -0.12613E-03   -0.59369E-03 10160   0.497E-01    0.406E-01
DAV:   5    -0.192015704142E+03    0.12314E-02   -0.47348E-03 10320   0.456E-01    0.241E-01
DAV:   6    -0.192015870192E+03   -0.16605E-03   -0.29969E-03  9960   0.330E-01    0.273E-01
DAV:   7    -0.192015258908E+03    0.61128E-03   -0.16880E-03  9960   0.267E-01    0.796E-02
DAV:   8    -0.192015151371E+03    0.10754E-03   -0.24859E-04  7000   0.735E-02    0.185E-02
DAV:   9    -0.192015151407E+03   -0.35853E-07   -0.46543E-05  7440   0.242E-02
  29 F= -.19201515E+03 E0= -.19191282E+03  d E =-.179547E-01
       N       E                     dE             d eps       ncg     rms          rms(c)
DAV:   1    -0.192017756941E+03   -0.26056E-02   -0.50077E-02  8160   0.479E-01    0.579E-02
DAV:   2    -0.192017932608E+03   -0.17567E-03   -0.16420E-03 12240   0.160E-01    0.117E-01
DAV:   3    -0.192017818116E+03    0.11449E-03   -0.40686E-04  8920   0.141E-01    0.596E-02
DAV:   4    -0.192017806093E+03    0.12024E-04   -0.12054E-04  6000   0.804E-02
  30 F= -.19201781E+03 E0= -.19191549E+03  d E =-.265469E-02
       N       E                     dE             d eps       ncg     rms          rms(c)
DAV:   1    -0.192029323830E+03   -0.11506E-01   -0.50964E-01  8160   0.158E+00    0.222E-01
DAV:   2    -0.192029913001E+03   -0.58917E-03   -0.15388E-02 12880   0.427E-01    0.303E-01
DAV:   3    -0.192029954098E+03   -0.41098E-04   -0.48733E-03 12360   0.497E-01    0.321E-01
DAV:   4    -0.192028913540E+03    0.10406E-02   -0.22464E-03 10160   0.309E-01    0.124E-01
DAV:   5    -0.192029278976E+03   -0.36544E-03   -0.18039E-03  9800   0.252E-01    0.265E-01
DAV:   6    -0.192028719400E+03    0.55958E-03   -0.13988E-03  9400   0.221E-01    0.646E-02
DAV:   7    -0.192028721448E+03   -0.20480E-05   -0.19268E-04  6480   0.977E-02
  31 F= -.19202872E+03 E0= -.19192709E+03  d E =-.109154E-01
       N       E                     dE             d eps       ncg     rms          rms(c)
DAV:   1    -0.192037227189E+03   -0.85078E-02   -0.25985E-01  8160   0.109E+00    0.127E-01
DAV:   2    -0.192037495522E+03   -0.26833E-03   -0.67932E-03 11400   0.230E-01    0.983E-02
DAV:   3    -0.192037659456E+03   -0.16393E-03   -0.11863E-03 11280   0.216E-01    0.182E-01
DAV:   4    -0.192037431718E+03    0.22774E-03   -0.96174E-04  8640   0.207E-01    0.114E-01
DAV:   5    -0.192037403458E+03    0.28260E-04   -0.50583E-04  8280   0.143E-01
  32 F= -.19203740E+03 E0= -.19193635E+03  d E =-.868201E-02
       N       E                     dE             d eps       ncg     rms          rms(c)
DAV:   1    -0.192048953646E+03   -0.11522E-01   -0.41253E-01  8160   0.140E+00    0.200E-01
DAV:   2    -0.192049845329E+03   -0.89168E-03   -0.12993E-02 11600   0.521E-01    0.302E-01
DAV:   3    -0.192049122825E+03    0.72250E-03   -0.33349E-03 11320   0.468E-01    0.191E-01
DAV:   4    -0.192048937426E+03    0.18540E-03   -0.15350E-03 10200   0.273E-01    0.190E-01
DAV:   5    -0.192048842514E+03    0.94912E-04   -0.15479E-03  9840   0.252E-01    0.167E-01
DAV:   6    -0.192048698582E+03    0.14393E-03   -0.89501E-04  8560   0.176E-01    0.120E-01
DAV:   7    -0.192048600779E+03    0.97803E-04   -0.42063E-04  7680   0.132E-01
  33 F= -.19204860E+03 E0= -.19194838E+03  d E =-.111973E-01
       N       E                     dE             d eps       ncg     rms          rms(c)
DAV:   1    -0.192059083537E+03   -0.10385E-01   -0.27998E-01  8160   0.114E+00    0.139E-01
DAV:   2    -0.192059583254E+03   -0.49972E-03   -0.78689E-03 13120   0.311E-01    0.197E-01
DAV:   3    -0.192059563957E+03    0.19297E-04   -0.22470E-03 10920   0.316E-01    0.211E-01
DAV:   4    -0.192059404123E+03    0.15983E-03   -0.15301E-03  9160   0.238E-01    0.170E-01
DAV:   5    -0.192059151090E+03    0.25303E-03   -0.72036E-04  8200   0.194E-01    0.694E-02
DAV:   6    -0.192059132704E+03    0.18387E-04   -0.24183E-04  6880   0.880E-02
  34 F= -.19205913E+03 E0= -.19196001E+03  d E =-.105319E-01
       N       E                     dE             d eps       ncg     rms          rms(c)
DAV:   1    -0.192088944020E+03   -0.29793E-01   -0.16756E+00  8160   0.283E+00    0.341E-01
DAV:   2    -0.192091515283E+03   -0.25713E-02   -0.46787E-02 12400   0.750E-01    0.415E-01
DAV:   3    -0.192091672522E+03   -0.15724E-03   -0.10931E-02 12040   0.789E-01    0.462E-01
DAV:   4    -0.192090300710E+03    0.13718E-02   -0.64218E-03 11360   0.540E-01    0.334E-01
DAV:   5    -0.192089580953E+03    0.71976E-03   -0.41088E-03 10480   0.432E-01    0.237E-01
DAV:   6    -0.192089515158E+03    0.65796E-04   -0.27053E-03 10880   0.304E-01    0.229E-01
DAV:   7    -0.192089179167E+03    0.33599E-03   -0.15502E-03  9560   0.261E-01    0.118E-01
DAV:   8    -0.192088994894E+03    0.18427E-03   -0.31060E-04  7840   0.998E-02    0.161E-02
DAV:   9    -0.192088994425E+03    0.46924E-06   -0.40231E-05  6680   0.214E-02
  35 F= -.19208899E+03 E0= -.19199163E+03  d E =-.298617E-01
       N       E                     dE             d eps       ncg     rms          rms(c)
DAV:   1    -0.192088034516E+03    0.96038E-03   -0.14902E-03  8480   0.844E-02    0.110E-02
DAV:   2    -0.192088036924E+03   -0.24077E-05   -0.28136E-05  7600   0.260E-02
  36 F= -.19208804E+03 E0= -.19199053E+03  d E =0.957501E-03
       N       E                     dE             d eps       ncg     rms          rms(c)
DAV:   1    -0.192122818915E+03   -0.34784E-01   -0.18046E+00  8160   0.289E+00    0.319E-01
DAV:   2    -0.192125961774E+03   -0.31429E-02   -0.46475E-02 11640   0.673E-01    0.413E-01
DAV:   3    -0.192126203374E+03   -0.24160E-03   -0.10470E-02 12400   0.730E-01    0.472E-01
DAV:   4    -0.192124246448E+03    0.19569E-02   -0.49543E-03 11440   0.466E-01    0.193E-01
DAV:   5    -0.192124425014E+03   -0.17857E-03   -0.30057E-03 10040   0.324E-01    0.282E-01
DAV:   6    -0.192123866476E+03    0.55854E-03   -0.23019E-03  9720   0.295E-01    0.121E-01
DAV:   7    -0.192123700210E+03    0.16627E-03   -0.44533E-04  8720   0.103E-01    0.306E-02
DAV:   8    -0.192123703099E+03   -0.28888E-05   -0.68968E-05  7240   0.656E-02
  37 F= -.19212370E+03 E0= -.19202928E+03  d E =-.356662E-01
       N       E                     dE             d eps       ncg     rms          rms(c)
DAV:   1    -0.192028901889E+03    0.94798E-01   -0.14436E+01  8160   0.822E+00    0.967E-01
DAV:   2    -0.192073824301E+03   -0.44922E-01   -0.43041E-01 13080   0.264E+00    0.185E+00
DAV:   3    -0.192052689192E+03    0.21135E-01   -0.12380E-01 12320   0.247E+00    0.116E+00
DAV:   4    -0.192043731175E+03    0.89580E-02   -0.40654E-02 11080   0.119E+00    0.821E-01
DAV:   5    -0.192042779997E+03    0.95118E-03   -0.35153E-02 12400   0.122E+00    0.924E-01
DAV:   6    -0.192037279709E+03    0.55003E-02   -0.21533E-02 12080   0.843E-01    0.427E-01
DAV:   7    -0.192037144681E+03    0.13503E-03   -0.87742E-03 11640   0.710E-01    0.377E-01
DAV:   8    -0.192035090302E+03    0.20544E-02   -0.30042E-03 12160   0.386E-01    0.422E-02
DAV:   9    -0.192035094947E+03   -0.46447E-05   -0.26351E-04  7880   0.495E-02
  38 F= -.19203509E+03 E0= -.19193419E+03  d E =0.886082E-01
       N       E                     dE             d eps       ncg     rms          rms(c)
DAV:   1    -0.192064745866E+03   -0.29656E-01   -0.20422E+00  8160   0.317E+00    0.471E-01
DAV:   2    -0.192068950707E+03   -0.42048E-02   -0.77086E-02 13080   0.113E+00    0.689E-01
DAV:   3    -0.192065812832E+03    0.31379E-02   -0.20298E-02 12200   0.107E+00    0.476E-01
DAV:   4    -0.192064904573E+03    0.90826E-03   -0.10798E-02 11160   0.644E-01    0.517E-01
DAV:   5    -0.192063534924E+03    0.13696E-02   -0.94443E-03 12240   0.636E-01    0.372E-01
DAV:   6    -0.192062776828E+03    0.75810E-03   -0.51214E-03 10880   0.407E-01    0.274E-01
DAV:   7    -0.192062280598E+03    0.49623E-03   -0.24377E-03 10080   0.337E-01    0.154E-01
DAV:   8    -0.192062005700E+03    0.27490E-03   -0.52698E-04  8640   0.138E-01    0.290E-02
DAV:   9    -0.192061995742E+03    0.99584E-05   -0.65451E-05  6640   0.305E-02
  39 F= -.19206200E+03 E0= -.19196200E+03  d E =-.269008E-01
       N       E                     dE             d eps       ncg     rms          rms(c)
DAV:   1    -0.192070703584E+03   -0.86979E-02   -0.14963E-01  8160   0.862E-01    0.153E-01
DAV:   2    -0.192071249751E+03   -0.54617E-03   -0.70158E-03 11720   0.410E-01    0.286E-01
DAV:   3    -0.192070579004E+03    0.67075E-03   -0.24730E-03 11600   0.361E-01    0.145E-01
DAV:   4    -0.192070548345E+03    0.30659E-04   -0.11133E-03 10080   0.220E-01    0.168E-01
DAV:   5    -0.192070369176E+03    0.17917E-03   -0.84058E-04  8880   0.212E-01    0.109E-01
DAV:   6    -0.192070386667E+03   -0.17492E-04   -0.62721E-04  8240   0.150E-01
  40 F= -.19207039E+03 E0= -.19197097E+03  d E =-.839093E-02
       N       E                     dE             d eps       ncg     rms          rms(c)
DAV:   1    -0.192102296538E+03   -0.31927E-01   -0.18023E+00  8160   0.290E+00    0.327E-01
DAV:   2    -0.192104991112E+03   -0.26946E-02   -0.44332E-02 12560   0.668E-01    0.414E-01
DAV:   3    -0.192105352848E+03   -0.36174E-03   -0.10491E-02 12440   0.727E-01    0.477E-01
DAV:   4    -0.192103254625E+03    0.20982E-02   -0.50360E-03 11840   0.475E-01    0.186E-01
DAV:   5    -0.192103525653E+03   -0.27103E-03   -0.30435E-03 11040   0.324E-01    0.291E-01
DAV:   6    -0.192102981208E+03    0.54444E-03   -0.26725E-03 10000   0.308E-01    0.145E-01
DAV:   7    -0.192102853674E+03    0.12753E-03   -0.71894E-04  8880   0.174E-01    0.943E-02
DAV:   8    -0.192102749097E+03    0.10458E-03   -0.20513E-04  8360   0.116E-01    0.192E-02
DAV:   9    -0.192102748789E+03    0.30842E-06   -0.27052E-05  6480   0.252E-02
  41 F= -.19210275E+03 E0= -.19200641E+03  d E =-.323621E-01
       N       E                     dE             d eps       ncg     rms          rms(c)
DAV:   1    -0.192073335773E+03    0.29413E-01   -0.13751E+00  8160   0.254E+00    0.296E-01
DAV:   2    -0.192075962652E+03   -0.26269E-02   -0.37368E-02 12640   0.681E-01    0.428E-01
DAV:   3    -0.192075814317E+03    0.14833E-03   -0.10926E-02 12320   0.704E-01    0.447E-01
DAV:   4    -0.192074548720E+03    0.12656E-02   -0.56096E-03 10920   0.451E-01    0.276E-01
DAV:   5    -0.192074240457E+03    0.30826E-03   -0.33694E-03 10480   0.394E-01    0.249E-01
DAV:   6    -0.192073809982E+03    0.43047E-03   -0.18772E-03 10200   0.261E-01    0.133E-01
DAV:   7    -0.192073820269E+03   -0.10286E-04   -0.83618E-04  9600   0.218E-01
  42 F= -.19207382E+03 E0= -.19197486E+03  d E =0.289285E-01
       N       E                     dE             d eps       ncg     rms          rms(c)
DAV:   1    -0.192132252647E+03   -0.58443E-01   -0.53280E+00  8160   0.503E+00    0.599E-01
DAV:   2    -0.192140825035E+03   -0.85724E-02   -0.15230E-01 12480   0.133E+00    0.728E-01
DAV:   3    -0.192141662790E+03   -0.83775E-03   -0.38206E-02 12280   0.137E+00    0.875E-01
DAV:   4    -0.192137258842E+03    0.44039E-02   -0.26244E-02 12120   0.101E+00    0.609E-01
DAV:   5    -0.192134570811E+03    0.26880E-02   -0.12559E-02 11560   0.798E-01    0.396E-01
DAV:   6    -0.192133358302E+03    0.12125E-02   -0.59547E-03 11560   0.505E-01    0.243E-01
DAV:   7    -0.192133549715E+03   -0.19141E-03   -0.31245E-03 11960   0.422E-01    0.284E-01
DAV:   8    -0.192132605512E+03    0.94420E-03   -0.12437E-03  9840   0.255E-01    0.291E-02
DAV:   9    -0.192132601538E+03    0.39736E-05   -0.87214E-05  6360   0.334E-02
  43 F= -.19213260E+03 E0= -.19203838E+03  d E =-.587813E-01
       N       E                     dE             d eps       ncg     rms          rms(c)
DAV:   1    -0.192134649534E+03   -0.20440E-02   -0.70628E-03  8400   0.186E-01    0.384E-02
DAV:   2    -0.192134759702E+03   -0.11017E-03   -0.50960E-04 10640   0.138E-01    0.104E-01
DAV:   3    -0.192134639805E+03    0.11990E-03   -0.17658E-04  8000   0.108E-01    0.258E-02
DAV:   4    -0.192134651460E+03   -0.11655E-04   -0.45694E-05  6080   0.512E-02
  44 F= -.19213465E+03 E0= -.19204081E+03  d E =-.204992E-02
       N       E                     dE             d eps       ncg     rms          rms(c)
DAV:   1    -0.192188347351E+03   -0.53708E-01   -0.34028E+00  8160   0.398E+00    0.475E-01
DAV:   2    -0.192197709924E+03   -0.93626E-02   -0.96998E-02 12480   0.118E+00    0.827E-01
DAV:   3    -0.192192433287E+03    0.52766E-02   -0.21843E-02 12440   0.115E+00    0.493E-01
DAV:   4    -0.192190170145E+03    0.22631E-02   -0.63233E-03 12400   0.552E-01    0.259E-01
DAV:   5    -0.192189868922E+03    0.30122E-03   -0.33992E-03 10600   0.436E-01    0.255E-01
DAV:   6    -0.192189422293E+03    0.44663E-03   -0.24441E-03 11800   0.402E-01    0.163E-01
DAV:   7    -0.192189246945E+03    0.17535E-03   -0.12098E-03 10000   0.223E-01    0.151E-01
DAV:   8    -0.192189035542E+03    0.21140E-03   -0.48659E-04  8760   0.152E-01    0.387E-02
DAV:   9    -0.192189029187E+03    0.63548E-05   -0.50234E-05  6040   0.383E-02
  45 F= -.19218903E+03 E0= -.19209960E+03  d E =-.543777E-01
       N       E                     dE             d eps       ncg     rms          rms(c)
DAV:   1    -0.192194170860E+03   -0.51353E-02   -0.35264E-02  8160   0.409E-01    0.589E-02
DAV:   2    -0.192194489833E+03   -0.31897E-03   -0.14521E-03 12680   0.215E-01    0.171E-01
DAV:   3    -0.192194182935E+03    0.30690E-03   -0.51681E-04  8680   0.190E-01    0.417E-02
DAV:   4    -0.192194184094E+03   -0.11586E-05   -0.83664E-05  5640   0.561E-02
  46 F= -.19219418E+03 E0= -.19210529E+03  d E =-.515491E-02
       N       E                     dE             d eps       ncg     rms          rms(c)
DAV:   1    -0.192227019825E+03   -0.32837E-01   -0.11781E+00  8160   0.243E+00    0.366E-01
DAV:   2    -0.192228071123E+03   -0.10513E-02   -0.39368E-02 11640   0.685E-01    0.450E-01
DAV:   3    -0.192228250973E+03   -0.17985E-03   -0.12397E-02 12200   0.848E-01    0.535E-01
DAV:   4    -0.192225757889E+03    0.24931E-02   -0.65611E-03 11080   0.582E-01    0.248E-01
DAV:   5    -0.192225699314E+03    0.58575E-04   -0.37157E-03 10760   0.452E-01    0.293E-01
DAV:   6    -0.192224914213E+03    0.78510E-03   -0.22287E-03 11200   0.350E-01    0.122E-01
DAV:   7    -0.192224868963E+03    0.45250E-04   -0.60817E-04  8840   0.189E-01
  47 F= -.19222487E+03 E0= -.19213730E+03  d E =-.306849E-01
       N       E                     dE             d eps       ncg     rms          rms(c)
DAV:   1    -0.192218502911E+03    0.64113E-02   -0.10168E-01  8160   0.695E-01    0.100E-01
DAV:   2    -0.192219822288E+03   -0.13194E-02   -0.61084E-03 12080   0.427E-01    0.301E-01
DAV:   3    -0.192218782952E+03    0.10393E-02   -0.16268E-03 10120   0.347E-01    0.697E-02
DAV:   4    -0.192218824916E+03   -0.41965E-04   -0.28818E-04  7720   0.127E-01
  48 F= -.19221882E+03 E0= -.19213038E+03  d E =0.604405E-02
       N       E                     dE             d eps       ncg     rms          rms(c)
DAV:   1    -0.192269072075E+03   -0.50289E-01   -0.28662E+00  8160   0.364E+00    0.463E-01
DAV:   2    -0.192287784947E+03   -0.18713E-01   -0.10198E-01 12680   0.157E+00    0.119E+00
DAV:   3    -0.192272278136E+03    0.15507E-01   -0.27323E-02 12360   0.138E+00    0.304E-01
DAV:   4    -0.192271508380E+03    0.76976E-03   -0.34926E-03 11520   0.359E-01    0.216E-01
DAV:   5    -0.192271222833E+03    0.28555E-03   -0.22153E-03 12640   0.372E-01    0.203E-01
DAV:   6    -0.192270978863E+03    0.24397E-03   -0.16172E-03 10920   0.329E-01    0.127E-01
DAV:   7    -0.192270705004E+03    0.27386E-03   -0.52094E-04  9240   0.143E-01    0.464E-02
DAV:   8    -0.192270705732E+03   -0.72809E-06   -0.12748E-04  6720   0.839E-02
  49 F= -.19227071E+03 E0= -.19218470E+03  d E =-.518808E-01
       N       E                     dE             d eps       ncg     rms          rms(c)
DAV:   1    -0.192335936615E+03   -0.65232E-01   -0.58577E+00  8160   0.521E+00    0.636E-01
DAV:   2    -0.192366363161E+03   -0.30427E-01   -0.20327E-01 12640   0.205E+00    0.145E+00
DAV:   3    -0.192344174767E+03    0.22188E-01   -0.49155E-02 12360   0.186E+00    0.478E-01
DAV:   4    -0.192341651680E+03    0.25231E-02   -0.68164E-03 12440   0.507E-01    0.250E-01
DAV:   5    -0.192341230827E+03    0.42085E-03   -0.41522E-03 12000   0.391E-01    0.257E-01
DAV:   6    -0.192341368963E+03   -0.13814E-03   -0.34681E-03 12120   0.499E-01    0.278E-01
DAV:   7    -0.192340557122E+03    0.81184E-03   -0.17359E-03 10560   0.319E-01    0.126E-01
DAV:   8    -0.192340391285E+03    0.16584E-03   -0.35742E-04  8800   0.155E-01    0.370E-02
DAV:   9    -0.192340379230E+03    0.12055E-04   -0.59052E-05  6720   0.453E-02
  50 F= -.19234038E+03 E0= -.19225642E+03  d E =-.696735E-01
       N       E                     dE             d eps       ncg     rms          rms(c)
DAV:   1    -0.192397180064E+03   -0.56789E-01   -0.49087E+01  8160   0.153E+01    0.175E+00
DAV:   2    -0.192604945713E+03   -0.20777E+00   -0.17838E+00 11680   0.536E+00    0.333E+00
DAV:   3    -0.192496375938E+03    0.10857E+00   -0.35080E-01 12240   0.490E+00    0.144E+00
DAV:   4    -0.192470057039E+03    0.26319E-01   -0.53511E-02 12600   0.161E+00    0.715E-01
DAV:   5    -0.192467518707E+03    0.25383E-02   -0.33431E-02 12720   0.126E+00    0.741E-01
DAV:   6    -0.192465439664E+03    0.20790E-02   -0.26530E-02 12760   0.134E+00    0.598E-01
DAV:   7    -0.192459620793E+03    0.58189E-02   -0.94106E-03 12600   0.667E-01    0.124E-01
DAV:   8    -0.192459765079E+03   -0.14429E-03   -0.15293E-03 12160   0.283E-01    0.166E-01
DAV:   9    -0.192459450207E+03    0.31487E-03   -0.63156E-04 10680   0.203E-01    0.518E-02
DAV:  10    -0.192459398855E+03    0.51352E-04   -0.22064E-04  7600   0.590E-02
  51 F= -.19245940E+03 E0= -.19237954E+03  d E =-.119020E+00
       N       E                     dE             d eps       ncg     rms          rms(c)
DAV:   1    -0.192440825834E+03    0.18624E-01   -0.89501E+00  8160   0.645E+00    0.869E-01
DAV:   2    -0.192510510095E+03   -0.69684E-01   -0.28218E-01 12240   0.324E+00    0.248E+00
DAV:   3    -0.192443665509E+03    0.66845E-01   -0.12174E-01 12400   0.296E+00    0.511E-01
DAV:   4    -0.192440898769E+03    0.27667E-02   -0.10753E-02 12560   0.530E-01    0.366E-01
DAV:   5    -0.192440344019E+03    0.55475E-03   -0.78204E-03 12760   0.674E-01    0.419E-01
DAV:   6    -0.192439227780E+03    0.11162E-02   -0.56909E-03 12760   0.637E-01    0.256E-01
DAV:   7    -0.192438376957E+03    0.85082E-03   -0.16914E-03 11640   0.290E-01    0.107E-01
DAV:   8    -0.192438266507E+03    0.11045E-03   -0.40166E-04  9440   0.164E-01    0.489E-02
DAV:   9    -0.192438236002E+03    0.30506E-04   -0.68427E-05  7240   0.594E-02
  52 F= -.19243824E+03 E0= -.19235759E+03  d E =0.211629E-01
       N       E                     dE             d eps       ncg     rms          rms(c)
DAV:   1    -0.192461675137E+03   -0.23409E-01   -0.96853E+00  8160   0.665E+00    0.781E-01
DAV:   2    -0.192511026302E+03   -0.49351E-01   -0.39061E-01 11600   0.265E+00    0.162E+00
DAV:   3    -0.192484798796E+03    0.26228E-01   -0.75309E-02 12360   0.230E+00    0.619E-01
DAV:   4    -0.192479367148E+03    0.54316E-02   -0.93510E-03 12400   0.645E-01    0.246E-01
DAV:   5    -0.192478925353E+03    0.44179E-03   -0.51556E-03 11400   0.292E-01    0.212E-01
DAV:   6    -0.192479029214E+03   -0.10386E-03   -0.37030E-03 12040   0.435E-01    0.272E-01
DAV:   7    -0.192478073199E+03    0.95601E-03   -0.14926E-03 11600   0.326E-01    0.459E-02
DAV:   8    -0.192478091490E+03   -0.18291E-04   -0.18330E-04  7600   0.974E-02
  53 F= -.19247809E+03 E0= -.19239984E+03  d E =-.398555E-01
       N       E                     dE             d eps       ncg     rms          rms(c)
DAV:   1    -0.192482472782E+03   -0.43996E-02   -0.12196E+00  8160   0.232E+00    0.258E-01
DAV:   2    -0.192488440324E+03   -0.59675E-02   -0.56911E-02 11600   0.872E-01    0.437E-01
DAV:   3    -0.192486983510E+03    0.14568E-02   -0.75116E-03 12520   0.717E-01    0.261E-01
DAV:   4    -0.192486107170E+03    0.87634E-03   -0.12847E-03 11560   0.295E-01    0.821E-02
DAV:   5    -0.192486217424E+03   -0.11025E-03   -0.61479E-04 10720   0.159E-01    0.115E-01
DAV:   6    -0.192486138995E+03    0.78429E-04   -0.54865E-04  9920   0.193E-01
  54 F= -.19248614E+03 E0= -.19240896E+03  d E =-.804750E-02
       N       E                     dE             d eps       ncg     rms          rms(c)
DAV:   1    -0.192485587264E+03    0.63016E-03   -0.74189E-02  8240   0.571E-01    0.901E-02
DAV:   2    -0.192485836384E+03   -0.24912E-03   -0.43418E-03 10440   0.251E-01    0.106E-01
DAV:   3    -0.192485775228E+03    0.61156E-04   -0.55013E-04  9800   0.196E-01
  55 F= -.19248578E+03 E0= -.19240844E+03  d E =0.363767E-03
       N       E                     dE             d eps       ncg     rms          rms(c)
DAV:   1    -0.192487777392E+03   -0.19410E-02   -0.20344E-01  8160   0.967E-01    0.114E-01
DAV:   2    -0.192488685890E+03   -0.90850E-03   -0.85201E-03 12800   0.377E-01    0.209E-01
DAV:   3    -0.192488264879E+03    0.42101E-03   -0.14066E-03 11840   0.319E-01    0.102E-01
DAV:   4    -0.192488137071E+03    0.12781E-03   -0.22193E-04  7400   0.121E-01    0.437E-02
DAV:   5    -0.192488148178E+03   -0.11107E-04   -0.12489E-04  7000   0.997E-02
  56 F= -.19248815E+03 E0= -.19241113E+03  d E =-.237295E-02
       N       E                     dE             d eps       ncg     rms          rms(c)
DAV:   1    -0.192489558385E+03   -0.14213E-02   -0.79430E-02  8160   0.599E-01    0.749E-02
DAV:   2    -0.192489857551E+03   -0.29917E-03   -0.36759E-03 11240   0.202E-01    0.947E-02
DAV:   3    -0.192489824739E+03    0.32812E-04   -0.44775E-04 10640   0.182E-01
  57 F= -.19248982E+03 E0= -.19241304E+03  d E =-.167656E-02
       N       E                     dE             d eps       ncg     rms          rms(c)
DAV:   1    -0.192490882373E+03   -0.10248E-02   -0.64196E-02  8160   0.545E-01    0.680E-02
DAV:   2    -0.192491043263E+03   -0.16089E-03   -0.23218E-03 12520   0.171E-01    0.782E-02
DAV:   3    -0.192491039055E+03    0.42075E-05   -0.29674E-04  9920   0.153E-01
  58 F= -.19249104E+03 E0= -.19241453E+03  d E =-.121432E-02
       N       E                     dE             d eps       ncg     rms          rms(c)
DAV:   1    -0.192492703395E+03   -0.16601E-02   -0.52213E-01  8160   0.153E+00    0.185E-01
DAV:   2    -0.192494975099E+03   -0.22717E-02   -0.23581E-02 12320   0.593E-01    0.291E-01
DAV:   3    -0.192494279747E+03    0.69535E-03   -0.30868E-03 12520   0.462E-01    0.170E-01
DAV:   4    -0.192493909302E+03    0.37045E-03   -0.69324E-04 10120   0.210E-01    0.824E-02
DAV:   5    -0.192493999604E+03   -0.90302E-04   -0.47296E-04 10360   0.183E-01
  59 F= -.19249400E+03 E0= -.19241824E+03  d E =-.296055E-02
       N       E                     dE             d eps       ncg     rms          rms(c)
DAV:   1    -0.192494387782E+03   -0.47848E-03   -0.55504E-02  8160   0.516E-01    0.623E-02
DAV:   2    -0.192494624404E+03   -0.23662E-03   -0.22921E-03 13600   0.191E-01    0.992E-02
DAV:   3    -0.192494514484E+03    0.10992E-03   -0.40828E-04  9160   0.158E-01    0.608E-02
DAV:   4    -0.192494486869E+03    0.27615E-04   -0.95883E-05  6280   0.841E-02
  60 F= -.19249449E+03 E0= -.19241889E+03  d E =-.487265E-03
       N       E                     dE             d eps       ncg     rms          rms(c)
DAV:   1    -0.192494633802E+03   -0.11932E-03   -0.23295E-03  8880   0.130E-01    0.374E-02
DAV:   2    -0.192494703225E+03   -0.69423E-04   -0.27170E-04  9000   0.126E-01
  61 F= -.19249470E+03 E0= -.19241908E+03  d E =-.216356E-03
