   27   27  100    1
  0.9710400E+02  0.1002848E-08  0.1002848E-08  0.3000000E-08  0.5000000E-15
  1.000000000000000E-004
  CAR 
 unknown system                          
    159     34    120
 
  0.0000000E+00  0.0000000E+00  0.0000000E+00  0.1562500E-01
    1      -17.826610   1.000000
    2      -16.703166   1.000000
    3      -16.666954   1.000000
    4      -16.589775   1.000000
    5      -16.497197   1.000000
    6      -16.447154   1.000000
    7      -16.432365   1.000000
    8      -16.363234   1.000000
    9      -16.166181   1.000000
   10      -16.103539   1.000000
   11      -16.035543   1.000000
   12      -15.919278   1.000000
   13      -15.877758   1.000000
   14      -15.825704   1.000000
   15      -15.532623   1.000000
   16      -15.486099   1.000000
   17      -15.399414   1.000000
   18      -15.186370   1.000000
   19       -9.420764   1.000000
   20       -9.012277   1.000000
   21       -8.870585   1.000000
   22       -8.828860   1.000000
   23       -8.770454   1.000000
   24       -8.710657   1.000000
   25       -8.673415   1.000000
   26       -8.538711   1.000000
   27       -8.505173   1.000000
   28       -8.426926   1.000000
   29       -8.382617   1.000000
   30       -8.357302   1.000000
   31       -8.248340   1.000000
   32       -8.152068   1.000000
   33       -8.131741   1.000000
   34       -8.097317   1.000000
   35       -7.810856   1.000000
   36       -7.807197   1.000000
   37       -7.693084   1.000000
   38       -7.580978   1.000000
   39       -7.501066   1.000000
   40       -7.469803   1.000000
   41       -7.342039   1.000000
   42       -7.175892   1.000000
   43       -7.126515   1.000000
   44       -6.893232   1.000000
   45       -6.870162   1.000000
   46       -6.782080   1.000000
   47       -6.757100   1.000000
   48       -6.739769   1.000000
   49       -6.610175   1.000000
   50       -6.506488   1.000000
   51       -6.460115   1.000000
   52       -6.352753   1.000000
   53       -6.257008   1.000000
   54       -6.239165   1.000000
   55       -6.147380   1.000000
   56       -6.037871   1.000000
   57       -5.966623   1.000000
   58       -5.904876   1.000000
   59       -5.786065   1.000000
   60       -5.745869   1.000000
   61       -5.410725   1.000000
   62       -5.316921   1.000000
   63       -5.243915   1.000000
   64       -5.107818   1.000000
   65       -5.037838   1.000000
   66       -4.973680   1.000000
   67       -4.887733   1.000000
   68       -4.827512   1.000000
   69       -4.820631   1.000000
   70       -4.694656   1.000000
   71       -4.585362   1.000000
   72       -4.536698   1.000000
   73       -4.452161   1.000000
   74       -4.372367   1.000000
   75       -4.259778   1.000000
   76       -3.950717   0.999994
   77       -3.690077   0.994268
   78       -3.624413   0.980487
   79       -3.491211   0.869074
   80       -3.374270   0.616053
   81       -3.277453   0.348465
   82       -2.845770   0.000289
   83       -2.677708   0.000002
   84       -2.629375   0.000000
   85       -2.556784   0.000000
   86       -2.458263   0.000000
   87       -2.333249   0.000000
   88       -2.303596   0.000000
   89       -2.147634   0.000000
   90       -2.076434   0.000000
   91       -1.754832   0.000000
   92       -1.544210   0.000000
   93       -1.340631   0.000000
   94       -1.338782   0.000000
   95       -1.251790   0.000000
   96       -1.137186   0.000000
   97       -1.067128   0.000000
   98       -0.889145   0.000000
   99       -0.762225   0.000000
  100       -0.639686   0.000000
  101       -0.608635   0.000000
  102       -0.523276   0.000000
  103       -0.395826   0.000000
  104       -0.335361   0.000000
  105       -0.123846   0.000000
  106       -0.010834   0.000000
  107        0.055526   0.000000
  108        0.147079   0.000000
  109        0.227101   0.000000
  110        0.301142   0.000000
  111        0.403652   0.000000
  112        0.495333   0.000000
  113        0.525134   0.000000
  114        0.682501   0.000000
  115        0.946588   0.000000
  116        0.991062   0.000000
  117        1.051786   0.000000
  118        1.649836   0.000000
  119        1.842819   0.000000
  120        2.167992   0.000000
 
  0.1250000E+00  0.2775558E-16  0.0000000E+00  0.3125000E-01
    1      -17.801684   1.000000
    2      -16.797525   1.000000
    3      -16.699247   1.000000
    4      -16.594224   1.000000
    5      -16.524713   1.000000
    6      -16.448272   1.000000
    7      -16.378220   1.000000
    8      -16.345129   1.000000
    9      -16.174879   1.000000
   10      -16.048996   1.000000
   11      -16.015433   1.000000
   12      -15.904902   1.000000
   13      -15.889368   1.000000
   14      -15.788850   1.000000
   15      -15.548029   1.000000
   16      -15.488805   1.000000
   17      -15.407618   1.000000
   18      -15.191493   1.000000
   19       -9.422490   1.000000
   20       -9.177082   1.000000
   21       -8.979486   1.000000
   22       -8.884007   1.000000
   23       -8.816211   1.000000
   24       -8.684101   1.000000
   25       -8.631944   1.000000
   26       -8.585910   1.000000
   27       -8.516191   1.000000
   28       -8.465276   1.000000
   29       -8.355595   1.000000
   30       -8.280161   1.000000
   31       -8.168458   1.000000
   32       -8.108961   1.000000
   33       -8.032740   1.000000
   34       -7.944017   1.000000
   35       -7.795386   1.000000
   36       -7.748442   1.000000
   37       -7.682355   1.000000
   38       -7.563690   1.000000
   39       -7.534255   1.000000
   40       -7.476493   1.000000
   41       -7.299071   1.000000
   42       -7.166656   1.000000
   43       -7.127955   1.000000
   44       -6.957698   1.000000
   45       -6.931737   1.000000
   46       -6.853312   1.000000
   47       -6.784518   1.000000
   48       -6.635557   1.000000
   49       -6.582690   1.000000
   50       -6.481720   1.000000
   51       -6.418811   1.000000
   52       -6.372410   1.000000
   53       -6.312174   1.000000
   54       -6.231315   1.000000
   55       -6.171079   1.000000
   56       -6.072744   1.000000
   57       -5.961200   1.000000
   58       -5.885849   1.000000
   59       -5.749763   1.000000
   60       -5.676628   1.000000
   61       -5.398490   1.000000
   62       -5.382172   1.000000
   63       -5.294673   1.000000
   64       -5.209628   1.000000
   65       -5.130337   1.000000
   66       -5.006260   1.000000
   67       -4.924855   1.000000
   68       -4.830435   1.000000
   69       -4.796759   1.000000
   70       -4.704387   1.000000
   71       -4.610077   1.000000
   72       -4.445729   1.000000
   73       -4.338072   1.000000
   74       -4.281754   1.000000
   75       -4.195772   1.000000
   76       -3.963522   0.999996
   77       -3.794189   0.999452
   78       -3.700764   0.995390
   79       -3.580484   0.960223
   80       -3.305074   0.423025
   81       -3.218148   0.209309
   82       -2.841074   0.000255
   83       -2.669793   0.000001
   84       -2.622168   0.000000
   85       -2.526653   0.000000
   86       -2.460263   0.000000
   87       -2.346191   0.000000
   88       -2.258473   0.000000
   89       -2.134650   0.000000
   90       -2.059402   0.000000
   91       -1.747780   0.000000
   92       -1.547871   0.000000
   93       -1.381055   0.000000
   94       -1.322343   0.000000
   95       -1.244473   0.000000
   96       -1.143193   0.000000
   97       -1.049620   0.000000
   98       -0.881947   0.000000
   99       -0.791521   0.000000
  100       -0.735618   0.000000
  101       -0.643918   0.000000
  102       -0.570273   0.000000
  103       -0.477157   0.000000
  104       -0.349491   0.000000
  105       -0.199855   0.000000
  106       -0.016313   0.000000
  107        0.080075   0.000000
  108        0.130787   0.000000
  109        0.188366   0.000000
  110        0.265204   0.000000
  111        0.344967   0.000000
  112        0.447413   0.000000
  113        0.685798   0.000000
  114        0.755559   0.000000
  115        0.918771   0.000000
  116        1.003150   0.000000
  117        1.108151   0.000000
  118        1.692779   0.000000
  119        1.882836   0.000000
  120        2.202969   0.000000
 
  0.2500000E+00  0.5551115E-16  0.0000000E+00  0.3125000E-01
    1      -17.728369   1.000000
    2      -17.005145   1.000000
    3      -16.707491   1.000000
    4      -16.634041   1.000000
    5      -16.574787   1.000000
    6      -16.410052   1.000000
    7      -16.367302   1.000000
    8      -16.293000   1.000000
    9      -16.158968   1.000000
   10      -16.007144   1.000000
   11      -15.952423   1.000000
   12      -15.892189   1.000000
   13      -15.853032   1.000000
   14      -15.723577   1.000000
   15      -15.582451   1.000000
   16      -15.498653   1.000000
   17      -15.425924   1.000000
   18      -15.204613   1.000000
   19       -9.553020   1.000000
   20       -9.282034   1.000000
   21       -9.154937   1.000000
   22       -8.982439   1.000000
   23       -8.923303   1.000000
   24       -8.764659   1.000000
   25       -8.568527   1.000000
   26       -8.545146   1.000000
   27       -8.470116   1.000000
   28       -8.413106   1.000000
   29       -8.313577   1.000000
   30       -8.246589   1.000000
   31       -8.148242   1.000000
   32       -8.088745   1.000000
   33       -7.848345   1.000000
   34       -7.796632   1.000000
   35       -7.737139   1.000000
   36       -7.684306   1.000000
   37       -7.624816   1.000000
   38       -7.520685   1.000000
   39       -7.469789   1.000000
   40       -7.391834   1.000000
   41       -7.245045   1.000000
   42       -7.183282   1.000000
   43       -7.103648   1.000000
   44       -7.050842   1.000000
   45       -6.941842   1.000000
   46       -6.851172   1.000000
   47       -6.813480   1.000000
   48       -6.651339   1.000000
   49       -6.550236   1.000000
   50       -6.478083   1.000000
   51       -6.410279   1.000000
   52       -6.376070   1.000000
   53       -6.248593   1.000000
   54       -6.214114   1.000000
   55       -6.186125   1.000000
   56       -6.089270   1.000000
   57       -5.969402   1.000000
   58       -5.862632   1.000000
   59       -5.704663   1.000000
   60       -5.676044   1.000000
   61       -5.604179   1.000000
   62       -5.506468   1.000000
   63       -5.426571   1.000000
   64       -5.309611   1.000000
   65       -5.224212   1.000000
   66       -5.068602   1.000000
   67       -4.905709   1.000000
   68       -4.839562   1.000000
   69       -4.748716   1.000000
   70       -4.681640   1.000000
   71       -4.472562   1.000000
   72       -4.345620   1.000000
   73       -4.273626   1.000000
   74       -4.216657   1.000000
   75       -4.103161   1.000000
   76       -4.036969   1.000000
   77       -3.985568   0.999998
   78       -3.778488   0.999193
   79       -3.589330   0.965302
   80       -3.219360   0.211783
   81       -3.176530   0.134991
   82       -2.823304   0.000159
   83       -2.659537   0.000001
   84       -2.590604   0.000000
   85       -2.506920   0.000000
   86       -2.439478   0.000000
   87       -2.353012   0.000000
   88       -2.162461   0.000000
   89       -2.097515   0.000000
   90       -1.999907   0.000000
   91       -1.733498   0.000000
   92       -1.566055   0.000000
   93       -1.433084   0.000000
   94       -1.332499   0.000000
   95       -1.230641   0.000000
   96       -1.158088   0.000000
   97       -1.045885   0.000000
   98       -0.945464   0.000000
   99       -0.879094   0.000000
  100       -0.853705   0.000000
  101       -0.771039   0.000000
  102       -0.613514   0.000000
  103       -0.567771   0.000000
  104       -0.375057   0.000000
  105       -0.334204   0.000000
  106       -0.122594   0.000000
  107       -0.079866   0.000000
  108        0.088747   0.000000
  109        0.140680   0.000000
  110        0.261760   0.000000
  111        0.376690   0.000000
  112        0.487887   0.000000
  113        0.716561   0.000000
  114        0.815539   0.000000
  115        0.961983   0.000000
  116        1.121869   0.000000
  117        1.214155   0.000000
  118        1.812744   0.000000
  119        1.997009   0.000000
  120        2.306618   0.000000
 
  0.3750000E+00  0.0000000E+00  0.0000000E+00  0.3125000E-01
    1      -17.613282   1.000000
    2      -17.215291   1.000000
    3      -16.723620   1.000000
    4      -16.667068   1.000000
    5      -16.586284   1.000000
    6      -16.425643   1.000000
    7      -16.354772   1.000000
    8      -16.241103   1.000000
    9      -16.144707   1.000000
   10      -15.974719   1.000000
   11      -15.910134   1.000000
   12      -15.873922   1.000000
   13      -15.787027   1.000000
   14      -15.695145   1.000000
   15      -15.623199   1.000000
   16      -15.493474   1.000000
   17      -15.442235   1.000000
   18      -15.218627   1.000000
   19       -9.741581   1.000000
   20       -9.304484   1.000000
   21       -9.230137   1.000000
   22       -9.082755   1.000000
   23       -8.950881   1.000000
   24       -8.836553   1.000000
   25       -8.529938   1.000000
   26       -8.482420   1.000000
   27       -8.405103   1.000000
   28       -8.368237   1.000000
   29       -8.291805   1.000000
   30       -8.228265   1.000000
   31       -8.184228   1.000000
   32       -8.062241   1.000000
   33       -7.914108   1.000000
   34       -7.795925   1.000000
   35       -7.729359   1.000000
   36       -7.633053   1.000000
   37       -7.524332   1.000000
   38       -7.438294   1.000000
   39       -7.331791   1.000000
   40       -7.302820   1.000000
   41       -7.246767   1.000000
   42       -7.122924   1.000000
   43       -7.094792   1.000000
   44       -7.011390   1.000000
   45       -6.891639   1.000000
   46       -6.842019   1.000000
   47       -6.674477   1.000000
   48       -6.652244   1.000000
   49       -6.554015   1.000000
   50       -6.483446   1.000000
   51       -6.425230   1.000000
   52       -6.353467   1.000000
   53       -6.231465   1.000000
   54       -6.215029   1.000000
   55       -6.140532   1.000000
   56       -6.056135   1.000000
   57       -5.961964   1.000000
   58       -5.904331   1.000000
   59       -5.833874   1.000000
   60       -5.791727   1.000000
   61       -5.748958   1.000000
   62       -5.643039   1.000000
   63       -5.526055   1.000000
   64       -5.376197   1.000000
   65       -5.229573   1.000000
   66       -5.045032   1.000000
   67       -4.873700   1.000000
   68       -4.800781   1.000000
   69       -4.759264   1.000000
   70       -4.654728   1.000000
   71       -4.576726   1.000000
   72       -4.312218   1.000000
   73       -4.276213   1.000000
   74       -4.196458   1.000000
   75       -4.175653   1.000000
   76       -3.994829   0.999999
   77       -3.951096   0.999994
   78       -3.723504   0.997150
   79       -3.575411   0.957048
   80       -3.214863   0.202691
   81       -3.118402   0.064996
   82       -2.801588   0.000087
   83       -2.664725   0.000001
   84       -2.553837   0.000000
   85       -2.504755   0.000000
   86       -2.422334   0.000000
   87       -2.327337   0.000000
   88       -2.075415   0.000000
   89       -2.042393   0.000000
   90       -1.901656   0.000000
   91       -1.723937   0.000000
   92       -1.600913   0.000000
   93       -1.497667   0.000000
   94       -1.359195   0.000000
   95       -1.245175   0.000000
   96       -1.199383   0.000000
   97       -1.126919   0.000000
   98       -1.037991   0.000000
   99       -0.960519   0.000000
  100       -0.888503   0.000000
  101       -0.832739   0.000000
  102       -0.692680   0.000000
  103       -0.565062   0.000000
  104       -0.427508   0.000000
  105       -0.374385   0.000000
  106       -0.284680   0.000000
  107       -0.220721   0.000000
  108        0.004952   0.000000
  109        0.099000   0.000000
  110        0.267835   0.000000
  111        0.424769   0.000000
  112        0.502563   0.000000
  113        0.719465   0.000000
  114        0.817517   0.000000
  115        1.046190   0.000000
  116        1.246080   0.000000
  117        1.321318   0.000000
  118        1.993276   0.000000
  119        2.171870   0.000000
  120        2.470043   0.000000
 
  0.5000000E+00  0.1110223E-15  0.0000000E+00  0.1562500E-01
    1      -17.511822   1.000000
    2      -17.350338   1.000000
    3      -16.731726   1.000000
    4      -16.679433   1.000000
    5      -16.584504   1.000000
    6      -16.436643   1.000000
    7      -16.351109   1.000000
    8      -16.223578   1.000000
    9      -16.134613   1.000000
   10      -15.971554   1.000000
   11      -15.890543   1.000000
   12      -15.853261   1.000000
   13      -15.747472   1.000000
   14      -15.703520   1.000000
   15      -15.654981   1.000000
   16      -15.479087   1.000000
   17      -15.449327   1.000000
   18      -15.224576   1.000000
   19       -9.814012   1.000000
   20       -9.337403   1.000000
   21       -9.234511   1.000000
   22       -9.115227   1.000000
   23       -8.933620   1.000000
   24       -8.864220   1.000000
   25       -8.545161   1.000000
   26       -8.471469   1.000000
   27       -8.375050   1.000000
   28       -8.338223   1.000000
   29       -8.297736   1.000000
   30       -8.210165   1.000000
   31       -8.107962   1.000000
   32       -8.081799   1.000000
   33       -7.969594   1.000000
   34       -7.826106   1.000000
   35       -7.790076   1.000000
   36       -7.656284   1.000000
   37       -7.457656   1.000000
   38       -7.393953   1.000000
   39       -7.332547   1.000000
   40       -7.307036   1.000000
   41       -7.138476   1.000000
   42       -7.083788   1.000000
   43       -7.029018   1.000000
   44       -6.943972   1.000000
   45       -6.905795   1.000000
   46       -6.851798   1.000000
   47       -6.645632   1.000000
   48       -6.559454   1.000000
   49       -6.531914   1.000000
   50       -6.469613   1.000000
   51       -6.447364   1.000000
   52       -6.390385   1.000000
   53       -6.295322   1.000000
   54       -6.243315   1.000000
   55       -6.080454   1.000000
   56       -6.055941   1.000000
   57       -6.035472   1.000000
   58       -5.909589   1.000000
   59       -5.886236   1.000000
   60       -5.803979   1.000000
   61       -5.761350   1.000000
   62       -5.597587   1.000000
   63       -5.551243   1.000000
   64       -5.440494   1.000000
   65       -5.222924   1.000000
   66       -5.144884   1.000000
   67       -4.915003   1.000000
   68       -4.826517   1.000000
   69       -4.762001   1.000000
   70       -4.626479   1.000000
   71       -4.569361   1.000000
   72       -4.308782   1.000000
   73       -4.265269   1.000000
   74       -4.233740   1.000000
   75       -4.166482   1.000000
   76       -3.970796   0.999997
   77       -3.914346   0.999981
   78       -3.685201   0.993680
   79       -3.569385   0.953013
   80       -3.221262   0.215699
   81       -3.093645   0.045591
   82       -2.790569   0.000063
   83       -2.670340   0.000001
   84       -2.547053   0.000000
   85       -2.499937   0.000000
   86       -2.408248   0.000000
   87       -2.315328   0.000000
   88       -2.039423   0.000000
   89       -2.006308   0.000000
   90       -1.846277   0.000000
   91       -1.723408   0.000000
   92       -1.611871   0.000000
   93       -1.550802   0.000000
   94       -1.378176   0.000000
   95       -1.281636   0.000000
   96       -1.221697   0.000000
   97       -1.159594   0.000000
   98       -1.062161   0.000000
   99       -0.994092   0.000000
  100       -0.892692   0.000000
  101       -0.844047   0.000000
  102       -0.716545   0.000000
  103       -0.588058   0.000000
  104       -0.428785   0.000000
  105       -0.384181   0.000000
  106       -0.334686   0.000000
  107       -0.286421   0.000000
  108       -0.037183   0.000000
  109        0.083987   0.000000
  110        0.263443   0.000000
  111        0.437197   0.000000
  112        0.513582   0.000000
  113        0.715757   0.000000
  114        0.822559   0.000000
  115        1.077354   0.000000
  116        1.293608   0.000000
  117        1.364613   0.000000
  118        2.194467   0.000000
  119        2.257495   0.000000
  120        2.386213   0.000000
 
  0.0000000E+00  0.1250000E+00  0.0000000E+00  0.3125000E-01
    1      -17.802854   1.000000
    2      -16.773632   1.000000
    3      -16.675410   1.000000
    4      -16.637079   1.000000
    5      -16.563106   1.000000
    6      -16.428998   1.000000
    7      -16.382696   1.000000
    8      -16.297316   1.000000
    9      -16.189317   1.000000
   10      -16.106572   1.000000
   11      -16.020154   1.000000
   12      -15.870466   1.000000
   13      -15.843350   1.000000
   14      -15.817112   1.000000
   15      -15.543157   1.000000
   16      -15.493507   1.000000
   17      -15.406505   1.000000
   18      -15.195746   1.000000
   19       -9.429231   1.000000
   20       -9.108927   1.000000
   21       -9.034959   1.000000
   22       -8.912822   1.000000
   23       -8.772412   1.000000
   24       -8.732095   1.000000
   25       -8.669148   1.000000
   26       -8.581308   1.000000
   27       -8.509970   1.000000
   28       -8.445605   1.000000
   29       -8.361205   1.000000
   30       -8.209965   1.000000
   31       -8.203248   1.000000
   32       -8.106801   1.000000
   33       -8.027205   1.000000
   34       -7.918723   1.000000
   35       -7.840473   1.000000
   36       -7.775851   1.000000
   37       -7.652950   1.000000
   38       -7.569499   1.000000
   39       -7.523054   1.000000
   40       -7.369933   1.000000
   41       -7.362158   1.000000
   42       -7.197223   1.000000
   43       -7.125088   1.000000
   44       -6.953378   1.000000
   45       -6.902902   1.000000
   46       -6.865287   1.000000
   47       -6.787905   1.000000
   48       -6.716330   1.000000
   49       -6.565058   1.000000
   50       -6.496816   1.000000
   51       -6.457054   1.000000
   52       -6.350936   1.000000
   53       -6.287496   1.000000
   54       -6.224036   1.000000
   55       -6.143145   1.000000
   56       -6.052511   1.000000
   57       -5.931602   1.000000
   58       -5.868816   1.000000
   59       -5.788453   1.000000
   60       -5.664681   1.000000
   61       -5.420064   1.000000
   62       -5.324303   1.000000
   63       -5.287427   1.000000
   64       -5.222247   1.000000
   65       -5.148690   1.000000
   66       -5.008414   1.000000
   67       -4.958145   1.000000
   68       -4.932541   1.000000
   69       -4.778241   1.000000
   70       -4.651408   1.000000
   71       -4.561726   1.000000
   72       -4.435075   1.000000
   73       -4.366691   1.000000
   74       -4.285063   1.000000
   75       -4.203714   1.000000
   76       -3.930381   0.999988
   77       -3.830614   0.999786
   78       -3.664162   0.990486
   79       -3.551023   0.938822
   80       -3.421331   0.734965
   81       -3.143122   0.090231
   82       -2.828922   0.000185
   83       -2.672859   0.000002
   84       -2.649938   0.000001
   85       -2.576212   0.000000
   86       -2.462295   0.000000
   87       -2.361760   0.000000
   88       -2.254770   0.000000
   89       -2.123967   0.000000
   90       -2.052206   0.000000
   91       -1.693249   0.000000
   92       -1.539755   0.000000
   93       -1.388391   0.000000
   94       -1.337007   0.000000
   95       -1.220858   0.000000
   96       -1.127413   0.000000
   97       -1.077409   0.000000
   98       -0.896070   0.000000
   99       -0.757890   0.000000
  100       -0.713912   0.000000
  101       -0.625293   0.000000
  102       -0.582752   0.000000
  103       -0.543876   0.000000
  104       -0.311789   0.000000
  105       -0.159677   0.000000
  106       -0.093006   0.000000
  107        0.038679   0.000000
  108        0.102954   0.000000
  109        0.162002   0.000000
  110        0.251380   0.000000
  111        0.393231   0.000000
  112        0.516539   0.000000
  113        0.613972   0.000000
  114        0.812250   0.000000
  115        0.958687   0.000000
  116        0.990969   0.000000
  117        1.105580   0.000000
  118        1.693390   0.000000
  119        1.880757   0.000000
  120        2.203087   0.000000
 
  0.1250000E+00  0.1250000E+00  0.0000000E+00  0.3125000E-01
    1      -17.755753   1.000000
    2      -16.885116   1.000000
    3      -16.791054   1.000000
    4      -16.652903   1.000000
    5      -16.497088   1.000000
    6      -16.434716   1.000000
    7      -16.354904   1.000000
    8      -16.287270   1.000000
    9      -16.152086   1.000000
   10      -16.094005   1.000000
   11      -15.984599   1.000000
   12      -15.887580   1.000000
   13      -15.804561   1.000000
   14      -15.752005   1.000000
   15      -15.566374   1.000000
   16      -15.507627   1.000000
   17      -15.414712   1.000000
   18      -15.204921   1.000000
   19       -9.464833   1.000000
   20       -9.328167   1.000000
   21       -9.089517   1.000000
   22       -9.036967   1.000000
   23       -8.827136   1.000000
   24       -8.696025   1.000000
   25       -8.642019   1.000000
   26       -8.551277   1.000000
   27       -8.504309   1.000000
   28       -8.409273   1.000000
   29       -8.312556   1.000000
   30       -8.231515   1.000000
   31       -8.175288   1.000000
   32       -8.034363   1.000000
   33       -7.979461   1.000000
   34       -7.830260   1.000000
   35       -7.759360   1.000000
   36       -7.722494   1.000000
   37       -7.617645   1.000000
   38       -7.497549   1.000000
   39       -7.457888   1.000000
   40       -7.342846   1.000000
   41       -7.282036   1.000000
   42       -7.207358   1.000000
   43       -7.128095   1.000000
   44       -7.019962   1.000000
   45       -6.962443   1.000000
   46       -6.886517   1.000000
   47       -6.798229   1.000000
   48       -6.691587   1.000000
   49       -6.569591   1.000000
   50       -6.477066   1.000000
   51       -6.431673   1.000000
   52       -6.363906   1.000000
   53       -6.290402   1.000000
   54       -6.208445   1.000000
   55       -6.164058   1.000000
   56       -6.053607   1.000000
   57       -5.960381   1.000000
   58       -5.849286   1.000000
   59       -5.764220   1.000000
   60       -5.592995   1.000000
   61       -5.522828   1.000000
   62       -5.457811   1.000000
   63       -5.344862   1.000000
   64       -5.280010   1.000000
   65       -5.204481   1.000000
   66       -5.107863   1.000000
   67       -5.028355   1.000000
   68       -4.836236   1.000000
   69       -4.815318   1.000000
   70       -4.573509   1.000000
   71       -4.535243   1.000000
   72       -4.342590   1.000000
   73       -4.292115   1.000000
   74       -4.193155   1.000000
   75       -4.132523   1.000000
   76       -4.057772   1.000000
   77       -3.944495   0.999992
   78       -3.705018   0.995779
   79       -3.596213   0.968874
   80       -3.340913   0.523627
   81       -3.109993   0.057791
   82       -2.817703   0.000136
   83       -2.654652   0.000001
   84       -2.617636   0.000000
   85       -2.549093   0.000000
   86       -2.462984   0.000000
   87       -2.368110   0.000000
   88       -2.197545   0.000000
   89       -2.079544   0.000000
   90       -2.028644   0.000000
   91       -1.685168   0.000000
   92       -1.544616   0.000000
   93       -1.422866   0.000000
   94       -1.332956   0.000000
   95       -1.213214   0.000000
   96       -1.141950   0.000000
   97       -1.077608   0.000000
   98       -0.901487   0.000000
   99       -0.870759   0.000000
  100       -0.807526   0.000000
  101       -0.741174   0.000000
  102       -0.628817   0.000000
  103       -0.591023   0.000000
  104       -0.351239   0.000000
  105       -0.258984   0.000000
  106       -0.090420   0.000000
  107       -0.020988   0.000000
  108        0.034140   0.000000
  109        0.105764   0.000000
  110        0.232195   0.000000
  111        0.399758   0.000000
  112        0.483630   0.000000
  113        0.746535   0.000000
  114        0.869528   0.000000
  115        0.965999   0.000000
  116        1.050845   0.000000
  117        1.174554   0.000000
  118        1.775246   0.000000
  119        1.957719   0.000000
  120        2.272344   0.000000
 
  0.2500000E+00  0.1250000E+00  0.0000000E+00  0.3125000E-01
    1      -17.663105   1.000000
    2      -17.088677   1.000000
    3      -16.866082   1.000000
    4      -16.641502   1.000000
    5      -16.476914   1.000000
    6      -16.402110   1.000000
    7      -16.363522   1.000000
    8      -16.252991   1.000000
    9      -16.166907   1.000000
   10      -16.018757   1.000000
   11      -15.948775   1.000000
   12      -15.895903   1.000000
   13      -15.764409   1.000000
   14      -15.692997   1.000000
   15      -15.598104   1.000000
   16      -15.512228   1.000000
   17      -15.428931   1.000000
   18      -15.216425   1.000000
   19       -9.630299   1.000000
   20       -9.445668   1.000000
   21       -9.229071   1.000000
   22       -9.055374   1.000000
   23       -8.888992   1.000000
   24       -8.686878   1.000000
   25       -8.535794   1.000000
   26       -8.478944   1.000000
   27       -8.419558   1.000000
   28       -8.385906   1.000000
   29       -8.312470   1.000000
   30       -8.240842   1.000000
   31       -8.207746   1.000000
   32       -8.093019   1.000000
   33       -7.919838   1.000000
   34       -7.875010   1.000000
   35       -7.769098   1.000000
   36       -7.577665   1.000000
   37       -7.537160   1.000000
   38       -7.434568   1.000000
   39       -7.345293   1.000000
   40       -7.303644   1.000000
   41       -7.254584   1.000000
   42       -7.134681   1.000000
   43       -7.077046   1.000000
   44       -7.034230   1.000000
   45       -6.911262   1.000000
   46       -6.863992   1.000000
   47       -6.769563   1.000000