       N       E                     dE             d eps       ncg     rms          rms(c)
DAV:   1     0.112567979037E+04    0.11257E+04   -0.35984E+04  8160   0.577E+02
DAV:   2    -0.325108074364E+01   -0.11289E+04   -0.10888E+04 11200   0.173E+02
DAV:   3    -0.199895108550E+03   -0.19664E+03   -0.18874E+03 10920   0.819E+01
DAV:   4    -0.209008409829E+03   -0.91133E+01   -0.88554E+01 12120   0.260E+01
DAV:   5    -0.209323846045E+03   -0.31544E+00   -0.31457E+00 11520   0.356E+00    0.275E+01
DAV:   6    -0.237089131645E+03   -0.27765E+02   -0.10948E+02 12480   0.604E+01    0.596E+01
DAV:   7    -0.196445997032E+03    0.40643E+02   -0.17758E+02 13400   0.152E+02    0.199E+01
DAV:   8    -0.189402604909E+03    0.70434E+01   -0.17402E+01 12120   0.127E+01    0.126E+01
DAV:   9    -0.188169285749E+03    0.12333E+01   -0.31474E+00 12960   0.637E+00    0.913E+00
DAV:  10    -0.186999088202E+03    0.11702E+01   -0.20851E+00 13520   0.736E+00    0.272E+00
DAV:  11    -0.186967596198E+03    0.31492E-01   -0.59094E-01 13240   0.251E+00    0.274E+00
DAV:  12    -0.187089992633E+03   -0.12240E+00   -0.81665E-01 12240   0.482E+00    0.497E+00
DAV:  13    -0.186881041778E+03    0.20895E+00   -0.54777E-01 13000   0.410E+00    0.211E+00
DAV:  14    -0.186856718922E+03    0.24323E-01   -0.12770E-01 13400   0.206E+00    0.169E+00
DAV:  15    -0.186837084622E+03    0.19634E-01   -0.71424E-02 12080   0.161E+00    0.865E-01
DAV:  16    -0.186829430890E+03    0.76537E-02   -0.12305E-02 12200   0.468E-01    0.449E-01
DAV:  17    -0.186827555084E+03    0.18758E-02   -0.79705E-03 12640   0.431E-01    0.234E-01
DAV:  18    -0.186827093412E+03    0.46167E-03   -0.24493E-03 11840   0.144E-01    0.180E-01
DAV:  19    -0.186826739739E+03    0.35367E-03   -0.98464E-04 10920   0.134E-01    0.479E-02
DAV:  20    -0.186827476798E+03   -0.73706E-03   -0.69433E-04  9360   0.585E-02    0.497E-02
DAV:  21    -0.186828067962E+03   -0.59116E-03   -0.26548E-04  7800   0.450E-02    0.446E-02
DAV:  22    -0.186829233560E+03   -0.11656E-02   -0.21800E-04  7560   0.618E-02    0.399E-02
DAV:  23    -0.186830460119E+03   -0.12266E-02   -0.14558E-04  7440   0.442E-02    0.112E-02
DAV:  24    -0.186831048396E+03   -0.58828E-03   -0.30865E-05  6680   0.141E-02    0.776E-03
DAV:  25    -0.186831414043E+03   -0.36565E-03   -0.15789E-05  5760   0.122E-02    0.493E-03
DAV:  26    -0.186831648699E+03   -0.23466E-03   -0.90246E-06  6760   0.729E-03    0.159E-03
DAV:  27    -0.186831751626E+03   -0.10293E-03   -0.38370E-06  7080   0.480E-03    0.160E-03
DAV:  28    -0.186831792346E+03   -0.40720E-04   -0.20014E-06  7400   0.364E-03
   1 F= -.18683179E+03 E0= -.18665924E+03  d E =-.186832E+03
       N       E                     dE             d eps       ncg     rms          rms(c)
DAV:   1    -0.187459329476E+03   -0.62758E+00   -0.27120E+02  8160   0.350E+01    0.460E+00
DAV:   2    -0.189260651958E+03   -0.18013E+01   -0.20040E+01 12280   0.149E+01    0.789E+00
DAV:   3    -0.189367176735E+03   -0.10652E+00   -0.36212E+00 12440   0.117E+01    0.697E+00
DAV:   4    -0.188724901281E+03    0.64228E+00   -0.65837E-01 12640   0.492E+00    0.178E+00
DAV:   5    -0.188721344014E+03    0.35573E-02   -0.29496E-01 10200   0.142E+00    0.214E+00
DAV:   6    -0.188660224648E+03    0.61119E-01   -0.28280E-01 10840   0.145E+00    0.116E+00
DAV:   7    -0.188642677120E+03    0.17548E-01   -0.80865E-02 11360   0.105E+00    0.818E-01
DAV:   8    -0.188638571012E+03    0.41061E-02   -0.28392E-02 12480   0.932E-01    0.780E-01
DAV:   9    -0.188634122148E+03    0.44489E-02   -0.10614E-02 13040   0.564E-01    0.238E-01
DAV:  10    -0.188633771623E+03    0.35052E-03   -0.28625E-03 12920   0.206E-01    0.151E-01
DAV:  11    -0.188633517210E+03    0.25441E-03   -0.14145E-03 12000   0.127E-01    0.108E-01
DAV:  12    -0.188633857287E+03   -0.34008E-03   -0.98754E-04 10960   0.188E-01    0.217E-01
DAV:  13    -0.188633532367E+03    0.32492E-03   -0.57138E-04  9600   0.148E-01    0.217E-02
DAV:  14    -0.188633639922E+03   -0.10756E-03   -0.68126E-05  7360   0.272E-02    0.302E-02
DAV:  15    -0.188633673907E+03   -0.33985E-04   -0.37844E-05  7560   0.210E-02
   2 F= -.18863367E+03 E0= -.18849138E+03  d E =-.180188E+01
       N       E                     dE             d eps       ncg     rms          rms(c)
DAV:   1    -0.190551990241E+03   -0.19184E+01   -0.30897E+01  9280   0.142E+01    0.446E+00
DAV:   2    -0.190545940561E+03    0.60497E-02   -0.28405E+00 11680   0.972E+00    0.748E+00
DAV:   3    -0.190024517202E+03    0.52142E+00   -0.13436E+00 12360   0.865E+00    0.413E+00
DAV:   4    -0.189819917608E+03    0.20460E+00   -0.69847E-01 12960   0.404E+00    0.247E+00
DAV:   5    -0.189737221660E+03    0.82696E-01   -0.29527E-01 11440   0.198E+00    0.118E+00
DAV:   6    -0.189723064181E+03    0.14157E-01   -0.63918E-02 11920   0.139E+00    0.855E-01
DAV:   7    -0.189717106857E+03    0.59573E-02   -0.15036E-02 12240   0.702E-01    0.215E-01
DAV:   8    -0.189716960010E+03    0.14685E-03   -0.21953E-03 10560   0.170E-01    0.143E-01
DAV:   9    -0.189717176129E+03   -0.21612E-03   -0.10445E-03 11120   0.144E-01    0.160E-01
DAV:  10    -0.189717574728E+03   -0.39860E-03   -0.14390E-03 10160   0.263E-01    0.251E-01
DAV:  11    -0.189716991378E+03    0.58335E-03   -0.83317E-04  9760   0.193E-01    0.267E-02
DAV:  12    -0.189717013913E+03   -0.22536E-04   -0.66958E-05  5760   0.320E-02
   3 F= -.18971701E+03 E0= -.18959717E+03  d E =-.108334E+01
       N       E                     dE             d eps       ncg     rms          rms(c)
DAV:   1    -0.191282123296E+03   -0.15651E+01   -0.71857E+01  8160   0.194E+01    0.464E+00
DAV:   2    -0.191157192652E+03    0.12493E+00   -0.54527E+00 13360   0.833E+00    0.521E+00
DAV:   3    -0.191196991378E+03   -0.39799E-01   -0.16174E+00 12280   0.927E+00    0.650E+00
DAV:   4    -0.190837651282E+03    0.35934E+00   -0.13702E+00 12600   0.737E+00    0.318E+00
DAV:   5    -0.190833399544E+03    0.42517E-02   -0.56379E-01 12000   0.490E+00    0.337E+00
DAV:   6    -0.190688529366E+03    0.14487E+00   -0.21611E-01 12160   0.327E+00    0.841E-01
DAV:   7    -0.190683070790E+03    0.54586E-02   -0.39141E-02 12320   0.907E-01    0.491E-01
DAV:   8    -0.190681544364E+03    0.15264E-02   -0.11062E-02 11720   0.640E-01    0.496E-01
DAV:   9    -0.190679351639E+03    0.21927E-02   -0.39980E-03 11360   0.464E-01    0.157E-01
DAV:  10    -0.190679623874E+03   -0.27223E-03   -0.11871E-03 10480   0.144E-01    0.126E-01
DAV:  11    -0.190679463899E+03    0.15997E-03   -0.87966E-04 10520   0.108E-01    0.485E-02
DAV:  12    -0.190679457805E+03    0.60940E-05   -0.14694E-04  7160   0.453E-02
   4 F= -.19067946E+03 E0= -.19057825E+03  d E =-.962444E+00
       N       E                     dE             d eps       ncg     rms          rms(c)
DAV:   1    -0.192064041983E+03   -0.13846E+01   -0.14996E+02  8160   0.274E+01    0.569E+00
DAV:   2    -0.191841820950E+03    0.22222E+00   -0.94433E+00 12040   0.869E+00    0.450E+00
DAV:   3    -0.192225410496E+03   -0.38359E+00   -0.23900E+00 12200   0.108E+01    0.914E+00
DAV:   4    -0.191561095994E+03    0.66431E+00   -0.23402E+00 12160   0.111E+01    0.353E+00
DAV:   5    -0.191388002807E+03    0.17309E+00   -0.50001E-01 12280   0.349E+00    0.177E+00
DAV:   6    -0.191371175750E+03    0.16827E-01   -0.20053E-01 12560   0.292E+00    0.180E+00
DAV:   7    -0.191347236942E+03    0.23939E-01   -0.10383E-01 12240   0.206E+00    0.675E-01
DAV:   8    -0.191339874367E+03    0.73626E-02   -0.11470E-02 11160   0.538E-01    0.201E-01
DAV:   9    -0.191341191741E+03   -0.13174E-02   -0.38556E-03 12560   0.423E-01    0.379E-01
DAV:  10    -0.191340161686E+03    0.10301E-02   -0.35236E-03 11360   0.406E-01    0.125E-01
DAV:  11    -0.191339995056E+03    0.16663E-03   -0.73890E-04 10480   0.123E-01    0.579E-02
DAV:  12    -0.191339961538E+03    0.33518E-04   -0.13263E-04  7400   0.470E-02
   5 F= -.19133996E+03 E0= -.19124564E+03  d E =-.660504E+00
       N       E                     dE             d eps       ncg     rms          rms(c)
DAV:   1    -0.191426671076E+03   -0.86676E-01   -0.77904E+00  8160   0.589E+00    0.715E-01
DAV:   2    -0.191489328329E+03   -0.62657E-01   -0.31664E-01 13200   0.271E+00    0.223E+00
DAV:   3    -0.191442464383E+03    0.46864E-01   -0.13571E-01 12400   0.241E+00    0.660E-01
DAV:   4    -0.191442893563E+03   -0.42918E-03   -0.20580E-02 11720   0.987E-01    0.724E-01
DAV:   5    -0.191437531845E+03    0.53617E-02   -0.10101E-02 11720   0.765E-01    0.240E-01
DAV:   6    -0.191437080290E+03    0.45155E-03   -0.25834E-03 10960   0.237E-01    0.141E-01
DAV:   7    -0.191436845365E+03    0.23493E-03   -0.14037E-03 10400   0.138E-01    0.824E-02
DAV:   8    -0.191436800369E+03    0.44996E-04   -0.42234E-04  9440   0.131E-01
   6 F= -.19143680E+03 E0= -.19134101E+03  d E =-.968388E-01
       N       E                     dE             d eps       ncg     rms          rms(c)
DAV:   1    -0.191459980326E+03   -0.23135E-01   -0.45476E-01  8160   0.143E+00    0.172E-01
DAV:   2    -0.191463265123E+03   -0.32848E-02   -0.16632E-02 13600   0.641E-01    0.507E-01
DAV:   3    -0.191460631711E+03    0.26334E-02   -0.62701E-03 11480   0.547E-01    0.143E-01
DAV:   4    -0.191460798914E+03   -0.16720E-03   -0.11629E-03 10040   0.235E-01    0.187E-01
DAV:   5    -0.191460456029E+03    0.34289E-03   -0.61824E-04  8720   0.193E-01    0.566E-02
DAV:   6    -0.191460461117E+03   -0.50878E-05   -0.13595E-04  6120   0.655E-02
   7 F= -.19146046E+03 E0= -.19136461E+03  d E =-.236607E-01
       N       E                     dE             d eps       ncg     rms          rms(c)
DAV:   1    -0.191364613706E+03    0.95842E-01   -0.77952E+00  8160   0.593E+00    0.731E-01
DAV:   2    -0.191421118715E+03   -0.56505E-01   -0.28952E-01 13600   0.286E+00    0.204E+00
DAV:   3    -0.191373787500E+03    0.47331E-01   -0.90822E-02 12440   0.224E+00    0.540E-01
DAV:   4    -0.191375975045E+03   -0.21875E-02   -0.18777E-02 10640   0.957E-01    0.761E-01
DAV:   5    -0.191370271569E+03    0.57035E-02   -0.12510E-02 10800   0.822E-01    0.281E-01
DAV:   6    -0.191369851358E+03    0.42021E-03   -0.39885E-03 11640   0.336E-01    0.206E-01
DAV:   7    -0.191370128767E+03   -0.27741E-03   -0.32615E-03 12200   0.393E-01    0.297E-01
DAV:   8    -0.191369211068E+03    0.91770E-03   -0.15985E-03 10080   0.280E-01    0.486E-02
DAV:   9    -0.191369206576E+03    0.44916E-05   -0.95509E-05  6000   0.448E-02
   8 F= -.19136921E+03 E0= -.19127456E+03  d E =0.912545E-01
       N       E                     dE             d eps       ncg     rms          rms(c)
DAV:   1    -0.191322119490E+03    0.47092E-01   -0.47352E+00  8160   0.462E+00    0.441E-01
DAV:   2    -0.191331893979E+03   -0.97745E-02   -0.12215E-01 12520   0.108E+00    0.538E-01
DAV:   3    -0.191332848414E+03   -0.95443E-03   -0.23250E-02 12600   0.101E+00    0.702E-01
DAV:   4    -0.191328642639E+03    0.42058E-02   -0.11039E-02 12000   0.708E-01    0.273E-01
DAV:   5    -0.191327884307E+03    0.75833E-03   -0.31537E-03 10200   0.324E-01    0.214E-01
DAV:   6    -0.191328127872E+03   -0.24357E-03   -0.29743E-03 12000   0.381E-01    0.244E-01
DAV:   7    -0.191327588163E+03    0.53971E-03   -0.15635E-03  9880   0.273E-01    0.127E-01
DAV:   8    -0.191327439987E+03    0.14818E-03   -0.44138E-04  8560   0.156E-01    0.608E-02
DAV:   9    -0.191327401406E+03    0.38581E-04   -0.88798E-05  6680   0.659E-02
   9 F= -.19132740E+03 E0= -.19123356E+03  d E =0.418052E-01
       N       E                     dE             d eps       ncg     rms          rms(c)
DAV:   1    -0.191385429314E+03   -0.57989E-01   -0.52261E+00  8160   0.483E+00    0.539E-01
DAV:   2    -0.191408008280E+03   -0.22579E-01   -0.16483E-01 13320   0.147E+00    0.122E+00
DAV:   3    -0.191395398988E+03    0.12609E-01   -0.59823E-02 12240   0.159E+00    0.659E-01
DAV:   4    -0.191392657987E+03    0.27410E-02   -0.12741E-02 11920   0.699E-01    0.461E-01
DAV:   5    -0.191390797502E+03    0.18605E-02   -0.56739E-03 11320   0.562E-01    0.258E-01
DAV:   6    -0.191390247328E+03    0.55017E-03   -0.25210E-03 12040   0.288E-01    0.143E-01
DAV:   7    -0.191390126678E+03    0.12065E-03   -0.12792E-03 11120   0.190E-01    0.118E-01
DAV:   8    -0.191390043626E+03    0.83052E-04   -0.59537E-04  8960   0.179E-01
  10 F= -.19139004E+03 E0= -.19129431E+03  d E =-.626422E-01
       N       E                     dE             d eps       ncg     rms          rms(c)
DAV:   1    -0.191409185062E+03   -0.19058E-01   -0.39098E-01  8160   0.135E+00    0.215E-01
DAV:   2    -0.191413296460E+03   -0.41114E-02   -0.20128E-02 12760   0.807E-01    0.616E-01
DAV:   3    -0.191409274107E+03    0.40224E-02   -0.87483E-03 11560   0.657E-01    0.149E-01
DAV:   4    -0.191409613600E+03   -0.33949E-03   -0.20357E-03 10120   0.297E-01    0.257E-01
DAV:   5    -0.191408997369E+03    0.61623E-03   -0.14128E-03  9760   0.268E-01    0.891E-02
DAV:   6    -0.191408908875E+03    0.88494E-04   -0.27704E-04  6000   0.857E-02
  11 F= -.19140891E+03 E0= -.19131256E+03  d E =-.188652E-01
       N       E                     dE             d eps       ncg     rms          rms(c)
DAV:   1    -0.191491610405E+03   -0.82613E-01   -0.75428E+00  8160   0.584E+00    0.724E-01
DAV:   2    -0.191553065946E+03   -0.61456E-01   -0.28885E-01 13600   0.288E+00    0.236E+00
DAV:   3    -0.191501923807E+03    0.51142E-01   -0.13768E-01 12280   0.241E+00    0.645E-01
DAV:   4    -0.191503234792E+03   -0.13110E-02   -0.23619E-02 11320   0.106E+00    0.785E-01
DAV:   5    -0.191497003121E+03    0.62317E-02   -0.12280E-02 11880   0.801E-01    0.260E-01
DAV:   6    -0.191496374497E+03    0.62862E-03   -0.35470E-03 11280   0.266E-01    0.152E-01
DAV:   7    -0.191496121856E+03    0.25264E-03   -0.15914E-03 11640   0.188E-01    0.124E-01
DAV:   8    -0.191496000084E+03    0.12177E-03   -0.65114E-04  8920   0.182E-01    0.900E-02
DAV:   9    -0.191495913174E+03    0.86910E-04   -0.16328E-04  6400   0.914E-02
  12 F= -.19149591E+03 E0= -.19139911E+03  d E =-.870043E-01
       N       E                     dE             d eps       ncg     rms          rms(c)
DAV:   1    -0.191242454268E+03    0.25355E+00   -0.57341E+01  8160   0.161E+01    0.174E+00
DAV:   2    -0.191496838194E+03   -0.25438E+00   -0.17266E+00 13200   0.553E+00    0.372E+00
DAV:   3    -0.191319842556E+03    0.17700E+00   -0.36368E-01 11680   0.451E+00    0.145E+00
DAV:   4    -0.191320497535E+03   -0.65498E-03   -0.11373E-01 12360   0.206E+00    0.159E+00
DAV:   5    -0.191298374533E+03    0.22123E-01   -0.67557E-02 11720   0.183E+00    0.792E-01
DAV:   6    -0.191293716752E+03    0.46578E-02   -0.24483E-02 12200   0.944E-01    0.467E-01
DAV:   7    -0.191292651960E+03    0.10648E-02   -0.12385E-02 12760   0.675E-01    0.501E-01
DAV:   8    -0.191290363422E+03    0.22885E-02   -0.55336E-03 11600   0.563E-01    0.180E-01
DAV:   9    -0.191290021562E+03    0.34186E-03   -0.90578E-04 10360   0.167E-01    0.584E-02
DAV:  10    -0.191289973908E+03    0.47654E-04   -0.35120E-04 10240   0.606E-02
  13 F= -.19128997E+03 E0= -.19119737E+03  d E =0.205939E+00
       N       E                     dE             d eps       ncg     rms          rms(c)
DAV:   1    -0.191260331403E+03    0.29690E-01   -0.72997E+00  8160   0.566E+00    0.561E-01
DAV:   2    -0.191276155207E+03   -0.15824E-01   -0.15759E-01 12440   0.139E+00    0.845E-01
DAV:   3    -0.191269677383E+03    0.64778E-02   -0.32348E-02 12880   0.127E+00    0.601E-01
DAV:   4    -0.191266865933E+03    0.28114E-02   -0.11367E-02 12320   0.735E-01    0.344E-01
DAV:   5    -0.191265790185E+03    0.10757E-02   -0.51504E-03 11800   0.467E-01    0.316E-01
DAV:   6    -0.191265506066E+03    0.28412E-03   -0.41427E-03 11280   0.468E-01    0.251E-01
DAV:   7    -0.191264908358E+03    0.59771E-03   -0.14575E-03 10360   0.244E-01    0.682E-02
DAV:   8    -0.191264879321E+03    0.29037E-04   -0.30385E-04  7840   0.110E-01
  14 F= -.19126488E+03 E0= -.19117289E+03  d E =0.250946E-01
       N       E                     dE             d eps       ncg     rms          rms(c)
DAV:   1    -0.191292073555E+03   -0.27165E-01   -0.21086E+00  8160   0.308E+00    0.411E-01
DAV:   2    -0.191308005638E+03   -0.15932E-01   -0.86851E-02 13400   0.154E+00    0.111E+00
DAV:   3    -0.191294945010E+03    0.13061E-01   -0.33876E-02 12240   0.129E+00    0.343E-01
DAV:   4    -0.191294706608E+03    0.23840E-03   -0.67444E-03 11280   0.491E-01    0.369E-01
DAV:   5    -0.191293748734E+03    0.95787E-03   -0.43129E-03 11480   0.461E-01    0.226E-01
DAV:   6    -0.191293127745E+03    0.62099E-03   -0.14083E-03 10080   0.219E-01    0.661E-02
DAV:   7    -0.191293224860E+03   -0.97115E-04   -0.54505E-04 10720   0.121E-01
  15 F= -.19129322E+03 E0= -.19119865E+03  d E =-.283455E-01
       N       E                     dE             d eps       ncg     rms          rms(c)
DAV:   1    -0.191339296131E+03   -0.46168E-01   -0.10960E+01  8160   0.700E+00    0.835E-01
DAV:   2    -0.191397341833E+03   -0.58046E-01   -0.37701E-01 13480   0.289E+00    0.202E+00
DAV:   3    -0.191357376800E+03    0.39965E-01   -0.13894E-01 12320   0.255E+00    0.819E-01
DAV:   4    -0.191353747295E+03    0.36295E-02   -0.29086E-02 12200   0.101E+00    0.720E-01
DAV:   5    -0.191350669359E+03    0.30779E-02   -0.18303E-02 12240   0.947E-01    0.509E-01
DAV:   6    -0.191347719334E+03    0.29500E-02   -0.64639E-03 12280   0.486E-01    0.149E-01
DAV:   7    -0.191347679688E+03    0.39646E-04   -0.18704E-03 10600   0.159E-01    0.882E-02
DAV:   8    -0.191347543109E+03    0.13658E-03   -0.49963E-04 10880   0.124E-01    0.752E-02
DAV:   9    -0.191347505732E+03    0.37377E-04   -0.18968E-04  6800   0.104E-01
  16 F= -.19134751E+03 E0= -.19124905E+03  d E =-.542809E-01
       N       E                     dE             d eps       ncg     rms          rms(c)
DAV:   1    -0.191358939945E+03   -0.11397E-01   -0.42603E-01  8160   0.143E+00    0.218E-01
DAV:   2    -0.191361095531E+03   -0.21556E-02   -0.18928E-02 13120   0.625E-01    0.420E-01
DAV:   3    -0.191359349424E+03    0.17461E-02   -0.60729E-03 11640   0.563E-01    0.204E-01
DAV:   4    -0.191359037629E+03    0.31179E-03   -0.19236E-03  9960   0.260E-01    0.167E-01
DAV:   5    -0.191358954111E+03    0.83518E-04   -0.13201E-03  9800   0.246E-01    0.168E-01
DAV:   6    -0.191358674965E+03    0.27915E-03   -0.65414E-04  8200   0.174E-01    0.498E-02
DAV:   7    -0.191358663042E+03    0.11923E-04   -0.16784E-04  5760   0.679E-02
  17 F= -.19135866E+03 E0= -.19126008E+03  d E =-.111573E-01
       N       E                     dE             d eps       ncg     rms          rms(c)
DAV:   1    -0.191383095765E+03   -0.24421E-01   -0.19766E+00  8160   0.301E+00    0.355E-01
DAV:   2    -0.191390365688E+03   -0.72699E-02   -0.63578E-02 13600   0.102E+00    0.645E-01
DAV:   3    -0.191386488023E+03    0.38777E-02   -0.17740E-02 12280   0.933E-01    0.381E-01
DAV:   4    -0.191385413418E+03    0.10746E-02   -0.52079E-03 11400   0.434E-01    0.259E-01
DAV:   5    -0.191385229803E+03    0.18361E-03   -0.32072E-03 11160   0.390E-01    0.264E-01
DAV:   6    -0.191384557093E+03    0.67271E-03   -0.15827E-03  9640   0.269E-01    0.752E-02
DAV:   7    -0.191384560441E+03   -0.33485E-05   -0.38137E-04  8520   0.953E-02
  18 F= -.19138456E+03 E0= -.19128601E+03  d E =-.258974E-01
       N       E                     dE             d eps       ncg     rms          rms(c)
DAV:   1    -0.191369461121E+03    0.15096E-01   -0.71921E-01  8160   0.183E+00    0.236E-01
DAV:   2    -0.191372853440E+03   -0.33923E-02   -0.25368E-02 12840   0.737E-01    0.507E-01
DAV:   3    -0.191370284617E+03    0.25688E-02   -0.77475E-03 12040   0.643E-01    0.228E-01
DAV:   4    -0.191370083357E+03    0.20126E-03   -0.23786E-03 10520   0.310E-01    0.211E-01
DAV:   5    -0.191369782314E+03    0.30104E-03   -0.15178E-03  9560   0.282E-01    0.145E-01
DAV:   6    -0.191369551829E+03    0.23049E-03   -0.61665E-04  9480   0.153E-01    0.533E-02
DAV:   7    -0.191369647233E+03   -0.95404E-04   -0.37004E-04  8320   0.131E-01
  19 F= -.19136965E+03 E0= -.19127083E+03  d E =0.149132E-01
       N       E                     dE             d eps       ncg     rms          rms(c)
DAV:   1    -0.191350208523E+03    0.19343E-01   -0.11348E+00  8160   0.228E+00    0.258E-01
DAV:   2    -0.191353707721E+03   -0.34992E-02   -0.34399E-02 13560   0.681E-01    0.432E-01
DAV:   3    -0.191352433727E+03    0.12740E-02   -0.93377E-03 12480   0.647E-01    0.340E-01
DAV:   4    -0.191351675995E+03    0.75773E-03   -0.37535E-03 11360   0.378E-01    0.204E-01
DAV:   5    -0.191351410642E+03    0.26535E-03   -0.15575E-03  9760   0.277E-01    0.166E-01
DAV:   6    -0.191351156686E+03    0.25396E-03   -0.80877E-04  9680   0.198E-01    0.708E-02
DAV:   7    -0.191351235529E+03   -0.78843E-04   -0.37386E-04  9200   0.129E-01
  20 F= -.19135124E+03 E0= -.19125243E+03  d E =0.184117E-01
       N       E                     dE             d eps       ncg     rms          rms(c)
DAV:   1    -0.191357411624E+03   -0.62549E-02   -0.41177E-01  8160   0.135E+00    0.159E-01
DAV:   2    -0.191359731625E+03   -0.23200E-02   -0.13289E-02 13560   0.559E-01    0.412E-01
DAV:   3    -0.191358011447E+03    0.17202E-02   -0.46852E-03 11720   0.502E-01    0.158E-01
DAV:   4    -0.191357853239E+03    0.15821E-03   -0.94706E-04  9600   0.200E-01    0.119E-01
DAV:   5    -0.191357760004E+03    0.93235E-04   -0.47377E-04  8280   0.161E-01
  21 F= -.19135776E+03 E0= -.19125834E+03  d E =-.652447E-02
       N       E                     dE             d eps       ncg     rms          rms(c)
DAV:   1    -0.191365715752E+03   -0.78625E-02   -0.17068E+00  8160   0.274E+00    0.252E-01
DAV:   2    -0.191369289885E+03   -0.35741E-02   -0.33717E-02 12240   0.651E-01    0.432E-01
DAV:   3    -0.191368144708E+03    0.11452E-02   -0.79212E-03 12640   0.634E-01    0.334E-01
DAV:   4    -0.191367364408E+03    0.78030E-03   -0.29166E-03 11040   0.348E-01    0.155E-01
DAV:   5    -0.191366985506E+03    0.37890E-03   -0.10159E-03 10240   0.152E-01    0.917E-02
DAV:   6    -0.191367314715E+03   -0.32921E-03   -0.11040E-03 10080   0.231E-01    0.199E-01
DAV:   7    -0.191366912462E+03    0.40225E-03   -0.61483E-04  8160   0.170E-01    0.163E-02
DAV:   8    -0.191366932512E+03   -0.20050E-04   -0.32992E-05  5560   0.316E-02
  22 F= -.19136693E+03 E0= -.19126852E+03  d E =-.917251E-02
       N       E                     dE             d eps       ncg     rms          rms(c)
DAV:   1    -0.191353520965E+03    0.13391E-01   -0.14482E+00  8160   0.254E+00    0.235E-01
DAV:   2    -0.191355417439E+03   -0.18965E-02   -0.27738E-02 12240   0.485E-01    0.258E-01
DAV:   3    -0.191356046559E+03   -0.62912E-03   -0.57498E-03 12840   0.506E-01    0.392E-01
DAV:   4    -0.191354804914E+03    0.12416E-02   -0.34893E-03 11080   0.391E-01    0.153E-01
DAV:   5    -0.191354558899E+03    0.24601E-03   -0.10488E-03  9840   0.174E-01    0.110E-01
DAV:   6    -0.191354691330E+03   -0.13243E-03   -0.86566E-04 10600   0.211E-01    0.148E-01
DAV:   7    -0.191354478132E+03    0.21320E-03   -0.46785E-04  8160   0.150E-01    0.569E-02
DAV:   8    -0.191354452467E+03    0.25665E-04   -0.94036E-05  5560   0.735E-02
  23 F= -.19135445E+03 E0= -.19125544E+03  d E =0.124800E-01
       N       E                     dE             d eps       ncg     rms          rms(c)
DAV:   1    -0.191357057618E+03   -0.25795E-02   -0.53143E-01  8160   0.154E+00    0.177E-01
DAV:   2    -0.191358666686E+03   -0.16091E-02   -0.15359E-02 13400   0.435E-01    0.340E-01
DAV:   3    -0.191357861748E+03    0.80494E-03   -0.46591E-03 11840   0.461E-01    0.222E-01
DAV:   4    -0.191357500961E+03    0.36079E-03   -0.13289E-03  9520   0.225E-01    0.124E-01
DAV:   5    -0.191357417209E+03    0.83752E-04   -0.64739E-04  8440   0.188E-01
  24 F= -.19135742E+03 E0= -.19125813E+03  d E =-.296474E-02
       N       E                     dE             d eps       ncg     rms          rms(c)
DAV:   1    -0.191368466150E+03   -0.10965E-01   -0.64231E-01  8160   0.173E+00    0.279E-01
DAV:   2    -0.191372274483E+03   -0.38083E-02   -0.26338E-02 13240   0.863E-01    0.651E-01
DAV:   3    -0.191368196060E+03    0.40784E-02   -0.10677E-02 11400   0.770E-01    0.243E-01
DAV:   4    -0.191368354457E+03   -0.15840E-03   -0.36657E-03 11480   0.400E-01    0.309E-01
DAV:   5    -0.191367585129E+03    0.76933E-03   -0.30108E-03  9760   0.368E-01    0.161E-01
DAV:   6    -0.191367272644E+03    0.31248E-03   -0.10166E-03  9520   0.161E-01    0.647E-02
DAV:   7    -0.191367318002E+03   -0.45358E-04   -0.39473E-04  8040   0.132E-01
  25 F= -.19136732E+03 E0= -.19126696E+03  d E =-.990079E-02
       N       E                     dE             d eps       ncg     rms          rms(c)
DAV:   1    -0.191377658067E+03   -0.10385E-01   -0.32083E-01  8160   0.122E+00    0.149E-01
DAV:   2    -0.191379027699E+03   -0.13696E-02   -0.10975E-02 13560   0.395E-01    0.295E-01
DAV:   3    -0.191378302436E+03    0.72526E-03   -0.37170E-03 11680   0.413E-01    0.190E-01
DAV:   4    -0.191378052445E+03    0.24999E-03   -0.11462E-03  9400   0.205E-01    0.111E-01
DAV:   5    -0.191377994052E+03    0.58393E-04   -0.48631E-04  8160   0.159E-01
  26 F= -.19137799E+03 E0= -.19127769E+03  d E =-.106760E-01
       N       E                     dE             d eps       ncg     rms          rms(c)
DAV:   1    -0.191381671878E+03   -0.36194E-02   -0.20197E-01  8160   0.980E-01    0.127E-01
DAV:   2    -0.191381982179E+03   -0.31030E-03   -0.60967E-03 12280   0.248E-01    0.158E-01
DAV:   3    -0.191382085775E+03   -0.10360E-03   -0.19341E-03 10400   0.295E-01    0.210E-01
DAV:   4    -0.191381707495E+03    0.37828E-03   -0.10212E-03  8400   0.203E-01    0.849E-02
DAV:   5    -0.191381699915E+03    0.75805E-05   -0.38970E-04  7920   0.138E-01
  27 F= -.19138170E+03 E0= -.19128113E+03  d E =-.370586E-02
       N       E                     dE             d eps       ncg     rms          rms(c)
DAV:   1    -0.191373908153E+03    0.77993E-02   -0.16495E+00  8160   0.277E+00    0.361E-01
DAV:   2    -0.191379366060E+03   -0.54579E-02   -0.48737E-02 13600   0.941E-01    0.765E-01
DAV:   3    -0.191375055697E+03    0.43104E-02   -0.20356E-02 12200   0.964E-01    0.408E-01
DAV:   4    -0.191373555054E+03    0.15006E-02   -0.53135E-03 10760   0.412E-01    0.194E-01
DAV:   5    -0.191373609153E+03   -0.54099E-04   -0.30969E-03 10880   0.345E-01    0.276E-01
DAV:   6    -0.191373030841E+03    0.57831E-03   -0.21887E-03  9720   0.327E-01    0.129E-01
DAV:   7    -0.191372937484E+03    0.93356E-04   -0.62767E-04  8440   0.150E-01
  28 F= -.19137294E+03 E0= -.19127217E+03  d E =0.876243E-02
       N       E                     dE             d eps       ncg     rms          rms(c)
DAV:   1    -0.191415191689E+03   -0.42161E-01   -0.72923E+00  8160   0.588E+00    0.803E-01
DAV:   2    -0.191447250687E+03   -0.32059E-01   -0.24331E-01 13520   0.229E+00    0.185E+00
DAV:   3    -0.191419479767E+03    0.27771E-01   -0.11041E-01 12240   0.223E+00    0.819E-01
DAV:   4    -0.191415639073E+03    0.38407E-02   -0.29940E-02 11960   0.105E+00    0.683E-01
DAV:   5    -0.191412952277E+03    0.26868E-02   -0.18457E-02 12040   0.975E-01    0.569E-01
DAV:   6    -0.191410084410E+03    0.28679E-02   -0.10360E-02 11720   0.662E-01    0.304E-01
DAV:   7    -0.191410002889E+03    0.81521E-04   -0.49350E-03 11000   0.490E-01    0.299E-01
DAV:   8    -0.191409057643E+03    0.94525E-03   -0.18488E-03  9880   0.303E-01    0.632E-02
DAV:   9    -0.191409002564E+03    0.55078E-04   -0.22632E-04  7800   0.650E-02
  29 F= -.19140900E+03 E0= -.19130918E+03  d E =-.360651E-01
       N       E                     dE             d eps       ncg     rms          rms(c)
DAV:   1    -0.191431200575E+03   -0.22143E-01   -0.12769E+00  8160   0.242E+00    0.278E-01
DAV:   2    -0.191436634737E+03   -0.54342E-02   -0.40255E-02 13600   0.814E-01    0.601E-01
DAV:   3    -0.191433540000E+03    0.30947E-02   -0.13057E-02 12280   0.790E-01    0.323E-01
DAV:   4    -0.191432915333E+03    0.62467E-03   -0.34062E-03 10920   0.355E-01    0.213E-01
DAV:   5    -0.191432570040E+03    0.34529E-03   -0.15282E-03 10000   0.285E-01    0.162E-01
DAV:   6    -0.191432376663E+03    0.19338E-03   -0.86244E-04  8840   0.199E-01    0.968E-02
DAV:   7    -0.191432524880E+03   -0.14822E-03   -0.73690E-04  9240   0.192E-01    0.150E-01
DAV:   8    -0.191432280770E+03    0.24411E-03   -0.41230E-04  8160   0.150E-01    0.213E-02
DAV:   9    -0.191432287459E+03   -0.66892E-05   -0.35766E-05  5640   0.277E-02
  30 F= -.19143229E+03 E0= -.19133293E+03  d E =-.232849E-01
       N       E                     dE             d eps       ncg     rms          rms(c)
DAV:   1    -0.191411203967E+03    0.21077E-01   -0.16385E+00  8160   0.272E+00    0.313E-01
DAV:   2    -0.191417706141E+03   -0.65022E-02   -0.48805E-02 13600   0.991E-01    0.662E-01
DAV:   3    -0.191413309922E+03    0.43962E-02   -0.13687E-02 12240   0.843E-01    0.305E-01
DAV:   4    -0.191413073130E+03    0.23679E-03   -0.43783E-03 11320   0.414E-01    0.293E-01
DAV:   5    -0.191412396635E+03    0.67650E-03   -0.24680E-03 10200   0.361E-01    0.176E-01
DAV:   6    -0.191412153911E+03    0.24272E-03   -0.10754E-03 10120   0.204E-01    0.936E-02
DAV:   7    -0.191412282537E+03   -0.12863E-03   -0.76568E-04  8960   0.191E-01    0.150E-01
DAV:   8    -0.191412047165E+03    0.23537E-03   -0.41369E-04  8080   0.151E-01    0.255E-02
DAV:   9    -0.191412053552E+03   -0.63874E-05   -0.33806E-05  5760   0.281E-02
  31 F= -.19141205E+03 E0= -.19131297E+03  d E =0.202339E-01
       N       E                     dE             d eps       ncg     rms          rms(c)
DAV:   1    -0.191456365889E+03   -0.44319E-01   -0.46929E+00  8160   0.470E+00    0.601E-01
DAV:   2    -0.191482661300E+03   -0.26295E-01   -0.17235E-01 13560   0.191E+00    0.146E+00
DAV:   3    -0.191463295592E+03    0.19366E-01   -0.64354E-02 12240   0.177E+00    0.594E-01
DAV:   4    -0.191461575387E+03    0.17202E-02   -0.15168E-02 11520   0.767E-01    0.509E-01
DAV:   5    -0.191459486845E+03    0.20885E-02   -0.81066E-03 11200   0.668E-01    0.350E-01
DAV:   6    -0.191458525954E+03    0.96089E-03   -0.44023E-03 11280   0.427E-01    0.222E-01
DAV:   7    -0.191458847797E+03   -0.32184E-03   -0.34040E-03 11680   0.411E-01    0.282E-01
DAV:   8    -0.191457977416E+03    0.87038E-03   -0.15028E-03  9560   0.275E-01    0.443E-02
DAV:   9    -0.191457958577E+03    0.18840E-04   -0.10367E-04  6000   0.473E-02
  32 F= -.19145796E+03 E0= -.19135981E+03  d E =-.459050E-01
       N       E                     dE             d eps       ncg     rms          rms(c)
DAV:   1    -0.191464879786E+03   -0.69024E-02   -0.20513E-01  8160   0.972E-01    0.111E-01
DAV:   2    -0.191465801541E+03   -0.92176E-03   -0.59533E-03 13600   0.343E-01    0.271E-01
DAV:   3    -0.191465117363E+03    0.68418E-03   -0.19926E-03 11080   0.323E-01    0.106E-01
DAV:   4    -0.191465061977E+03    0.55386E-04   -0.42361E-04  8120   0.118E-01
  33 F= -.19146506E+03 E0= -.19136757E+03  d E =-.710340E-02
       N       E                     dE             d eps       ncg     rms          rms(c)
DAV:   1    -0.191494218483E+03   -0.29101E-01   -0.17861E+00  8160   0.286E+00    0.334E-01
DAV:   2    -0.191503581351E+03   -0.93629E-02   -0.57012E-02 13600   0.976E-01    0.877E-01
DAV:   3    -0.191496939840E+03    0.66415E-02   -0.22240E-02 12040   0.989E-01    0.348E-01
DAV:   4    -0.191496208317E+03    0.73152E-03   -0.40941E-03 11080   0.358E-01    0.234E-01
DAV:   5    -0.191495923284E+03    0.28503E-03   -0.24014E-03 10920   0.354E-01    0.224E-01
DAV:   6    -0.191495507831E+03    0.41545E-03   -0.14630E-03 10240   0.265E-01    0.100E-01
DAV:   7    -0.191495530163E+03   -0.22332E-04   -0.51249E-04  9240   0.150E-01
  34 F= -.19149553E+03 E0= -.19139975E+03  d E =-.304682E-01
       N       E                     dE             d eps       ncg     rms          rms(c)
DAV:   1    -0.191480922020E+03    0.14586E-01   -0.48141E-01  8160   0.148E+00    0.156E-01
DAV:   2    -0.191482827372E+03   -0.19054E-02   -0.13527E-02 13480   0.449E-01    0.355E-01
DAV:   3    -0.191481658254E+03    0.11691E-02   -0.39589E-03 11320   0.435E-01    0.168E-01
DAV:   4    -0.191481548173E+03    0.11008E-03   -0.97864E-04  9560   0.197E-01    0.134E-01
DAV:   5    -0.191481388332E+03    0.15984E-03   -0.46895E-04  8640   0.168E-01    0.750E-02
DAV:   6    -0.191481369968E+03    0.18365E-04   -0.26067E-04  7040   0.105E-01
  35 F= -.19148137E+03 E0= -.19138499E+03  d E =0.141602E-01
       N       E                     dE             d eps       ncg     rms          rms(c)
DAV:   1    -0.191501425324E+03   -0.20037E-01   -0.99221E-01  8160   0.223E+00    0.362E-01
DAV:   2    -0.191506414676E+03   -0.49894E-02   -0.41981E-02 12760   0.970E-01    0.762E-01
DAV:   3    -0.191501459373E+03    0.49553E-02   -0.18292E-02 12200   0.101E+00    0.379E-01
DAV:   4    -0.191499891751E+03    0.15676E-02   -0.45155E-03 11640   0.392E-01    0.168E-01
DAV:   5    -0.191500083086E+03   -0.19133E-03   -0.30049E-03 11680   0.333E-01    0.283E-01
DAV:   6    -0.191499424236E+03    0.65885E-03   -0.21274E-03  9800   0.322E-01    0.114E-01
DAV:   7    -0.191499279820E+03    0.14442E-03   -0.40328E-04  7440   0.111E-01    0.312E-02
DAV:   8    -0.191499267519E+03    0.12301E-04   -0.72253E-05  6720   0.372E-02
  36 F= -.19149927E+03 E0= -.19140419E+03  d E =-.178976E-01
       N       E                     dE             d eps       ncg     rms          rms(c)
DAV:   1    -0.191526011559E+03   -0.26732E-01   -0.14570E+00  8160   0.259E+00    0.302E-01
DAV:   2    -0.191531914079E+03   -0.59025E-02   -0.47472E-02 12920   0.867E-01    0.634E-01
DAV:   3    -0.191528460998E+03    0.34531E-02   -0.12876E-02 12280   0.837E-01    0.328E-01
DAV:   4    -0.191527610293E+03    0.85071E-03   -0.31174E-03 11000   0.347E-01    0.185E-01
DAV:   5    -0.191527563233E+03    0.47060E-04   -0.21056E-03 10200   0.314E-01    0.216E-01
DAV:   6    -0.191527246768E+03    0.31646E-03   -0.14172E-03  9880   0.258E-01    0.110E-01
DAV:   7    -0.191527215681E+03    0.31087E-04   -0.52940E-04  8760   0.165E-01
  37 F= -.19152722E+03 E0= -.19143356E+03  d E =-.279482E-01
       N       E                     dE             d eps       ncg     rms          rms(c)
DAV:   1    -0.191548871114E+03   -0.21624E-01   -0.83575E-01  8160   0.197E+00    0.244E-01
DAV:   2    -0.191553368646E+03   -0.44975E-02   -0.30101E-02 13320   0.766E-01    0.575E-01
DAV:   3    -0.191550242901E+03    0.31257E-02   -0.90664E-03 12080   0.720E-01    0.236E-01
DAV:   4    -0.191549901116E+03    0.34179E-03   -0.20445E-03 10800   0.264E-01    0.162E-01
DAV:   5    -0.191549746099E+03    0.15502E-03   -0.12658E-03 10360   0.247E-01    0.150E-01
DAV:   6    -0.191549594222E+03    0.15188E-03   -0.66343E-04  8400   0.181E-01    0.803E-02
DAV:   7    -0.191549613057E+03   -0.18835E-04   -0.33758E-04  8120   0.137E-01
  38 F= -.19154961E+03 E0= -.19145767E+03  d E =-.223974E-01
       N       E                     dE             d eps       ncg     rms          rms(c)
DAV:   1    -0.191543713541E+03    0.58807E-02   -0.30542E-01  8160   0.118E+00    0.154E-01
DAV:   2    -0.191545912933E+03   -0.21994E-02   -0.11629E-02 13080   0.611E-01    0.417E-01
DAV:   3    -0.191543941434E+03    0.19715E-02   -0.33098E-03 11240   0.467E-01    0.925E-02
DAV:   4    -0.191543971439E+03   -0.30005E-04   -0.55783E-04  8360   0.164E-01
  39 F= -.19154397E+03 E0= -.19145138E+03  d E =0.564162E-02
       N       E                     dE             d eps       ncg     rms          rms(c)
DAV:   1    -0.191558291868E+03   -0.14350E-01   -0.38035E-01  8160   0.132E+00    0.145E-01
DAV:   2    -0.191560021809E+03   -0.17299E-02   -0.11447E-02 13320   0.480E-01    0.333E-01
DAV:   3    -0.191558839905E+03    0.11819E-02   -0.27651E-03 11920   0.409E-01    0.123E-01
DAV:   4    -0.191558923317E+03   -0.83412E-04   -0.85351E-04  8680   0.195E-01
  40 F= -.19155892E+03 E0= -.19146657E+03  d E =-.149519E-01
       N       E                     dE             d eps       ncg     rms          rms(c)
DAV:   1    -0.191572231926E+03   -0.13392E-01   -0.38779E-01  8160   0.135E+00    0.199E-01
DAV:   2    -0.191577665184E+03   -0.54333E-02   -0.19922E-02 13600   0.783E-01    0.715E-01
DAV:   3    -0.191572595974E+03    0.50692E-02   -0.97927E-03 11120   0.705E-01    0.133E-01
DAV:   4    -0.191572735728E+03   -0.13975E-03   -0.11077E-03  9680   0.211E-01    0.174E-01
DAV:   5    -0.191572474474E+03    0.26125E-03   -0.81953E-04  8520   0.220E-01    0.926E-02
DAV:   6    -0.191572407597E+03    0.66877E-04   -0.28787E-04  7800   0.102E-01
  41 F= -.19157241E+03 E0= -.19148164E+03  d E =-.134843E-01
       N       E                     dE             d eps       ncg     rms          rms(c)
DAV:   1    -0.191608676940E+03   -0.36202E-01   -0.22115E+00  8160   0.320E+00    0.353E-01
DAV:   2    -0.191614143176E+03   -0.54662E-02   -0.68031E-02 13080   0.848E-01    0.503E-01
DAV:   3    -0.191613735241E+03    0.40793E-03   -0.14726E-02 12280   0.887E-01    0.507E-01
DAV:   4    -0.191611252315E+03    0.24829E-02   -0.53995E-03 11400   0.504E-01    0.188E-01
DAV:   5    -0.191611127314E+03    0.12500E-03   -0.21487E-03 10400   0.303E-01    0.212E-01
DAV:   6    -0.191611005752E+03    0.12156E-03   -0.19673E-03 10680   0.328E-01    0.168E-01
DAV:   7    -0.191610673204E+03    0.33255E-03   -0.67220E-04  9200   0.169E-01    0.471E-02
DAV:   8    -0.191610673144E+03    0.60095E-07   -0.10478E-04  6720   0.884E-02
  42 F= -.19161067E+03 E0= -.19152207E+03  d E =-.382655E-01
       N       E                     dE             d eps       ncg     rms          rms(c)
DAV:   1    -0.191629249001E+03   -0.18576E-01   -0.54075E-01  8160   0.158E+00    0.178E-01
DAV:   2    -0.191631809090E+03   -0.25601E-02   -0.18535E-02 13160   0.571E-01    0.421E-01
DAV:   3    -0.191630224327E+03    0.15848E-02   -0.48565E-03 12000   0.517E-01    0.171E-01
DAV:   4    -0.191630088037E+03    0.13629E-03   -0.10294E-03  9640   0.204E-01    0.133E-01
DAV:   5    -0.191629942140E+03    0.14590E-03   -0.58314E-04  8840   0.188E-01    0.849E-02
DAV:   6    -0.191629930383E+03    0.11758E-04   -0.31267E-04  7560   0.124E-01
  43 F= -.19162993E+03 E0= -.19154255E+03  d E =-.192572E-01
       N       E                     dE             d eps       ncg     rms          rms(c)
DAV:   1    -0.191648853888E+03   -0.18912E-01   -0.60766E-01  8160   0.167E+00    0.196E-01
DAV:   2    -0.191651660938E+03   -0.28071E-02   -0.18941E-02 13280   0.680E-01    0.448E-01
DAV:   3    -0.191649430459E+03    0.22305E-02   -0.43195E-03 11880   0.543E-01    0.136E-01
DAV:   4    -0.191649616901E+03   -0.18644E-03   -0.12670E-03  9520   0.250E-01    0.202E-01
DAV:   5    -0.191649264370E+03    0.35253E-03   -0.11336E-03  9320   0.238E-01    0.912E-02
DAV:   6    -0.191649226792E+03    0.37578E-04   -0.33032E-04  7440   0.968E-02
  44 F= -.19164923E+03 E0= -.19156298E+03  d E =-.192964E-01
       N       E                     dE             d eps       ncg     rms          rms(c)
DAV:   1    -0.191672042063E+03   -0.22778E-01   -0.79522E-01  8160   0.192E+00    0.251E-01
DAV:   2    -0.191678188033E+03   -0.61460E-02   -0.32817E-02 13160   0.922E-01    0.693E-01
DAV:   3    -0.191673150696E+03    0.50373E-02   -0.10537E-02 12480   0.814E-01    0.181E-01
DAV:   4    -0.191672989774E+03    0.16092E-03   -0.14472E-03 10080   0.223E-01    0.165E-01
DAV:   5    -0.191672810020E+03    0.17975E-03   -0.10542E-03  9960   0.241E-01    0.123E-01
DAV:   6    -0.191672731705E+03    0.78315E-04   -0.59173E-04  8960   0.159E-01
  45 F= -.19167273E+03 E0= -.19158800E+03  d E =-.235049E-01
       N       E                     dE             d eps       ncg     rms          rms(c)
DAV:   1    -0.191733297175E+03   -0.60487E-01   -0.66304E+00  8160   0.551E+00    0.570E-01
DAV:   2    -0.191750871889E+03   -0.17575E-01   -0.19452E-01 12160   0.148E+00    0.883E-01
DAV:   3    -0.191746859517E+03    0.40124E-02   -0.35044E-02 12080   0.145E+00    0.700E-01
DAV:   4    -0.191742212727E+03    0.46468E-02   -0.10802E-02 12120   0.759E-01    0.341E-01
DAV:   5    -0.191741685516E+03    0.52721E-03   -0.62167E-03 10560   0.575E-01    0.324E-01
DAV:   6    -0.191741131227E+03    0.55429E-03   -0.41830E-03 12000   0.468E-01    0.216E-01
DAV:   7    -0.191740781345E+03    0.34988E-03   -0.19724E-03 11480   0.324E-01    0.173E-01
DAV:   8    -0.191740441860E+03    0.33948E-03   -0.59055E-04  9640   0.203E-01    0.425E-02
DAV:   9    -0.191740423057E+03    0.18803E-04   -0.77857E-05  6120   0.488E-02
  46 F= -.19174042E+03 E0= -.19165936E+03  d E =-.676914E-01
       N       E                     dE             d eps       ncg     rms          rms(c)
DAV:   1    -0.191755785231E+03   -0.15343E-01   -0.40633E-01  8160   0.134E+00    0.128E-01
DAV:   2    -0.191756616930E+03   -0.83170E-03   -0.10166E-02 12400   0.335E-01    0.175E-01
DAV:   3    -0.191756534821E+03    0.82109E-04   -0.18130E-03 11880   0.313E-01    0.167E-01
DAV:   4    -0.191756278504E+03    0.25632E-03   -0.65822E-04  8440   0.191E-01    0.719E-02
DAV:   5    -0.191756269245E+03    0.92581E-05   -0.26529E-04  6920   0.110E-01
  47 F= -.19175627E+03 E0= -.19167620E+03  d E =-.158462E-01
       N       E                     dE             d eps       ncg     rms          rms(c)
DAV:   1    -0.191730775438E+03    0.25503E-01   -0.20168E+00  8160   0.298E+00    0.276E-01
DAV:   2    -0.191734683897E+03   -0.39085E-02   -0.43598E-02 12200   0.679E-01    0.404E-01
DAV:   3    -0.191733786882E+03    0.89702E-03   -0.88360E-03 11000   0.662E-01    0.350E-01
DAV:   4    -0.191732858750E+03    0.92813E-03   -0.32994E-03 11200   0.400E-01    0.190E-01
DAV:   5    -0.191732611239E+03    0.24751E-03   -0.11409E-03 10160   0.289E-01    0.148E-01
DAV:   6    -0.191732482305E+03    0.12893E-03   -0.82638E-04 10160   0.225E-01    0.899E-02
DAV:   7    -0.191732371648E+03    0.11066E-03   -0.25907E-04  8040   0.944E-02    0.237E-02
DAV:   8    -0.191732362028E+03    0.96201E-05   -0.39994E-05  7800   0.274E-02
  48 F= -.19173236E+03 E0= -.19165094E+03  d E =0.239072E-01
       N       E                     dE             d eps       ncg     rms          rms(c)
DAV:   1    -0.191680025828E+03    0.52346E-01   -0.14790E+01  8160   0.805E+00    0.703E-01
DAV:   2    -0.191701402840E+03   -0.21377E-01   -0.27400E-01 12000   0.165E+00    0.843E-01
DAV:   3    -0.191701399791E+03    0.30490E-05   -0.46359E-02 13040   0.161E+00    0.906E-01
DAV:   4    -0.191694025740E+03    0.73741E-02   -0.19822E-02 12360   0.106E+00    0.446E-01
DAV:   5    -0.191693151987E+03    0.87375E-03   -0.74958E-03 11680   0.703E-01    0.420E-01
DAV:   6    -0.191692573961E+03    0.57803E-03   -0.63526E-03 11520   0.661E-01    0.308E-01
DAV:   7    -0.191691593654E+03    0.98031E-03   -0.26461E-03 11920   0.387E-01    0.178E-01
DAV:   8    -0.191691249199E+03    0.34445E-03   -0.73342E-04  9160   0.218E-01    0.484E-02
DAV:   9    -0.191691226299E+03    0.22900E-04   -0.93149E-05  6600   0.502E-02
  49 F= -.19169123E+03 E0= -.19160731E+03  d E =0.411357E-01
       N       E                     dE             d eps       ncg     rms          rms(c)
DAV:   1    -0.191710732611E+03   -0.19483E-01   -0.15748E+00  8160   0.267E+00    0.289E-01
DAV:   2    -0.191716841270E+03   -0.61087E-02   -0.66340E-02 12120   0.845E-01    0.419E-01
DAV:   3    -0.191716094990E+03    0.74628E-03   -0.84678E-03 12040   0.743E-01    0.353E-01
DAV:   4    -0.191714719756E+03    0.13752E-02   -0.23504E-03 11400   0.393E-01    0.146E-01
DAV:   5    -0.191714707928E+03    0.11828E-04   -0.11796E-03 10120   0.259E-01    0.152E-01
DAV:   6    -0.191714578771E+03    0.12916E-03   -0.89302E-04 10240   0.205E-01    0.986E-02
DAV:   7    -0.191714516928E+03    0.61843E-04   -0.43921E-04  8440   0.161E-01
  50 F= -.19171452E+03 E0= -.19163126E+03  d E =-.232906E-01
       N       E                     dE             d eps       ncg     rms          rms(c)
DAV:   1    -0.191720609671E+03   -0.60309E-02   -0.87032E+00  8160   0.622E+00    0.581E-01
DAV:   2    -0.191734211232E+03   -0.13602E-01   -0.20179E-01 11880   0.123E+00    0.537E-01
DAV:   3    -0.191736528675E+03   -0.23174E-02   -0.26465E-02 12680   0.121E+00    0.757E-01
DAV:   4    -0.191730185431E+03    0.63432E-02   -0.11843E-02 12160   0.927E-01    0.286E-01
DAV:   5    -0.191729912649E+03    0.27278E-03   -0.44365E-03 10280   0.474E-01    0.301E-01
DAV:   6    -0.191729754013E+03    0.15864E-03   -0.35700E-03 10440   0.523E-01    0.263E-01
DAV:   7    -0.191728862495E+03    0.89152E-03   -0.14718E-03 10640   0.307E-01    0.917E-02
DAV:   8    -0.191728818521E+03    0.43974E-04   -0.31572E-04  8840   0.132E-01
  51 F= -.19172882E+03 E0= -.19164455E+03  d E =-.143016E-01
       N       E                     dE             d eps       ncg     rms          rms(c)
DAV:   1    -0.191742609258E+03   -0.13747E-01   -0.83207E+00  8160   0.612E+00    0.639E-01
DAV:   2    -0.191770164393E+03   -0.27555E-01   -0.30482E-01 11480   0.182E+00    0.878E-01
DAV:   3    -0.191765402672E+03    0.47617E-02   -0.42349E-02 12320   0.157E+00    0.681E-01
DAV:   4    -0.191760231125E+03    0.51715E-02   -0.11679E-02 12360   0.830E-01    0.347E-01
DAV:   5    -0.191759982780E+03    0.24834E-03   -0.53635E-03 12320   0.627E-01    0.356E-01
DAV:   6    -0.191759060565E+03    0.92222E-03   -0.37796E-03 11840   0.454E-01    0.170E-01
DAV:   7    -0.191758633443E+03    0.42712E-03   -0.14395E-03 11160   0.232E-01    0.116E-01
DAV:   8    -0.191758500993E+03    0.13245E-03   -0.39957E-04  8960   0.158E-01    0.453E-02
DAV:   9    -0.191758479810E+03    0.21183E-04   -0.76890E-05  6440   0.550E-02
  52 F= -.19175848E+03 E0= -.19167383E+03  d E =-.296613E-01
       N       E                     dE             d eps       ncg     rms          rms(c)
DAV:   1    -0.191756605303E+03    0.18957E-02   -0.10818E+00  8160   0.220E+00    0.249E-01
DAV:   2    -0.191760372975E+03   -0.37677E-02   -0.31765E-02 13160   0.865E-01    0.484E-01
DAV:   3    -0.191757714519E+03    0.26585E-02   -0.60533E-03 12400   0.661E-01    0.168E-01
DAV:   4    -0.191757329178E+03    0.38534E-03   -0.94538E-04 10640   0.210E-01    0.114E-01
DAV:   5    -0.191757462335E+03   -0.13316E-03   -0.98697E-04 10480   0.240E-01    0.174E-01
DAV:   6    -0.191757187013E+03    0.27532E-03   -0.83577E-04 10000   0.221E-01    0.719E-02
DAV:   7    -0.191757124974E+03    0.62040E-04   -0.13995E-04  6400   0.787E-02
  53 F= -.19175712E+03 E0= -.19167263E+03  d E =0.135484E-02
       N       E                     dE             d eps       ncg     rms          rms(c)
DAV:   1    -0.191765041530E+03   -0.78545E-02   -0.71378E-01  8160   0.179E+00    0.182E-01
DAV:   2    -0.191767413891E+03   -0.23724E-02   -0.26846E-02 11880   0.531E-01    0.250E-01
DAV:   3    -0.191767243309E+03    0.17058E-03   -0.36049E-03 11520   0.449E-01    0.233E-01
DAV:   4    -0.191766660435E+03    0.58287E-03   -0.11078E-03 10280   0.253E-01    0.921E-02
DAV:   5    -0.191766652668E+03    0.77675E-05   -0.39609E-04  8680   0.170E-01
  54 F= -.19176665E+03 E0= -.19168218E+03  d E =-.952769E-02
       N       E                     dE             d eps       ncg     rms          rms(c)
DAV:   1    -0.191774852794E+03   -0.81924E-02   -0.97044E-01  8160   0.209E+00    0.220E-01
DAV:   2    -0.191777843625E+03   -0.29908E-02   -0.33290E-02 11720   0.607E-01    0.318E-01
DAV:   3    -0.191777433229E+03    0.41040E-03   -0.48832E-03 11920   0.542E-01    0.267E-01
DAV:   4    -0.191776638632E+03    0.79460E-03   -0.13105E-03 10240   0.278E-01    0.932E-02
DAV:   5    -0.191776780427E+03   -0.14180E-03   -0.61543E-04 10000   0.216E-01    0.139E-01
DAV:   6    -0.191776593099E+03    0.18733E-03   -0.45803E-04  9920   0.172E-01    0.544E-02
DAV:   7    -0.191776554197E+03    0.38902E-04   -0.10146E-04  6360   0.759E-02
  55 F= -.19177655E+03 E0= -.19169240E+03  d E =-.990153E-02
       N       E                     dE             d eps       ncg     rms          rms(c)
DAV:   1    -0.191781127384E+03   -0.45343E-02   -0.26084E-01  8160   0.109E+00    0.132E-01
DAV:   2    -0.191781902784E+03   -0.77540E-03   -0.10428E-02 11960   0.359E-01    0.169E-01
DAV:   3    -0.191781820821E+03    0.81963E-04   -0.14081E-03 12320   0.320E-01    0.154E-01
DAV:   4    -0.191781557471E+03    0.26335E-03   -0.47077E-04  8680   0.187E-01    0.744E-02
DAV:   5    -0.191781563840E+03   -0.63687E-05   -0.31943E-04  8200   0.139E-01
  56 F= -.19178156E+03 E0= -.19169722E+03  d E =-.500964E-02
       N       E                     dE             d eps       ncg     rms          rms(c)
DAV:   1    -0.191786895420E+03   -0.53379E-02   -0.41775E-01  8160   0.138E+00    0.158E-01
DAV:   2    -0.191788156266E+03   -0.12608E-02   -0.14498E-02 11840   0.445E-01    0.236E-01
DAV:   3    -0.191787816524E+03    0.33974E-03   -0.21769E-03 12320   0.392E-01    0.170E-01
DAV:   4    -0.191787503583E+03    0.31294E-03   -0.57252E-04  8840   0.195E-01    0.856E-02
DAV:   5    -0.191787512167E+03   -0.85837E-05   -0.39809E-04  9120   0.161E-01
  57 F= -.19178751E+03 E0= -.19170308E+03  d E =-.594833E-02
       N       E                     dE             d eps       ncg     rms          rms(c)
DAV:   1    -0.191794392372E+03   -0.68888E-02   -0.92349E-01  8160   0.204E+00    0.215E-01
DAV:   2    -0.191797356766E+03   -0.29644E-02   -0.31065E-02 11560   0.620E-01    0.333E-01
DAV:   3    -0.191796760854E+03    0.59591E-03   -0.48702E-03 12480   0.558E-01    0.253E-01
DAV:   4    -0.191796050741E+03    0.71011E-03   -0.12341E-03 10280   0.262E-01    0.816E-02
DAV:   5    -0.191796119980E+03   -0.69239E-04   -0.51579E-04  9840   0.162E-01
  58 F= -.19179612E+03 E0= -.19171195E+03  d E =-.860781E-02
       N       E                     dE             d eps       ncg     rms          rms(c)
DAV:   1    -0.191800295267E+03   -0.42445E-02   -0.31942E-01  8160   0.121E+00    0.142E-01
DAV:   2    -0.191801797483E+03   -0.15022E-02   -0.10944E-02 13400   0.430E-01    0.296E-01
DAV:   3    -0.191800843721E+03    0.95376E-03   -0.25162E-03 11720   0.417E-01    0.119E-01
DAV:   4    -0.191800731677E+03    0.11204E-03   -0.34975E-04  8480   0.127E-01    0.552E-02
DAV:   5    -0.191800716079E+03    0.15597E-04   -0.19902E-04  7000   0.739E-02
  59 F= -.19180072E+03 E0= -.19171660E+03  d E =-.459610E-02
       N       E                     dE             d eps       ncg     rms          rms(c)
DAV:   1    -0.191806786211E+03   -0.60545E-02   -0.71540E-01  8160   0.180E+00    0.194E-01
DAV:   2    -0.191809078620E+03   -0.22924E-02   -0.22910E-02 11760   0.562E-01    0.295E-01
DAV:   3    -0.191808315477E+03    0.76314E-03   -0.35412E-03 11960   0.490E-01    0.184E-01
DAV:   4    -0.191807983037E+03    0.33244E-03   -0.92161E-04 10680   0.227E-01    0.986E-02
DAV:   5    -0.191807947405E+03    0.35633E-04   -0.44006E-04  9080   0.174E-01
  60 F= -.19180795E+03 E0= -.19172374E+03  d E =-.723133E-02
       N       E                     dE             d eps       ncg     rms          rms(c)
DAV:   1    -0.191807719189E+03    0.26385E-03   -0.55605E-03  8720   0.202E-01    0.651E-02
DAV:   2    -0.191808196250E+03   -0.47706E-03   -0.12467E-03 11280   0.262E-01    0.192E-01
DAV:   3    -0.191807675927E+03    0.52032E-03   -0.65262E-04  9840   0.233E-01    0.451E-02
DAV:   4    -0.191807653913E+03    0.22014E-04   -0.66888E-05  5560   0.581E-02
  61 F= -.19180765E+03 E0= -.19172349E+03  d E =0.293492E-03
       N       E                     dE             d eps       ncg     rms          rms(c)
DAV:   1    -0.191812507062E+03   -0.48311E-02   -0.43584E-01  8160   0.140E+00    0.143E-01
DAV:   2    -0.191813833195E+03   -0.13261E-02   -0.12672E-02 12840   0.411E-01    0.245E-01
DAV:   3    -0.191813379097E+03    0.45410E-03   -0.21828E-03 12200   0.381E-01    0.153E-01
DAV:   4    -0.191813127089E+03    0.25201E-03   -0.40930E-04  8320   0.149E-01    0.524E-02
DAV:   5    -0.191813188400E+03   -0.61312E-04   -0.24088E-04  8080   0.114E-01
  62 F= -.19181319E+03 E0= -.19172937E+03  d E =-.553449E-02
       N       E                     dE             d eps       ncg     rms          rms(c)
DAV:   1    -0.191812914473E+03    0.21262E-03   -0.13659E-03 11720   0.148E-01    0.510E-02
DAV:   2    -0.191813366133E+03   -0.45166E-03   -0.98862E-04 10640   0.258E-01    0.190E-01
DAV:   3    -0.191812882695E+03    0.48344E-03   -0.58525E-04  8360   0.222E-01    0.303E-02
DAV:   4    -0.191812876837E+03    0.58579E-05   -0.32004E-05  5520   0.327E-02
  63 F= -.19181288E+03 E0= -.19172884E+03  d E =0.311563E-03
       N       E                     dE             d eps       ncg     rms          rms(c)
DAV:   1    -0.191817532633E+03   -0.46499E-02   -0.38985E-01  8160   0.132E+00    0.135E-01
DAV:   2    -0.191818626061E+03   -0.10934E-02   -0.10585E-02 12960   0.384E-01    0.225E-01
DAV:   3    -0.191818213044E+03    0.41302E-03   -0.18097E-03 11640   0.356E-01    0.140E-01
DAV:   4    -0.191818032905E+03    0.18014E-03   -0.42937E-04  8280   0.159E-01    0.707E-02
DAV:   5    -0.191818016424E+03    0.16481E-04   -0.23295E-04  7680   0.117E-01
  64 F= -.19181802E+03 E0= -.19173412E+03  d E =-.513959E-02
       N       E                     dE             d eps       ncg     rms          rms(c)
DAV:   1    -0.191814578735E+03    0.34542E-02   -0.16519E-01  8160   0.866E-01    0.954E-02
DAV:   2    -0.191815503923E+03   -0.92519E-03   -0.56047E-03 13080   0.333E-01    0.239E-01
DAV:   3    -0.191814842336E+03    0.66159E-03   -0.16624E-03 10280   0.313E-01    0.915E-02
DAV:   4    -0.191814764295E+03    0.78041E-04   -0.23214E-04  7440   0.100E-01
  65 F= -.19181476E+03 E0= -.19173083E+03  d E =0.325213E-02
       N       E                     dE             d eps       ncg     rms          rms(c)
DAV:   1    -0.191809718145E+03    0.51242E-02   -0.41196E-01  8160   0.137E+00    0.164E-01
DAV:   2    -0.191811342006E+03   -0.16239E-02   -0.12058E-02 13280   0.482E-01    0.341E-01
DAV:   3    -0.191810164002E+03    0.11780E-02   -0.34535E-03 12400   0.462E-01    0.151E-01
DAV:   4    -0.191809999296E+03    0.16471E-03   -0.68557E-04  9840   0.171E-01    0.857E-02
DAV:   5    -0.191809902754E+03    0.96542E-04   -0.35907E-04  8640   0.110E-01
  66 F= -.19180990E+03 E0= -.19172575E+03  d E =0.486154E-02
       N       E                     dE             d eps       ncg     rms          rms(c)
DAV:   1    -0.191806068537E+03    0.39308E-02   -0.25184E-01  8160   0.108E+00    0.143E-01
DAV:   2    -0.191808358687E+03   -0.22901E-02   -0.93909E-03 13560   0.554E-01    0.410E-01
DAV:   3    -0.191806306174E+03    0.20525E-02   -0.29787E-03 12160   0.486E-01    0.758E-02
DAV:   4    -0.191806335791E+03   -0.29617E-04   -0.27119E-04  8280   0.120E-01
  67 F= -.19180634E+03 E0= -.19172234E+03  d E =0.356696E-02
       N       E                     dE             d eps       ncg     rms          rms(c)
DAV:   1    -0.191814247692E+03   -0.79415E-02   -0.14822E+00  8160   0.258E+00    0.269E-01
DAV:   2    -0.191820382320E+03   -0.61346E-02   -0.44114E-02 12560   0.925E-01    0.582E-01
DAV:   3    -0.191816707896E+03    0.36744E-02   -0.87015E-03 12320   0.795E-01    0.225E-01
DAV:   4    -0.191816463009E+03    0.24489E-03   -0.16912E-03 11120   0.302E-01    0.178E-01
DAV:   5    -0.191816135733E+03    0.32728E-03   -0.98007E-04 10600   0.246E-01    0.109E-01
DAV:   6    -0.191816123831E+03    0.11902E-04   -0.70704E-04  9400   0.176E-01
  68 F= -.19181612E+03 E0= -.19173197E+03  d E =-.978804E-02
       N       E                     dE             d eps       ncg     rms          rms(c)
DAV:   1    -0.191814453165E+03    0.16826E-02   -0.55332E-02  8160   0.510E-01    0.759E-02
DAV:   2    -0.191815337925E+03   -0.88476E-03   -0.26634E-03 12880   0.347E-01    0.262E-01
DAV:   3    -0.191814470395E+03    0.86753E-03   -0.11617E-03  9960   0.303E-01    0.361E-02
DAV:   4    -0.191814470512E+03   -0.11722E-06   -0.64823E-05  5440   0.433E-02
  69 F= -.19181447E+03 E0= -.19173041E+03  d E =0.165332E-02
       N       E                     dE             d eps       ncg     rms          rms(c)
DAV:   1    -0.191816166589E+03   -0.16962E-02   -0.11312E-01  8160   0.719E-01    0.920E-02
DAV:   2    -0.191816939410E+03   -0.77282E-03   -0.49347E-03 12000   0.339E-01    0.228E-01
DAV:   3    -0.191816373613E+03    0.56580E-03   -0.11716E-03 10160   0.287E-01    0.668E-02
DAV:   4    -0.191816337354E+03    0.36259E-04   -0.12932E-04  6480   0.840E-02
  70 F= -.19181634E+03 E0= -.19173213E+03  d E =-.186684E-02
       N       E                     dE             d eps       ncg     rms          rms(c)
DAV:   1    -0.191816952278E+03   -0.57867E-03   -0.65437E-02  8160   0.563E-01    0.882E-02
DAV:   2    -0.191817455285E+03   -0.50301E-03   -0.32906E-03 12400   0.261E-01    0.191E-01
DAV:   3    -0.191817030537E+03    0.42475E-03   -0.10451E-03 10120   0.251E-01    0.713E-02
DAV:   4    -0.191817024127E+03    0.64100E-05   -0.20135E-04  7280   0.106E-01
  71 F= -.19181702E+03 E0= -.19173279E+03  d E =-.686772E-03
       N       E                     dE             d eps       ncg     rms          rms(c)
DAV:   1    -0.191819328628E+03   -0.22981E-02   -0.16360E-01  8160   0.879E-01    0.115E-01
DAV:   2    -0.191820599022E+03   -0.12704E-02   -0.67814E-03 13560   0.425E-01    0.297E-01
DAV:   3    -0.191819551969E+03    0.10471E-02   -0.18225E-03 11440   0.372E-01    0.686E-02
DAV:   4    -0.191819517135E+03    0.34834E-04   -0.14027E-04  5560   0.889E-02
  72 F= -.19181952E+03 E0= -.19173547E+03  d E =-.249301E-02
       N       E                     dE             d eps       ncg     rms          rms(c)
DAV:   1    -0.191821621755E+03   -0.20698E-02   -0.14226E-01  8160   0.807E-01    0.878E-02
DAV:   2    -0.191822164956E+03   -0.54320E-03   -0.52905E-03 12120   0.237E-01    0.139E-01
DAV:   3    -0.191822019473E+03    0.14548E-03   -0.91165E-04 11120   0.227E-01    0.955E-02
DAV:   4    -0.191821939803E+03    0.79670E-04   -0.20244E-04  7600   0.109E-01
  73 F= -.19182194E+03 E0= -.19173785E+03  d E =-.242267E-02
       N       E                     dE             d eps       ncg     rms          rms(c)
DAV:   1    -0.191827305870E+03   -0.52864E-02   -0.51276E-01  8160   0.152E+00    0.184E-01
DAV:   2    -0.191830099145E+03   -0.27933E-02   -0.16026E-02 12920   0.602E-01    0.433E-01
DAV:   3    -0.191827991826E+03    0.21073E-02   -0.40131E-03 12680   0.559E-01    0.137E-01
DAV:   4    -0.191828009092E+03   -0.17266E-04   -0.79296E-04 10120   0.202E-01
  74 F= -.19182801E+03 E0= -.19174376E+03  d E =-.606929E-02
       N       E                     dE             d eps       ncg     rms          rms(c)
DAV:   1    -0.191825003202E+03    0.29886E-02   -0.10081E-01  8160   0.704E-01    0.827E-02
DAV:   2    -0.191826125289E+03   -0.11221E-02   -0.46598E-03 12640   0.368E-01    0.265E-01
DAV:   3    -0.191825204277E+03    0.92101E-03   -0.15078E-03 10120   0.311E-01    0.397E-02
DAV:   4    -0.191825230689E+03   -0.26412E-04   -0.10495E-04  5840   0.854E-02
  75 F= -.19182523E+03 E0= -.19174099E+03  d E =0.277840E-02
       N       E                     dE             d eps       ncg     rms          rms(c)
DAV:   1    -0.191825873859E+03   -0.66958E-03   -0.44469E-02  8160   0.467E-01    0.850E-02
DAV:   2    -0.191826151414E+03   -0.27755E-03   -0.24561E-03 12120   0.252E-01    0.170E-01
DAV:   3    -0.191825851578E+03    0.29984E-03   -0.81144E-04 10000   0.240E-01    0.736E-02
DAV:   4    -0.191825778803E+03    0.72775E-04   -0.12658E-04  6600   0.858E-02
  76 F= -.19182578E+03 E0= -.19174118E+03  d E =-.548114E-03
       N       E                     dE             d eps       ncg     rms          rms(c)
DAV:   1    -0.191830462115E+03   -0.46105E-02   -0.31032E-01  8160   0.121E+00    0.166E-01
DAV:   2    -0.191831285311E+03   -0.82320E-03   -0.10244E-02 12440   0.444E-01    0.279E-01
DAV:   3    -0.191830665764E+03    0.61955E-03   -0.31169E-03 11920   0.445E-01    0.174E-01
DAV:   4    -0.191830311054E+03    0.35471E-03   -0.76267E-04  9400   0.192E-01    0.645E-02
DAV:   5    -0.191830342113E+03   -0.31059E-04   -0.38114E-04  7920   0.139E-01
  77 F= -.19183034E+03 E0= -.19174618E+03  d E =-.456331E-02
       N       E                     dE             d eps       ncg     rms          rms(c)
DAV:   1    -0.191834003665E+03   -0.36926E-02   -0.24348E-01  8160   0.106E+00    0.115E-01
DAV:   2    -0.191834826652E+03   -0.82299E-03   -0.72462E-03 13440   0.343E-01    0.214E-01
DAV:   3    -0.191834434004E+03    0.39265E-03   -0.14491E-03 10560   0.313E-01    0.111E-01
DAV:   4    -0.191834314082E+03    0.11992E-03   -0.28184E-04  7600   0.116E-01    0.508E-02
DAV:   5    -0.191834333963E+03   -0.19881E-04   -0.16324E-04  7680   0.100E-01
  78 F= -.19183433E+03 E0= -.19175036E+03  d E =-.399185E-02
       N       E                     dE             d eps       ncg     rms          rms(c)
DAV:   1    -0.191837984772E+03   -0.36707E-02   -0.18546E-01  8160   0.918E-01    0.107E-01
DAV:   2    -0.191838770849E+03   -0.78608E-03   -0.55262E-03 12400   0.330E-01    0.216E-01
DAV:   3    -0.191838244265E+03    0.52658E-03   -0.11538E-03 10840   0.305E-01    0.860E-02
DAV:   4    -0.191838220982E+03    0.23283E-04   -0.27430E-04  7960   0.125E-01
  79 F= -.19183822E+03 E0= -.19175422E+03  d E =-.388702E-02
       N       E                     dE             d eps       ncg     rms          rms(c)
DAV:   1    -0.191843411025E+03   -0.51668E-02   -0.37247E-01  8160   0.130E+00    0.151E-01
DAV:   2    -0.191844970573E+03   -0.15595E-02   -0.11178E-02 13280   0.475E-01    0.317E-01
DAV:   3    -0.191843955776E+03    0.10148E-02   -0.26544E-03 12400   0.425E-01    0.131E-01
DAV:   4    -0.191843832355E+03    0.12342E-03   -0.46765E-04  8680   0.141E-01    0.721E-02
DAV:   5    -0.191843810246E+03    0.22109E-04   -0.27020E-04  8320   0.121E-01
  80 F= -.19184381E+03 E0= -.19175980E+03  d E =-.558926E-02
       N       E                     dE             d eps       ncg     rms          rms(c)
DAV:   1    -0.191841763998E+03    0.20684E-02   -0.52124E-02  8160   0.525E-01    0.893E-02
DAV:   2    -0.191842635445E+03   -0.87145E-03   -0.36985E-03 13520   0.353E-01    0.263E-01
DAV:   3    -0.191841776849E+03    0.85860E-03   -0.16705E-03 10080   0.324E-01    0.664E-02
DAV:   4    -0.191841743206E+03    0.33643E-04   -0.15279E-04  5920   0.837E-02
  81 F= -.19184174E+03 E0= -.19175786E+03  d E =0.206704E-02
       N       E                     dE             d eps       ncg     rms          rms(c)
DAV:   1    -0.191848078608E+03   -0.63018E-02   -0.54582E-01  8160   0.157E+00    0.159E-01
DAV:   2    -0.191849570594E+03   -0.14920E-02   -0.15307E-02 11960   0.479E-01    0.268E-01
DAV:   3    -0.191849057884E+03    0.51271E-03   -0.28241E-03 12200   0.414E-01    0.169E-01
DAV:   4    -0.191848742523E+03    0.31536E-03   -0.58160E-04  8440   0.182E-01    0.599E-02
DAV:   5    -0.191848740074E+03    0.24493E-05   -0.29752E-04  7680   0.833E-02
  82 F= -.19184874E+03 E0= -.19176503E+03  d E =-.699687E-02
       N       E                     dE             d eps       ncg     rms          rms(c)
DAV:   1    -0.191847458528E+03    0.12840E-02   -0.17309E-02  8160   0.299E-01    0.676E-02
DAV:   2    -0.191848328243E+03   -0.86971E-03   -0.18699E-03 12240   0.354E-01    0.262E-01
DAV:   3    -0.191847428510E+03    0.89973E-03   -0.96131E-04  9760   0.289E-01    0.231E-02
DAV:   4    -0.191847443188E+03   -0.14678E-04   -0.36149E-05  5520   0.419E-02
  83 F= -.19184744E+03 E0= -.19176365E+03  d E =0.129689E-02
       N       E                     dE             d eps       ncg     rms          rms(c)
DAV:   1    -0.191855914322E+03   -0.84858E-02   -0.89108E-01  8160   0.200E+00    0.210E-01
DAV:   2    -0.191859326390E+03   -0.34121E-02   -0.26664E-02 12160   0.760E-01    0.426E-01
DAV:   3    -0.191857433147E+03    0.18932E-02   -0.45781E-03 12360   0.592E-01    0.164E-01
DAV:   4    -0.191857329378E+03    0.10377E-03   -0.96456E-04  9680   0.244E-01    0.151E-01
DAV:   5    -0.191857137318E+03    0.19206E-03   -0.73227E-04  9840   0.218E-01    0.883E-02
DAV:   6    -0.191857122050E+03    0.15267E-04   -0.40744E-04  8880   0.114E-01
  84 F= -.19185712E+03 E0= -.19177300E+03  d E =-.967886E-02
       N       E                     dE             d eps       ncg     rms          rms(c)
DAV:   1    -0.191859512315E+03   -0.23750E-02   -0.56140E-02  8160   0.515E-01    0.681E-02
DAV:   2    -0.191859827638E+03   -0.31532E-03   -0.20125E-03 12280   0.224E-01    0.152E-01
DAV:   3    -0.191859562985E+03    0.26465E-03   -0.50604E-04  9320   0.198E-01    0.492E-02
DAV:   4    -0.191859569026E+03   -0.60411E-05   -0.99383E-05  5800   0.829E-02
  85 F= -.19185957E+03 E0= -.19177524E+03  d E =-.244698E-02
       N       E                     dE             d eps       ncg     rms          rms(c)
DAV:   1    -0.191861690020E+03   -0.21270E-02   -0.57510E-02  8160   0.522E-01    0.919E-02
DAV:   2    -0.191862216121E+03   -0.52610E-03   -0.32848E-03 10840   0.331E-01    0.218E-01
DAV:   3    -0.191861681470E+03    0.53465E-03   -0.10202E-03 10160   0.262E-01    0.602E-02
DAV:   4    -0.191861682002E+03   -0.53219E-06   -0.18488E-04  6680   0.108E-01
  86 F= -.19186168E+03 E0= -.19177779E+03  d E =-.211298E-02
       N       E                     dE             d eps       ncg     rms          rms(c)
DAV:   1    -0.191869911159E+03   -0.82297E-02   -0.62348E-01  8160   0.168E+00    0.183E-01
DAV:   2    -0.191872524535E+03   -0.26134E-02   -0.16573E-02 12360   0.561E-01    0.399E-01
DAV:   3    -0.191870725336E+03    0.17992E-02   -0.38287E-03 12440   0.538E-01    0.146E-01
DAV:   4    -0.191870718897E+03    0.64395E-05   -0.83739E-04  9680   0.209E-01
  87 F= -.19187072E+03 E0= -.19178648E+03  d E =-.903689E-02
       N       E                     dE             d eps       ncg     rms          rms(c)
DAV:   1    -0.191825054703E+03    0.45671E-01   -0.10997E+01  8160   0.703E+00    0.667E-01
DAV:   2    -0.191854791555E+03   -0.29737E-01   -0.26596E-01 11960   0.189E+00    0.110E+00
DAV:   3    -0.191841947528E+03    0.12844E-01   -0.38972E-02 12120   0.166E+00    0.563E-01
DAV:   4    -0.191838831259E+03    0.31163E-02   -0.87573E-03 12480   0.704E-01    0.335E-01
DAV:   5    -0.191838795809E+03    0.35450E-04   -0.58995E-03 12400   0.636E-01    0.362E-01
DAV:   6    -0.191838142202E+03    0.65361E-03   -0.48381E-03 11640   0.499E-01    0.206E-01
DAV:   7    -0.191837402941E+03    0.73926E-03   -0.18331E-03 10760   0.237E-01    0.872E-02
DAV:   8    -0.191837357220E+03    0.45722E-04   -0.30437E-04  9520   0.133E-01
  88 F= -.19183736E+03 E0= -.19175317E+03  d E =0.333617E-01
       N       E                     dE             d eps       ncg     rms          rms(c)
DAV:   1    -0.191816838372E+03    0.20565E-01   -0.45294E+00  8160   0.450E+00    0.430E-01
DAV:   2    -0.191826232957E+03   -0.93946E-02   -0.10908E-01 11840   0.104E+00    0.534E-01
DAV:   3    -0.191825218545E+03    0.10144E-02   -0.14523E-02 12440   0.987E-01    0.496E-01
DAV:   4    -0.191822756572E+03    0.24620E-02   -0.48722E-03 11840   0.592E-01    0.221E-01
DAV:   5    -0.191822663831E+03    0.92741E-04   -0.24966E-03 11000   0.382E-01    0.227E-01
DAV:   6    -0.191822536619E+03    0.12721E-03   -0.23562E-03 11760   0.362E-01    0.166E-01
DAV:   7    -0.191822125355E+03    0.41126E-03   -0.98543E-04 10400   0.199E-01    0.625E-02
DAV:   8    -0.191822097922E+03    0.27434E-04   -0.11910E-04  6880   0.956E-02
  89 F= -.19182210E+03 E0= -.19173731E+03  d E =0.152593E-01
       N       E                     dE             d eps       ncg     rms          rms(c)
DAV:   1    -0.191827701129E+03   -0.55758E-02   -0.70000E-01  8160   0.178E+00    0.181E-01
DAV:   2    -0.191829980332E+03   -0.22792E-02   -0.17505E-02 13480   0.549E-01    0.344E-01
DAV:   3    -0.191828546019E+03    0.14343E-02   -0.33225E-03 12240   0.484E-01    0.139E-01
DAV:   4    -0.191828385143E+03    0.16088E-03   -0.66800E-04 10200   0.179E-01    0.927E-02
DAV:   5    -0.191828358460E+03    0.26682E-04   -0.42083E-04  9320   0.171E-01
  90 F= -.19182836E+03 E0= -.19174302E+03  d E =-.626054E-02
       N       E                     dE             d eps       ncg     rms          rms(c)
DAV:   1    -0.191830302331E+03   -0.19172E-02   -0.72883E-02  8160   0.588E-01    0.917E-02
DAV:   2    -0.191830966323E+03   -0.66399E-03   -0.32515E-03 12720   0.334E-01    0.226E-01
DAV:   3    -0.191830308544E+03    0.65778E-03   -0.12094E-03 10520   0.281E-01    0.506E-02
DAV:   4    -0.191830327501E+03   -0.18956E-04   -0.14850E-04  6720   0.877E-02
  91 F= -.19183033E+03 E0= -.19174484E+03  d E =-.196904E-02
       N       E                     dE             d eps       ncg     rms          rms(c)
DAV:   1    -0.191833008065E+03   -0.26995E-02   -0.15020E-01  8160   0.828E-01    0.878E-02
DAV:   2    -0.191833265965E+03   -0.25790E-03   -0.38973E-03 13320   0.203E-01    0.903E-02
DAV:   3    -0.191833267666E+03   -0.17013E-05   -0.51015E-04  9760   0.187E-01
  92 F= -.19183327E+03 E0= -.19174729E+03  d E =-.294017E-02
       N       E                     dE             d eps       ncg     rms          rms(c)
DAV:   1    -0.191836728198E+03   -0.34622E-02   -0.23271E-01  8160   0.103E+00    0.127E-01
DAV:   2    -0.191837776225E+03   -0.10480E-02   -0.71221E-03 13320   0.416E-01    0.267E-01
DAV:   3    -0.191837037780E+03    0.73844E-03   -0.19199E-03 12440   0.367E-01    0.110E-01
DAV:   4    -0.191836980217E+03    0.57563E-04   -0.41201E-04  8640   0.142E-01
  93 F= -.19183698E+03 E0= -.19175059E+03  d E =-.371255E-02
       N       E                     dE             d eps       ncg     rms          rms(c)
DAV:   1    -0.191831576713E+03    0.54611E-02   -0.39856E-01  8160   0.134E+00    0.151E-01
DAV:   2    -0.191834211018E+03   -0.26343E-02   -0.13059E-02 12720   0.602E-01    0.398E-01
DAV:   3    -0.191832084964E+03    0.21261E-02   -0.31742E-03 12240   0.487E-01    0.711E-02
DAV:   4    -0.191832077768E+03    0.71954E-05   -0.28498E-04  8440   0.104E-01
  94 F= -.19183208E+03 E0= -.19174626E+03  d E =0.490245E-02
       N       E                     dE             d eps       ncg     rms          rms(c)
DAV:   1    -0.191801688047E+03    0.30397E-01   -0.94379E+00  8160   0.652E+00    0.717E-01
DAV:   2    -0.191837687068E+03   -0.35999E-01   -0.26478E-01 13080   0.239E+00    0.140E+00
DAV:   3    -0.191814411458E+03    0.23276E-01   -0.49786E-02 12240   0.193E+00    0.558E-01
DAV:   4    -0.191813222306E+03    0.11892E-02   -0.11836E-02 12600   0.814E-01    0.497E-01
DAV:   5    -0.191811160454E+03    0.20619E-02   -0.88312E-03 11280   0.741E-01    0.343E-01
DAV:   6    -0.191810440411E+03    0.72004E-03   -0.52267E-03 12120   0.476E-01    0.182E-01
DAV:   7    -0.191809965647E+03    0.47476E-03   -0.17764E-03 12200   0.238E-01    0.103E-01
DAV:   8    -0.191809864337E+03    0.10131E-03   -0.35999E-04  9880   0.158E-01    0.565E-02
DAV:   9    -0.191809834519E+03    0.29818E-04   -0.95836E-05  6480   0.745E-02
  95 F= -.19180983E+03 E0= -.19172619E+03  d E =0.222432E-01
       N       E                     dE             d eps       ncg     rms          rms(c)
DAV:   1    -0.191810945612E+03   -0.10813E-02   -0.17943E-02  8240   0.296E-01    0.528E-02
DAV:   2    -0.191810979160E+03   -0.33547E-04   -0.73320E-04 11240   0.130E-01
  96 F= -.19181098E+03 E0= -.19172721E+03  d E =-.114464E-02
       N       E                     dE             d eps       ncg     rms          rms(c)
DAV:   1    -0.191813315562E+03   -0.23699E-02   -0.17659E-01  8160   0.894E-01    0.145E-01
DAV:   2    -0.191815699417E+03   -0.23839E-02   -0.91285E-03 12840   0.614E-01    0.419E-01
DAV:   3    -0.191813409958E+03    0.22895E-02   -0.28644E-03 11400   0.486E-01    0.681E-02
DAV:   4    -0.191813427117E+03   -0.17159E-04   -0.33980E-04  8160   0.119E-01
  97 F= -.19181343E+03 E0= -.19172917E+03  d E =-.244796E-02
       N       E                     dE             d eps       ncg     rms          rms(c)
DAV:   1    -0.191817679890E+03   -0.42699E-02   -0.45757E-01  8160   0.145E+00    0.162E-01
DAV:   2    -0.191818442900E+03   -0.76301E-03   -0.12405E-02 12600   0.346E-01    0.157E-01
DAV:   3    -0.191818380253E+03    0.62646E-04   -0.17811E-03 12560   0.306E-01    0.166E-01
DAV:   4    -0.191818108863E+03    0.27139E-03   -0.81494E-04 10160   0.234E-01    0.945E-02
DAV:   5    -0.191818027482E+03    0.81381E-04   -0.42440E-04  9000   0.132E-01
  98 F= -.19181803E+03 E0= -.19173367E+03  d E =-.460036E-02
       N       E                     dE             d eps       ncg     rms          rms(c)
DAV:   1    -0.191822701887E+03   -0.45930E-02   -0.57629E-01  8160   0.162E+00    0.201E-01
DAV:   2    -0.191826342327E+03   -0.36404E-02   -0.20200E-02 13160   0.677E-01    0.490E-01
DAV:   3    -0.191823579122E+03    0.27632E-02   -0.50999E-03 12440   0.630E-01    0.141E-01
DAV:   4    -0.191823646669E+03   -0.67547E-04   -0.89190E-04 10200   0.221E-01
  99 F= -.19182365E+03 E0= -.19173866E+03  d E =-.561919E-02
       N       E                     dE             d eps       ncg     rms          rms(c)
DAV:   1    -0.191823488576E+03    0.90546E-04   -0.79804E-04 10680   0.201E-01    0.654E-02
DAV:   2    -0.191824086457E+03   -0.59788E-03   -0.12444E-03 10480   0.284E-01    0.227E-01
DAV:   3    -0.191823457798E+03    0.62866E-03   -0.85165E-04  9800   0.240E-01    0.331E-02
DAV:   4    -0.191823483790E+03   -0.25992E-04   -0.55581E-05  5960   0.685E-02
 100 F= -.19182348E+03 E0= -.19173852E+03  d E =0.162879E-03
