<?xml version="1.0" encoding="ISO-8859-1"?>
<modeling>
 <generator>
  <i name="program" type="string">vasp </i>
  <i name="version" type="string">5.4.1  </i>
  <i name="subversion" type="string">05Feb16 (build Jul 05 2020 17:13:04) complex                          parallel </i>
  <i name="platform" type="string">IFC91_ompi </i>
  <i name="date" type="string">2024 04 21 </i>
  <i name="time" type="string">11:47:24 </i>
 </generator>
 <incar>
  <i type="int" name="ISTART">     0</i>
  <i type="string" name="PREC">normal</i>
  <i type="string" name="ALGO"> Normal</i>
  <i type="int" name="ISPIN">     1</i>
  <i type="int" name="ICHARG">     2</i>
  <i type="int" name="IBRION">     1</i>
  <i type="int" name="NSW">   100</i>
  <i type="int" name="ISIF">     3</i>
  <i type="int" name="ISYM">     0</i>
  <i name="SYMPREC">      0.00000001</i>
  <i name="POTIM">      0.50000000</i>
  <i type="logical" name="LREAL"> F  </i>
  <i type="logical" name="LPLANE"> F  </i>
  <i type="int" name="ISMEAR">     0</i>
  <i type="logical" name="LWAVE"> F  </i>
  <i type="logical" name="LCHARG"> F  </i>
  <v type="int" name="KPOINT_BSE">    -1     0     0     0</v>
 </incar>
 <kpoints>
  <generation param="Gamma">
   <v type="int" name="divisions">       8        8        1 </v>
   <v name="usershift">      0.00000000       0.00000000       0.00000000 </v>
   <v name="genvec1">      0.12500000       0.00000000       0.00000000 </v>
   <v name="genvec2">     -0.00000000       0.12500000       0.00000000 </v>
   <v name="genvec3">      0.00000000       0.00000000       1.00000000 </v>
   <v name="shift">      0.00000000       0.00000000       0.00000000 </v>
  </generation>
  <varray name="kpointlist" >
   <v>       0.00000000       0.00000000       0.00000000 </v>
   <v>       0.12500000       0.00000000       0.00000000 </v>
   <v>       0.25000000       0.00000000       0.00000000 </v>
   <v>       0.37500000       0.00000000       0.00000000 </v>
   <v>       0.50000000       0.00000000       0.00000000 </v>
   <v>       0.00000000       0.12500000       0.00000000 </v>
   <v>       0.12500000       0.12500000       0.00000000 </v>
   <v>       0.25000000       0.12500000       0.00000000 </v>
   <v>       0.37500000       0.12500000       0.00000000 </v>
   <v>       0.50000000       0.12500000       0.00000000 </v>
   <v>      -0.37500000       0.12500000       0.00000000 </v>
   <v>      -0.25000000       0.12500000       0.00000000 </v>
   <v>      -0.12500000       0.12500000       0.00000000 </v>
   <v>       0.00000000       0.25000000       0.00000000 </v>
   <v>       0.12500000       0.25000000       0.00000000 </v>
   <v>       0.25000000       0.25000000       0.00000000 </v>
   <v>       0.37500000       0.25000000       0.00000000 </v>
   <v>       0.50000000       0.25000000       0.00000000 </v>
   <v>      -0.37500000       0.25000000       0.00000000 </v>
   <v>      -0.25000000       0.25000000       0.00000000 </v>
   <v>      -0.12500000       0.25000000       0.00000000 </v>
   <v>      -0.00000000       0.37500000       0.00000000 </v>
   <v>       0.12500000       0.37500000       0.00000000 </v>
   <v>       0.25000000       0.37500000       0.00000000 </v>
   <v>       0.37500000       0.37500000       0.00000000 </v>
   <v>       0.50000000       0.37500000       0.00000000 </v>
   <v>      -0.37500000       0.37500000       0.00000000 </v>
   <v>      -0.25000000       0.37500000       0.00000000 </v>
   <v>      -0.12500000       0.37500000       0.00000000 </v>
   <v>       0.00000000       0.50000000       0.00000000 </v>
   <v>       0.12500000       0.50000000       0.00000000 </v>
   <v>       0.25000000       0.50000000       0.00000000 </v>
   <v>       0.37500000       0.50000000       0.00000000 </v>
   <v>       0.50000000       0.50000000       0.00000000 </v>
  </varray>
  <varray name="weights" >
   <v>       0.01562500 </v>
   <v>       0.03125000 </v>
   <v>       0.03125000 </v>
   <v>       0.03125000 </v>
   <v>       0.01562500 </v>
   <v>       0.03125000 </v>
   <v>       0.03125000 </v>
   <v>       0.03125000 </v>
   <v>       0.03125000 </v>
   <v>       0.03125000 </v>
   <v>       0.03125000 </v>
   <v>       0.03125000 </v>
   <v>       0.03125000 </v>
   <v>       0.03125000 </v>
   <v>       0.03125000 </v>
   <v>       0.03125000 </v>
   <v>       0.03125000 </v>
   <v>       0.03125000 </v>
   <v>       0.03125000 </v>
   <v>       0.03125000 </v>
   <v>       0.03125000 </v>
   <v>       0.03125000 </v>
   <v>       0.03125000 </v>
   <v>       0.03125000 </v>
   <v>       0.03125000 </v>
   <v>       0.03125000 </v>
   <v>       0.03125000 </v>
   <v>       0.03125000 </v>
   <v>       0.03125000 </v>
   <v>       0.01562500 </v>
   <v>       0.03125000 </v>
   <v>       0.03125000 </v>
   <v>       0.03125000 </v>
   <v>       0.01562500 </v>
  </varray>
 </kpoints>
 <parameters>
  <separator name="general" >
   <i type="string" name="SYSTEM">unknown system</i>
   <i type="logical" name="LCOMPAT"> F  </i>
  </separator>
  <separator name="electronic" >
   <i type="string" name="PREC">normal</i>
   <i name="ENMAX">    280.00000000</i>
   <i name="ENAUG">    373.43800000</i>
   <i name="EDIFF">      0.00010000</i>
   <i type="int" name="IALGO">    38</i>
   <i type="int" name="IWAVPR">    11</i>
   <i type="int" name="NBANDS">   120</i>
   <i name="NELECT">    159.00000000</i>
   <i type="int" name="TURBO">     0</i>
   <i type="int" name="IRESTART">     0</i>
   <i type="int" name="NREBOOT">     0</i>
   <i type="int" name="NMIN">     0</i>
   <i name="EREF">      0.00000000</i>
   <separator name="electronic smearing" >
    <i type="int" name="ISMEAR">     0</i>
    <i name="SIGMA">      0.20000000</i>
    <i name="KSPACING">      0.50000000</i>
    <i type="logical" name="KGAMMA"> T  </i>
   </separator>
   <separator name="electronic projectors" >
    <i type="logical" name="LREAL"> F  </i>
    <v name="ROPT">      0.00000000      0.00000000      0.00000000      0.00000000</v>
    <i type="int" name="LMAXPAW">  -100</i>
    <i type="int" name="LMAXMIX">     2</i>
    <i type="logical" name="NLSPLINE"> F  </i>
   </separator>
   <separator name="electronic startup" >
    <i type="int" name="ISTART">     0</i>
    <i type="int" name="ICHARG">     2</i>
    <i type="int" name="INIWAV">     1</i>
   </separator>
   <separator name="electronic spin" >
    <i type="int" name="ISPIN">     1</i>
    <i type="logical" name="LNONCOLLINEAR"> F  </i>
    <v name="MAGMOM">      1.00000000      1.00000000      1.00000000      1.00000000      1.00000000      1.00000000      1.00000000      1.00000000      1.00000000      1.00000000      1.00000000      1.00000000      1.00000000      1.00000000      1.00000000      1.00000000      1.00000000      1.00000000      1.00000000      1.00000000
      1.00000000      1.00000000      1.00000000      1.00000000      1.00000000      1.00000000      1.00000000</v>
    <i name="NUPDOWN">     -1.00000000</i>
    <i type="logical" name="LSORBIT"> F  </i>
    <v name="SAXIS">      0.00000000      0.00000000      1.00000000</v>
    <i type="logical" name="LSPIRAL"> F  </i>
    <v name="QSPIRAL">      0.00000000      0.00000000      0.00000000</v>
    <i type="logical" name="LZEROZ"> F  </i>
   </separator>
   <separator name="electronic exchange-correlation" >
    <i type="logical" name="LASPH"> F  </i>
    <i type="logical" name="LMETAGGA"> F  </i>
   </separator>
   <separator name="electronic convergence" >
    <i type="int" name="NELM">    60</i>
    <i type="int" name="NELMDL">    -5</i>
    <i type="int" name="NELMIN">     2</i>
    <i name="ENINI">    280.00000000</i>
    <separator name="electronic convergence detail" >
     <i type="logical" name="LDIAG"> T  </i>
     <i type="logical" name="LSUBROT"> F  </i>
     <i name="WEIMIN">      0.00100000</i>
     <i name="EBREAK">      0.00000021</i>
     <i name="DEPER">      0.30000000</i>
     <i type="int" name="NRMM">     4</i>
     <i name="TIME">      0.40000000</i>
    </separator>
   </separator>
   <separator name="electronic mixer" >
    <i name="AMIX">      0.40000000</i>
    <i name="BMIX">      1.00000000</i>
    <i name="AMIN">      0.10000000</i>
    <i name="AMIX_MAG">      1.60000000</i>
    <i name="BMIX_MAG">      1.00000000</i>
    <separator name="electronic mixer details" >
     <i type="int" name="IMIX">     4</i>
     <i type="logical" name="MIXFIRST"> F  </i>
     <i type="int" name="MAXMIX">   -45</i>
     <i name="WC">    100.00000000</i>
     <i type="int" name="INIMIX">     1</i>
     <i type="int" name="MIXPRE">     1</i>
     <i type="int" name="MREMOVE">     5</i>
    </separator>
   </separator>
   <separator name="electronic dipolcorrection" >
    <i type="logical" name="LDIPOL"> F  </i>
    <i type="logical" name="LMONO"> F  </i>
    <i type="int" name="IDIPOL">     0</i>
    <i name="EPSILON">      1.00000000</i>
    <v name="DIPOL">   -100.00000000   -100.00000000   -100.00000000</v>
    <i name="EFIELD">      0.00000000</i>
   </separator>
  </separator>
  <separator name="grids" >
   <i type="int" name="NGX">    42</i>
   <i type="int" name="NGY">    42</i>
   <i type="int" name="NGZ">   126</i>
   <i type="int" name="NGXF">    84</i>
   <i type="int" name="NGYF">    84</i>
   <i type="int" name="NGZF">   252</i>
   <i type="logical" name="ADDGRID"> F  </i>
  </separator>
  <separator name="ionic" >
   <i type="int" name="NSW">   100</i>
   <i type="int" name="IBRION">     1</i>
   <i type="int" name="ISIF">     3</i>
   <i name="PSTRESS">      0.00000000</i>
   <i name="EDIFFG">      0.00100000</i>
   <i type="int" name="NFREE">     0</i>
   <i name="POTIM">      0.50000000</i>
   <i name="SMASS">     -3.00000000</i>
   <i name="SCALEE">      1.00000000</i>
  </separator>
  <separator name="ionic md" >
   <i name="TEBEG">      0.00010000</i>
   <i name="TEEND">      0.00010000</i>
   <i type="int" name="NBLOCK">     1</i>
   <i type="int" name="KBLOCK">   100</i>
   <i type="int" name="NPACO">   256</i>
   <i name="APACO">     16.00000000</i>
  </separator>
  <separator name="symmetry" >
   <i type="int" name="ISYM">     0</i>
   <i name="SYMPREC">      0.00000001</i>
  </separator>
  <separator name="dos" >
   <i type="logical" name="LORBIT"> F  </i>
   <v name="RWIGS">     -1.00000000     -1.00000000     -1.00000000     -1.00000000</v>
   <i type="int" name="NEDOS">   301</i>
   <i name="EMIN">     10.00000000</i>
   <i name="EMAX">    -10.00000000</i>
   <i name="EFERMI">      0.00000000</i>
  </separator>
  <separator name="writing" >
   <i type="int" name="NWRITE">     2</i>
   <i type="logical" name="LWAVE"> F  </i>
   <i type="logical" name="LCHARG"> F  </i>
   <i type="logical" name="LPARD"> F  </i>
   <i type="logical" name="LVTOT"> F  </i>
   <i type="logical" name="LVHAR"> F  </i>
   <i type="logical" name="LELF"> F  </i>
   <i type="logical" name="LOPTICS"> F  </i>
   <v name="STM">      0.00000000      0.00000000      0.00000000      0.00000000      0.00000000      0.00000000      0.00000000</v>
  </separator>
  <separator name="performance" >
   <i type="int" name="NPAR">    40</i>
   <i type="int" name="NSIM">     4</i>
   <i type="int" name="NBLK">    -1</i>
   <i type="logical" name="LPLANE"> F  </i>
   <i type="logical" name="LSCALAPACK"> T  </i>
   <i type="logical" name="LSCAAWARE"> F  </i>
   <i type="logical" name="LSCALU"> F  </i>
   <i type="logical" name="LASYNC"> F  </i>
   <i type="logical" name="LORBITALREAL"> F  </i>
  </separator>
  <separator name="miscellaneous" >
   <i type="int" name="IDIOT">     3</i>
   <i type="logical" name="LMUSIC"> F  </i>
   <v name="POMASS">     50.94100000     95.94000000    183.85000000     32.06600000</v>
   <v name="DARWINR">      0.00000000      0.00000000      0.00000000      0.00000000</v>
   <v name="DARWINV">      1.00000000      1.00000000      1.00000000      1.00000000</v>
   <i type="logical" name="LCORR"> T  </i>
  </separator>
  <i type="logical" name="GGA_COMPAT"> T  </i>
  <i type="logical" name="LBERRY"> F  </i>
  <i type="int" name="ICORELEVEL">     0</i>
  <i type="logical" name="LDAU"> F  </i>
  <i type="int" name="I_CONSTRAINED_M">     0</i>
  <separator name="electronic exchange-correlation" >
   <i type="string" name="GGA">--</i>
   <i type="int" name="VOSKOWN">     0</i>
   <i type="logical" name="LHFCALC"> F  </i>
   <i type="string" name="PRECFOCK"></i>
   <i type="logical" name="LSYMGRAD"> F  </i>
   <i type="logical" name="LHFONE"> F  </i>
   <i type="logical" name="LRHFCALC"> F  </i>
   <i type="logical" name="LTHOMAS"> F  </i>
   <i type="logical" name="LMODELHF"> F  </i>
   <i name="ENCUT4O">     -1.00000000</i>
   <i type="int" name="EXXOEP">     0</i>
   <i type="int" name="FOURORBIT">     0</i>
   <i name="AEXX">      0.00000000</i>
   <i name="HFALPHA">      0.00000000</i>
   <i name="MCALPHA">      0.00000000</i>
   <i name="ALDAX">      1.00000000</i>
   <i name="AGGAX">      1.00000000</i>
   <i name="ALDAC">      1.00000000</i>
   <i name="AGGAC">      1.00000000</i>
   <i type="int" name="NKREDX">     1</i>
   <i type="int" name="NKREDY">     1</i>
   <i type="int" name="NKREDZ">     1</i>
   <i type="logical" name="SHIFTRED"> F  </i>
   <i type="logical" name="ODDONLY"> F  </i>
   <i type="logical" name="EVENONLY"> F  </i>
   <i type="int" name="LMAXFOCK">     0</i>
   <i type="int" name="NMAXFOCKAE">     0</i>
   <i type="logical" name="LFOCKAEDFT"> F  </i>
   <i name="HFSCREEN">      0.00000000</i>
   <i name="HFSCREENC">      0.00000000</i>
   <i type="int" name="NBANDSGWLOW">     0</i>
  </separator>
  <separator name="vdW DFT" >
   <i type="logical" name="LUSE_VDW"> F  </i>
   <i name="Zab_VDW">     -0.84910000</i>
   <i name="PARAM1">      0.12340000</i>
   <i name="PARAM2">      1.00000000</i>
   <i name="PARAM3">      0.00000000</i>
  </separator>
  <separator name="model GW" >
   <i type="int" name="MODEL_GW">     0</i>
   <i name="MODEL_EPS0">     58.26239943</i>
   <i name="MODEL_ALPHA">      1.00000000</i>
  </separator>
  <separator name="linear response parameters" >
   <i type="logical" name="LEPSILON"> F  </i>
   <i type="logical" name="LRPA"> F  </i>
   <i type="logical" name="LNABLA"> F  </i>
   <i type="logical" name="LVEL"> F  </i>
   <i type="int" name="KINTER">     0</i>
   <i name="CSHIFT">      0.10000000</i>
   <i name="OMEGAMAX">     -1.00000000</i>
   <i name="DEG_THRESHOLD">      0.00200000</i>
  </separator>
  <separator name="orbital magnetization" >
   <i type="logical" name="NUCIND"> F  </i>
   <v name="MAGPOS">      0.00000000      0.00000000      0.00000000</v>
   <i type="logical" name="LNICSALL"> T  </i>
   <i type="logical" name="ORBITALMAG"> F  </i>
   <i type="logical" name="LMAGBLOCH"> F  </i>
   <i type="logical" name="LCHIMAG"> F  </i>
   <i type="logical" name="LGAUGE"> T  </i>
   <i type="int" name="MAGATOM">     0</i>
   <v name="MAGDIPOL">      0.00000000      0.00000000      0.00000000</v>
   <v name="AVECCONST">      0.00000000      0.00000000      0.00000000</v>
  </separator>
  <separator name="response functions" >
   <i type="logical" name="LADDER"> F  </i>
   <i type="logical" name="LFXC"> F  </i>
   <i type="logical" name="LHARTREE"> T  </i>
   <i type="int" name="IBSE">     0</i>
   <v type="int" name="KPOINT">    -1     0     0     0</v>
   <i type="logical" name="LTCTE"> F  </i>
   <i type="logical" name="LTETE"> F  </i>
   <i type="logical" name="LTRIPLET"> F  </i>
   <i type="logical" name="LFXCEPS"> F  </i>
   <i type="logical" name="LFXHEG"> F  </i>
   <i type="int" name="NATURALO">     0</i>
   <i type="logical" name="L2ORDER"> F  </i>
   <i type="logical" name="LUSEW"> F  </i>
   <i name="ENCUTGW">     -2.00000000</i>
   <i name="ENCUTGWSOFT">     -2.00000000</i>
   <i name="ENCUTLF">     -1.00000000</i>
   <i type="int" name="LMAXMP2">    -1</i>
   <i name="SCISSOR">      0.00000000</i>
   <i type="int" name="NOMEGA">     0</i>
   <i type="int" name="NOMEGAR">     0</i>
   <i type="int" name="NBANDSGW">    -1</i>
   <i type="int" name="NBANDSO">    -1</i>
   <i type="int" name="NBANDSV">    -1</i>
   <i type="int" name="NELM">     1</i>
   <i type="int" name="NELMHF">     1</i>
   <i type="int" name="DIM">     3</i>
   <i type="int" name="ANTIRES">     0</i>
   <i name="OMEGAMAX">    -30.00000000</i>
   <i name="OMEGAMIN">    -30.00000000</i>
   <i name="OMEGATL">   -200.00000000</i>
   <i type="int" name="OMEGAGRID">     0</i>
   <i name="CSHIFT">     -0.10000000</i>
   <i type="logical" name="SELFENERGY"> F  </i>
   <i type="logical" name="LSPECTRAL"> F  </i>
   <i type="logical" name="LSPECTRALGW"> F  </i>
   <i type="logical" name="LSINGLES"> F  </i>
   <i type="logical" name="LFERMIGW"> F  </i>
   <i type="logical" name="ODDONLYGW"> F  </i>
   <i type="logical" name="EVENONLYGW"> F  </i>
   <i type="int" name="NKREDLFX">     1</i>
   <i type="int" name="NKREDLFY">     1</i>
   <i type="int" name="NKREDLFZ">     1</i>
   <i type="int" name="MAXMEM">  1800</i>
   <i type="int" name="TELESCOPE">     0</i>
   <i type="int" name="TAUPAR">     1</i>
   <i type="int" name="OMEGAPAR">    -1</i>
   <i name="LAMBDA">      1.00000000</i>
  </separator>
  <separator name="External order field" >
   <i name="OFIELD_KAPPA">      0.00000000</i>
   <v name="OFIELD_K">      0.00000000      0.00000000      0.00000000</v>
   <i name="OFIELD_Q6_NEAR">      0.00000000</i>
   <i name="OFIELD_Q6_FAR">      0.00000000</i>
   <i name="OFIELD_A">      0.00000000</i>
  </separator>
 </parameters>
 <atominfo>
  <atoms>      27 </atoms>
  <types>       4 </types>
  <array name="atoms" >
   <dimension dim="1">ion</dimension>
   <field type="string">element</field>
   <field type="int">atomtype</field>
   <set>
    <rc><c>V </c><c>   1</c></rc>
    <rc><c>V </c><c>   1</c></rc>
    <rc><c>V </c><c>   1</c></rc>
    <rc><c>Mo</c><c>   2</c></rc>
    <rc><c>Mo</c><c>   2</c></rc>
    <rc><c>Mo</c><c>   2</c></rc>
    <rc><c>W </c><c>   3</c></rc>
    <rc><c>W </c><c>   3</c></rc>
    <rc><c>W </c><c>   3</c></rc>
    <rc><c>S </c><c>   4</c></rc>
    <rc><c>S </c><c>   4</c></rc>
    <rc><c>S </c><c>   4</c></rc>
    <rc><c>S </c><c>   4</c></rc>
    <rc><c>S </c><c>   4</c></rc>
    <rc><c>S </c><c>   4</c></rc>
    <rc><c>S </c><c>   4</c></rc>
    <rc><c>S </c><c>   4</c></rc>
    <rc><c>S </c><c>   4</c></rc>
    <rc><c>S </c><c>   4</c></rc>
    <rc><c>S </c><c>   4</c></rc>
    <rc><c>S </c><c>   4</c></rc>
    <rc><c>S </c><c>   4</c></rc>
    <rc><c>S </c><c>   4</c></rc>
    <rc><c>S </c><c>   4</c></rc>
    <rc><c>S </c><c>   4</c></rc>
    <rc><c>S </c><c>   4</c></rc>
    <rc><c>S </c><c>   4</c></rc>
   </set>
  </array>
  <array name="atomtypes" >
   <dimension dim="1">type</dimension>
   <field type="int">atomspertype</field>
   <field type="string">element</field>
   <field>mass</field>
   <field>valence</field>
   <field type="string">pseudopotential</field>
   <set>
    <rc><c>   3</c><c>V </c><c>     50.94100000</c><c>      5.00000000</c><c> PAW_PBE V 08Apr2002                    </c></rc>
    <rc><c>   3</c><c>Mo</c><c>     95.94000000</c><c>      6.00000000</c><c> PAW_PBE Mo 08Apr2002                   </c></rc>
    <rc><c>   3</c><c>W </c><c>    183.85000000</c><c>      6.00000000</c><c> PAW_PBE W 08Apr2002                    </c></rc>
    <rc><c>  18</c><c>S </c><c>     32.06600000</c><c>      6.00000000</c><c>  PAW_PBE S 17Jan2003                   </c></rc>
   </set>
  </array>
 </atominfo>
 <structure name="initialpos" >
  <crystal>
   <varray name="basis" >
    <v>       8.66999996       5.03999989       0.00000000 </v>
    <v>      -8.66999982       5.04000013       0.00000000 </v>
    <v>       0.00000000       0.00000000      30.00000000 </v>
   </varray>
   <i name="volume">   2621.80797419 </i>
   <varray name="rec_basis" >
    <v>       0.05767013       0.09920635       0.00000000 </v>
    <v>      -0.05767013       0.09920635       0.00000000 </v>
    <v>       0.00000000       0.00000000       0.03333333 </v>
   </varray>
  </crystal>
  <varray name="positions" >
   <v>       0.00000000       0.66666669       0.00000000 </v>
   <v>       0.33333334       0.66666669       0.00000000 </v>
   <v>       0.00000000       0.00000000       0.00000000 </v>
   <v>       0.66666669       0.00000000       0.00000000 </v>
   <v>       0.66666669       0.66666669       0.00000000 </v>
   <v>       0.33333334       0.00000000       0.00000000 </v>
   <v>       1.00000000       0.33333334       0.00000000 </v>
   <v>       0.33333334       0.33333334       0.00000000 </v>
   <v>       0.66666669       0.33333334       0.00000000 </v>
   <v>       0.11068511       0.22244981       0.95539999 </v>
   <v>       0.22244981       0.11068511       0.04460000 </v>
   <v>       0.11068511       0.55578315       0.95539999 </v>
   <v>       0.22244981       0.44401845       0.04460000 </v>
   <v>       0.11068511       0.88911647       0.95539999 </v>
   <v>       0.22244981       0.77735180       0.04460000 </v>
   <v>       0.44401845       0.22244981       0.95539999 </v>
   <v>       0.55578315       0.11068511       0.04460000 </v>
   <v>       0.44401845       0.55578315       0.95539999 </v>
   <v>       0.55578315       0.44401845       0.04460000 </v>
   <v>       0.44401845       0.88911647       0.95539999 </v>
   <v>       0.55578315       0.77735180       0.04460000 </v>
   <v>       0.77735180       0.22244981       0.95539999 </v>
   <v>       0.88911647       0.11068511       0.04460000 </v>
   <v>       0.77735180       0.55578315       0.95539999 </v>
   <v>       0.88911647       0.44401845       0.04460000 </v>
   <v>       0.77735180       0.88911647       0.95539999 </v>
   <v>       0.88911647       0.77735180       0.04460000 </v>
  </varray>
 </structure>
 <calculation>
  <scstep>
   <time name="dav">   21.61   21.67</time>
   <time name="total">   21.66   21.71</time>
   <energy>
    <i name="alphaZ">     81.65567618 </i>
    <i name="ewald">  41890.25209519 </i>
    <i name="hartreedc"> -47722.89515181 </i>
    <i name="XCdc">   -242.92702714 </i>
    <i name="pawpsdc">   3467.42045192 </i>
    <i name="pawaedc">  -2871.19716117 </i>
    <i name="eentropy">     -0.53614668 </i>
    <i name="bandstr">   -237.53547039 </i>
    <i name="atom">   6761.44252427 </i>
    <i name="e_fr_energy">   1125.67979037 </i>
    <i name="e_wo_entrp">   1126.21593705 </i>
    <i name="e_0_energy">   1125.94786371 </i>
   </energy>
  </scstep>
  <scstep>
   <time name="dav">   28.01   28.07</time>
   <time name="total">   28.01   28.08</time>
   <energy>
    <i name="e_fr_energy">     -3.25108074 </i>
    <i name="e_wo_entrp">     -3.05456130 </i>
    <i name="e_0_energy">     -3.15282102 </i>
   </energy>
  </scstep>
  <scstep>
   <time name="dav">   27.49   27.56</time>
   <time name="total">   27.50   27.57</time>
   <energy>
    <i name="e_fr_energy">   -199.89510855 </i>
    <i name="e_wo_entrp">   -199.62102134 </i>
    <i name="e_0_energy">   -199.75806494 </i>
   </energy>
  </scstep>
  <scstep>
   <time name="dav">   29.88   29.95</time>
   <time name="total">   29.88   29.95</time>
   <energy>
    <i name="e_fr_energy">   -209.00840983 </i>
    <i name="e_wo_entrp">   -208.70325355 </i>
    <i name="e_0_energy">   -208.85583169 </i>
   </energy>
  </scstep>
  <scstep>
   <time name="dav">   28.58   28.65</time>
   <time name="total">   29.05   29.12</time>
   <energy>
    <i name="e_fr_energy">   -209.32384604 </i>
    <i name="e_wo_entrp">   -209.02143197 </i>
    <i name="e_0_energy">   -209.17263901 </i>
   </energy>
  </scstep>
  <scstep>
   <time name="dav">   30.44   30.52</time>
   <time name="total">   30.94   31.02</time>
   <energy>
    <i name="e_fr_energy">   -237.08913165 </i>
    <i name="e_wo_entrp">   -236.81048549 </i>
    <i name="e_0_energy">   -236.94980857 </i>
   </energy>
  </scstep>
  <scstep>
   <time name="dav">   32.43   32.51</time>
   <time name="total">   32.94   33.02</time>
   <energy>
    <i name="e_fr_energy">   -196.44599703 </i>
    <i name="e_wo_entrp">   -196.12925616 </i>
    <i name="e_0_energy">   -196.28762659 </i>
   </energy>
  </scstep>
  <scstep>
   <time name="dav">   29.85   29.92</time>
   <time name="total">   30.36   30.44</time>
   <energy>
    <i name="e_fr_energy">   -189.40260491 </i>
    <i name="e_wo_entrp">   -189.11098663 </i>
    <i name="e_0_energy">   -189.25679577 </i>
   </energy>
  </scstep>
  <scstep>
   <time name="dav">   31.52   31.59</time>
   <time name="total">   32.04   32.12</time>
   <energy>
    <i name="e_fr_energy">   -188.16928575 </i>
    <i name="e_wo_entrp">   -187.82999004 </i>
    <i name="e_0_energy">   -187.99963790 </i>
   </energy>
  </scstep>
  <scstep>
   <time name="dav">   32.70   32.78</time>
   <time name="total">   33.23   33.32</time>
   <energy>
    <i name="e_fr_energy">   -186.99908820 </i>
    <i name="e_wo_entrp">   -186.65153953 </i>
    <i name="e_0_energy">   -186.82531387 </i>
   </energy>
  </scstep>
  <scstep>
   <time name="dav">   32.14   32.22</time>
   <time name="total">   32.67   32.76</time>
   <energy>
    <i name="e_fr_energy">   -186.96759620 </i>
    <i name="e_wo_entrp">   -186.61778100 </i>
    <i name="e_0_energy">   -186.79268860 </i>
   </energy>
  </scstep>
  <scstep>
   <time name="dav">   30.05   30.12</time>
   <time name="total">   30.58   30.66</time>
   <energy>
    <i name="e_fr_energy">   -187.08999263 </i>
    <i name="e_wo_entrp">   -186.75012303 </i>
    <i name="e_0_energy">   -186.92005783 </i>
   </energy>
  </scstep>
  <scstep>
   <time name="dav">   31.62   31.69</time>
   <time name="total">   32.15   32.23</time>
   <energy>
    <i name="e_fr_energy">   -186.88104178 </i>
    <i name="e_wo_entrp">   -186.54416076 </i>
    <i name="e_0_energy">   -186.71260127 </i>
   </energy>
  </scstep>
  <scstep>
   <time name="dav">   32.44   32.52</time>
   <time name="total">   32.97   33.06</time>
   <energy>
    <i name="e_fr_energy">   -186.85671892 </i>
    <i name="e_wo_entrp">   -186.51205134 </i>
    <i name="e_0_energy">   -186.68438513 </i>
   </energy>
  </scstep>
  <scstep>
   <time name="dav">   29.74   29.81</time>
   <time name="total">   30.27   30.35</time>
   <energy>
    <i name="e_fr_energy">   -186.83708462 </i>
    <i name="e_wo_entrp">   -186.49029428 </i>
    <i name="e_0_energy">   -186.66368945 </i>
   </energy>
  </scstep>
  <scstep>
   <time name="dav">   29.90   29.98</time>
   <time name="total">   30.44   30.52</time>
   <energy>
    <i name="e_fr_energy">   -186.82943089 </i>
    <i name="e_wo_entrp">   -186.48265081 </i>
    <i name="e_0_energy">   -186.65604085 </i>
   </energy>
  </scstep>
  <scstep>
   <time name="dav">   30.75   30.82</time>
   <time name="total">   31.28   31.36</time>
   <energy>
    <i name="e_fr_energy">   -186.82755508 </i>
    <i name="e_wo_entrp">   -186.48273514 </i>
    <i name="e_0_energy">   -186.65514511 </i>
   </energy>
  </scstep>
  <scstep>
   <time name="dav">   29.20   29.27</time>
   <time name="total">   29.73   29.81</time>
   <energy>
    <i name="e_fr_energy">   -186.82709341 </i>
    <i name="e_wo_entrp">   -186.48202950 </i>
    <i name="e_0_energy">   -186.65456146 </i>
   </energy>
  </scstep>
  <scstep>
   <time name="dav">   27.19   27.25</time>
   <time name="total">   27.72   27.79</time>
   <energy>
    <i name="e_fr_energy">   -186.82673974 </i>
    <i name="e_wo_entrp">   -186.48138854 </i>
    <i name="e_0_energy">   -186.65406414 </i>
   </energy>
  </scstep>
  <scstep>
   <time name="dav">   24.00   24.05</time>
   <time name="total">   24.53   24.59</time>
   <energy>
    <i name="e_fr_energy">   -186.82747680 </i>
    <i name="e_wo_entrp">   -186.48230266 </i>
    <i name="e_0_energy">   -186.65488973 </i>
   </energy>
  </scstep>
  <scstep>
   <time name="dav">   20.88   20.93</time>
   <time name="total">   21.41   21.47</time>
   <energy>
    <i name="e_fr_energy">   -186.82806796 </i>
    <i name="e_wo_entrp">   -186.48306412 </i>
    <i name="e_0_energy">   -186.65556604 </i>
   </energy>
  </scstep>
  <scstep>
   <time name="dav">   20.40   20.45</time>
   <time name="total">   20.93   20.99</time>
   <energy>
    <i name="e_fr_energy">   -186.82923356 </i>
    <i name="e_wo_entrp">   -186.48406751 </i>
    <i name="e_0_energy">   -186.65665054 </i>
   </energy>
  </scstep>
  <scstep>
   <time name="dav">   20.14   20.19</time>
   <time name="total">   20.68   20.73</time>
   <energy>
    <i name="e_fr_energy">   -186.83046012 </i>
    <i name="e_wo_entrp">   -186.48540151 </i>
    <i name="e_0_energy">   -186.65793081 </i>
   </energy>
  </scstep>
  <scstep>
   <time name="dav">   18.62   18.67</time>
   <time name="total">   19.16   19.21</time>
   <energy>
    <i name="e_fr_energy">   -186.83104840 </i>
    <i name="e_wo_entrp">   -186.48597256 </i>
    <i name="e_0_energy">   -186.65851048 </i>
   </energy>
  </scstep>
  <scstep>
   <time name="dav">   16.79   16.83</time>
   <time name="total">   17.32   17.37</time>
   <energy>
    <i name="e_fr_energy">   -186.83141404 </i>
    <i name="e_wo_entrp">   -186.48629895 </i>
    <i name="e_0_energy">   -186.65885650 </i>
   </energy>
  </scstep>
  <scstep>
   <time name="dav">   18.78   18.82</time>
   <time name="total">   19.31   19.36</time>
   <energy>
    <i name="e_fr_energy">   -186.83164870 </i>
    <i name="e_wo_entrp">   -186.48654984 </i>
    <i name="e_0_energy">   -186.65909927 </i>
   </energy>
  </scstep>
  <scstep>
   <time name="dav">   19.48   19.53</time>
   <time name="total">   20.02   20.07</time>
   <energy>
    <i name="e_fr_energy">   -186.83175163 </i>
    <i name="e_wo_entrp">   -186.48665067 </i>
    <i name="e_0_energy">   -186.65920115 </i>
   </energy>
  </scstep>
  <scstep>
   <time name="dav">   20.21   20.26</time>
   <time name="total">   20.24   20.30</time>
   <energy>
    <i name="alphaZ">     81.65567618 </i>
    <i name="ewald">  41890.25209519 </i>
    <i name="hartreedc"> -47832.89615001 </i>
    <i name="XCdc">   -231.61129505 </i>
    <i name="pawpsdc">   4192.00685197 </i>
    <i name="pawaedc">  -3610.00931699 </i>
    <i name="eentropy">     -0.34509840 </i>
    <i name="bandstr">  -1437.32707951 </i>
    <i name="atom">   6761.44252427 </i>
    <i name="e_fr_energy">   -186.83179235 </i>
    <i name="e_wo_entrp">   -186.48669395 </i>
    <i name="e_0_energy">   -186.65924315 </i>
   </energy>
  </scstep>
  <structure>
   <crystal>
    <varray name="basis" >
     <v>       8.66999996       5.03999989       0.00000000 </v>
     <v>      -8.66999982       5.04000013       0.00000000 </v>
     <v>       0.00000000       0.00000000      30.00000000 </v>
    </varray>
    <i name="volume">   2621.80797419 </i>
    <varray name="rec_basis" >
     <v>       0.05767013       0.09920635       0.00000000 </v>
     <v>      -0.05767013       0.09920635       0.00000000 </v>
     <v>       0.00000000       0.00000000       0.03333333 </v>
    </varray>
   </crystal>
   <varray name="positions" >
    <v>       0.00000000       0.66666669       0.00000000 </v>
    <v>       0.33333334       0.66666669       0.00000000 </v>
    <v>       0.00000000       0.00000000       0.00000000 </v>
    <v>       0.66666669       0.00000000       0.00000000 </v>
    <v>       0.66666669       0.66666669       0.00000000 </v>
    <v>       0.33333334       0.00000000       0.00000000 </v>
    <v>       1.00000000       0.33333334       0.00000000 </v>
    <v>       0.33333334       0.33333334       0.00000000 </v>
    <v>       0.66666669       0.33333334       0.00000000 </v>
    <v>       0.11068511       0.22244981       0.95539999 </v>
    <v>       0.22244981       0.11068511       0.04460000 </v>
    <v>       0.11068511       0.55578315       0.95539999 </v>
    <v>       0.22244981       0.44401845       0.04460000 </v>
    <v>       0.11068511       0.88911647       0.95539999 </v>
    <v>       0.22244981       0.77735180       0.04460000 </v>
    <v>       0.44401845       0.22244981       0.95539999 </v>
    <v>       0.55578315       0.11068511       0.04460000 </v>
    <v>       0.44401845       0.55578315       0.95539999 </v>
    <v>       0.55578315       0.44401845       0.04460000 </v>
    <v>       0.44401845       0.88911647       0.95539999 </v>
    <v>       0.55578315       0.77735180       0.04460000 </v>
    <v>       0.77735180       0.22244981       0.95539999 </v>
    <v>       0.88911647       0.11068511       0.04460000 </v>
    <v>       0.77735180       0.55578315       0.95539999 </v>
    <v>       0.88911647       0.44401845       0.04460000 </v>
    <v>       0.77735180       0.88911647       0.95539999 </v>
    <v>       0.88911647       0.77735180       0.04460000 </v>
   </varray>
  </structure>
  <varray name="forces" >
   <v>      -0.19866488       0.20657291      -0.01067177 </v>
   <v>      -0.07590983       0.44311159      -0.08690848 </v>
   <v>       0.06559244      -0.28289796       0.09944817 </v>
   <v>       0.01803564      -0.29167374       0.09495469 </v>
   <v>      -0.25137888       0.15487869      -0.00221599 </v>
   <v>       0.24615906       0.08550602       0.01600907 </v>
   <v>      -0.01815399      -0.23787991      -0.02983285 </v>
   <v>       0.25166650       0.12454860      -0.09796049 </v>
   <v>      -0.00855012      -0.28775050      -0.02728720 </v>
   <v>       0.46627779      -0.55138595      -2.14808534 </v>
   <v>      -0.62628310      -0.57573993       2.13732333 </v>
   <v>      -0.22391466       0.53425125      -1.41338353 </v>
   <v>      -0.47747293       0.57173628       2.12466973 </v>
   <v>      -0.31375128      -0.66775061      -1.41289306 </v>
   <v>       0.31348762      -0.66305517       1.41510698 </v>
   <v>       0.03565063       0.15335607      -2.95252248 </v>
   <v>      -0.18556047       0.17114530       2.91127561 </v>
   <v>      -0.69053846      -0.16329231      -2.13391503 </v>
   <v>      -0.04067472      -0.10627108       2.90991198 </v>
   <v>       0.52781457      -0.73116449      -2.18334096 </v>
   <v>      -0.52482847      -0.67513400       2.17532368 </v>
   <v>       0.03825048       0.14619009      -2.88570923 </v>
   <v>       0.68313315       0.15091781       2.14106485 </v>
   <v>       0.61325391       0.53920735      -2.11293756 </v>
   <v>      -0.46714211       0.56208245       2.16884390 </v>
   <v>       0.53218526       0.69326644      -2.14781858 </v>
   <v>       0.31131683       0.69722480       1.45155058 </v>
  </varray>
  <varray name="stress" >
   <v>       7.30516124       0.13885441      -1.63158631 </v>
   <v>       0.13885435       4.42408984       0.14736707 </v>
   <v>      -1.63158645       0.14736717      30.32937487 </v>
  </varray>
  <energy>
   <i name="e_fr_energy">   -186.83179235 </i>
   <i name="e_wo_entrp">   -186.65924315 </i>
   <i name="e_0_energy">     -0.34509840 </i>
  </energy>
  <time name="totalsc">  798.85  800.95</time>
 </calculation>
 <calculation>
  <scstep>
   <time name="dav">   21.68   21.74</time>
   <time name="total">   22.22   22.28</time>
   <energy>
    <i name="alphaZ">     78.92709483 </i>
    <i name="ewald">  39382.17069670 </i>
    <i name="hartreedc"> -45339.65909137 </i>
    <i name="XCdc">   -239.06724162 </i>
    <i name="pawpsdc">   4192.00685689 </i>
    <i name="pawaedc">  -3610.00931549 </i>
    <i name="eentropy">     -0.28733125 </i>
    <i name="bandstr">  -1412.98352244 </i>
    <i name="atom">   6761.44252427 </i>
    <i name="e_fr_energy">   -187.45932948 </i>
    <i name="e_wo_entrp">   -187.17199823 </i>
    <i name="e_0_energy">   -187.31566385 </i>
   </energy>
  </scstep>
  <scstep>
   <time name="dav">   30.20   30.27</time>
   <time name="total">   30.73   30.81</time>
   <energy>
    <i name="e_fr_energy">   -189.26065196 </i>
    <i name="e_wo_entrp">   -188.94519200 </i>
    <i name="e_0_energy">   -189.10292198 </i>
   </energy>
  </scstep>
  <scstep>
   <time name="dav">   30.32   30.39</time>
   <time name="total">   30.86   30.95</time>
   <energy>
    <i name="e_fr_energy">   -189.36717673 </i>
    <i name="e_wo_entrp">   -189.08625553 </i>
    <i name="e_0_energy">   -189.22671613 </i>
   </energy>
  </scstep>
  <scstep>
   <time name="dav">   30.68   30.75</time>
   <time name="total">   31.22   31.30</time>
   <energy>
    <i name="e_fr_energy">   -188.72490128 </i>
    <i name="e_wo_entrp">   -188.43869767 </i>
    <i name="e_0_energy">   -188.58179948 </i>
   </energy>
  </scstep>
  <scstep>
   <time name="dav">   25.74   25.80</time>
   <time name="total">   26.28   26.35</time>
   <energy>
    <i name="e_fr_energy">   -188.72134401 </i>
    <i name="e_wo_entrp">   -188.43343776 </i>
    <i name="e_0_energy">   -188.57739089 </i>
   </energy>
  </scstep>
  <scstep>
   <time name="dav">   27.03   27.10</time>
   <time name="total">   27.58   27.65</time>
   <energy>
    <i name="e_fr_energy">   -188.66022465 </i>
    <i name="e_wo_entrp">   -188.37393375 </i>
    <i name="e_0_energy">   -188.51707920 </i>
   </energy>
  </scstep>
  <scstep>
   <time name="dav">   28.16   28.22</time>
   <time name="total">   28.70   28.77</time>
   <energy>
    <i name="e_fr_energy">   -188.64267712 </i>
    <i name="e_wo_entrp">   -188.35685363 </i>
    <i name="e_0_energy">   -188.49976538 </i>
   </energy>
  </scstep>
  <scstep>
   <time name="dav">   30.48   30.55</time>
   <time name="total">   31.02   31.10</time>
   <energy>
    <i name="e_fr_energy">   -188.63857101 </i>
    <i name="e_wo_entrp">   -188.35374249 </i>
    <i name="e_0_energy">   -188.49615675 </i>
   </energy>
  </scstep>
  <scstep>
   <time name="dav">   31.68   31.75</time>
   <time name="total">   32.22   32.30</time>
   <energy>
    <i name="e_fr_energy">   -188.63412215 </i>
    <i name="e_wo_entrp">   -188.34878785 </i>
    <i name="e_0_energy">   -188.49145500 </i>
   </energy>
  </scstep>
  <scstep>
   <time name="dav">   31.34   31.42</time>
   <time name="total">   31.88   31.97</time>
   <energy>
    <i name="e_fr_energy">   -188.63377162 </i>
    <i name="e_wo_entrp">   -188.34900605 </i>
    <i name="e_0_energy">   -188.49138884 </i>
   </energy>
  </scstep>
  <scstep>
   <time name="dav">   29.53   29.60</time>
   <time name="total">   30.07   30.15</time>
   <energy>
    <i name="e_fr_energy">   -188.63351721 </i>
    <i name="e_wo_entrp">   -188.34911944 </i>
    <i name="e_0_energy">   -188.49131833 </i>
   </energy>
  </scstep>
  <scstep>
   <time name="dav">   27.47   27.54</time>
   <time name="total">   28.01   28.09</time>
   <energy>
    <i name="e_fr_energy">   -188.63385729 </i>
    <i name="e_wo_entrp">   -188.34958475 </i>
    <i name="e_0_energy">   -188.49172102 </i>
   </energy>
  </scstep>
  <scstep>
   <time name="dav">   24.64   24.70</time>
   <time name="total">   25.18   25.25</time>
   <energy>
    <i name="e_fr_energy">   -188.63353237 </i>
    <i name="e_wo_entrp">   -188.34896743 </i>
    <i name="e_0_energy">   -188.49124990 </i>
   </energy>
  </scstep>
  <scstep>
   <time name="dav">   20.12   20.16</time>
   <time name="total">   20.66   20.71</time>
   <energy>
    <i name="e_fr_energy">   -188.63363992 </i>
    <i name="e_wo_entrp">   -188.34901891 </i>
    <i name="e_0_energy">   -188.49132942 </i>
   </energy>
  </scstep>
  <scstep>
   <time name="dav">   20.56   20.61</time>
   <time name="total">   20.59   20.65</time>
   <energy>
    <i name="alphaZ">     78.92709483 </i>
    <i name="ewald">  39382.17069670 </i>
    <i name="hartreedc"> -45350.08589831 </i>
    <i name="XCdc">   -237.98535613 </i>
    <i name="pawpsdc">   3949.08439122 </i>
    <i name="pawaedc">  -3363.57618678 </i>
    <i name="eentropy">     -0.28459619 </i>
    <i name="bandstr">  -1408.32634353 </i>
    <i name="atom">   6761.44252427 </i>
    <i name="e_fr_energy">   -188.63367391 </i>
    <i name="e_wo_entrp">   -188.34907772 </i>
    <i name="e_0_energy">   -188.49137581 </i>
   </energy>
  </scstep>
  <structure>
   <crystal>
    <varray name="basis" >
     <v>       8.85723152       5.10871453       0.00000000 </v>
     <v>      -8.85313898       5.10167487       0.00000000 </v>
     <v>       0.00000000       0.00000000      30.00000000 </v>
    </varray>
    <i name="volume">   2712.44625671 </i>
    <varray name="rec_basis" >
     <v>       0.05642517       0.09791684       0.00000000 </v>
     <v>      -0.05650303       0.09796211       0.00000000 </v>
     <v>       0.00000000       0.00000000       0.03333333 </v>
    </varray>
   </crystal>
   <varray name="positions" >
    <v>       0.00043594       0.66820806      -0.00001716 </v>
    <v>       0.33524287       0.66899860      -0.00013976 </v>
    <v>      -0.00117145      -0.00153643       0.00015992 </v>
    <v>       0.66532092      -0.00144612       0.00015270 </v>
    <v>       0.66670856       0.66810731      -0.00000356 </v>
    <v>       0.33442743      -0.00027562       0.00002574 </v>
    <v>       0.99881100       0.33224536      -0.00004797 </v>
    <v>       0.33462961       0.33322925      -0.00015753 </v>
    <v>       0.66526573       0.33197996      -0.00004388 </v>
    <v>       0.10934345       0.21851363       0.95194568 </v>
    <v>       0.21795191       0.10967205       0.04803700 </v>
    <v>       0.11261906       0.55896303       0.95312714 </v>
    <v>       0.22385772       0.44808318       0.04801666 </v>
    <v>       0.10661636       0.88679353       0.95312793 </v>
    <v>       0.22014861       0.77330626       0.04687562 </v>
    <v>       0.44485160       0.22308458       0.95065207 </v>
    <v>       0.55608599       0.11202047       0.04928159 </v>
    <v>       0.44131575       0.55692283       0.95196847 </v>
    <v>       0.55516138       0.44362301       0.04927939 </v>
    <v>       0.44198758       0.88414866       0.95188898 </v>
    <v>       0.55109182       0.77558078       0.04809811 </v>
    <v>       0.77815788       0.22304305       0.95075951 </v>
    <v>       0.89173934       0.10950681       0.04804302 </v>
    <v>       0.78163860       0.55665762       0.95200220 </v>
    <v>       0.89050692       0.44800823       0.04808769 </v>
    <v>       0.78215038       0.89095380       0.95194611 </v>
    <v>       0.89331950       0.77982257       0.04693422 </v>
   </varray>
  </structure>
  <varray name="forces" >
   <v>      -0.13982081       0.12080414      -0.07285035 </v>
   <v>      -0.02223168       0.40525016      -0.01492083 </v>
   <v>      -0.01843720      -0.24206561       0.02245198 </v>
   <v>      -0.08983934      -0.14829175       0.02400413 </v>
   <v>      -0.23122059       0.00166171      -0.07188783 </v>
   <v>       0.16756853       0.43037149       0.06629449 </v>
   <v>      -0.04753695      -0.30697158       0.01621863 </v>
   <v>       0.37390280       0.21101785       0.06644172 </v>
   <v>      -0.03470683      -0.41624081      -0.00350346 </v>
   <v>      -0.03960265       0.05174075       0.13626641 </v>
   <v>      -0.08282754       0.05272855      -0.09645258 </v>
   <v>       0.06102467      -0.07269044       0.18545233 </v>
   <v>       0.04143833      -0.06201944      -0.26922937 </v>
   <v>       0.00477852      -0.04420583       0.08324756 </v>
   <v>       0.00895095      -0.04557248      -0.06451693 </v>
   <v>      -0.07187211       0.10410832      -0.15738239 </v>
   <v>      -0.03841136       0.11016170       0.18820807 </v>
   <v>      -0.00323376      -0.11064936      -0.03238427 </v>
   <v>       0.07115189      -0.09984015      -0.00423966 </v>
   <v>       0.04310308      -0.08997402      -0.16763503 </v>
   <v>      -0.04059790      -0.07426588       0.16214497 </v>
   <v>      -0.06514123       0.08844731      -0.01228643 </v>
   <v>      -0.01073557       0.09723631       0.03794943 </v>
   <v>       0.07765147      -0.03950441       0.13008199 </v>
   <v>       0.05523126      -0.05627308      -0.14436139 </v>
   <v>       0.03165630       0.07278881      -0.04278140 </v>
   <v>      -0.00024226       0.06224776       0.03567021 </v>
  </varray>
  <varray name="stress" >
   <v>     -19.85558236      -0.01328769      -0.02926256 </v>
   <v>      -0.01328746     -19.45731209       0.00997366 </v>
   <v>      -0.02926270       0.00997357      -1.67463884 </v>
  </varray>
  <energy>
   <i name="e_fr_energy">   -188.63367391 </i>
   <i name="e_wo_entrp">   -188.49137581 </i>
   <i name="e_0_energy">     -0.28459619 </i>
  </energy>
  <time name="totalsc">  459.36  460.56</time>
 </calculation>
 <calculation>
  <scstep>
   <time name="dav">   23.84   23.90</time>
   <time name="total">   24.38   24.44</time>
   <energy>
    <i name="alphaZ">     82.35323718 </i>
    <i name="ewald">  41305.79129850 </i>
    <i name="hartreedc"> -47304.35863098 </i>
    <i name="XCdc">   -233.86214654 </i>
    <i name="pawpsdc">   3949.02777431 </i>
    <i name="pawaedc">  -3363.51951775 </i>
    <i name="eentropy">     -0.23671632 </i>
    <i name="bandstr">  -1387.18981290 </i>
    <i name="atom">   6761.44252427 </i>
    <i name="e_fr_energy">   -190.55199024 </i>
    <i name="e_wo_entrp">   -190.31527392 </i>
    <i name="e_0_energy">   -190.43363208 </i>
   </energy>
  </scstep>
  <scstep>
   <time name="dav">   28.81   28.88</time>
   <time name="total">   29.33   29.41</time>
   <energy>
    <i name="e_fr_energy">   -190.54594056 </i>
    <i name="e_wo_entrp">   -190.30631941 </i>
    <i name="e_0_energy">   -190.42612998 </i>
   </energy>
  </scstep>
  <scstep>
   <time name="dav">   30.09   30.17</time>
   <time name="total">   30.62   30.70</time>
   <energy>
    <i name="e_fr_energy">   -190.02451720 </i>
    <i name="e_wo_entrp">   -189.77593304 </i>
    <i name="e_0_energy">   -189.90022512 </i>
   </energy>
  </scstep>
  <scstep>
   <time name="dav">   31.43   31.51</time>
   <time name="total">   31.96   32.04</time>
   <energy>
    <i name="e_fr_energy">   -189.81991761 </i>
    <i name="e_wo_entrp">   -189.58250806 </i>
    <i name="e_0_energy">   -189.70121283 </i>
   </energy>
  </scstep>
  <scstep>
   <time name="dav">   28.22   28.29</time>
   <time name="total">   28.75   28.83</time>
   <energy>
    <i name="e_fr_energy">   -189.73722166 </i>
    <i name="e_wo_entrp">   -189.49499966 </i>
    <i name="e_0_energy">   -189.61611066 </i>
   </energy>
  </scstep>
  <scstep>
   <time name="dav">   29.27   29.34</time>
   <time name="total">   29.80   29.88</time>
   <energy>
    <i name="e_fr_energy">   -189.72306418 </i>
    <i name="e_wo_entrp">   -189.48414317 </i>
    <i name="e_0_energy">   -189.60360368 </i>
   </energy>
  </scstep>
  <scstep>
   <time name="dav">   29.84   29.91</time>
   <time name="total">   30.37   30.45</time>
   <energy>
    <i name="e_fr_energy">   -189.71710686 </i>
    <i name="e_wo_entrp">   -189.47726659 </i>
    <i name="e_0_energy">   -189.59718672 </i>
   </energy>
  </scstep>
  <scstep>
   <time name="dav">   26.47   26.54</time>
   <time name="total">   27.00   27.07</time>
   <energy>
    <i name="e_fr_energy">   -189.71696001 </i>
    <i name="e_wo_entrp">   -189.47743219 </i>
    <i name="e_0_energy">   -189.59719610 </i>
   </energy>
  </scstep>
  <scstep>
   <time name="dav">   27.63   27.70</time>
   <time name="total">   28.16   28.24</time>
   <energy>
    <i name="e_fr_energy">   -189.71717613 </i>
    <i name="e_wo_entrp">   -189.47739149 </i>
    <i name="e_0_energy">   -189.59728381 </i>
   </energy>
  </scstep>
  <scstep>
   <time name="dav">   25.65   25.71</time>
   <time name="total">   26.18   26.25</time>
   <energy>
    <i name="e_fr_energy">   -189.71757473 </i>
    <i name="e_wo_entrp">   -189.47788095 </i>
    <i name="e_0_energy">   -189.59772784 </i>
   </energy>
  </scstep>
  <scstep>
   <time name="dav">   24.93   24.99</time>
   <time name="total">   25.46   25.53</time>
   <energy>
    <i name="e_fr_energy">   -189.71699138 </i>
    <i name="e_wo_entrp">   -189.47723086 </i>
    <i name="e_0_energy">   -189.59711112 </i>
   </energy>
  </scstep>
  <scstep>
   <time name="dav">   16.81   16.85</time>
   <time name="total">   16.84   16.89</time>
   <energy>
    <i name="alphaZ">     82.35323718 </i>
    <i name="ewald">  41305.79129850 </i>
    <i name="hartreedc"> -47278.02584098 </i>
    <i name="XCdc">   -235.25360123 </i>
    <i name="pawpsdc">   4038.50837225 </i>
    <i name="pawaedc">  -3454.20485285 </i>
    <i name="eentropy">     -0.23969543 </i>
    <i name="bandstr">  -1410.08845562 </i>
    <i name="atom">   6761.44252427 </i>
    <i name="e_fr_energy">   -189.71701391 </i>
    <i name="e_wo_entrp">   -189.47731848 </i>
    <i name="e_0_energy">   -189.59716620 </i>
   </energy>
  </scstep>
  <structure>
   <crystal>
    <varray name="basis" >
     <v>       8.66907183       5.00227897       0.00000000 </v>
     <v>      -8.66521129       4.99563749       0.00000000 </v>
     <v>       0.00000000       0.00000000      30.00000000 </v>
    </varray>
    <i name="volume">   2599.60033474 </i>
    <varray name="rec_basis" >
     <v>       0.05765083       0.09999858       0.00000000 </v>
     <v>      -0.05772748       0.10004313       0.00000000 </v>
     <v>       0.00000000       0.00000000       0.03333333 </v>
    </varray>
   </crystal>
   <varray name="positions" >
    <v>       0.00050313       0.66854466      -0.00005858 </v>
    <v>       0.33589829       0.66969716      -0.00014824 </v>
    <v>      -0.00159348      -0.00192313       0.00017269 </v>
    <v>       0.66498679      -0.00160732       0.00016634 </v>
    <v>       0.66648880       0.66833292      -0.00004444 </v>
    <v>       0.33530747       0.00028199       0.00006344 </v>
    <v>       0.99825257       0.33177826      -0.00003875 </v>
    <v>       0.33534188       0.33322149      -0.00011975 </v>
    <v>       0.66453715       0.33131792      -0.00004587 </v>
    <v>       0.10939175       0.21863825       0.95202315 </v>
    <v>       0.21796026       0.10983998       0.04798217 </v>
    <v>       0.11255639       0.55878276       0.95323258 </v>
    <v>       0.22379402       0.44793961       0.04786358 </v>
    <v>       0.10654713       0.88671506       0.95317526 </v>
    <v>       0.22008112       0.77322148       0.04683893 </v>
    <v>       0.44495630       0.22332780       0.95056259 </v>
    <v>       0.55623301       0.11224155       0.04938859 </v>
    <v>       0.44112784       0.55674106       0.95195005 </v>
    <v>       0.55506311       0.44338761       0.04927698 </v>
    <v>       0.44187880       0.88395679       0.95179368 </v>
    <v>       0.55092871       0.77549581       0.04819030 </v>
    <v>       0.77824290       0.22325362       0.95075253 </v>
    <v>       0.89189141       0.10967963       0.04806460 </v>
    <v>       0.78164736       0.55651677       0.95207616 </v>
    <v>       0.89046609       0.44786098       0.04800561 </v>
    <v>       0.78230241       0.89104491       0.95192178 </v>
    <v>       0.89342323       0.77992681       0.04695450 </v>
   </varray>
  </structure>
  <varray name="forces" >
   <v>      -0.12095890       0.07549012      -0.07423813 </v>
   <v>       0.01219460       0.39913216       0.00519436 </v>
   <v>      -0.06750734      -0.22044591      -0.00231309 </v>
   <v>      -0.12946093      -0.09777016       0.00106896 </v>
   <v>      -0.22077032      -0.05386133      -0.07003997 </v>
   <v>       0.13730890       0.54226376       0.05552753 </v>
   <v>      -0.05638325      -0.33784738       0.02121535 </v>
   <v>       0.42923784       0.23188529       0.08357016 </v>
   <v>      -0.04200270      -0.47221522      -0.00218369 </v>
   <v>       0.04676404      -0.07052609      -0.35378770 </v>
   <v>      -0.07017760      -0.07870091       0.38936812 </v>
   <v>      -0.01351616       0.06308536      -0.26080081 </v>
   <v>      -0.03101061       0.06266745       0.20583472 </v>
   <v>      -0.02533363      -0.08239156      -0.34543169 </v>
   <v>       0.04339328      -0.10145837       0.37198924 </v>
   <v>      -0.02278145       0.02907303      -0.74580668 </v>
   <v>       0.00892097       0.04487736       0.75378678 </v>
   <v>      -0.11732475      -0.04403729      -0.53306436 </v>
   <v>       0.03527360      -0.01433343       0.55240565 </v>
   <v>       0.07580688      -0.14042058      -0.66280707 </v>
   <v>      -0.07875015      -0.13852620       0.65712951 </v>
   <v>      -0.02924817       0.00572144      -0.56849467 </v>
   <v>       0.10364187       0.00724747       0.54453510 </v>
   <v>       0.07496691       0.07991525      -0.34098837 </v>
   <v>      -0.03492450       0.06262027       0.35272956 </v>
   <v>       0.05823184       0.13746074      -0.52326261 </v>
   <v>       0.03440973       0.11109472       0.48886380 </v>
  </varray>
  <varray name="stress" >
   <v>     -10.19889664      -0.03988684      -0.03483754 </v>
   <v>      -0.03988670      -9.84951450      -0.02357566 </v>
   <v>      -0.03483749      -0.02357590       6.49407963 </v>
  </varray>
  <energy>
   <i name="e_fr_energy">   -189.71701391 </i>
   <i name="e_wo_entrp">   -189.59716620 </i>
   <i name="e_0_energy">     -0.23969543 </i>
  </energy>
  <time name="totalsc">  370.67  371.64</time>
 </calculation>
 <calculation>
  <scstep>
   <time name="dav">   21.59   21.65</time>
   <time name="total">   22.12   22.17</time>
   <energy>
    <i name="alphaZ">     85.86162357 </i>
    <i name="ewald">  42852.74942207 </i>
    <i name="hartreedc"> -48869.76711245 </i>
    <i name="XCdc">   -232.93658849 </i>
    <i name="pawpsdc">   4038.52638560 </i>
    <i name="pawaedc">  -3454.22004604 </i>
    <i name="eentropy">     -0.19608806 </i>
    <i name="bandstr">  -1372.74224376 </i>
    <i name="atom">   6761.44252427 </i>
    <i name="e_fr_energy">   -191.28212330 </i>
    <i name="e_wo_entrp">   -191.08603523 </i>
    <i name="e_0_energy">   -191.18407926 </i>
   </energy>
  </scstep>
  <scstep>
   <time name="dav">   32.37   32.45</time>
   <time name="total">   32.88   32.96</time>
   <energy>
    <i name="e_fr_energy">   -191.15719265 </i>
    <i name="e_wo_entrp">   -190.95463755 </i>
    <i name="e_0_energy">   -191.05591510 </i>
   </energy>
  </scstep>
  <scstep>
   <time name="dav">   29.94   30.01</time>
   <time name="total">   30.45   30.53</time>
   <energy>
    <i name="e_fr_energy">   -191.19699138 </i>
    <i name="e_wo_entrp">   -190.98048370 </i>
    <i name="e_0_energy">   -191.08873754 </i>
   </energy>
  </scstep>
  <scstep>
   <time name="dav">   30.66   30.73</time>
   <time name="total">   31.17   31.26</time>
   <energy>
    <i name="e_fr_energy">   -190.83765128 </i>
    <i name="e_wo_entrp">   -190.63347770 </i>
    <i name="e_0_energy">   -190.73556449 </i>
   </energy>
  </scstep>
  <scstep>
   <time name="dav">   29.37   29.44</time>
   <time name="total">   29.88   29.96</time>
   <energy>
    <i name="e_fr_energy">   -190.83339954 </i>
    <i name="e_wo_entrp">   -190.63549883 </i>
    <i name="e_0_energy">   -190.73444919 </i>
   </energy>
  </scstep>
  <scstep>
   <time name="dav">   29.72   29.79</time>
   <time name="total">   30.23   30.31</time>
   <energy>
    <i name="e_fr_energy">   -190.68852937 </i>
    <i name="e_wo_entrp">   -190.48443496 </i>
    <i name="e_0_energy">   -190.58648217 </i>
   </energy>
  </scstep>
  <scstep>
   <time name="dav">   30.09   30.16</time>
   <time name="total">   30.60   30.68</time>
   <energy>
    <i name="e_fr_energy">   -190.68307079 </i>
    <i name="e_wo_entrp">   -190.48104656 </i>
    <i name="e_0_energy">   -190.58205867 </i>
   </energy>
  </scstep>
  <scstep>
   <time name="dav">   28.84   28.91</time>
   <time name="total">   29.35   29.43</time>
   <energy>
    <i name="e_fr_energy">   -190.68154436 </i>
    <i name="e_wo_entrp">   -190.47930327 </i>
    <i name="e_0_energy">   -190.58042382 </i>
   </energy>
  </scstep>
  <scstep>
   <time name="dav">   28.12   28.19</time>
   <time name="total">   28.64   28.71</time>
   <energy>
    <i name="e_fr_energy">   -190.67935164 </i>
    <i name="e_wo_entrp">   -190.47700424 </i>
    <i name="e_0_energy">   -190.57817794 </i>
   </energy>
  </scstep>
  <scstep>
   <time name="dav">   26.30   26.36</time>
   <time name="total">   26.81   26.89</time>
   <energy>
    <i name="e_fr_energy">   -190.67962387 </i>
    <i name="e_wo_entrp">   -190.47699259 </i>
    <i name="e_0_energy">   -190.57830823 </i>
   </energy>
  </scstep>
  <scstep>
   <time name="dav">   26.44   26.51</time>
   <time name="total">   26.96   27.03</time>
   <energy>
    <i name="e_fr_energy">   -190.67946390 </i>
    <i name="e_wo_entrp">   -190.47705912 </i>
    <i name="e_0_energy">   -190.57826151 </i>
   </energy>
  </scstep>
  <scstep>
   <time name="dav">   19.75   19.80</time>
   <time name="total">   19.79   19.84</time>
   <energy>
    <i name="alphaZ">     85.86162357 </i>
    <i name="ewald">  42852.74942207 </i>
    <i name="hartreedc"> -48840.96842132 </i>
    <i name="XCdc">   -234.28257192 </i>
    <i name="pawpsdc">   4063.65735098 </i>
    <i name="pawaedc">  -3479.53269159 </i>
    <i name="eentropy">     -0.20242351 </i>
    <i name="bandstr">  -1399.40427036 </i>
    <i name="atom">   6761.44252427 </i>
    <i name="e_fr_energy">   -190.67945780 </i>
    <i name="e_wo_entrp">   -190.47703430 </i>
    <i name="e_0_energy">   -190.57824605 </i>
   </energy>
  </scstep>
  <structure>
   <crystal>
    <varray name="basis" >
     <v>       8.48406252       4.90032622       0.00000000 </v>
     <v>      -8.48217038       4.89708859       0.00000000 </v>
     <v>       0.00000000       0.00000000      30.00000000 </v>
    </varray>
    <i name="volume">   2493.37822931 </i>
    <varray name="rec_basis" >
     <v>       0.05892113       0.10205636       0.00000000 </v>
     <v>      -0.05896008       0.10207913       0.00000000 </v>
     <v>       0.00000000       0.00000000       0.03333333 </v>
    </varray>
   </crystal>
   <varray name="positions" >
    <v>       0.00045243       0.66931663      -0.00021398 </v>
    <v>       0.33848567       0.67209714      -0.00012020 </v>
    <v>      -0.00324045      -0.00293845       0.00014664 </v>
    <v>       0.66397287      -0.00156732       0.00014889 </v>
    <v>       0.66522544       0.66864024      -0.00018834 </v>
    <v>       0.33945132       0.00351949       0.00016954 </v>
    <v>       0.99583416       0.32979354       0.00000960 </v>
    <v>       0.33848788       0.33309406       0.00006853 </v>
    <v>       0.66126534       0.32837059      -0.00004928 </v>
    <v>       0.10893529       0.21759129       0.95086790 </v>
    <v>       0.21689848       0.10925007       0.04920770 </v>
    <v>       0.11313779       0.55967914       0.95230806 </v>
    <v>       0.22428449       0.44886586       0.04869865 </v>
    <v>       0.10579754       0.88623645       0.95209001 </v>
    <v>       0.21950989       0.77223509       0.04798607 </v>
    <v>       0.44493868       0.22333275       0.94850865 </v>
    <v>       0.55645163       0.11225797       0.05143952 </v>
    <v>       0.44042804       0.55722373       0.95041329 </v>
    <v>       0.55526422       0.44343720       0.05090193 </v>
    <v>       0.44119134       0.88262402       0.94999213 </v>
    <v>       0.54955534       0.77480403       0.04997989 </v>
    <v>       0.77801653       0.22313500       0.94909453 </v>
    <v>       0.89225190       0.10895594       0.04963026 </v>
    <v>       0.78271834       0.55705217       0.95096378 </v>
    <v>       0.89090177       0.44881227       0.04916471 </v>
    <v>       0.78357896       0.89182233       0.95042270 </v>
    <v>       0.89441958       0.78057325       0.04835872 </v>
   </varray>
  </structure>
  <varray name="forces" >
   <v>      -0.07266982       0.05820127      -0.04901834 </v>
   <v>       0.02039535       0.36878535       0.05218938 </v>
   <v>      -0.15277873      -0.21974438      -0.04854209 </v>
   <v>      -0.15038838      -0.02305109      -0.02439701 </v>
   <v>      -0.22724156      -0.06807223      -0.03204694 </v>
   <v>       0.09395041       0.60867203       0.01027062 </v>
   <v>      -0.10847350      -0.38240438       0.02833946 </v>
   <v>       0.53433463       0.25803411       0.05173965 </v>
   <v>      -0.03163773      -0.53377066       0.00617742 </v>
   <v>       0.05491766      -0.01872350      -0.15518621 </v>
   <v>       0.02855751      -0.02887529       0.25429527 </v>
   <v>       0.01482488       0.02517032      -0.17499031 </v>
   <v>      -0.00154024       0.01820524       0.01908017 </v>
   <v>       0.02955802       0.04935854      -0.21806251 </v>
   <v>      -0.00997264       0.04011389       0.24910240 </v>
   <v>       0.01991929      -0.01503899      -0.62183841 </v>
   <v>       0.04909285       0.01068534       0.61580598 </v>
   <v>      -0.04553343      -0.02497853      -0.38335342 </v>
   <v>       0.02381920       0.07000834       0.40303519 </v>
   <v>       0.01180167      -0.01799123      -0.48117216 </v>
   <v>      -0.04797740      -0.03009576       0.46317553 </v>
   <v>      -0.01551832      -0.06300512      -0.40929602 </v>
   <v>       0.04323044      -0.07967127       0.41574457 </v>
   <v>       0.01235015      -0.01276868      -0.19110724 </v>
   <v>      -0.05429109      -0.01376701       0.20997324 </v>
   <v>      -0.00173675       0.01948115      -0.36598469 </v>
   <v>      -0.01699246       0.00524256       0.37606649 </v>
  </varray>
  <varray name="stress" >
   <v>      -5.78579953       0.07945849      -0.05656595 </v>
   <v>       0.07945840      -5.72851944       0.05319174 </v>
   <v>      -0.05656583       0.05319185       4.56448793 </v>
  </varray>
  <energy>
   <i name="e_fr_energy">   -190.67945780 </i>
   <i name="e_wo_entrp">   -190.57824605 </i>
   <i name="e_0_energy">     -0.20242351 </i>
  </energy>
  <time name="totalsc">  381.42  382.41</time>
 </calculation>
 <calculation>
  <scstep>
   <time name="dav">   21.63   21.69</time>
   <time name="total">   22.14   22.19</time>
   <energy>
    <i name="alphaZ">     90.23224236 </i>
    <i name="ewald">  44691.63710068 </i>
    <i name="hartreedc"> -50735.39649879 </i>
    <i name="XCdc">   -231.81643162 </i>
    <i name="pawpsdc">   4063.60477726 </i>
    <i name="pawaedc">  -3479.47498246 </i>
    <i name="eentropy">     -0.18024984 </i>
    <i name="bandstr">  -1352.11252385 </i>
    <i name="atom">   6761.44252427 </i>
    <i name="e_fr_energy">   -192.06404198 </i>
    <i name="e_wo_entrp">   -191.88379214 </i>
    <i name="e_0_energy">   -191.97391706 </i>
   </energy>
  </scstep>
  <scstep>
   <time name="dav">   29.49   29.56</time>
   <time name="total">   29.99   30.07</time>
   <energy>
    <i name="e_fr_energy">   -191.84182095 </i>
    <i name="e_wo_entrp">   -191.64961691 </i>
    <i name="e_0_energy">   -191.74571893 </i>
   </energy>
  </scstep>
  <scstep>
   <time name="dav">   29.76   29.84</time>
   <time name="total">   30.27   30.35</time>
   <energy>
    <i name="e_fr_energy">   -192.22541050 </i>
    <i name="e_wo_entrp">   -192.02407924 </i>
    <i name="e_0_energy">   -192.12474487 </i>
   </energy>
  </scstep>
  <scstep>
   <time name="dav">   29.68   29.75</time>
   <time name="total">   30.19   30.27</time>
   <energy>
    <i name="e_fr_energy">   -191.56109599 </i>
    <i name="e_wo_entrp">   -191.37342836 </i>
    <i name="e_0_energy">   -191.46726218 </i>
   </energy>
  </scstep>
  <scstep>
   <time name="dav">   29.92   29.99</time>
   <time name="total">   30.43   30.51</time>
   <energy>
    <i name="e_fr_energy">   -191.38800281 </i>
    <i name="e_wo_entrp">   -191.20217140 </i>
    <i name="e_0_energy">   -191.29508710 </i>
   </energy>
  </scstep>
  <scstep>
   <time name="dav">   30.56   30.63</time>
   <time name="total">   31.06   31.14</time>
   <energy>
    <i name="e_fr_energy">   -191.37117575 </i>
    <i name="e_wo_entrp">   -191.17723648 </i>
    <i name="e_0_energy">   -191.27420611 </i>
   </energy>
  </scstep>
  <scstep>
   <time name="dav">   29.86   29.94</time>
   <time name="total">   30.37   30.45</time>
   <energy>
    <i name="e_fr_energy">   -191.34723694 </i>
    <i name="e_wo_entrp">   -191.16031959 </i>
    <i name="e_0_energy">   -191.25377827 </i>
   </energy>
  </scstep>
  <scstep>
   <time name="dav">   27.76   27.83</time>
   <time name="total">   28.26   28.34</time>
   <energy>
    <i name="e_fr_energy">   -191.33987437 </i>
    <i name="e_wo_entrp">   -191.15150460 </i>
    <i name="e_0_energy">   -191.24568948 </i>
   </energy>
  </scstep>
  <scstep>
   <time name="dav">   30.53   30.61</time>
   <time name="total">   31.04   31.12</time>
   <energy>
    <i name="e_fr_energy">   -191.34119174 </i>
    <i name="e_wo_entrp">   -191.15250976 </i>
    <i name="e_0_energy">   -191.24685075 </i>
   </energy>
  </scstep>
  <scstep>
   <time name="dav">   28.10   28.17</time>
   <time name="total">   28.61   28.68</time>
   <energy>
    <i name="e_fr_energy">   -191.34016169 </i>
    <i name="e_wo_entrp">   -191.15155224 </i>
    <i name="e_0_energy">   -191.24585696 </i>
   </energy>
  </scstep>
  <scstep>
   <time name="dav">   26.32   26.39</time>
   <time name="total">   26.83   26.90</time>
   <energy>
    <i name="e_fr_energy">   -191.33999506 </i>
    <i name="e_wo_entrp">   -191.15133036 </i>
    <i name="e_0_energy">   -191.24566271 </i>
   </energy>
  </scstep>
  <scstep>
   <time name="dav">   20.19   20.24</time>
   <time name="total">   20.23   20.28</time>
   <energy>
    <i name="alphaZ">     90.23224236 </i>
    <i name="ewald">  44691.63710068 </i>
    <i name="hartreedc"> -50701.19723534 </i>
    <i name="XCdc">   -233.35930154 </i>
    <i name="pawpsdc">   4084.64528268 </i>
    <i name="pawaedc">  -3500.58689334 </i>
    <i name="eentropy">     -0.18864177 </i>
    <i name="bandstr">  -1383.96503954 </i>
    <i name="atom">   6761.44252427 </i>
    <i name="e_fr_energy">   -191.33996154 </i>
    <i name="e_wo_entrp">   -191.15131977 </i>
    <i name="e_0_energy">   -191.24564066 </i>
   </energy>
  </scstep>
  <structure>
   <crystal>
    <varray name="basis" >
     <v>       8.27573286       4.78477382       0.00000000 </v>
     <v>      -8.27005779       4.77498373       0.00000000 </v>
     <v>       0.00000000       0.00000000      30.00000000 </v>
    </varray>
    <i name="volume">   2372.60537172 </i>
    <varray name="rec_basis" >
     <v>       0.06037646       0.10456932       0.00000000 </v>
     <v>      -0.06050025       0.10464108       0.00000000 </v>
     <v>       0.00000000       0.00000000       0.03333333 </v>
    </varray>
   </crystal>
   <varray name="positions" >
    <v>       0.00053417       0.67045752      -0.00042465 </v>
    <v>       0.34323126       0.67645626       0.00008268 </v>
    <v>      -0.00695153      -0.00448947      -0.00004667 </v>
    <v>       0.66260170      -0.00071859       0.00004261 </v>
    <v>       0.66267089       0.66925397      -0.00033494 </v>
    <v>       0.34777764       0.01053516       0.00022432 </v>
    <v>       0.99040242       0.32582438       0.00012384 </v>
    <v>       0.34543614       0.33250010       0.00030913 </v>
    <v>       0.65442048       0.32201622      -0.00002781 </v>
    <v>       0.10878984       0.21639605       0.94965875 </v>
    <v>       0.21620847       0.10830462       0.05077419 </v>
    <v>       0.11385572       0.56049112       0.95112371 </v>
    <v>       0.22478262       0.44968481       0.04934322 </v>
    <v>       0.10617665       0.88640402       0.95072861 </v>
    <v>       0.21964081       0.77228884       0.04947670 </v>
    <v>       0.44479275       0.22282373       0.94537959 </v>
    <v>       0.55683834       0.11186977       0.05452954 </v>
    <v>       0.43970097       0.55766070       0.94830898 </v>
    <v>       0.55634766       0.44428133       0.05313975 </v>
    <v>       0.44081956       0.88185196       0.94748549 </v>
    <v>       0.54838610       0.77450039       0.05242113 </v>
    <v>       0.77705729       0.22230197       0.94682686 </v>
    <v>       0.89171608       0.10730945       0.05185844 </v>
    <v>       0.78320625       0.55725318       0.94965613 </v>
    <v>       0.89068955       0.44963182       0.05056946 </v>
    <v>       0.78429265       0.89235604       0.94840356 </v>
    <v>       0.89478996       0.78096911       0.05036729 </v>
   </varray>
  </structure>
  <varray name="forces" >
   <v>       0.01117918       0.10821501      -0.05272689 </v>
   <v>      -0.02803075       0.34178206       0.00580451 </v>
   <v>      -0.24802581      -0.30615919      -0.01349217 </v>
   <v>      -0.01200067       0.08596963       0.03877072 </v>
   <v>      -0.18828305      -0.00813650       0.02471344 </v>
   <v>       0.03367495       0.29850764      -0.02248022 </v>
   <v>      -0.24710488      -0.45367791       0.04638214 </v>
   <v>       0.46943620       0.22400277      -0.05327663 </v>
   <v>       0.07209797      -0.27947056       0.06654941 </v>
   <v>       0.03164384       0.08043440       0.18539832 </v>
   <v>       0.13392761       0.07125105      -0.06921392 </v>
   <v>       0.06581753      -0.03011936       0.09984229 </v>
   <v>       0.11632038      -0.07684678      -0.31536839 </v>
   <v>       0.04417587       0.18491468       0.09132772 </v>
   <v>      -0.06403759       0.19878044      -0.01073481 </v>
   <v>       0.02962677      -0.00048028      -0.35909703 </v>
   <v>       0.09116460       0.01424891       0.28322512 </v>
   <v>       0.04002872      -0.04615868      -0.04977529 </v>
   <v>       0.09514185       0.13780677       0.15316322 </v>
   <v>      -0.06898075       0.10159492      -0.12637093 </v>
   <v>      -0.02310487       0.07780763       0.13150022 </v>
   <v>      -0.07433404      -0.09695476      -0.19822124 </v>
   <v>      -0.01740120      -0.12430934       0.13462775 </v>
   <v>      -0.04206271      -0.17607644       0.12086111 </v>
   <v>      -0.07455588      -0.15550188      -0.02183545 </v>
   <v>      -0.08086509      -0.10522105      -0.11810590 </v>
   <v>      -0.06544815      -0.06620315       0.02853289 </v>
  </varray>
  <varray name="stress" >
   <v>      -0.30633372       0.18481332       0.27760951 </v>
   <v>       0.18481333       0.11811842       0.18656750 </v>
   <v>       0.27760952       0.18656761      -0.43393410 </v>
  </varray>
  <energy>
   <i name="e_fr_energy">   -191.33996154 </i>
   <i name="e_wo_entrp">   -191.24564066 </i>
   <i name="e_0_energy">     -0.18864177 </i>
  </energy>
  <time name="totalsc">  381.39  382.38</time>
 </calculation>
 <calculation>
  <scstep>
   <time name="dav">   21.57   21.62</time>
   <time name="total">   22.07   22.12</time>
   <energy>
    <i name="alphaZ">     90.31745093 </i>
    <i name="ewald">  44707.98696005 </i>
    <i name="hartreedc"> -50719.27061803 </i>
    <i name="XCdc">   -233.39214262 </i>
    <i name="pawpsdc">   4084.53901714 </i>
    <i name="pawaedc">  -3500.47548865 </i>
    <i name="eentropy">     -0.18942622 </i>
    <i name="bandstr">  -1382.38494796 </i>
    <i name="atom">   6761.44252427 </i>
    <i name="e_fr_energy">   -191.42667108 </i>
    <i name="e_wo_entrp">   -191.23724486 </i>
    <i name="e_0_energy">   -191.33195797 </i>
   </energy>
  </scstep>
  <scstep>
   <time name="dav">   32.06   32.13</time>
   <time name="total">   32.56   32.64</time>
   <energy>
    <i name="e_fr_energy">   -191.48932833 </i>
    <i name="e_wo_entrp">   -191.28875602 </i>
    <i name="e_0_energy">   -191.38904217 </i>
   </energy>
  </scstep>
  <scstep>
   <time name="dav">   30.21   30.28</time>
   <time name="total">   30.71   30.79</time>
   <energy>
    <i name="e_fr_energy">   -191.44246438 </i>
    <i name="e_wo_entrp">   -191.25242502 </i>
    <i name="e_0_energy">   -191.34744470 </i>
   </energy>
  </scstep>
  <scstep>
   <time name="dav">   28.84   28.91</time>
   <time name="total">   29.34   29.42</time>
   <energy>
    <i name="e_fr_energy">   -191.44289356 </i>
    <i name="e_wo_entrp">   -191.25181236 </i>
    <i name="e_0_energy">   -191.34735296 </i>
   </energy>
  </scstep>
  <scstep>
   <time name="dav">   28.84   28.91</time>
   <time name="total">   29.34   29.42</time>
   <energy>
    <i name="e_fr_energy">   -191.43753185 </i>
    <i name="e_wo_entrp">   -191.24618817 </i>
    <i name="e_0_energy">   -191.34186001 </i>
   </energy>
  </scstep>
  <scstep>
   <time name="dav">   27.33   27.39</time>
   <time name="total">   27.83   27.90</time>
   <energy>
    <i name="e_fr_energy">   -191.43708029 </i>
    <i name="e_wo_entrp">   -191.24548808 </i>
    <i name="e_0_energy">   -191.34128419 </i>
   </energy>
  </scstep>
  <scstep>
   <time name="dav">   26.20   26.26</time>
   <time name="total">   26.70   26.78</time>
   <energy>
    <i name="e_fr_energy">   -191.43684537 </i>
    <i name="e_wo_entrp">   -191.24507160 </i>
    <i name="e_0_energy">   -191.34095848 </i>
   </energy>
  </scstep>
  <scstep>
   <time name="dav">   24.26   24.32</time>
   <time name="total">   24.30   24.36</time>
   <energy>
    <i name="alphaZ">     90.31745093 </i>
    <i name="ewald">  44707.98696005 </i>
    <i name="hartreedc"> -50719.53964320 </i>
    <i name="XCdc">   -233.39715926 </i>
    <i name="pawpsdc">   4083.04866482 </i>
    <i name="pawaedc">  -3498.95408456 </i>
    <i name="eentropy">     -0.19158762 </i>
    <i name="bandstr">  -1382.14992580 </i>
    <i name="atom">   6761.44252427 </i>
    <i name="e_fr_energy">   -191.43680037 </i>
    <i name="e_wo_entrp">   -191.24521275 </i>
    <i name="e_0_energy">   -191.34100656 </i>
   </energy>
  </scstep>
  <structure>
   <crystal>
    <varray name="basis" >
     <v>       8.26944824       4.78947728       0.00000000 </v>
     <v>      -8.25894629       4.77132158       0.00000000 </v>
     <v>       0.00000000       0.00000000      30.00000000 </v>
    </varray>
    <i name="volume">   2370.36697475 </i>
    <varray name="rec_basis" >
     <v>       0.06038713       0.10452744       0.00000000 </v>
     <v>      -0.06061691       0.10466035       0.00000000 </v>
     <v>       0.00000000       0.00000000       0.03333333 </v>
    </varray>
   </crystal>
   <varray name="positions" >
    <v>       0.00112703       0.67099997      -0.00051481 </v>
    <v>       0.34498575       0.67837276       0.00009520 </v>
    <v>      -0.00932909      -0.00535388      -0.00007176 </v>
    <v>       0.66298974      -0.00022469       0.00010484 </v>
    <v>       0.66202779       0.66978255      -0.00029657 </v>
    <v>       0.34954692       0.01208499       0.00018823 </v>
    <v>       0.98723904       0.32415707       0.00020198 </v>
    <v>       0.34809857       0.33224628       0.00022523 </v>
    <v>       0.65308855       0.32026014       0.00008214 </v>
    <v>       0.10929494       0.21669404       0.94994048 </v>
    <v>       0.21696099       0.10825474       0.05068883 </v>
    <v>       0.11391016       0.56015655       0.95126585 </v>
    <v>       0.22474279       0.44895731       0.04883873 </v>
    <v>       0.10726578       0.88722873       0.95085405 </v>
    <v>       0.22047637       0.77350447       0.04948604 </v>
    <v>       0.44487551       0.22272325       0.94473501 </v>
    <v>       0.55718895       0.11166334       0.05504835 </v>
    <v>       0.43957005       0.55731285       0.94819006 </v>
    <v>       0.55736073       0.44472374       0.05343158 </v>
    <v>       0.44113103       0.88256775       0.94723426 </v>
    <v>       0.54869744       0.77496478       0.05267990 </v>
    <v>       0.77631917       0.22200867       0.94646028 </v>
    <v>       0.89101488       0.10669035       0.05211898 </v>
    <v>       0.78218320       0.55647551       0.94983050 </v>
    <v>       0.88966334       0.44906853       0.05055994 </v>
    <v>       0.78352275       0.89206430       0.94817345 </v>
    <v>       0.89426208       0.78083036       0.05044912 </v>
   </varray>
  </structure>
  <varray name="forces" >
   <v>       0.03365633       0.16299050      -0.10396238 </v>
   <v>      -0.07457240       0.39072563      -0.00186010 </v>
   <v>      -0.24874883      -0.34397667      -0.02205960 </v>
   <v>       0.02697395       0.08314924       0.01165353 </v>
   <v>      -0.22288401      -0.00718877       0.00410631 </v>
   <v>       0.08327428       0.29386219      -0.00263670 </v>
   <v>      -0.32824738      -0.52127140       0.02506154 </v>
   <v>       0.49669949       0.27772524      -0.00342308 </v>
   <v>       0.10164688      -0.28401442       0.00901647 </v>
   <v>       0.00523214       0.06647664       0.24233160 </v>
   <v>       0.07545651       0.05108434      -0.12711667 </v>
   <v>       0.07020561      -0.03005855       0.15906434 </v>
   <v>       0.08510626      -0.08988483      -0.39796482 </v>
   <v>       0.00793187       0.12623555       0.12641492 </v>
   <v>      -0.03439675       0.13188562      -0.02845355 </v>
   <v>       0.05422895       0.02962017      -0.25478512 </v>
   <v>       0.07589453      -0.00672938       0.19931023 </v>
   <v>       0.01968220      -0.02984773      -0.01148739 </v>
   <v>       0.07599581       0.09726057       0.08242248 </v>
   <v>      -0.02367392       0.07653829      -0.09408976 </v>
   <v>      -0.03125450       0.04375362       0.11573558 </v>
   <v>      -0.05306274      -0.07973635      -0.17427364 </v>
   <v>      -0.00722289      -0.08796880       0.15160811 </v>
   <v>      -0.02288347      -0.12150549       0.18632379 </v>
   <v>      -0.06244900      -0.10538241       0.00848766 </v>
   <v>      -0.05530352      -0.08207544      -0.10120550 </v>
   <v>      -0.04728539      -0.04166739       0.00178176 </v>
  </varray>
  <varray name="stress" >
   <v>       0.05767127       0.05964529       0.13853721 </v>
   <v>       0.05964527       0.09516594       0.04384239 </v>
   <v>       0.13853730       0.04384226      -1.22657134 </v>
  </varray>
  <energy>
   <i name="e_fr_energy">   -191.43680037 </i>
   <i name="e_wo_entrp">   -191.34100656 </i>
   <i name="e_0_energy">     -0.19158762 </i>
  </energy>
  <time name="totalsc">  264.64  265.32</time>
 </calculation>
 <calculation>
  <scstep>
   <time name="dav">   21.58   21.64</time>
   <time name="total">   22.09   22.14</time>
   <energy>
    <i name="alphaZ">     90.29929381 </i>
    <i name="ewald">  44700.81093432 </i>
    <i name="hartreedc"> -50712.10877776 </i>
    <i name="XCdc">   -233.40538309 </i>
    <i name="pawpsdc">   4083.04385113 </i>
    <i name="pawaedc">  -3498.94937900 </i>
    <i name="eentropy">     -0.19118568 </i>
    <i name="bandstr">  -1382.40185834 </i>
    <i name="atom">   6761.44252427 </i>
    <i name="e_fr_energy">   -191.45998033 </i>
    <i name="e_wo_entrp">   -191.26879465 </i>
    <i name="e_0_energy">   -191.36438749 </i>
   </energy>
  </scstep>
  <scstep>
   <time name="dav">   32.85   32.93</time>
   <time name="total">   33.35   33.44</time>
   <energy>
    <i name="e_fr_energy">   -191.46326512 </i>
    <i name="e_wo_entrp">   -191.26934648 </i>
    <i name="e_0_energy">   -191.36630580 </i>
   </energy>
  </scstep>
  <scstep>
   <time name="dav">   28.35   28.41</time>
   <time name="total">   28.85   28.93</time>
   <energy>
    <i name="e_fr_energy">   -191.46063171 </i>
    <i name="e_wo_entrp">   -191.26932623 </i>
    <i name="e_0_energy">   -191.36497897 </i>
   </energy>
  </scstep>
  <scstep>
   <time name="dav">   25.43   25.49</time>
   <time name="total">   25.94   26.01</time>
   <energy>
    <i name="e_fr_energy">   -191.46079891 </i>
    <i name="e_wo_entrp">   -191.26928210 </i>
    <i name="e_0_energy">   -191.36504051 </i>
   </energy>
  </scstep>
  <scstep>
   <time name="dav">   22.78   22.83</time>
   <time name="total">   23.28   23.35</time>
   <energy>
    <i name="e_fr_energy">   -191.46045603 </i>
    <i name="e_wo_entrp">   -191.26882424 </i>
    <i name="e_0_energy">   -191.36464013 </i>
   </energy>
  </scstep>
  <scstep>
[...]
      <set comment="kpoint 31">
       <r>  -17.5658    1.0000 </r>
       <r>  -17.2218    1.0000 </r>
       <r>  -16.9237    1.0000 </r>
       <r>  -16.6072    1.0000 </r>
       <r>  -16.5226    1.0000 </r>
       <r>  -16.4784    1.0000 </r>
       <r>  -16.2613    1.0000 </r>
       <r>  -16.2157    1.0000 </r>
       <r>  -16.1465    1.0000 </r>
       <r>  -16.0489    1.0000 </r>
       <r>  -15.9519    1.0000 </r>
       <r>  -15.8799    1.0000 </r>
       <r>  -15.7683    1.0000 </r>
       <r>  -15.6300    1.0000 </r>
       <r>  -15.5644    1.0000 </r>
       <r>  -15.4957    1.0000 </r>
       <r>  -15.4297    1.0000 </r>
       <r>  -15.2626    1.0000 </r>
       <r>   -9.7728    1.0000 </r>
       <r>   -9.5273    1.0000 </r>
       <r>   -9.2508    1.0000 </r>
       <r>   -9.0397    1.0000 </r>
       <r>   -8.8932    1.0000 </r>
       <r>   -8.7086    1.0000 </r>
       <r>   -8.5691    1.0000 </r>
       <r>   -8.5043    1.0000 </r>
       <r>   -8.4131    1.0000 </r>
       <r>   -8.3488    1.0000 </r>
       <r>   -8.2896    1.0000 </r>
       <r>   -8.1992    1.0000 </r>
       <r>   -8.1572    1.0000 </r>
       <r>   -8.0178    1.0000 </r>
       <r>   -7.9034    1.0000 </r>
       <r>   -7.8693    1.0000 </r>
       <r>   -7.7903    1.0000 </r>
       <r>   -7.7019    1.0000 </r>
       <r>   -7.5648    1.0000 </r>
       <r>   -7.4808    1.0000 </r>
       <r>   -7.3364    1.0000 </r>
       <r>   -7.2680    1.0000 </r>
       <r>   -7.2072    1.0000 </r>
       <r>   -7.0624    1.0000 </r>
       <r>   -6.9921    1.0000 </r>
       <r>   -6.9431    1.0000 </r>
       <r>   -6.8372    1.0000 </r>
       <r>   -6.7472    1.0000 </r>
       <r>   -6.6631    1.0000 </r>
       <r>   -6.6016    1.0000 </r>
       <r>   -6.5724    1.0000 </r>
       <r>   -6.5263    1.0000 </r>
       <r>   -6.4281    1.0000 </r>
       <r>   -6.3417    1.0000 </r>
       <r>   -6.2782    1.0000 </r>
       <r>   -6.1808    1.0000 </r>
       <r>   -6.0833    1.0000 </r>
       <r>   -5.9961    1.0000 </r>
       <r>   -5.9794    1.0000 </r>
       <r>   -5.8974    1.0000 </r>
       <r>   -5.8472    1.0000 </r>
       <r>   -5.7742    1.0000 </r>
       <r>   -5.7396    1.0000 </r>
       <r>   -5.5596    1.0000 </r>
       <r>   -5.5167    1.0000 </r>
       <r>   -5.4495    1.0000 </r>
       <r>   -5.3478    1.0000 </r>
       <r>   -5.1130    1.0000 </r>
       <r>   -5.0452    1.0000 </r>
       <r>   -4.8995    1.0000 </r>
       <r>   -4.7648    1.0000 </r>
       <r>   -4.7078    1.0000 </r>
       <r>   -4.5884    1.0000 </r>
       <r>   -4.3743    1.0000 </r>
       <r>   -4.2801    1.0000 </r>
       <r>   -4.2051    1.0000 </r>
       <r>   -4.0482    1.0000 </r>
       <r>   -3.8056    0.9996 </r>
       <r>   -3.7516    0.9985 </r>
       <r>   -3.7112    0.9963 </r>
       <r>   -3.5451    0.9335 </r>
       <r>   -3.4819    0.8545 </r>
       <r>   -3.1002    0.0502 </r>
       <r>   -2.8065    0.0001 </r>
       <r>   -2.6944    0.0000 </r>
       <r>   -2.6671    0.0000 </r>
       <r>   -2.5624    0.0000 </r>
       <r>   -2.4849    0.0000 </r>
       <r>   -2.2928    0.0000 </r>
       <r>   -2.1079    0.0000 </r>
       <r>   -2.0000    0.0000 </r>
       <r>   -1.8879    0.0000 </r>
       <r>   -1.5814    0.0000 </r>
       <r>   -1.5402    0.0000 </r>
       <r>   -1.3913    0.0000 </r>
       <r>   -1.3449    0.0000 </r>
       <r>   -1.2498    0.0000 </r>
       <r>   -1.1925    0.0000 </r>
       <r>   -1.1224    0.0000 </r>
       <r>   -1.0603    0.0000 </r>
       <r>   -0.9887    0.0000 </r>
       <r>   -0.8683    0.0000 </r>
       <r>   -0.8193    0.0000 </r>
       <r>   -0.7599    0.0000 </r>
       <r>   -0.6385    0.0000 </r>
       <r>   -0.5346    0.0000 </r>
       <r>   -0.4067    0.0000 </r>
       <r>   -0.2669    0.0000 </r>
       <r>   -0.2330    0.0000 </r>
       <r>   -0.0963    0.0000 </r>
       <r>   -0.0187    0.0000 </r>
       <r>    0.0660    0.0000 </r>
       <r>    0.3549    0.0000 </r>
       <r>    0.5764    0.0000 </r>
       <r>    0.7823    0.0000 </r>
       <r>    1.0338    0.0000 </r>
       <r>    1.1330    0.0000 </r>
       <r>    1.2778    0.0000 </r>
       <r>    1.3568    0.0000 </r>
       <r>    2.1388    0.0000 </r>
       <r>    2.2921    0.0000 </r>
       <r>    2.4007    0.0000 </r>
      </set>
      <set comment="kpoint 32">
       <r>  -17.5561    1.0000 </r>
       <r>  -17.1982    1.0000 </r>
       <r>  -17.0143    1.0000 </r>
       <r>  -16.6029    1.0000 </r>
       <r>  -16.4992    1.0000 </r>
       <r>  -16.3456    1.0000 </r>
       <r>  -16.2853    1.0000 </r>
       <r>  -16.2567    1.0000 </r>
       <r>  -16.1819    1.0000 </r>
       <r>  -16.0360    1.0000 </r>
       <r>  -15.9519    1.0000 </r>
       <r>  -15.8995    1.0000 </r>
       <r>  -15.7884    1.0000 </r>
       <r>  -15.6157    1.0000 </r>
       <r>  -15.5732    1.0000 </r>
       <r>  -15.4765    1.0000 </r>
       <r>  -15.4335    1.0000 </r>
       <r>  -15.2583    1.0000 </r>
       <r>   -9.7219    1.0000 </r>
       <r>   -9.6216    1.0000 </r>
       <r>   -9.3324    1.0000 </r>
       <r>   -8.9879    1.0000 </r>
       <r>   -8.7472    1.0000 </r>
       <r>   -8.6386    1.0000 </r>
       <r>   -8.5601    1.0000 </r>
       <r>   -8.4688    1.0000 </r>
       <r>   -8.4004    1.0000 </r>
       <r>   -8.3425    1.0000 </r>
       <r>   -8.3141    1.0000 </r>
       <r>   -8.2832    1.0000 </r>
       <r>   -8.2029    1.0000 </r>
       <r>   -8.0537    1.0000 </r>
       <r>   -7.9897    1.0000 </r>
       <r>   -7.8769    1.0000 </r>
       <r>   -7.8489    1.0000 </r>
       <r>   -7.6375    1.0000 </r>
       <r>   -7.5267    1.0000 </r>
       <r>   -7.4682    1.0000 </r>
       <r>   -7.3281    1.0000 </r>
       <r>   -7.2619    1.0000 </r>
       <r>   -7.1912    1.0000 </r>
       <r>   -7.1174    1.0000 </r>
       <r>   -6.9935    1.0000 </r>
       <r>   -6.9360    1.0000 </r>
       <r>   -6.8496    1.0000 </r>
       <r>   -6.7768    1.0000 </r>
       <r>   -6.6816    1.0000 </r>
       <r>   -6.6247    1.0000 </r>
       <r>   -6.5696    1.0000 </r>
       <r>   -6.5128    1.0000 </r>
       <r>   -6.3969    1.0000 </r>
       <r>   -6.3533    1.0000 </r>
       <r>   -6.2709    1.0000 </r>
       <r>   -6.1347    1.0000 </r>
       <r>   -6.0639    1.0000 </r>
       <r>   -6.0138    1.0000 </r>
       <r>   -5.9442    1.0000 </r>
       <r>   -5.9137    1.0000 </r>
       <r>   -5.8166    1.0000 </r>
       <r>   -5.7102    1.0000 </r>
       <r>   -5.6592    1.0000 </r>
       <r>   -5.6083    1.0000 </r>
       <r>   -5.5083    1.0000 </r>
       <r>   -5.4480    1.0000 </r>
       <r>   -5.3042    1.0000 </r>
       <r>   -5.2635    1.0000 </r>
       <r>   -5.0045    1.0000 </r>
       <r>   -4.9109    1.0000 </r>
       <r>   -4.8040    1.0000 </r>
       <r>   -4.7407    1.0000 </r>
       <r>   -4.5285    1.0000 </r>
       <r>   -4.4788    1.0000 </r>
       <r>   -4.2622    1.0000 </r>
       <r>   -4.1868    1.0000 </r>
       <r>   -4.0239    1.0000 </r>
       <r>   -3.8568    0.9999 </r>
       <r>   -3.7773    0.9992 </r>
       <r>   -3.6918    0.9945 </r>
       <r>   -3.5320    0.9208 </r>
       <r>   -3.3824    0.6377 </r>
       <r>   -3.1162    0.0631 </r>
       <r>   -2.8403    0.0003 </r>
       <r>   -2.7141    0.0000 </r>
       <r>   -2.6729    0.0000 </r>
       <r>   -2.5563    0.0000 </r>
       <r>   -2.4993    0.0000 </r>
       <r>   -2.2844    0.0000 </r>
       <r>   -2.0881    0.0000 </r>
       <r>   -1.9979    0.0000 </r>
       <r>   -1.9162    0.0000 </r>
       <r>   -1.6181    0.0000 </r>
       <r>   -1.5480    0.0000 </r>
       <r>   -1.4134    0.0000 </r>
       <r>   -1.3093    0.0000 </r>
       <r>   -1.2406    0.0000 </r>
       <r>   -1.1960    0.0000 </r>
       <r>   -1.0902    0.0000 </r>
       <r>   -1.0051    0.0000 </r>
       <r>   -0.9698    0.0000 </r>
       <r>   -0.8798    0.0000 </r>
       <r>   -0.8129    0.0000 </r>
       <r>   -0.7693    0.0000 </r>
       <r>   -0.6175    0.0000 </r>
       <r>   -0.5589    0.0000 </r>
       <r>   -0.3832    0.0000 </r>
       <r>   -0.2597    0.0000 </r>
       <r>   -0.2263    0.0000 </r>
       <r>   -0.1217    0.0000 </r>
       <r>    0.0273    0.0000 </r>
       <r>    0.1104    0.0000 </r>
       <r>    0.3290    0.0000 </r>
       <r>    0.5224    0.0000 </r>
       <r>    0.7780    0.0000 </r>
       <r>    0.9900    0.0000 </r>
       <r>    1.1139    0.0000 </r>
       <r>    1.3045    0.0000 </r>
       <r>    1.3460    0.0000 </r>
       <r>    2.1085    0.0000 </r>
       <r>    2.2641    0.0000 </r>
       <r>    2.5814    0.0000 </r>
      </set>
      <set comment="kpoint 33">
       <r>  -17.5169    1.0000 </r>
       <r>  -17.3147    1.0000 </r>
       <r>  -16.8872    1.0000 </r>
       <r>  -16.6015    1.0000 </r>
       <r>  -16.5069    1.0000 </r>
       <r>  -16.4673    1.0000 </r>
       <r>  -16.2913    1.0000 </r>
       <r>  -16.2226    1.0000 </r>
       <r>  -16.1620    1.0000 </r>
       <r>  -16.0299    1.0000 </r>
       <r>  -15.9423    1.0000 </r>
       <r>  -15.8550    1.0000 </r>
       <r>  -15.7877    1.0000 </r>
       <r>  -15.6302    1.0000 </r>
       <r>  -15.5802    1.0000 </r>
       <r>  -15.4809    1.0000 </r>
       <r>  -15.4355    1.0000 </r>
       <r>  -15.2605    1.0000 </r>
       <r>   -9.8140    1.0000 </r>
       <r>   -9.4616    1.0000 </r>
       <r>   -9.3176    1.0000 </r>
       <r>   -8.9568    1.0000 </r>
       <r>   -8.8211    1.0000 </r>
       <r>   -8.7337    1.0000 </r>
       <r>   -8.6378    1.0000 </r>
       <r>   -8.5750    1.0000 </r>
       <r>   -8.4106    1.0000 </r>
       <r>   -8.3215    1.0000 </r>
       <r>   -8.2420    1.0000 </r>
       <r>   -8.2195    1.0000 </r>
       <r>   -8.1092    1.0000 </r>
       <r>   -8.0517    1.0000 </r>
       <r>   -7.9686    1.0000 </r>
       <r>   -7.8726    1.0000 </r>
       <r>   -7.8121    1.0000 </r>
       <r>   -7.6318    1.0000 </r>
       <r>   -7.5839    1.0000 </r>
       <r>   -7.4868    1.0000 </r>
       <r>   -7.3742    1.0000 </r>
       <r>   -7.2781    1.0000 </r>
       <r>   -7.1065    1.0000 </r>
       <r>   -7.0685    1.0000 </r>
       <r>   -7.0115    1.0000 </r>
       <r>   -6.9355    1.0000 </r>
       <r>   -6.8745    1.0000 </r>
       <r>   -6.7916    1.0000 </r>
       <r>   -6.6440    1.0000 </r>
       <r>   -6.6272    1.0000 </r>
       <r>   -6.5664    1.0000 </r>
       <r>   -6.5074    1.0000 </r>
       <r>   -6.4333    1.0000 </r>
       <r>   -6.3141    1.0000 </r>
       <r>   -6.2471    1.0000 </r>
       <r>   -6.1504    1.0000 </r>
       <r>   -6.0819    1.0000 </r>
       <r>   -6.0233    1.0000 </r>
       <r>   -5.9651    1.0000 </r>
       <r>   -5.9005    1.0000 </r>
       <r>   -5.8372    1.0000 </r>
       <r>   -5.7503    1.0000 </r>
       <r>   -5.6970    1.0000 </r>
       <r>   -5.6382    1.0000 </r>
       <r>   -5.5536    1.0000 </r>
       <r>   -5.4362    1.0000 </r>
       <r>   -5.3463    1.0000 </r>
       <r>   -5.1451    1.0000 </r>
       <r>   -5.0090    1.0000 </r>
       <r>   -4.8913    1.0000 </r>
       <r>   -4.7305    1.0000 </r>
       <r>   -4.6901    1.0000 </r>
       <r>   -4.6048    1.0000 </r>
       <r>   -4.4279    1.0000 </r>
       <r>   -4.2616    1.0000 </r>
       <r>   -4.1831    1.0000 </r>
       <r>   -4.0215    1.0000 </r>
       <r>   -3.9053    1.0000 </r>
       <r>   -3.7813    0.9992 </r>
       <r>   -3.6953    0.9948 </r>
       <r>   -3.5581    0.9447 </r>
       <r>   -3.3203    0.4656 </r>
       <r>   -3.1575    0.1079 </r>
       <r>   -2.8882    0.0008 </r>
       <r>   -2.7385    0.0000 </r>
       <r>   -2.6532    0.0000 </r>
       <r>   -2.5697    0.0000 </r>
       <r>   -2.4762    0.0000 </r>
       <r>   -2.2884    0.0000 </r>
       <r>   -2.0533    0.0000 </r>
       <r>   -1.9870    0.0000 </r>
       <r>   -1.9176    0.0000 </r>
       <r>   -1.6631    0.0000 </r>
       <r>   -1.5440    0.0000 </r>
       <r>   -1.4062    0.0000 </r>
       <r>   -1.2900    0.0000 </r>
       <r>   -1.2405    0.0000 </r>
       <r>   -1.1831    0.0000 </r>
       <r>   -1.1035    0.0000 </r>
       <r>   -0.9692    0.0000 </r>
       <r>   -0.9444    0.0000 </r>
       <r>   -0.8628    0.0000 </r>
       <r>   -0.8236    0.0000 </r>
       <r>   -0.7540    0.0000 </r>
       <r>   -0.6409    0.0000 </r>
       <r>   -0.5432    0.0000 </r>
       <r>   -0.4417    0.0000 </r>
       <r>   -0.3316    0.0000 </r>
       <r>   -0.1936    0.0000 </r>
       <r>   -0.1270    0.0000 </r>
       <r>    0.0401    0.0000 </r>
       <r>    0.2431    0.0000 </r>
       <r>    0.3316    0.0000 </r>
       <r>    0.4917    0.0000 </r>
       <r>    0.7143    0.0000 </r>
       <r>    0.9657    0.0000 </r>
       <r>    1.1305    0.0000 </r>
       <r>    1.3221    0.0000 </r>
       <r>    1.3735    0.0000 </r>
       <r>    2.1426    0.0000 </r>
       <r>    2.2992    0.0000 </r>
       <r>    2.4046    0.0000 </r>
      </set>
      <set comment="kpoint 34">
       <r>  -17.4623    1.0000 </r>
       <r>  -17.4048    1.0000 </r>
       <r>  -16.7316    1.0000 </r>
       <r>  -16.6622    1.0000 </r>
       <r>  -16.5841    1.0000 </r>
       <r>  -16.4963    1.0000 </r>
       <r>  -16.2944    1.0000 </r>
       <r>  -16.2132    1.0000 </r>
       <r>  -16.1446    1.0000 </r>
       <r>  -16.0263    1.0000 </r>
       <r>  -15.9305    1.0000 </r>
       <r>  -15.8513    1.0000 </r>
       <r>  -15.7315    1.0000 </r>
       <r>  -15.6677    1.0000 </r>
       <r>  -15.5815    1.0000 </r>
       <r>  -15.4947    1.0000 </r>
       <r>  -15.4327    1.0000 </r>
       <r>  -15.2630    1.0000 </r>
       <r>   -9.8507    1.0000 </r>
       <r>   -9.3377    1.0000 </r>
       <r>   -9.2733    1.0000 </r>
       <r>   -8.9968    1.0000 </r>
       <r>   -8.8946    1.0000 </r>
       <r>   -8.8208    1.0000 </r>
       <r>   -8.6980    1.0000 </r>
       <r>   -8.5972    1.0000 </r>
       <r>   -8.4061    1.0000 </r>
       <r>   -8.3220    1.0000 </r>
       <r>   -8.2119    1.0000 </r>
       <r>   -8.1601    1.0000 </r>
       <r>   -8.1335    1.0000 </r>
       <r>   -7.9867    1.0000 </r>
       <r>   -7.9474    1.0000 </r>
       <r>   -7.8712    1.0000 </r>
       <r>   -7.6861    1.0000 </r>
       <r>   -7.6221    1.0000 </r>
       <r>   -7.5925    1.0000 </r>
       <r>   -7.5493    1.0000 </r>
       <r>   -7.4575    1.0000 </r>
       <r>   -7.3253    1.0000 </r>
       <r>   -7.1181    1.0000 </r>
       <r>   -7.0083    1.0000 </r>
       <r>   -6.9534    1.0000 </r>
       <r>   -6.9224    1.0000 </r>
       <r>   -6.8751    1.0000 </r>
       <r>   -6.7724    1.0000 </r>
       <r>   -6.6826    1.0000 </r>
       <r>   -6.5857    1.0000 </r>
       <r>   -6.5735    1.0000 </r>
       <r>   -6.4855    1.0000 </r>
       <r>   -6.4093    1.0000 </r>
       <r>   -6.3523    1.0000 </r>
       <r>   -6.2832    1.0000 </r>
       <r>   -6.1856    1.0000 </r>
       <r>   -6.0761    1.0000 </r>
       <r>   -6.0454    1.0000 </r>
       <r>   -5.9754    1.0000 </r>
       <r>   -5.9076    1.0000 </r>
       <r>   -5.8518    1.0000 </r>
       <r>   -5.7519    1.0000 </r>
       <r>   -5.6885    1.0000 </r>
       <r>   -5.6296    1.0000 </r>
       <r>   -5.5655    1.0000 </r>
       <r>   -5.5297    1.0000 </r>
       <r>   -5.3757    1.0000 </r>
       <r>   -5.0240    1.0000 </r>
       <r>   -4.9469    1.0000 </r>
       <r>   -4.9197    1.0000 </r>
       <r>   -4.7746    1.0000 </r>
       <r>   -4.6714    1.0000 </r>
       <r>   -4.5239    1.0000 </r>
       <r>   -4.3901    1.0000 </r>
       <r>   -4.2930    1.0000 </r>
       <r>   -4.1874    1.0000 </r>
       <r>   -4.0238    1.0000 </r>
       <r>   -3.9388    1.0000 </r>
       <r>   -3.7662    0.9989 </r>
       <r>   -3.7018    0.9955 </r>
       <r>   -3.5884    0.9648 </r>
       <r>   -3.3001    0.4093 </r>
       <r>   -3.1784    0.1379 </r>
       <r>   -2.9131    0.0015 </r>
       <r>   -2.7480    0.0000 </r>
       <r>   -2.6419    0.0000 </r>
       <r>   -2.5774    0.0000 </r>
       <r>   -2.4586    0.0000 </r>
       <r>   -2.2943    0.0000 </r>
       <r>   -2.0349    0.0000 </r>
       <r>   -1.9789    0.0000 </r>
       <r>   -1.9072    0.0000 </r>
       <r>   -1.6847    0.0000 </r>
       <r>   -1.5441    0.0000 </r>
       <r>   -1.3909    0.0000 </r>
       <r>   -1.2947    0.0000 </r>
       <r>   -1.2358    0.0000 </r>
       <r>   -1.1778    0.0000 </r>
       <r>   -1.1183    0.0000 </r>
       <r>   -0.9552    0.0000 </r>
       <r>   -0.9174    0.0000 </r>
       <r>   -0.8820    0.0000 </r>
       <r>   -0.8154    0.0000 </r>
       <r>   -0.7309    0.0000 </r>
       <r>   -0.6671    0.0000 </r>
       <r>   -0.5440    0.0000 </r>
       <r>   -0.4858    0.0000 </r>
       <r>   -0.3501    0.0000 </r>
       <r>   -0.1959    0.0000 </r>
       <r>   -0.1111    0.0000 </r>
       <r>    0.0338    0.0000 </r>
       <r>    0.2951    0.0000 </r>
       <r>    0.3747    0.0000 </r>
       <r>    0.4630    0.0000 </r>
       <r>    0.6797    0.0000 </r>
       <r>    0.9629    0.0000 </r>
       <r>    1.1421    0.0000 </r>
       <r>    1.3172    0.0000 </r>
       <r>    1.4033    0.0000 </r>
       <r>    2.2365    0.0000 </r>
       <r>    2.2468    0.0000 </r>
       <r>    2.3810    0.0000 </r>
      </set>
     </set>
    </set>
   </array>
  </eigenvalues>
  <separator name="orbital magnetization" >
   <v name="MAGDIPOLOUT">      0.00000000      0.00000000      0.00000000</v>
  </separator>
 </calculation>
 <structure name="finalpos" >
  <crystal>
   <varray name="basis" >
    <v>       8.32712809       4.82009140       0.00000000 </v>
    <v>      -8.32271049       4.81248704       0.00000000 </v>
    <v>       0.00000000       0.00000000      30.00000000 </v>
   </varray>
   <i name="volume">   2405.71263881 </i>
   <varray name="rec_basis" >
    <v>       0.06001324       0.10378684       0.00000000 </v>
    <v>      -0.06010807       0.10384193       0.00000000 </v>
    <v>       0.00000000       0.00000000       0.03333333 </v>
   </varray>
  </crystal>
  <varray name="positions" >
   <v>      -0.02217207       0.67066728      -0.00006414 </v>
   <v>       0.36038747       0.70253356      -0.00000525 </v>
   <v>      -0.03773572      -0.02314454       0.00066542 </v>
   <v>       0.66395940       0.00718184       0.00064156 </v>
   <v>       0.66318810       0.65952555      -0.00020365 </v>
   <v>       0.36905668       0.02092938      -0.00147716 </v>
   <v>       0.99469973       0.29942294      -0.00014658 </v>
   <v>       0.35881869       0.33473629      -0.00068794 </v>
   <v>       0.64448474       0.32538819       0.00126142 </v>
   <v>       0.10798302       0.20247909       0.94967721 </v>
   <v>       0.21563561       0.10469640       0.04572030 </v>
   <v>       0.11199599       0.55647538       0.95740565 </v>
   <v>       0.23041265       0.45403289       0.04511989 </v>
   <v>       0.10909812       0.89022157       0.95439263 </v>
   <v>       0.22534003       0.78371665       0.04680768 </v>
   <v>       0.45021281       0.22583821       0.94230543 </v>
   <v>       0.56338842       0.11831466       0.05633837 </v>
   <v>       0.43580943       0.55602598       0.94869573 </v>
   <v>       0.55697234       0.44665742       0.05567457 </v>
   <v>       0.44889691       0.89064213       0.94473275 </v>
   <v>       0.55157891       0.77927488       0.05280022 </v>
   <v>       0.78126798       0.22932320       0.94877859 </v>
   <v>       0.88743714       0.10097346       0.05514067 </v>
   <v>       0.77688222       0.55347054       0.94830897 </v>
   <v>       0.89351155       0.44701257       0.04711766 </v>
   <v>       0.77239415       0.88526030       0.94768810 </v>
   <v>       0.88471015       0.77655865       0.05331180 </v>
  </varray>
 </structure>
</modeling>
