unknown system                          
           1
     8.857232    5.108715    0.000000
    -8.853139    5.101675    0.000000
     0.000000    0.000000   30.000000
   V    Mo   W    S 
   3   3   3  18
Direct configuration=     1
   0.00000000  0.66666669  0.00000000
   0.33333334  0.66666669  0.00000000
   0.00000000  0.00000000  0.00000000
   0.66666669  0.00000000  0.00000000
   0.66666669  0.66666669  0.00000000
   0.33333334  0.00000000  0.00000000
   1.00000000  0.33333334  0.00000000
   0.33333334  0.33333334  0.00000000
   0.66666669  0.33333334  0.00000000
   0.11068511  0.22244981  0.95539999
   0.22244981  0.11068511  0.04460000
   0.11068511  0.55578315  0.95539999
   0.22244981  0.44401845  0.04460000
   0.11068511  0.88911647  0.95539999
   0.22244981  0.77735180  0.04460000
   0.44401845  0.22244981  0.95539999
   0.55578315  0.11068511  0.04460000
   0.44401845  0.55578315  0.95539999
   0.55578315  0.44401845  0.04460000
   0.44401845  0.88911647  0.95539999
   0.55578315  0.77735180  0.04460000
   0.77735180  0.22244981  0.95539999
   0.88911647  0.11068511  0.04460000
   0.77735180  0.55578315  0.95539999
   0.88911647  0.44401845  0.04460000
   0.77735180  0.88911647  0.95539999
   0.88911647  0.77735180  0.04460000
unknown system                          
           1
     8.669072    5.002279    0.000000
    -8.665211    4.995637    0.000000
     0.000000    0.000000   30.000000
   V    Mo   W    S 
   3   3   3  18
Direct configuration=     2
   0.00043594  0.66820806 -0.00001716
   0.33524287  0.66899860 -0.00013976
  -0.00117145 -0.00153643  0.00015992
   0.66532092 -0.00144612  0.00015270
   0.66670856  0.66810731 -0.00000356
   0.33442743 -0.00027562  0.00002574
   0.99881100  0.33224536 -0.00004797
   0.33462961  0.33322925 -0.00015753
   0.66526573  0.33197996 -0.00004388
   0.10934345  0.21851363  0.95194568
   0.21795191  0.10967205  0.04803700
   0.11261906  0.55896303  0.95312714
   0.22385772  0.44808318  0.04801666
   0.10661636  0.88679353  0.95312793
   0.22014861  0.77330626  0.04687562
   0.44485160  0.22308458  0.95065207
   0.55608599  0.11202047  0.04928159
   0.44131575  0.55692283  0.95196847
   0.55516138  0.44362301  0.04927939
   0.44198758  0.88414866  0.95188898
   0.55109182  0.77558078  0.04809811
   0.77815788  0.22304305  0.95075951
   0.89173934  0.10950681  0.04804302
   0.78163860  0.55665762  0.95200220
   0.89050692  0.44800823  0.04808769
   0.78215038  0.89095380  0.95194611
   0.89331950  0.77982257  0.04693422
unknown system                          
           1
     8.484063    4.900326    0.000000
    -8.482170    4.897089    0.000000
     0.000000    0.000000   30.000000
   V    Mo   W    S 
   3   3   3  18
Direct configuration=     3
   0.00050313  0.66854466 -0.00005858
   0.33589829  0.66969716 -0.00014824
  -0.00159348 -0.00192313  0.00017269
   0.66498679 -0.00160732  0.00016634
   0.66648880  0.66833292 -0.00004444
   0.33530747  0.00028199  0.00006344
   0.99825257  0.33177826 -0.00003875
   0.33534188  0.33322149 -0.00011975
   0.66453715  0.33131792 -0.00004587
   0.10939175  0.21863825  0.95202315
   0.21796026  0.10983998  0.04798217
   0.11255639  0.55878276  0.95323258
   0.22379402  0.44793961  0.04786358
   0.10654713  0.88671506  0.95317526
   0.22008112  0.77322148  0.04683893
   0.44495630  0.22332780  0.95056259
   0.55623301  0.11224155  0.04938859
   0.44112784  0.55674106  0.95195005
   0.55506311  0.44338761  0.04927698
   0.44187880  0.88395679  0.95179368
   0.55092871  0.77549581  0.04819030
   0.77824290  0.22325362  0.95075253
   0.89189141  0.10967963  0.04806460
   0.78164736  0.55651677  0.95207616
   0.89046609  0.44786098  0.04800561
   0.78230241  0.89104491  0.95192178
   0.89342323  0.77992681  0.04695450
unknown system                          
           1
     8.275733    4.784774    0.000000
    -8.270058    4.774984    0.000000
     0.000000    0.000000   30.000000
   V    Mo   W    S 
   3   3   3  18
Direct configuration=     4
   0.00045243  0.66931663 -0.00021398
   0.33848567  0.67209714 -0.00012020
  -0.00324045 -0.00293845  0.00014664
   0.66397287 -0.00156732  0.00014889
   0.66522544  0.66864024 -0.00018834
   0.33945132  0.00351949  0.00016954
   0.99583416  0.32979354  0.00000960
   0.33848788  0.33309406  0.00006853
   0.66126534  0.32837059 -0.00004928
   0.10893529  0.21759129  0.95086790
   0.21689848  0.10925007  0.04920770
   0.11313779  0.55967914  0.95230806
   0.22428449  0.44886586  0.04869865
   0.10579754  0.88623645  0.95209001
   0.21950989  0.77223509  0.04798607
   0.44493868  0.22333275  0.94850865
   0.55645163  0.11225797  0.05143952
   0.44042804  0.55722373  0.95041329
   0.55526422  0.44343720  0.05090193
   0.44119134  0.88262402  0.94999213
   0.54955534  0.77480403  0.04997989
   0.77801653  0.22313500  0.94909453
   0.89225190  0.10895594  0.04963026
   0.78271834  0.55705217  0.95096378
   0.89090177  0.44881227  0.04916471
   0.78357896  0.89182233  0.95042270
   0.89441958  0.78057325  0.04835872
unknown system                          
           1
     8.269448    4.789477    0.000000
    -8.258946    4.771322    0.000000
     0.000000    0.000000   30.000000
   V    Mo   W    S 
   3   3   3  18
Direct configuration=     5
   0.00053417  0.67045752 -0.00042465
   0.34323126  0.67645626  0.00008268
  -0.00695153 -0.00448947 -0.00004667
   0.66260170 -0.00071859  0.00004261
   0.66267089  0.66925397 -0.00033494
   0.34777764  0.01053516  0.00022432
   0.99040242  0.32582438  0.00012384
   0.34543614  0.33250010  0.00030913
   0.65442048  0.32201622 -0.00002781
   0.10878984  0.21639605  0.94965875
   0.21620847  0.10830462  0.05077419
   0.11385572  0.56049112  0.95112371
   0.22478262  0.44968481  0.04934322
   0.10617665  0.88640402  0.95072861
   0.21964081  0.77228884  0.04947670
   0.44479275  0.22282373  0.94537959
   0.55683834  0.11186977  0.05452954
   0.43970097  0.55766070  0.94830898
   0.55634766  0.44428133  0.05313975
   0.44081956  0.88185196  0.94748549
   0.54838610  0.77450039  0.05242113
   0.77705729  0.22230197  0.94682686
   0.89171608  0.10730945  0.05185844
   0.78320625  0.55725318  0.94965613
   0.89068955  0.44963182  0.05056946
   0.78429265  0.89235604  0.94840356
   0.89478996  0.78096911  0.05036729
unknown system                          
           1
     8.270384    4.790302    0.000000
    -8.259531    4.771540    0.000000
     0.000000    0.000000   30.000000
   V    Mo   W    S 
   3   3   3  18
Direct configuration=     6
   0.00112703  0.67099997 -0.00051481
   0.34498575  0.67837276  0.00009520
  -0.00932909 -0.00535388 -0.00007176
   0.66298974 -0.00022469  0.00010484
   0.66202779  0.66978255 -0.00029657
   0.34954692  0.01208499  0.00018823
   0.98723904  0.32415707  0.00020198
   0.34809857  0.33224628  0.00022523
   0.65308855  0.32026014  0.00008214
   0.10929494  0.21669404  0.94994048
   0.21696099  0.10825474  0.05068883
   0.11391016  0.56015655  0.95126585
   0.22474279  0.44895731  0.04883873
   0.10726578  0.88722873  0.95085405
   0.22047637  0.77350447  0.04948604
   0.44487551  0.22272325  0.94473501
   0.55718895  0.11166334  0.05504835
   0.43957005  0.55731285  0.94819006
   0.55736073  0.44472374  0.05343158
   0.44113103  0.88256775  0.94723426
   0.54869744  0.77496478  0.05267990
   0.77631917  0.22200867  0.94646028
   0.89101488  0.10669035  0.05211898
   0.78218320  0.55647551  0.94983050
   0.88966334  0.44906853  0.05055994
   0.78352275  0.89206430  0.94817345
   0.89426208  0.78083036  0.05044912
unknown system                          
           1
     8.260822    4.780300    0.000000
    -8.253261    4.767239    0.000000
     0.000000    0.000000   30.000000
   V    Mo   W    S 
   3   3   3  18
Direct configuration=     7
   0.00135881  0.67117867 -0.00055632
   0.34540883  0.67890823  0.00009373
  -0.00993280 -0.00560224 -0.00008007
   0.66311923 -0.00014309  0.00010965
   0.66186451  0.66993531 -0.00029458
   0.34995097  0.01237067  0.00018713
   0.98635761  0.32375168  0.00021149
   0.34878947  0.33223663  0.00022344
   0.65282746  0.31984766  0.00008520
   0.10938286  0.21677930  0.95004360
   0.21708226  0.10826836  0.05063092
   0.11392046  0.56006326  0.95133522
   0.22468837  0.44877787  0.04867471
   0.10742817  0.88738115  0.95091068
   0.22061638  0.77369467  0.04946850
   0.44495425  0.22272349  0.94464514
   0.55723384  0.11160068  0.05511628
   0.43954948  0.55725923  0.94819389
   0.55753356  0.44478703  0.05345542
   0.44121201  0.88268377  0.94720618
   0.54873358  0.77504362  0.05271703
   0.77618415  0.22195006  0.94639923
   0.89090136  0.10659162  0.05217155
   0.78201240  0.55633847  0.94991141
   0.88948657  0.44897838  0.05055780
   0.78337669  0.89199902  0.94814073
   0.89417396  0.78081097  0.05044195
unknown system                          
           1
     8.260441    4.782811    0.000000
    -8.251775    4.767833    0.000000
     0.000000    0.000000   30.000000
   V    Mo   W    S 
   3   3   3  18
Direct configuration=     8
   0.00017519  0.67004702 -0.00036542
   0.34427677  0.67689614  0.00009913
  -0.00708742 -0.00437237 -0.00007813
   0.66171886 -0.00067471  0.00005264
   0.66188160  0.66884920 -0.00031501
   0.34889959  0.01148913  0.00019163
   0.99024251  0.32561935  0.00007299
   0.34629403  0.33238320  0.00026744
   0.65336269  0.32129045  0.00002262
   0.10920012  0.21647176  0.94953329
   0.21687341  0.10828126  0.05093474
   0.11399412  0.56051432  0.95105736
   0.22510227  0.44958276  0.04940755
   0.10716327  0.88682824  0.95066302
   0.22025523  0.77318675  0.04947266
   0.44464156  0.22278447  0.94492255
   0.55706158  0.11183322  0.05494499
   0.43959678  0.55748794  0.94816006
   0.55674348  0.44456171  0.05341651
   0.44089913  0.88227044  0.94737313
   0.54851153  0.77479551  0.05254831
   0.77681006  0.22227325  0.94673613
   0.89116280  0.10694224  0.05198114
   0.78245099  0.55673942  0.94953521
   0.89000849  0.44919005  0.05056765
   0.78365147  0.89221147  0.94826098
   0.89432434  0.78073227  0.05053672
unknown system                          
           1
     8.252514    4.778858    0.000000
    -8.243694    4.763611    0.000000
     0.000000    0.000000   30.000000
   V    Mo   W    S 
   3   3   3  18
Direct configuration=     9
  -0.00149782  0.66885006 -0.00022541
   0.34374556  0.67518836  0.00013330
  -0.00516915 -0.00352739 -0.00010194
   0.66056591 -0.00068393  0.00011048
   0.66187244  0.66768917 -0.00034264
   0.34892536  0.01202151  0.00019869
   0.99345199  0.32671934  0.00007443
   0.34467636  0.33221603  0.00027164
   0.65312889  0.32216882  0.00005662
   0.10940766  0.21625361  0.94914247
   0.21719221  0.10830027  0.05119297
   0.11416537  0.56085986  0.95084438
   0.22554657  0.44988050  0.04991923
   0.10748154  0.88661861  0.95060991
   0.22046629  0.77358097  0.04941383
   0.44437864  0.22283494  0.94480880
   0.55715878  0.11214579  0.05510361
   0.43946754  0.55738786  0.94794953
   0.55650919  0.44452073  0.05359280
   0.44065898  0.88231857  0.94725033
   0.54862648  0.77496631  0.05261943
   0.77691202  0.22250482  0.94688405
   0.89103349  0.10696388  0.05173977
   0.78214792  0.55662485  0.94924231
   0.88980295  0.44885947  0.05051964
   0.78344770  0.89226220  0.94843511
   0.89411159  0.78068925  0.05055656
unknown system                          
           1
     8.257340    4.782590    0.000000
    -8.247943    4.766343    0.000000
     0.000000    0.000000   30.000000
   V    Mo   W    S 
   3   3   3  18
Direct configuration=    10
  -0.00119768  0.66937715 -0.00036994
   0.34512699  0.67688654  0.00010624
  -0.00726097 -0.00446811 -0.00016317
   0.66086191 -0.00025650  0.00008219
   0.66150936  0.66811097 -0.00031553
   0.35076905  0.01350451  0.00017689
   0.99095261  0.32531632  0.00006663
   0.34694692  0.33210705  0.00021174
   0.65187389  0.32061901  0.00007335
   0.10970029  0.21647987  0.94953817
   0.21757246  0.10836797  0.05097443
   0.11412930  0.56046932  0.95114603
   0.22532180  0.44917081  0.04936126
   0.10796433  0.88711477  0.95089022
   0.22090250  0.77427655  0.04925908
   0.44473006  0.22294952  0.94453454
   0.55734024  0.11210462  0.05532092
   0.43944131  0.55711309  0.94798015
   0.55699635  0.44467329  0.05365916
   0.44094194  0.88277695  0.94720063
   0.54883180  0.77520247  0.05272316
   0.77651442  0.22240472  0.94677820
   0.89072299  0.10657247  0.05188051
   0.78152968  0.55611362  0.94951243
   0.88919379  0.44843762  0.05045867
   0.78300541  0.89208077  0.94843088
   0.89379369  0.78070906  0.05048307
unknown system                          
           1
     8.266532    4.791549    0.000000
    -8.254721    4.771122    0.000000
     0.000000    0.000000   30.000000
   V    Mo   W    S 
   3   3   3  18
Direct configuration=    11
  -0.00114039  0.66949915 -0.00040174
   0.34549814  0.67734650  0.00010913
  -0.00787823 -0.00474556 -0.00016716
   0.66101389 -0.00013621  0.00010455
   0.66143580  0.66823913 -0.00030315
   0.35118741  0.01382539  0.00017616
   0.99018398  0.32490325  0.00008691
   0.34755923  0.33210200  0.00021009
   0.65165516  0.32029024  0.00009919
   0.10976868  0.21651176  0.94961516
   0.21764908  0.10836696  0.05092598
   0.11414121  0.56040223  0.95120450
   0.22529440  0.44902326  0.04922418
   0.10808668  0.88724359  0.95094596
   0.22100594  0.77443845  0.04923188
   0.44479974  0.22295823  0.94441886
   0.55740542  0.11207750  0.05540385
   0.43942092  0.55706132  0.94796304
   0.55713851  0.44471888  0.05369787
   0.44099859  0.88287755  0.94715045
   0.54886518  0.77526599  0.05276753
   0.77639490  0.22236561  0.94670290
   0.89064156  0.10645958  0.05193430
   0.78139042  0.55599408  0.94955819
   0.88906315  0.44836430  0.05046002
   0.78289493  0.89204276  0.94839382
   0.89374014  0.78071850  0.05048742
unknown system                          
           1
     8.251696    4.773601    0.000000
    -8.248058    4.767316    0.000000
     0.000000    0.000000   30.000000
   V    Mo   W    S 
   3   3   3  18
Direct configuration=    12
  -0.00062886  0.67009482 -0.00056302
   0.34718563  0.67952014  0.00011357
  -0.01062960 -0.00597347 -0.00018457
   0.66175223  0.00029306  0.00017559
   0.66097380  0.66883251 -0.00026872
   0.35287502  0.01499858  0.00016194
   0.98645097  0.32310620  0.00016196
   0.35039058  0.33218950  0.00019034
   0.65086437  0.31888959  0.00017156
   0.11002365  0.21673997  0.95002099
   0.21798742  0.10840450  0.05066192
   0.11416144  0.56005717  0.95149986
   0.22509719  0.44838372  0.04855118
   0.10855700  0.88777459  0.95119985
   0.22141697  0.77502445  0.04911188
   0.44514236  0.22299749  0.94404607
   0.55764585  0.11192677  0.05568332
   0.43936673  0.55688955  0.94796009
   0.55777071  0.44491086  0.05380079
   0.44127012  0.88325701  0.94699739
   0.54895588  0.77548090  0.05291386
   0.77590386  0.22218200  0.94640925
   0.89032410  0.10607503  0.05217491
   0.78085370  0.55552867  0.94982512
   0.88856762  0.44810180  0.05046152
   0.78241645  0.89182013  0.94823453
   0.89351926  0.78070891  0.05048869
unknown system                          
           1
     8.247180    4.773258    0.000000
    -8.241525    4.763482    0.000000
     0.000000    0.000000   30.000000
   V    Mo   W    S 
   3   3   3  18
Direct configuration=    13
  -0.00274782  0.66781381 -0.00003821
   0.34280771  0.67310584  0.00014762
  -0.00264653 -0.00234338 -0.00013774
   0.65917836 -0.00053134  0.00006212
   0.66148661  0.66625425 -0.00030680
   0.34900880  0.01303002  0.00019260
   0.99761717  0.32826509 -0.00005436
   0.34320921  0.33180944  0.00032694
   0.65200801  0.32258553  0.00005244
   0.10954539  0.21598805  0.94868640
   0.21749010  0.10830488  0.05151316
   0.11416655  0.56113790  0.95067988
   0.22599203  0.45006967  0.05051638
   0.10779511  0.88639690  0.95055849
   0.22062498  0.77404130  0.04927880
   0.44424074  0.22300827  0.94479957
   0.55710536  0.11257505  0.05513990
   0.43956447  0.55729849  0.94786901
   0.55590292  0.44429554  0.05356629
   0.44044942  0.88241526  0.94736658
   0.54873283  0.77502756  0.05249177
   0.77732950  0.22299719  0.94726247
   0.89089115  0.10685969  0.05151201
   0.78178456  0.55636559  0.94902691
   0.88947532  0.44834175  0.05031247
   0.78335659  0.89238524  0.94866527
   0.89384594  0.78071686  0.05050990
unknown system                          
           1
     8.252699    4.780041    0.000000
    -8.244947    4.766634    0.000000
     0.000000    0.000000   30.000000
   V    Mo   W    S 
   3   3   3  18
Direct configuration=    14
  -0.00398724  0.66715307  0.00011491
   0.34178949  0.67117797  0.00013585
  -0.00037625 -0.00135213 -0.00019014
   0.65773941 -0.00081604 -0.00001169
   0.66171878  0.66537511 -0.00040207
   0.34889389  0.01340665  0.00018866
   1.00213179  0.32974138 -0.00008758
   0.34077453  0.33150433  0.00020822
   0.65140346  0.32318590 -0.00000095
   0.10962626  0.21575036  0.94835253
   0.21749964  0.10837238  0.05178506
   0.11420926  0.56136188  0.95051723
   0.22633569  0.45033218  0.05106501
   0.10771154  0.88606988  0.95049386
   0.22055627  0.77410037  0.04915786
   0.44397082  0.22315097  0.94481780
   0.55707802  0.11293814  0.05512873
   0.43949943  0.55712059  0.94784016
   0.55548108  0.44418925  0.05371035
   0.44009350  0.88229226  0.94748723
   0.54875828  0.77500259  0.05240048
   0.77771687  0.22343305  0.94763365
   0.89112343  0.10705774  0.05120760
   0.78176949  0.55637513  0.94883928
   0.88948906  0.44801206  0.05015708
   0.78341514  0.89251286  0.94898342
   0.89379280  0.78076653  0.05046734
unknown system                          
           1
     8.259006    4.790730    0.000000
    -8.247371    4.770599    0.000000
     0.000000    0.000000   30.000000
   V    Mo   W    S 
   3   3   3  18
Direct configuration=    15
  -0.00446636  0.66748496  0.00006379
   0.34276773  0.67204166  0.00013043
  -0.00138829 -0.00187461 -0.00019323
   0.65691958 -0.00093615  0.00002462
   0.66159848  0.66536754 -0.00036887
   0.35060809  0.01470174  0.00019591
   1.00245370  0.32928119 -0.00000474
   0.34156302  0.33147510  0.00018892
   0.64995498  0.32221185  0.00006574
   0.10987129  0.21573118  0.94845646
   0.21772660  0.10845135  0.05165802
   0.11429927  0.56112864  0.95071409
   0.22637695  0.44999680  0.05081803
   0.10801889  0.88638308  0.95067977
   0.22080107  0.77455125  0.04893469
   0.44410453  0.22328625  0.94448489
   0.55730340  0.11303201  0.05535070
   0.43940712  0.55690597  0.94779468
   0.55563297  0.44421853  0.05382546
   0.43999162  0.88244542  0.94740439
   0.54882855  0.77510461  0.05245928
   0.77766684  0.22365177  0.94769278
   0.89108254  0.10686449  0.05118535
   0.78136460  0.55597452  0.94894722
   0.88908703  0.44746915  0.05000234
   0.78307246  0.89245559  0.94905414
   0.89356782  0.78081054  0.05043504
unknown system                          
           1
     8.265011    4.795673    0.000000
    -8.251558    4.772405    0.000000
     0.000000    0.000000   30.000000
   V    Mo   W    S 
   3   3   3  18
Direct configuration=    16
  -0.00613603  0.66815548 -0.00000880
   0.34473771  0.67390203  0.00004336
  -0.00387432 -0.00324579 -0.00022840
   0.65514398 -0.00098307  0.00007183
   0.66181830  0.66541713 -0.00034949
   0.35417846  0.01746094  0.00010402
   1.00410904  0.32829647  0.00003944
   0.34320866  0.33114037  0.00006686
   0.64652047  0.32025165  0.00016941
   0.11026959  0.21536873  0.94860196
   0.21830323  0.10853080  0.05132157
   0.11442469  0.56071747  0.95118849
   0.22689759  0.44965854  0.05050748
   0.10878410  0.88703709  0.95114196
   0.22127859  0.77561904  0.04839224
   0.44431122  0.22354996  0.94391446
   0.55787425  0.11326916  0.05587274
   0.43942871  0.55658896  0.94775396
   0.55572579  0.44421879  0.05402082
   0.43988500  0.88290765  0.94721658
   0.54900193  0.77535928  0.05260424
   0.77760729  0.22407716  0.94806383
   0.89071736  0.10622401  0.05112564
   0.78044683  0.55505696  0.94917394
   0.88825626  0.44637091  0.04952344
   0.78221618  0.89242945  0.94922809
   0.89307957  0.78083528  0.05044023
unknown system                          
           1
     8.268513    4.800551    0.000000
    -8.252734    4.773258    0.000000
     0.000000    0.000000   30.000000
   V    Mo   W    S 
   3   3   3  18
Direct configuration=    17
  -0.00637791  0.66828253 -0.00001070
   0.34525470  0.67457088  0.00004908
  -0.00505777 -0.00389825 -0.00021972
   0.65519811 -0.00107112  0.00014297
   0.66186911  0.66560419 -0.00033252
   0.35445620  0.01733007  0.00010050
   1.00402389  0.32806689  0.00006403
   0.34387876  0.33139678  0.00007322
   0.64637600  0.32025118  0.00024983
   0.11026429  0.21519677  0.94861012
   0.21836698  0.10844966  0.05120533
   0.11443977  0.56072174  0.95127017
   0.22706431  0.44976109  0.05041515
   0.10890990  0.88712339  0.95118579
   0.22132477  0.77570353  0.04832211
   0.44433025  0.22349687  0.94381514
   0.55797145  0.11329243  0.05592125
   0.43951550  0.55668367  0.94777288
   0.55581939  0.44428710  0.05403340
   0.43999453  0.88297356  0.94712832
   0.54896025  0.77536909  0.05261504
   0.77753831  0.22407491  0.94808049
   0.89056636  0.10612986  0.05120370
   0.78032887  0.55492177  0.94918464
   0.88818759  0.44635171  0.04945328
   0.78201628  0.89238978  0.94912648
   0.89299457  0.78075439  0.05053995
unknown system                          
           1
     8.264061    4.795922    0.000000
    -8.249990    4.771583    0.000000
     0.000000    0.000000   30.000000
   V    Mo   W    S 
   3   3   3  18
Direct configuration=    18
  -0.00718234  0.66860855 -0.00004587
   0.34622744  0.67571561  0.00000615
  -0.00703828 -0.00498936 -0.00022273
   0.65476782 -0.00117478  0.00018986
   0.66216979  0.66584102 -0.00031845
   0.35580027  0.01799832  0.00005014
   1.00466724  0.32755497  0.00005950
   0.34484870  0.33150158  0.00002317
   0.64516298  0.31971841  0.00030089
   0.11034873  0.21489624  0.94868211
   0.21855449  0.10839090  0.05096175
   0.11447774  0.56061768  0.95150008
   0.22738306  0.44979223  0.05026623
   0.10917720  0.88735901  0.95138150
   0.22147046  0.77604611  0.04810507
   0.44443841  0.22352100  0.94363668
   0.55819957  0.11338982  0.05609352
   0.43961656  0.55669101  0.94778825
   0.55590929  0.44438493  0.05410573
   0.44012702  0.88317971  0.94701584
   0.54897951  0.77544118  0.05267329
   0.77750283  0.22422943  0.94826366
   0.89036351  0.10589688  0.05125171
   0.77996402  0.55456362  0.94926173
   0.88793359  0.44601496  0.04924610
   0.78159499  0.89233951  0.94908728
   0.89274985  0.78068592  0.05063670
unknown system                          
           1
     8.261959    4.792371    0.000000
    -8.250092    4.771840    0.000000
     0.000000    0.000000   30.000000
   V    Mo   W    S 
   3   3   3  18
Direct configuration=    19
  -0.00662412  0.66846588 -0.00004038
   0.34566809  0.67512481  0.00002306
  -0.00599171 -0.00439427 -0.00022814
   0.65515176 -0.00105900  0.00014771
   0.66202778  0.66577682 -0.00033517
   0.35503502  0.01763325  0.00007272
   1.00400109  0.32773391  0.00004537
   0.34439376  0.33140706  0.00003586
   0.64586972  0.31996481  0.00023730
   0.11028221  0.21509677  0.94868050
   0.21844964  0.10842724  0.05108660
   0.11443914  0.56066253  0.95138058
   0.22717609  0.44975716  0.05032316
   0.10901001  0.88721954  0.95127701
   0.22138091  0.77584086  0.04823981
   0.44441865  0.22351383  0.94377754
   0.55804305  0.11330423  0.05599036
   0.43957165  0.55669762  0.94779339
   0.55588571  0.44434037  0.05406015
   0.44008772  0.88307341  0.94709065
   0.54896815  0.77539781  0.05264581
   0.77748424  0.22409776  0.94814974
   0.89046791  0.10602092  0.05123915
   0.78017548  0.55477033  0.94924029
   0.88808850  0.44624732  0.04938108
   0.78185031  0.89236762  0.94910619
   0.89290367  0.78072588  0.05057955
unknown system                          
           1
     8.263269    4.794030    0.000000
    -8.250919    4.772662    0.000000
     0.000000    0.000000   30.000000
   V    Mo   W    S 
   3   3   3  18
Direct configuration=    20
  -0.00590036  0.66825825 -0.00002389
   0.34495823  0.67434278  0.00006004
  -0.00446134 -0.00357659 -0.00023247
   0.65552373 -0.00087729  0.00011625
   0.66176243  0.66561144 -0.00034210
   0.35415908  0.01731643  0.00011608
   1.00308484  0.32800180  0.00005920
   0.34386684  0.33127300  0.00006814
   0.64670070  0.32018450  0.00019429
   0.11024131  0.21538998  0.94865611
   0.21835686  0.10849567  0.05128244
   0.11439708  0.56072687  0.95121496
   0.22691161  0.44967116  0.05038308
   0.10885301  0.88704459  0.95113420
   0.22127670  0.77562983  0.04839771
   0.44437498  0.22351914  0.94388612
   0.55786603  0.11320450  0.05588688
   0.43948984  0.55668075  0.94778242
   0.55586057  0.44424661  0.05400332
   0.43997760  0.88293199  0.94717151
   0.54895228  0.77534729  0.05260893
   0.77743082  0.22392393  0.94796424
   0.89056947  0.10614289  0.05122122
   0.78044758  0.55500096  0.94921367
   0.88823416  0.44653742  0.04954951
   0.78215551  0.89241547  0.94913373
   0.89312489  0.78077107  0.05049432
unknown system                          
           1
     8.263136    4.795408    0.000000
    -8.249082    4.771098    0.000000
     0.000000    0.000000   30.000000
   V    Mo   W    S 
   3   3   3  18
Direct configuration=    21
  -0.00582409  0.66848583 -0.00005415
   0.34515363  0.67476713  0.00005394
  -0.00494856 -0.00386346 -0.00024645
   0.65578654 -0.00059690  0.00013405
   0.66191710  0.66585981 -0.00033760
   0.35441344  0.01761445  0.00010384
   1.00216991  0.32746446  0.00008562
   0.34439638  0.33112808  0.00006051
   0.64656406  0.31980125  0.00022861
   0.11025163  0.21541810  0.94875468
   0.21845162  0.10852601  0.05123032
   0.11435413  0.56062871  0.95127708
   0.22688712  0.44951389  0.05023253
   0.10897711  0.88716310  0.95119624
   0.22135409  0.77581485  0.04836321
   0.44443622  0.22352456  0.94379328
   0.55792067  0.11318431  0.05595438
   0.43949377  0.55663303  0.94779676
   0.55597416  0.44424924  0.05400361
   0.44002815  0.88306683  0.94715136
   0.54900142  0.77539313  0.05263104
   0.77727109  0.22383423  0.94790055
   0.89047787  0.10598808  0.05124640
   0.78035343  0.55486896  0.94928129
   0.88810604  0.44651874  0.04953218
   0.78209787  0.89242726  0.94914323
   0.89314963  0.78080077  0.05048340
unknown system                          
           1
     8.261123    4.792722    0.000000
    -8.248810    4.771418    0.000000
     0.000000    0.000000   30.000000
   V    Mo   W    S 
   3   3   3  18
Direct configuration=    22
  -0.00671642  0.66833821 -0.00000639
   0.34544971  0.67486730  0.00003124
  -0.00577274 -0.00431254 -0.00021805
   0.65504281 -0.00116216  0.00015225
   0.66206538  0.66565173 -0.00032595
   0.35490975  0.01753118  0.00007794
   1.00449779  0.32804859  0.00005347
   0.34414673  0.33145269  0.00005459
   0.64593569  0.32017102  0.00026437
   0.11030296  0.21510867  0.94862670
   0.21842791  0.10842166  0.05111729
   0.11445010  0.56074200  0.95132523
   0.22720336  0.44982085  0.05040514
   0.10895086  0.88712389  0.95125146
   0.22130743  0.77576977  0.04826120
   0.44433083  0.22347550  0.94377492
   0.55805775  0.11334777  0.05596169
   0.43956149  0.55670306  0.94775944
   0.55584765  0.44432719  0.05406667
   0.44004082  0.88301564  0.94707663
   0.54897936  0.77538215  0.05265623
   0.77753848  0.22412368  0.94816901
   0.89049284  0.10611383  0.05121303
   0.78024766  0.55484112  0.94920358
   0.88813867  0.44628528  0.04937851
   0.78186075  0.89235062  0.94910136
   0.89291684  0.78067577  0.05056831
unknown system                          
           1
     8.256781    4.789193    0.000000
    -8.245817    4.770220    0.000000
     0.000000    0.000000   30.000000
   V    Mo   W    S 
   3   3   3  18
Direct configuration=    23
  -0.00586956  0.66838139 -0.00003279
   0.34507733  0.67458655  0.00006111
  -0.00467102 -0.00372216 -0.00023373
   0.65569357 -0.00067383  0.00013610
   0.66184019  0.66573126 -0.00033001
   0.35428931  0.01749463  0.00011516
   1.00250018  0.32766663  0.00008933
   0.34416765  0.33119436  0.00008006
   0.64666193  0.31996484  0.00024296
   0.11025692  0.21541533  0.94870668
   0.21842710  0.10852701  0.05125371
   0.11436970  0.56066900  0.95125208
   0.22688339  0.44956474  0.05028573
   0.10893600  0.88711279  0.95116883
   0.22131591  0.77573296  0.04837348
   0.44438490  0.22351041  0.94381808
   0.55790614  0.11320123  0.05591910
   0.43947564  0.55663941  0.94778056
   0.55592846  0.44423656  0.05398762
   0.43999641  0.88301386  0.94715402
   0.54899154  0.77538260  0.05262508
   0.77733469  0.22386423  0.94791442
   0.89050426  0.10605365  0.05123237
   0.78039863  0.55493816  0.94925755
   0.88816269  0.44653372  0.04952986
   0.78211245  0.89242013  0.94914127
   0.89314005  0.78077500  0.05047126
unknown system                          
           1
     8.265018    4.795099    0.000000
    -8.253056    4.774399    0.000000
     0.000000    0.000000   30.000000
   V    Mo   W    S 
   3   3   3  18
Direct configuration=    24
  -0.00572593  0.66837932 -0.00008697
   0.34557220  0.67499401  0.00004640
  -0.00473126 -0.00364767 -0.00027575
   0.65593993 -0.00036454  0.00010637
   0.66142083  0.66566402 -0.00035669
   0.35449836  0.01768293  0.00007212
   1.00134777  0.32706092  0.00005939
   0.34468562  0.33129575  0.00000716
   0.64667685  0.31962569  0.00015917
   0.11029987  0.21549221  0.94876907
   0.21850570  0.10855395  0.05129366
   0.11436312  0.56056397  0.95130192
   0.22682033  0.44946207  0.05016256
   0.10915230  0.88727085  0.95115202
   0.22142465  0.77585808  0.04838317
   0.44451856  0.22357739  0.94378998
   0.55788448  0.11310881  0.05605116
   0.43946989  0.55661393  0.94777917
   0.55606532  0.44433762  0.05404758
   0.44004964  0.88311706  0.94714311