       N       E                     dE             d eps       ncg     rms          rms(c)
DAV:   1     0.112433679708E+04    0.11243E+04   -0.35865E+04  8160   0.577E+02
DAV:   2    -0.153030965602E+01   -0.11259E+04   -0.10828E+04 11200   0.173E+02
DAV:   3    -0.199822699836E+03   -0.19829E+03   -0.19027E+03 10880   0.821E+01
DAV:   4    -0.209069664883E+03   -0.92470E+01   -0.89788E+01 12080   0.263E+01
DAV:   5    -0.209393016716E+03   -0.32335E+00   -0.32248E+00 11400   0.364E+00    0.275E+01
DAV:   6    -0.237096218016E+03   -0.27703E+02   -0.11221E+02 12600   0.604E+01    0.597E+01
DAV:   7    -0.196368617993E+03    0.40728E+02   -0.17982E+02 13440   0.151E+02    0.197E+01
DAV:   8    -0.189119375826E+03    0.72492E+01   -0.15953E+01 11960   0.124E+01    0.119E+01
DAV:   9    -0.187441972850E+03    0.16774E+01   -0.27471E+00 13520   0.860E+00    0.610E+00
DAV:  10    -0.186969378433E+03    0.47259E+00   -0.11800E+00 13360   0.425E+00    0.239E+00
DAV:  11    -0.186975629149E+03   -0.62507E-02   -0.46449E-01 12800   0.214E+00    0.290E+00
DAV:  12    -0.186918982170E+03    0.56647E-01   -0.37715E-01 13080   0.286E+00    0.272E+00
DAV:  13    -0.186862304761E+03    0.56677E-01   -0.18230E-01 12880   0.257E+00    0.150E+00
DAV:  14    -0.186846865369E+03    0.15439E-01   -0.78717E-02 12840   0.146E+00    0.896E-01
DAV:  15    -0.186838332594E+03    0.85328E-02   -0.18537E-02 12120   0.586E-01    0.646E-01
DAV:  16    -0.186836895725E+03    0.14369E-02   -0.84836E-03 13440   0.507E-01    0.519E-01
DAV:  17    -0.186834759529E+03    0.21362E-02   -0.92498E-03 12280   0.522E-01    0.325E-01
DAV:  18    -0.186833693067E+03    0.10665E-02   -0.20443E-03 12600   0.229E-01    0.551E-02
DAV:  19    -0.186834222234E+03   -0.52917E-03   -0.81368E-04 10560   0.736E-02    0.994E-02
DAV:  20    -0.186834629269E+03   -0.40704E-03   -0.60766E-04  9600   0.643E-02    0.706E-02
DAV:  21    -0.186835478868E+03   -0.84960E-03   -0.26137E-04  7760   0.601E-02    0.289E-02
DAV:  22    -0.186836226057E+03   -0.74719E-03   -0.10159E-04  6400   0.367E-02    0.354E-02
DAV:  23    -0.186837452372E+03   -0.12263E-02   -0.15894E-04  7480   0.405E-02    0.782E-03
DAV:  24    -0.186838011890E+03   -0.55952E-03   -0.22639E-05  6720   0.121E-02    0.935E-03
DAV:  25    -0.186838441136E+03   -0.42925E-03   -0.17989E-05  5520   0.167E-02    0.662E-03
DAV:  26    -0.186838637998E+03   -0.19686E-03   -0.85792E-06  6840   0.795E-03    0.221E-03
DAV:  27    -0.186838737768E+03   -0.99770E-04   -0.44144E-06  6880   0.434E-03
   1 F= -.18683874E+03 E0= -.18666554E+03  d E =-.186839E+03
       N       E                     dE             d eps       ncg     rms          rms(c)
DAV:   1    -0.187434876881E+03   -0.59624E+00   -0.26827E+02  8160   0.347E+01    0.456E+00
DAV:   2    -0.189157687488E+03   -0.17228E+01   -0.19759E+01 12240   0.146E+01    0.729E+00
DAV:   3    -0.189354005916E+03   -0.19632E+00   -0.33455E+00 12400   0.114E+01    0.715E+00
DAV:   4    -0.188722333126E+03    0.63167E+00   -0.73615E-01 12600   0.505E+00    0.220E+00
DAV:   5    -0.188704723291E+03    0.17610E-01   -0.29798E-01 10960   0.196E+00    0.257E+00
DAV:   6    -0.188756351140E+03   -0.51628E-01   -0.45382E-01 12680   0.393E+00    0.416E+00
DAV:   7    -0.188619557799E+03    0.13679E+00   -0.32735E-01 12720   0.337E+00    0.107E+00
DAV:   8    -0.188614232161E+03    0.53256E-02   -0.58853E-02 12600   0.123E+00    0.114E+00
DAV:   9    -0.188603074820E+03    0.11157E-01   -0.23690E-02 12720   0.910E-01    0.382E-01
DAV:  10    -0.188602244471E+03    0.83035E-03   -0.48648E-03 11760   0.284E-01    0.212E-01
DAV:  11    -0.188601585106E+03    0.65936E-03   -0.26104E-03 12240   0.151E-01    0.793E-02
DAV:  12    -0.188601718861E+03   -0.13375E-03   -0.83105E-04 11000   0.856E-02    0.635E-02
DAV:  13    -0.188601701372E+03    0.17488E-04   -0.22199E-04  8040   0.494E-02
   2 F= -.18860170E+03 E0= -.18845430E+03  d E =-.176296E+01
       N       E                     dE             d eps       ncg     rms          rms(c)
DAV:   1    -0.190504658400E+03   -0.19029E+01   -0.30386E+01  9360   0.141E+01    0.449E+00
DAV:   2    -0.190569320147E+03   -0.64662E-01   -0.29395E+00 11120   0.100E+01    0.791E+00
DAV:   3    -0.189970438735E+03    0.59888E+00   -0.13758E+00 12360   0.870E+00    0.409E+00
DAV:   4    -0.189768954916E+03    0.20148E+00   -0.67253E-01 12720   0.377E+00    0.250E+00
DAV:   5    -0.189707546636E+03    0.61408E-01   -0.32606E-01 12240   0.237E+00    0.191E+00
DAV:   6    -0.189671694312E+03    0.35852E-01   -0.87059E-02 12200   0.189E+00    0.791E-01
DAV:   7    -0.189665440423E+03    0.62539E-02   -0.13958E-02 12120   0.604E-01    0.180E-01
DAV:   8    -0.189665557862E+03   -0.11744E-03   -0.23207E-03 10960   0.168E-01    0.137E-01
DAV:   9    -0.189665927552E+03   -0.36969E-03   -0.12805E-03 10600   0.181E-01    0.200E-01
DAV:  10    -0.189666086693E+03   -0.15914E-03   -0.15382E-03 10480   0.270E-01    0.216E-01
DAV:  11    -0.189665610901E+03    0.47579E-03   -0.76231E-04  9320   0.164E-01    0.285E-02
DAV:  12    -0.189665631573E+03   -0.20673E-04   -0.80680E-05  6200   0.335E-02
   3 F= -.18966563E+03 E0= -.18954072E+03  d E =-.106393E+01
       N       E                     dE             d eps       ncg     rms          rms(c)
DAV:   1    -0.191176116627E+03   -0.15105E+01   -0.63713E+01  8160   0.184E+01    0.467E+00
DAV:   2    -0.191129399264E+03    0.46717E-01   -0.53764E+00 13440   0.895E+00    0.597E+00
DAV:   3    -0.191025063715E+03    0.10434E+00   -0.16254E+00 12240   0.936E+00    0.587E+00
DAV:   4    -0.190660738329E+03    0.36433E+00   -0.10136E+00 13200   0.613E+00    0.238E+00
DAV:   5    -0.190605341501E+03    0.55397E-01   -0.30437E-01 12240   0.288E+00    0.210E+00
DAV:   6    -0.190565564845E+03    0.39777E-01   -0.12239E-01 12440   0.248E+00    0.965E-01
DAV:   7    -0.190560995317E+03    0.45695E-02   -0.25288E-02 12240   0.926E-01    0.451E-01
DAV:   8    -0.190557293201E+03    0.37021E-02   -0.64793E-03 10600   0.296E-01    0.152E-01
DAV:   9    -0.190558010063E+03   -0.71686E-03   -0.19755E-03 11480   0.269E-01    0.267E-01
DAV:  10    -0.190557592401E+03    0.41766E-03   -0.18098E-03 10800   0.298E-01    0.125E-01
DAV:  11    -0.190557432085E+03    0.16032E-03   -0.43192E-04  8800   0.110E-01    0.460E-02
DAV:  12    -0.190557426507E+03    0.55783E-05   -0.96419E-05  7240   0.490E-02
   4 F= -.19055743E+03 E0= -.19045470E+03  d E =-.891795E+00
       N       E                     dE             d eps       ncg     rms          rms(c)
DAV:   1    -0.191981180986E+03   -0.14237E+01   -0.12850E+02  8160   0.258E+01    0.590E+00
DAV:   2    -0.191668206867E+03    0.31297E+00   -0.94306E+00 13000   0.903E+00    0.481E+00
DAV:   3    -0.191985482676E+03   -0.31728E+00   -0.22292E+00 12160   0.111E+01    0.867E+00
DAV:   4    -0.191344349656E+03    0.64113E+00   -0.23045E+00 12240   0.111E+01    0.360E+00
DAV:   5    -0.191295573485E+03    0.48776E-01   -0.68409E-01 12200   0.571E+00    0.349E+00
DAV:   6    -0.191123769925E+03    0.17180E+00   -0.25030E-01 12120   0.380E+00    0.782E-01
DAV:   7    -0.191122152980E+03    0.16169E-02   -0.31225E-02 12240   0.883E-01    0.437E-01
DAV:   8    -0.191118930382E+03    0.32226E-02   -0.66085E-03 10800   0.333E-01    0.207E-01
DAV:   9    -0.191120241815E+03   -0.13114E-02   -0.38144E-03 12080   0.419E-01    0.371E-01
DAV:  10    -0.191119175208E+03    0.10666E-02   -0.33294E-03 11680   0.395E-01    0.117E-01
DAV:  11    -0.191119064011E+03    0.11120E-03   -0.55823E-04 10160   0.105E-01    0.628E-02
DAV:  12    -0.191119017310E+03    0.46702E-04   -0.11885E-04  7560   0.607E-02
   5 F= -.19111902E+03 E0= -.19103393E+03  d E =-.561591E+00
       N       E                     dE             d eps       ncg     rms          rms(c)
DAV:   1    -0.191166386886E+03   -0.47323E-01   -0.51629E+00  8160   0.482E+00    0.671E-01
DAV:   2    -0.191197770879E+03   -0.31384E-01   -0.19455E-01 13440   0.189E+00    0.154E+00
DAV:   3    -0.191172980815E+03    0.24790E-01   -0.70725E-02 12440   0.202E+00    0.638E-01
DAV:   4    -0.191169663386E+03    0.33174E-02   -0.12835E-02 10640   0.671E-01    0.424E-01
DAV:   5    -0.191168857083E+03    0.80630E-03   -0.80395E-03 11640   0.676E-01    0.400E-01
DAV:   6    -0.191167403617E+03    0.14535E-02   -0.40388E-03 11720   0.418E-01    0.151E-01
DAV:   7    -0.191167126044E+03    0.27757E-03   -0.13979E-03 10480   0.145E-01    0.627E-02
DAV:   8    -0.191167076334E+03    0.49710E-04   -0.21302E-04  7000   0.578E-02
   6 F= -.19116708E+03 E0= -.19108014E+03  d E =-.480590E-01
       N       E                     dE             d eps       ncg     rms          rms(c)
DAV:   1    -0.191202361513E+03   -0.35235E-01   -0.35628E+00  8160   0.395E+00    0.526E-01
DAV:   2    -0.191242245373E+03   -0.39884E-01   -0.14334E-01 13600   0.242E+00    0.178E+00
DAV:   3    -0.191206063556E+03    0.36182E-01   -0.59181E-02 12600   0.191E+00    0.280E-01
DAV:   4    -0.191205825811E+03    0.23775E-03   -0.48669E-03 11560   0.335E-01    0.263E-01
DAV:   5    -0.191205539391E+03    0.28642E-03   -0.31519E-03 11840   0.400E-01    0.264E-01
DAV:   6    -0.191204926037E+03    0.61335E-03   -0.16806E-03 10320   0.278E-01    0.983E-02
DAV:   7    -0.191204898693E+03    0.27344E-04   -0.53126E-04 10080   0.990E-02
   7 F= -.19120490E+03 E0= -.19111471E+03  d E =-.378224E-01
       N       E                     dE             d eps       ncg     rms          rms(c)
DAV:   1    -0.191257127743E+03   -0.52202E-01   -0.87578E+00  8160   0.618E+00    0.751E-01
DAV:   2    -0.191329822573E+03   -0.72695E-01   -0.28744E-01 13560   0.311E+00    0.238E+00
DAV:   3    -0.191266091396E+03    0.63731E-01   -0.12108E-01 12600   0.266E+00    0.469E-01
DAV:   4    -0.191264771500E+03    0.13199E-02   -0.10675E-02 11080   0.487E-01    0.380E-01
DAV:   5    -0.191264388379E+03    0.38312E-03   -0.71236E-03 12560   0.595E-01    0.411E-01
DAV:   6    -0.191262949088E+03    0.14393E-02   -0.41116E-03 11680   0.434E-01    0.161E-01
DAV:   7    -0.191262774361E+03    0.17473E-03   -0.11866E-03 10840   0.150E-01    0.665E-02
DAV:   8    -0.191262703704E+03    0.70658E-04   -0.28630E-04  8200   0.850E-02
   8 F= -.19126270E+03 E0= -.19116730E+03  d E =-.578050E-01
       N       E                     dE             d eps       ncg     rms          rms(c)
DAV:   1    -0.191247046326E+03    0.15728E-01   -0.64290E-01  8160   0.168E+00    0.204E-01
DAV:   2    -0.191252646418E+03   -0.56001E-02   -0.21462E-02 13560   0.793E-01    0.644E-01
DAV:   3    -0.191247654282E+03    0.49921E-02   -0.84192E-03 11720   0.705E-01    0.136E-01
DAV:   4    -0.191247658598E+03   -0.43159E-05   -0.10918E-03 10120   0.187E-01    0.140E-01
DAV:   5    -0.191247508221E+03    0.15038E-03   -0.66812E-04  9240   0.181E-01    0.914E-02
DAV:   6    -0.191247429288E+03    0.78933E-04   -0.23034E-04  6440   0.911E-02
   9 F= -.19124743E+03 E0= -.19115337E+03  d E =0.152744E-01
       N       E                     dE             d eps       ncg     rms          rms(c)
DAV:   1    -0.191250464010E+03   -0.29558E-02   -0.75489E-02  8160   0.579E-01    0.729E-02
DAV:   2    -0.191251020167E+03   -0.55616E-03   -0.26561E-03 13120   0.280E-01    0.219E-01
DAV:   3    -0.191250510666E+03    0.50950E-03   -0.10475E-03 10400   0.232E-01    0.579E-02
DAV:   4    -0.191250516145E+03   -0.54794E-05   -0.16426E-04  6640   0.870E-02
  10 F= -.19125052E+03 E0= -.19115606E+03  d E =-.308686E-02
       N       E                     dE             d eps       ncg     rms          rms(c)
DAV:   1    -0.191243259352E+03    0.72513E-02   -0.10725E+00  8160   0.219E+00    0.229E-01
DAV:   2    -0.191246642332E+03   -0.33830E-02   -0.29051E-02 13360   0.696E-01    0.477E-01
DAV:   3    -0.191244741964E+03    0.19004E-02   -0.76406E-03 12560   0.612E-01    0.255E-01
DAV:   4    -0.191244366521E+03    0.37544E-03   -0.18941E-03 10120   0.276E-01    0.159E-01
DAV:   5    -0.191244186352E+03    0.18017E-03   -0.11484E-03 10000   0.229E-01    0.136E-01
DAV:   6    -0.191244060794E+03    0.12556E-03   -0.58253E-04  8960   0.173E-01    0.712E-02
DAV:   7    -0.191243985825E+03    0.74970E-04   -0.15595E-04  6520   0.703E-02
  11 F= -.19124399E+03 E0= -.19115015E+03  d E =0.653032E-02
       N       E                     dE             d eps       ncg     rms          rms(c)
DAV:   1    -0.191226040196E+03    0.18021E-01   -0.13085E+01  8160   0.767E+00    0.833E-01
DAV:   2    -0.191270799236E+03   -0.44759E-01   -0.36360E-01 13440   0.245E+00    0.184E+00
DAV:   3    -0.191245106978E+03    0.25692E-01   -0.12355E-01 12320   0.234E+00    0.955E-01
DAV:   4    -0.191237084928E+03    0.80220E-02   -0.21573E-02 11960   0.859E-01    0.406E-01
DAV:   5    -0.191235647708E+03    0.14372E-02   -0.11978E-02 12600   0.601E-01    0.440E-01
DAV:   6    -0.191235520838E+03    0.12687E-03   -0.96034E-03 12280   0.701E-01    0.412E-01
DAV:   7    -0.191233842586E+03    0.16783E-02   -0.44556E-03 11480   0.427E-01    0.173E-01
DAV:   8    -0.191233647146E+03    0.19544E-03   -0.12049E-03 10720   0.245E-01    0.112E-01
DAV:   9    -0.191233506713E+03    0.14043E-03   -0.26947E-04  8480   0.117E-01    0.251E-02
DAV:  10    -0.191233513440E+03   -0.67272E-05   -0.77099E-05  6840   0.323E-02
  12 F= -.19123351E+03 E0= -.19114007E+03  d E =0.104724E-01
       N       E                     dE             d eps       ncg     rms          rms(c)
DAV:   1    -0.191241657963E+03   -0.81512E-02   -0.59329E-01  8160   0.163E+00    0.208E-01
DAV:   2    -0.191246910327E+03   -0.52524E-02   -0.24271E-02 12280   0.861E-01    0.637E-01
DAV:   3    -0.191242442587E+03    0.44677E-02   -0.89151E-03 11960   0.690E-01    0.140E-01
DAV:   4    -0.191242580464E+03   -0.13788E-03   -0.13559E-03 10040   0.235E-01    0.188E-01
DAV:   5    -0.191242271134E+03    0.30933E-03   -0.95813E-04  9120   0.224E-01    0.943E-02
DAV:   6    -0.191242191079E+03    0.80055E-04   -0.30973E-04  6720   0.939E-02
  13 F= -.19124219E+03 E0= -.19114733E+03  d E =-.867764E-02
       N       E                     dE             d eps       ncg     rms          rms(c)
DAV:   1    -0.191273743700E+03   -0.31473E-01   -0.30548E+00  8160   0.379E+00    0.634E-01
DAV:   2    -0.191308334391E+03   -0.34591E-01   -0.15930E-01 12960   0.238E+00    0.182E+00
DAV:   3    -0.191272598568E+03    0.35736E-01   -0.68434E-02 12400   0.197E+00    0.334E-01
DAV:   4    -0.191271447539E+03    0.11510E-02   -0.75307E-03 11480   0.324E-01    0.278E-01
DAV:   5    -0.191270416545E+03    0.10310E-02   -0.49516E-03 11000   0.367E-01    0.267E-01
DAV:   6    -0.191270317373E+03    0.99172E-04   -0.41749E-03 11240   0.440E-01    0.248E-01
DAV:   7    -0.191269672379E+03    0.64499E-03   -0.13729E-03 10000   0.233E-01    0.466E-02
DAV:   8    -0.191269639606E+03    0.32773E-04   -0.12179E-04  6160   0.485E-02
  14 F= -.19126964E+03 E0= -.19117077E+03  d E =-.274485E-01
       N       E                     dE             d eps       ncg     rms          rms(c)
DAV:   1    -0.191283116895E+03   -0.13445E-01   -0.91018E-01  8160   0.201E+00    0.197E-01
DAV:   2    -0.191285212775E+03   -0.20959E-02   -0.23695E-02 12280   0.463E-01    0.280E-01
DAV:   3    -0.191285114018E+03    0.98757E-04   -0.52718E-03 12680   0.502E-01    0.301E-01
DAV:   4    -0.191284296738E+03    0.81728E-03   -0.16635E-03 10200   0.274E-01    0.124E-01
DAV:   5    -0.191284272041E+03    0.24697E-04   -0.73569E-04  8880   0.185E-01
  15 F= -.19128427E+03 E0= -.19118429E+03  d E =-.146324E-01
       N       E                     dE             d eps       ncg     rms          rms(c)
DAV:   1    -0.191295932438E+03   -0.11636E-01   -0.51130E-01  8160   0.152E+00    0.213E-01
DAV:   2    -0.191301682178E+03   -0.57497E-02   -0.21635E-02 13480   0.861E-01    0.682E-01
DAV:   3    -0.191296325294E+03    0.53569E-02   -0.91218E-03 11800   0.725E-01    0.109E-01
DAV:   4    -0.191296360160E+03   -0.34866E-04   -0.67803E-04 10240   0.118E-01
  16 F= -.19129636E+03 E0= -.19119536E+03  d E =-.120881E-01
       N       E                     dE             d eps       ncg     rms          rms(c)
DAV:   1    -0.191274342320E+03    0.21983E-01   -0.18177E+00  8160   0.288E+00    0.439E-01
DAV:   2    -0.191304422198E+03   -0.30080E-01   -0.10686E-01 12400   0.204E+00    0.155E+00
DAV:   3    -0.191275587310E+03    0.28835E-01   -0.40078E-02 11520   0.152E+00    0.210E-01
DAV:   4    -0.191276446355E+03   -0.85905E-03   -0.48465E-03 11360   0.464E-01    0.375E-01
DAV:   5    -0.191275116769E+03    0.13296E-02   -0.31472E-03 11080   0.405E-01    0.148E-01
DAV:   6    -0.191274874611E+03    0.24216E-03   -0.93533E-04 10160   0.134E-01    0.664E-02
DAV:   7    -0.191274818554E+03    0.56057E-04   -0.26431E-04  7600   0.685E-02
  17 F= -.19127482E+03 E0= -.19117625E+03  d E =0.215416E-01
       N       E                     dE             d eps       ncg     rms          rms(c)
DAV:   1    -0.191323773508E+03   -0.48899E-01   -0.71559E+00  8160   0.574E+00    0.844E-01
DAV:   2    -0.191399023208E+03   -0.75250E-01   -0.32238E-01 13440   0.338E+00    0.261E+00
DAV:   3    -0.191327025203E+03    0.71998E-01   -0.14253E-01 12400   0.278E+00    0.454E-01
DAV:   4    -0.191326239111E+03    0.78609E-03   -0.15761E-02 12320   0.604E-01    0.535E-01
DAV:   5    -0.191325480167E+03    0.75894E-03   -0.16739E-02 11760   0.851E-01    0.589E-01
DAV:   6    -0.191322285250E+03    0.31949E-02   -0.95230E-03 11640   0.596E-01    0.176E-01
DAV:   7    -0.191321927918E+03    0.35733E-03   -0.14689E-03 11160   0.169E-01    0.590E-02
DAV:   8    -0.191321904695E+03    0.23223E-04   -0.27723E-04  8160   0.103E-01
  18 F= -.19132190E+03 E0= -.19121838E+03  d E =-.470861E-01
       N       E                     dE             d eps       ncg     rms          rms(c)
DAV:   1    -0.191288395664E+03    0.33532E-01   -0.59020E+00  8160   0.522E+00    0.788E-01
DAV:   2    -0.191352384029E+03   -0.63988E-01   -0.28723E-01 12320   0.316E+00    0.225E+00
DAV:   3    -0.191290636170E+03    0.61748E-01   -0.94431E-02 12360   0.237E+00    0.412E-01
DAV:   4    -0.191291083142E+03   -0.44697E-03   -0.14576E-02 11520   0.654E-01    0.558E-01
DAV:   5    -0.191289154601E+03    0.19285E-02   -0.13034E-02 12400   0.813E-01    0.472E-01
DAV:   6    -0.191286991640E+03    0.21630E-02   -0.64041E-03 11440   0.485E-01    0.162E-01
DAV:   7    -0.191286700879E+03    0.29076E-03   -0.13345E-03 11080   0.157E-01    0.616E-02
DAV:   8    -0.191286658294E+03    0.42585E-04   -0.22346E-04  7720   0.811E-02
  19 F= -.19128666E+03 E0= -.19118735E+03  d E =0.352464E-01
       N       E                     dE             d eps       ncg     rms          rms(c)
DAV:   1    -0.191333073542E+03   -0.46373E-01   -0.72573E+00  8160   0.575E+00    0.758E-01
DAV:   2    -0.191401274579E+03   -0.68201E-01   -0.30064E-01 13480   0.313E+00    0.238E+00
DAV:   3    -0.191340957681E+03    0.60317E-01   -0.12422E-01 12360   0.255E+00    0.436E-01
DAV:   4    -0.191341619845E+03   -0.66216E-03   -0.15089E-02 12320   0.684E-01    0.613E-01
DAV:   5    -0.191338800559E+03    0.28193E-02   -0.12892E-02 12000   0.763E-01    0.385E-01
DAV:   6    -0.191337380265E+03    0.14203E-02   -0.49811E-03 11800   0.386E-01    0.156E-01
DAV:   7    -0.191337288941E+03    0.91324E-04   -0.17336E-03 12160   0.212E-01    0.159E-01
DAV:   8    -0.191337047778E+03    0.24116E-03   -0.74121E-04  8760   0.181E-01    0.615E-02
DAV:   9    -0.191337019199E+03    0.28579E-04   -0.11514E-04  6240   0.621E-02
  20 F= -.19133702E+03 E0= -.19123322E+03  d E =-.503609E-01
       N       E                     dE             d eps       ncg     rms          rms(c)
DAV:   1    -0.191341342641E+03   -0.42949E-02   -0.36795E-01  8160   0.129E+00    0.149E-01
DAV:   2    -0.191343747712E+03   -0.24051E-02   -0.12696E-02 13440   0.564E-01    0.458E-01
DAV:   3    -0.191341767842E+03    0.19799E-02   -0.48843E-03 11840   0.477E-01    0.128E-01
DAV:   4    -0.191341736898E+03    0.30944E-04   -0.70124E-04  8720   0.160E-01
  21 F= -.19134174E+03 E0= -.19123782E+03  d E =-.471770E-02
       N       E                     dE             d eps       ncg     rms          rms(c)
DAV:   1    -0.191368342460E+03   -0.26575E-01   -0.21604E+00  8160   0.315E+00    0.335E-01
DAV:   2    -0.191375903697E+03   -0.75612E-02   -0.63319E-02 13600   0.102E+00    0.651E-01
DAV:   3    -0.191371967181E+03    0.39365E-02   -0.15042E-02 12320   0.892E-01    0.324E-01
DAV:   4    -0.191371012848E+03    0.95433E-03   -0.31027E-03 10960   0.307E-01    0.178E-01
DAV:   5    -0.191370943096E+03    0.69752E-04   -0.21260E-03 10800   0.290E-01    0.218E-01
DAV:   6    -0.191370669903E+03    0.27319E-03   -0.18966E-03 10040   0.281E-01    0.128E-01
DAV:   7    -0.191370487676E+03    0.18223E-03   -0.43784E-04  8440   0.112E-01    0.275E-02
DAV:   8    -0.191370492995E+03   -0.53194E-05   -0.81592E-05  6800   0.511E-02
  22 F= -.19137049E+03 E0= -.19126507E+03  d E =-.287561E-01
       N       E                     dE             d eps       ncg     rms          rms(c)
DAV:   1    -0.191330474726E+03    0.40013E-01   -0.59414E+00  8160   0.525E+00    0.630E-01
DAV:   2    -0.191356228322E+03   -0.25754E-01   -0.19366E-01 13120   0.190E+00    0.132E+00
DAV:   3    -0.191338296085E+03    0.17932E-01   -0.49836E-02 12440   0.163E+00    0.555E-01
DAV:   4    -0.191337629637E+03    0.66645E-03   -0.14764E-02 11440   0.724E-01    0.572E-01
DAV:   5    -0.191335076649E+03    0.25530E-02   -0.10426E-02 11760   0.723E-01    0.341E-01
DAV:   6    -0.191334132541E+03    0.94411E-03   -0.40584E-03 11640   0.338E-01    0.148E-01
DAV:   7    -0.191333727906E+03    0.40463E-03   -0.97835E-04 10480   0.121E-01    0.337E-02
DAV:   8    -0.191333728887E+03   -0.98103E-06   -0.10816E-04  7160   0.386E-02
  23 F= -.19133373E+03 E0= -.19123039E+03  d E =0.367641E-01
       N       E                     dE             d eps       ncg     rms          rms(c)
DAV:   1    -0.191388011148E+03   -0.54283E-01   -0.84112E+00  8160   0.622E+00    0.788E-01
DAV:   2    -0.191453335157E+03   -0.65324E-01   -0.32586E-01 13400   0.303E+00    0.228E+00
DAV:   3    -0.191398929846E+03    0.54405E-01   -0.11946E-01 12360   0.253E+00    0.515E-01
DAV:   4    -0.191398185711E+03    0.74414E-03   -0.15354E-02 12200   0.647E-01    0.556E-01
DAV:   5    -0.191396546966E+03    0.16387E-02   -0.15077E-02 12040   0.793E-01    0.496E-01
DAV:   6    -0.191394364269E+03    0.21827E-02   -0.74808E-03 11240   0.500E-01    0.176E-01
DAV:   7    -0.191394097652E+03    0.26662E-03   -0.18703E-03 12000   0.193E-01    0.129E-01
DAV:   8    -0.191393967464E+03    0.13019E-03   -0.71439E-04  9280   0.172E-01    0.850E-02
DAV:   9    -0.191393901312E+03    0.66152E-04   -0.18520E-04  6040   0.851E-02
  24 F= -.19139390E+03 E0= -.19128732E+03  d E =-.601724E-01
       N       E                     dE             d eps       ncg     rms          rms(c)
DAV:   1    -0.191393028387E+03    0.93908E-03   -0.70094E-01  8160   0.180E+00    0.186E-01
DAV:   2    -0.191394992725E+03   -0.19643E-02   -0.17804E-02 13040   0.491E-01    0.376E-01
DAV:   3    -0.191394039537E+03    0.95319E-03   -0.54034E-03 12000   0.476E-01    0.225E-01
DAV:   4    -0.191393603886E+03    0.43565E-03   -0.10917E-03  9200   0.188E-01    0.853E-02
DAV:   5    -0.191393617603E+03   -0.13716E-04   -0.58641E-04  9480   0.136E-01
  25 F= -.19139362E+03 E0= -.19128664E+03  d E =0.283709E-03
       N       E                     dE             d eps       ncg     rms          rms(c)
DAV:   1    -0.191434281788E+03   -0.40678E-01   -0.37449E+00  8160   0.408E+00    0.486E-01
DAV:   2    -0.191465782242E+03   -0.31500E-01   -0.12896E-01 12880   0.201E+00    0.161E+00
DAV:   3    -0.191438320447E+03    0.27462E-01   -0.51718E-02 12400   0.169E+00    0.313E-01
DAV:   4    -0.191439019365E+03   -0.69892E-03   -0.74020E-03 11600   0.499E-01    0.432E-01
DAV:   5    -0.191437509362E+03    0.15100E-02   -0.58082E-03 10760   0.489E-01    0.225E-01
DAV:   6    -0.191437021054E+03    0.48831E-03   -0.16702E-03 10240   0.203E-01    0.890E-02
DAV:   7    -0.191436965573E+03    0.55481E-04   -0.53682E-04 10960   0.866E-02
  26 F= -.19143697E+03 E0= -.19132904E+03  d E =-.433480E-01
       N       E                     dE             d eps       ncg     rms          rms(c)
DAV:   1    -0.191230076244E+03    0.20694E+00   -0.56179E+01  8160   0.159E+01    0.180E+00
DAV:   2    -0.191582894457E+03   -0.35282E+00   -0.18625E+00 13160   0.652E+00    0.460E+00
DAV:   3    -0.191301491343E+03    0.28140E+00   -0.45528E-01 12240   0.507E+00    0.108E+00
DAV:   4    -0.191293436782E+03    0.80546E-02   -0.62578E-02 12280   0.118E+00    0.779E-01
DAV:   5    -0.191286660213E+03    0.67766E-02   -0.33239E-02 11440   0.983E-01    0.720E-01
DAV:   6    -0.191288607422E+03   -0.19472E-02   -0.31949E-02 11200   0.121E+00    0.840E-01
DAV:   7    -0.191281769029E+03    0.68384E-02   -0.15992E-02 12440   0.770E-01    0.167E-01
DAV:   8    -0.191281325210E+03    0.44382E-03   -0.15336E-03 11280   0.164E-01    0.682E-02
DAV:   9    -0.191281312517E+03    0.12693E-04   -0.40513E-04  9640   0.102E-01
  27 F= -.19128131E+03 E0= -.19118114E+03  d E =0.155653E+00
       N       E                     dE             d eps       ncg     rms          rms(c)
DAV:   1    -0.191104348144E+03    0.17698E+00   -0.82692E+01  8160   0.192E+01    0.226E+00
DAV:   2    -0.191649618620E+03   -0.54527E+00   -0.27906E+00 13560   0.820E+00    0.566E+00
DAV:   3    -0.191196972552E+03    0.45265E+00   -0.64374E-01 11800   0.628E+00    0.135E+00
DAV:   4    -0.191193358278E+03    0.36143E-02   -0.11662E-01 12960   0.185E+00    0.141E+00
DAV:   5    -0.191183013186E+03    0.10345E-01   -0.91068E-02 11160   0.198E+00    0.118E+00
DAV:   6    -0.191168672998E+03    0.14340E-01   -0.35903E-02 11240   0.124E+00    0.427E-01
DAV:   7    -0.191166818162E+03    0.18548E-02   -0.10131E-02 12560   0.448E-01    0.194E-01
DAV:   8    -0.191165957808E+03    0.86035E-03   -0.20623E-03 11320   0.188E-01    0.774E-02
DAV:   9    -0.191165963624E+03   -0.58161E-05   -0.52798E-04 10560   0.103E-01
  28 F= -.19116596E+03 E0= -.19107584E+03  d E =0.115349E+00
       N       E                     dE             d eps       ncg     rms          rms(c)
DAV:   1    -0.191187415195E+03   -0.21457E-01   -0.46225E+00  8160   0.456E+00    0.580E-01
DAV:   2    -0.191227693759E+03   -0.40279E-01   -0.19654E-01 13560   0.236E+00    0.177E+00
DAV:   3    -0.191195266692E+03    0.32427E-01   -0.69619E-02 12200   0.193E+00    0.418E-01
DAV:   4    -0.191195832476E+03   -0.56578E-03   -0.10905E-02 11360   0.680E-01    0.525E-01
DAV:   5    -0.191193284808E+03    0.25477E-02   -0.71522E-03 11080   0.611E-01    0.250E-01
DAV:   6    -0.191192627830E+03    0.65698E-03   -0.21238E-03 10640   0.236E-01    0.976E-02
DAV:   7    -0.191192610811E+03    0.17019E-04   -0.84929E-04 11000   0.134E-01
  29 F= -.19119261E+03 E0= -.19110073E+03  d E =-.266472E-01
       N       E                     dE             d eps       ncg     rms          rms(c)
DAV:   1    -0.191121705794E+03    0.70922E-01   -0.40798E+01  8160   0.135E+01    0.158E+00
DAV:   2    -0.191393709499E+03   -0.27200E+00   -0.13568E+00 13440   0.562E+00    0.422E+00
DAV:   3    -0.191173161586E+03    0.22055E+00   -0.40415E-01 12160   0.477E+00    0.129E+00
DAV:   4    -0.191174225880E+03   -0.10643E-02   -0.92390E-02 12360   0.189E+00    0.148E+00
DAV:   5    -0.191156330375E+03    0.17896E-01   -0.63408E-02 11600   0.166E+00    0.688E-01
DAV:   6    -0.191150355845E+03    0.59745E-02   -0.13700E-02 11920   0.675E-01    0.244E-01
DAV:   7    -0.191150103545E+03    0.25230E-03   -0.51527E-03 11640   0.276E-01    0.155E-01
DAV:   8    -0.191149507663E+03    0.59588E-03   -0.13832E-03 11320   0.177E-01    0.833E-02
DAV:   9    -0.191149550047E+03   -0.42383E-04   -0.46037E-04  9080   0.156E-01
  30 F= -.19114955E+03 E0= -.19105679E+03  d E =0.430608E-01
       N       E                     dE             d eps       ncg     rms          rms(c)
DAV:   1    -0.191155987249E+03   -0.64796E-02   -0.76374E+01  8160   0.185E+01    0.220E+00
DAV:   2    -0.191769615287E+03   -0.61363E+00   -0.27473E+00 13600   0.860E+00    0.754E+00
DAV:   3    -0.191279780303E+03    0.48983E+00   -0.14888E+00 12240   0.822E+00    0.191E+00
DAV:   4    -0.191271383401E+03    0.83969E-02   -0.19203E-01 12120   0.264E+00    0.186E+00
DAV:   5    -0.191235270509E+03    0.36113E-01   -0.86695E-02 11000   0.212E+00    0.958E-01
DAV:   6    -0.191224762282E+03    0.10508E-01   -0.32388E-02 11360   0.949E-01    0.408E-01
DAV:   7    -0.191223682960E+03    0.10793E-02   -0.13166E-02 11680   0.464E-01    0.278E-01
DAV:   8    -0.191222912882E+03    0.77008E-03   -0.50432E-03 12240   0.456E-01    0.299E-01
DAV:   9    -0.191222085821E+03    0.82706E-03   -0.20229E-03 10120   0.314E-01    0.859E-02
DAV:  10    -0.191222019107E+03    0.66714E-04   -0.35554E-04  7560   0.840E-02
  31 F= -.19122202E+03 E0= -.19112724E+03  d E =-.724691E-01
       N       E                     dE             d eps       ncg     rms          rms(c)
DAV:   1    -0.191228341699E+03   -0.62559E-02   -0.50812E-01  8160   0.150E+00    0.190E-01
DAV:   2    -0.191233083523E+03   -0.47418E-02   -0.22126E-02 13560   0.841E-01    0.595E-01
DAV:   3    -0.191229223228E+03    0.38603E-02   -0.77325E-03 11560   0.639E-01    0.142E-01
DAV:   4    -0.191229246030E+03   -0.22801E-04   -0.12391E-03  9560   0.210E-01    0.163E-01
DAV:   5    -0.191229047807E+03    0.19822E-03   -0.74854E-04  8400   0.192E-01    0.935E-02
DAV:   6    -0.191228955544E+03    0.92263E-04   -0.23836E-04  6240   0.888E-02
  32 F= -.19122896E+03 E0= -.19113292E+03  d E =-.693644E-02
       N       E                     dE             d eps       ncg     rms          rms(c)
DAV:   1    -0.191239539192E+03   -0.10491E-01   -0.75006E-01  8160   0.182E+00    0.206E-01
DAV:   2    -0.191244725176E+03   -0.51860E-02   -0.23309E-02 13600   0.846E-01    0.641E-01
DAV:   3    -0.191240269952E+03    0.44552E-02   -0.85925E-03 11480   0.681E-01    0.139E-01
DAV:   4    -0.191240498066E+03   -0.22811E-03   -0.14181E-03  9560   0.237E-01    0.203E-01
DAV:   5    -0.191240114399E+03    0.38367E-03   -0.98497E-04  9320   0.215E-01    0.805E-02
DAV:   6    -0.191240070528E+03    0.43872E-04   -0.22086E-04  6480   0.773E-02
  33 F= -.19124007E+03 E0= -.19114287E+03  d E =-.111150E-01
       N       E                     dE             d eps       ncg     rms          rms(c)
DAV:   1    -0.191237333509E+03    0.27809E-02   -0.20588E-01  8160   0.972E-01    0.127E-01
DAV:   2    -0.191238419910E+03   -0.10864E-02   -0.78572E-03 13520   0.389E-01    0.305E-01
DAV:   3    -0.191237603077E+03    0.81683E-03   -0.29491E-03 11520   0.365E-01    0.145E-01
DAV:   4    -0.191237424061E+03    0.17902E-03   -0.65367E-04  8360   0.150E-01    0.728E-02
DAV:   5    -0.191237384966E+03    0.39095E-04   -0.28102E-04  7080   0.115E-01
  34 F= -.19123738E+03 E0= -.19113994E+03  d E =0.268556E-02
       N       E                     dE             d eps       ncg     rms          rms(c)
DAV:   1    -0.191252937150E+03   -0.15513E-01   -0.15469E+00  8160   0.260E+00    0.314E-01
DAV:   2    -0.191266002790E+03   -0.13066E-01   -0.52212E-02 13560   0.132E+00    0.103E+00
DAV:   3    -0.191254141704E+03    0.11861E-01   -0.20961E-02 12040   0.107E+00    0.182E-01
DAV:   4    -0.191254548983E+03   -0.40728E-03   -0.26585E-03 11560   0.312E-01    0.272E-01
DAV:   5    -0.191253951223E+03    0.59776E-03   -0.22056E-03  9880   0.320E-01    0.148E-01
DAV:   6    -0.191253746674E+03    0.20455E-03   -0.68531E-04  9680   0.137E-01    0.538E-02
DAV:   7    -0.191253760518E+03   -0.13844E-04   -0.22321E-04  7200   0.849E-02
  35 F= -.19125376E+03 E0= -.19115424E+03  d E =-.163756E-01
       N       E                     dE             d eps       ncg     rms          rms(c)
DAV:   1    -0.191253798421E+03   -0.51747E-04   -0.17027E-04  6280   0.902E-02    0.288E-02
DAV:   2    -0.191254008026E+03   -0.20961E-03   -0.41947E-04  8120   0.151E-01    0.144E-01
DAV:   3    -0.191253778846E+03    0.22918E-03   -0.31914E-04  7200   0.131E-01    0.133E-02
DAV:   4    -0.191253792851E+03   -0.14005E-04   -0.14808E-05  5800   0.163E-02
  36 F= -.19125379E+03 E0= -.19115428E+03  d E =-.323326E-04
       N       E                     dE             d eps       ncg     rms          rms(c)
DAV:   1    -0.191272603415E+03   -0.18825E-01   -0.20038E+00  8160   0.296E+00    0.293E-01
DAV:   2    -0.191279728562E+03   -0.71251E-02   -0.43307E-02 13320   0.834E-01    0.716E-01
DAV:   3    -0.191274561111E+03    0.51675E-02   -0.15601E-02 12320   0.872E-01    0.290E-01
DAV:   4    -0.191274333995E+03    0.22712E-03   -0.31709E-03 11240   0.346E-01    0.259E-01
DAV:   5    -0.191273795563E+03    0.53843E-03   -0.20836E-03  9760   0.321E-01    0.149E-01
DAV:   6    -0.191273652099E+03    0.14346E-03   -0.80975E-04  9880   0.160E-01    0.814E-02
DAV:   7    -0.191273648941E+03    0.31582E-05   -0.45573E-04  8920   0.119E-01
  37 F= -.19127365E+03 E0= -.19117219E+03  d E =-.198561E-01
       N       E                     dE             d eps       ncg     rms          rms(c)
DAV:   1    -0.191272544473E+03    0.11076E-02   -0.47901E-02  8160   0.470E-01    0.734E-02
DAV:   2    -0.191273424020E+03   -0.87955E-03   -0.27454E-03 12160   0.307E-01    0.292E-01
DAV:   3    -0.191272539178E+03    0.88484E-03   -0.15885E-03  9760   0.281E-01    0.483E-02
DAV:   4    -0.191272543636E+03   -0.44585E-05   -0.10795E-04  5640   0.607E-02
  38 F= -.19127254E+03 E0= -.19117125E+03  d E =0.110530E-02
       N       E                     dE             d eps       ncg     rms          rms(c)
DAV:   1    -0.191297176213E+03   -0.24637E-01   -0.22934E+00  8160   0.320E+00    0.434E-01
DAV:   2    -0.191318211269E+03   -0.21035E-01   -0.86331E-02 13440   0.179E+00    0.137E+00
DAV:   3    -0.191297642528E+03    0.20569E-01   -0.36703E-02 12000   0.141E+00    0.223E-01
DAV:   4    -0.191297698829E+03   -0.56301E-04   -0.38379E-03 12080   0.306E-01    0.272E-01
DAV:   5    -0.191297659568E+03    0.39261E-04   -0.44480E-03 10680   0.434E-01    0.326E-01
DAV:   6    -0.191296707532E+03    0.95204E-03   -0.25758E-03 10000   0.308E-01    0.908E-02
DAV:   7    -0.191296667575E+03    0.39956E-04   -0.50168E-04  8800   0.107E-01
  39 F= -.19129667E+03 E0= -.19119278E+03  d E =-.241239E-01
       N       E                     dE             d eps       ncg     rms          rms(c)
DAV:   1    -0.191305376111E+03   -0.86686E-02   -0.26022E-01  8160   0.108E+00    0.135E-01
DAV:   2    -0.191308170650E+03   -0.27945E-02   -0.10144E-02 13440   0.516E-01    0.506E-01
DAV:   3    -0.191305553295E+03    0.26174E-02   -0.55047E-03 11200   0.501E-01    0.104E-01
DAV:   4    -0.191305583437E+03   -0.30142E-04   -0.54205E-04  8400   0.130E-01
  40 F= -.19130558E+03 E0= -.19120116E+03  d E =-.891586E-02
       N       E                     dE             d eps       ncg     rms          rms(c)
DAV:   1    -0.191313334962E+03   -0.77817E-02   -0.33372E-01  8160   0.125E+00    0.215E-01
DAV:   2    -0.191315267485E+03   -0.19325E-02   -0.14967E-02 12000   0.638E-01    0.482E-01
DAV:   3    -0.191313166505E+03    0.21010E-02   -0.65827E-03 11640   0.569E-01    0.214E-01
DAV:   4    -0.191312955219E+03    0.21129E-03   -0.21124E-03  9760   0.289E-01    0.187E-01
DAV:   5    -0.191312849858E+03    0.10536E-03   -0.16286E-03  9680   0.279E-01    0.172E-01
DAV:   6    -0.191312579243E+03    0.27062E-03   -0.84448E-04  9560   0.177E-01    0.698E-02
DAV:   7    -0.191312553374E+03    0.25869E-04   -0.29257E-04  6760   0.104E-01
  41 F= -.19131255E+03 E0= -.19120784E+03  d E =-.696994E-02
       N       E                     dE             d eps       ncg     rms          rms(c)
DAV:   1    -0.191341669928E+03   -0.29091E-01   -0.24586E+00  8160   0.329E+00    0.372E-01
DAV:   2    -0.191358226355E+03   -0.16556E-01   -0.73334E-02 13360   0.156E+00    0.116E+00
DAV:   3    -0.191343388893E+03    0.14837E-01   -0.27837E-02 12280   0.120E+00    0.215E-01
DAV:   4    -0.191343606750E+03   -0.21786E-03   -0.32991E-03 11000   0.308E-01    0.261E-01
DAV:   5    -0.191343343457E+03    0.26329E-03   -0.33775E-03 11240   0.389E-01    0.249E-01
DAV:   6    -0.191342775692E+03    0.56777E-03   -0.16324E-03  9760   0.250E-01    0.785E-02
DAV:   7    -0.191342759169E+03    0.16522E-04   -0.39522E-04  7760   0.952E-02
  42 F= -.19134276E+03 E0= -.19123604E+03  d E =-.302058E-01
       N       E                     dE             d eps       ncg     rms          rms(c)
DAV:   1    -0.191366682784E+03   -0.23907E-01   -0.13753E+00  8160   0.249E+00    0.311E-01
DAV:   2    -0.191376731114E+03   -0.10048E-01   -0.46916E-02 13400   0.122E+00    0.930E-01
DAV:   3    -0.191367256460E+03    0.94747E-02   -0.17716E-02 11640   0.953E-01    0.168E-01
DAV:   4    -0.191367480430E+03   -0.22397E-03   -0.23961E-03 10440   0.249E-01    0.235E-01
DAV:   5    -0.191367247386E+03    0.23304E-03   -0.25318E-03  9800   0.325E-01    0.220E-01
DAV:   6    -0.191366842735E+03    0.40465E-03   -0.13743E-03  9760   0.218E-01    0.763E-02
DAV:   7    -0.191366770240E+03    0.72494E-04   -0.24222E-04  5960   0.666E-02
  43 F= -.19136677E+03 E0= -.19125875E+03  d E =-.240111E-01
       N       E                     dE             d eps       ncg     rms          rms(c)
DAV:   1    -0.191385886263E+03   -0.19044E-01   -0.82707E-01  8160   0.191E+00    0.181E-01
DAV:   2    -0.191388618595E+03   -0.27323E-02   -0.17847E-02 12840   0.519E-01    0.422E-01
DAV:   3    -0.191386693713E+03    0.19249E-02   -0.53794E-03 11960   0.511E-01    0.167E-01
DAV:   4    -0.191386620230E+03    0.73484E-04   -0.10465E-03  9840   0.187E-01    0.134E-01
DAV:   5    -0.191386577646E+03    0.42584E-04   -0.96092E-04  8760   0.198E-01
  44 F= -.19138658E+03 E0= -.19127785E+03  d E =-.198074E-01
       N       E                     dE             d eps       ncg     rms          rms(c)
DAV:   1    -0.191402175449E+03   -0.15555E-01   -0.58596E-01  8160   0.163E+00    0.188E-01
DAV:   2    -0.191404130394E+03   -0.19549E-02   -0.15514E-02 12280   0.461E-01    0.394E-01
DAV:   3    -0.191402818222E+03    0.13122E-02   -0.59250E-03 11320   0.495E-01    0.225E-01
DAV:   4    -0.191402688214E+03    0.13001E-03   -0.18401E-03  9680   0.251E-01    0.196E-01
DAV:   5    -0.191402349046E+03    0.33917E-03   -0.95463E-04  8360   0.218E-01    0.848E-02
DAV:   6    -0.191402341326E+03    0.77202E-05   -0.38472E-04  7280   0.990E-02
  45 F= -.19140234E+03 E0= -.19129363E+03  d E =-.157637E-01
       N       E                     dE             d eps       ncg     rms          rms(c)
DAV:   1    -0.191431229899E+03   -0.28881E-01   -0.16734E+00  8160   0.273E+00    0.309E-01
DAV:   2    -0.191442062950E+03   -0.10833E-01   -0.50990E-02 13400   0.124E+00    0.965E-01
DAV:   3    -0.191432625250E+03    0.94377E-02   -0.19779E-02 11920   0.988E-01    0.236E-01
DAV:   4    -0.191433134272E+03   -0.50902E-03   -0.42046E-03 11400   0.403E-01    0.334E-01
DAV:   5    -0.191432203573E+03    0.93070E-03   -0.31025E-03 10320   0.366E-01    0.157E-01
DAV:   6    -0.191431989419E+03    0.21415E-03   -0.99184E-04 10240   0.161E-01    0.841E-02
DAV:   7    -0.191432156327E+03   -0.16691E-03   -0.80841E-04  9280   0.186E-01    0.164E-01
DAV:   8    -0.191431883742E+03    0.27258E-03   -0.47977E-04  8480   0.148E-01    0.209E-02
DAV:   9    -0.191431892721E+03   -0.89784E-05   -0.31935E-05  5840   0.237E-02
  46 F= -.19143189E+03 E0= -.19132267E+03  d E =-.295514E-01
       N       E                     dE             d eps       ncg     rms          rms(c)
DAV:   1    -0.191486541608E+03   -0.54658E-01   -0.58144E+00  8160   0.510E+00    0.543E-01
DAV:   2    -0.191517447736E+03   -0.30906E-01   -0.16785E-01 13280   0.213E+00    0.154E+00
DAV:   3    -0.191492229328E+03    0.25218E-01   -0.50630E-02 12520   0.164E+00    0.319E-01
DAV:   4    -0.191491755030E+03    0.47430E-03   -0.56433E-03 11840   0.353E-01    0.275E-01
DAV:   5    -0.191491545833E+03    0.20920E-03   -0.52878E-03 12320   0.445E-01    0.348E-01
DAV:   6    -0.191490963527E+03    0.58231E-03   -0.42620E-03 11440   0.442E-01    0.219E-01
DAV:   7    -0.191490405445E+03    0.55808E-03   -0.12642E-03 10240   0.191E-01    0.669E-02
DAV:   8    -0.191490418019E+03   -0.12574E-04   -0.29747E-04  8320   0.106E-01
  47 F= -.19149042E+03 E0= -.19138150E+03  d E =-.585253E-01
       N       E                     dE             d eps       ncg     rms          rms(c)
DAV:   1    -0.191523244053E+03   -0.32839E-01   -0.19458E+00  8160   0.295E+00    0.281E-01
DAV:   2    -0.191529793244E+03   -0.65492E-02   -0.49051E-02 12040   0.916E-01    0.619E-01
DAV:   3    -0.191525851456E+03    0.39418E-02   -0.11001E-02 12120   0.752E-01    0.228E-01
DAV:   4    -0.191525561578E+03    0.28988E-03   -0.17965E-03 11400   0.239E-01    0.157E-01
DAV:   5    -0.191525593375E+03   -0.31798E-04   -0.15937E-03 10720   0.261E-01    0.205E-01
DAV:   6    -0.191525411629E+03    0.18175E-03   -0.14400E-03 10320   0.241E-01    0.126E-01
DAV:   7    -0.191525240227E+03    0.17140E-03   -0.44032E-04  8120   0.112E-01    0.567E-02
DAV:   8    -0.191525227183E+03    0.13044E-04   -0.12327E-04  6400   0.771E-02
  48 F= -.19152523E+03 E0= -.19141710E+03  d E =-.348092E-01
       N       E                     dE             d eps       ncg     rms          rms(c)
DAV:   1    -0.191545500360E+03   -0.20260E-01   -0.72729E-01  8160   0.180E+00    0.174E-01
DAV:   2    -0.191548060658E+03   -0.25603E-02   -0.18557E-02 12240   0.580E-01    0.396E-01
DAV:   3    -0.191546406872E+03    0.16538E-02   -0.41943E-03 11680   0.466E-01    0.134E-01
DAV:   4    -0.191546400097E+03    0.67758E-05   -0.81720E-04 10040   0.165E-01
  49 F= -.19154640E+03 E0= -.19143890E+03  d E =-.211729E-01
       N       E                     dE             d eps       ncg     rms          rms(c)
DAV:   1    -0.191537908838E+03    0.84980E-02   -0.13492E-01  8160   0.809E-01    0.172E-01
DAV:   2    -0.191545633773E+03   -0.77249E-02   -0.17994E-02 12120   0.889E-01    0.894E-01
DAV:   3    -0.191537894862E+03    0.77389E-02   -0.11614E-02 10320   0.751E-01    0.114E-01
DAV:   4    -0.191537903685E+03   -0.88224E-05   -0.59308E-04  8720   0.157E-01
  50 F= -.19153790E+03 E0= -.19143006E+03  d E =0.849641E-02
       N       E                     dE             d eps       ncg     rms          rms(c)
DAV:   1    -0.191490845917E+03    0.47049E-01   -0.75401E+00  8160   0.598E+00    0.101E+00
DAV:   2    -0.191562644549E+03   -0.71799E-01   -0.37493E-01 12680   0.355E+00    0.253E+00
DAV:   3    -0.191484163842E+03    0.78481E-01   -0.12498E-01 12080   0.275E+00    0.681E-01
DAV:   4    -0.191490448148E+03   -0.62843E-02   -0.42724E-02 11400   0.134E+00    0.116E+00
DAV:   5    -0.191479841067E+03    0.10607E-01   -0.40329E-02 10960   0.135E+00    0.596E-01
DAV:   6    -0.191476135891E+03    0.37052E-02   -0.13066E-02 11640   0.648E-01    0.325E-01
DAV:   7    -0.191476407657E+03   -0.27177E-03   -0.73479E-03 11680   0.527E-01    0.394E-01
DAV:   8    -0.191474991284E+03    0.14164E-02   -0.31225E-03 10400   0.339E-01    0.725E-02
DAV:   9    -0.191474950648E+03    0.40636E-04   -0.22778E-04  7160   0.607E-02
  51 F= -.19147495E+03 E0= -.19136702E+03  d E =0.629530E-01
       N       E                     dE             d eps       ncg     rms          rms(c)
DAV:   1    -0.191472738627E+03    0.22527E-02   -0.84698E-03  8600   0.200E-01    0.361E-02
DAV:   2    -0.191472799059E+03   -0.60432E-04   -0.39678E-04 10360   0.793E-02
  52 F= -.19147280E+03 E0= -.19136485E+03  d E =0.215159E-02
       N       E                     dE             d eps       ncg     rms          rms(c)
DAV:   1    -0.191499053746E+03   -0.26315E-01   -0.28561E+00  8160   0.356E+00    0.449E-01
DAV:   2    -0.191527588905E+03   -0.28535E-01   -0.12211E-01 13440   0.193E+00    0.163E+00
DAV:   3    -0.191503152622E+03    0.24436E-01   -0.56458E-02 11960   0.161E+00    0.400E-01
DAV:   4    -0.191502123855E+03    0.10288E-02   -0.69692E-03 11520   0.490E-01    0.317E-01
DAV:   5    -0.191501736571E+03    0.38728E-03   -0.42505E-03 11960   0.457E-01    0.281E-01
DAV:   6    -0.191500957379E+03    0.77919E-03   -0.24671E-03 10720   0.302E-01    0.148E-01
DAV:   7    -0.191501450931E+03   -0.49355E-03   -0.21807E-03 10680   0.312E-01    0.271E-01
DAV:   8    -0.191500718864E+03    0.73207E-03   -0.11691E-03  9240   0.229E-01    0.227E-02
DAV:   9    -0.191500740498E+03   -0.21634E-04   -0.50340E-05  5920   0.283E-02
  53 F= -.19150074E+03 E0= -.19139346E+03  d E =-.279414E-01
       N       E                     dE             d eps       ncg     rms          rms(c)
DAV:   1    -0.191520850945E+03   -0.20132E-01   -0.23132E+00  8160   0.323E+00    0.339E-01
DAV:   2    -0.191529636695E+03   -0.87858E-02   -0.68360E-02 12320   0.976E-01    0.725E-01
DAV:   3    -0.191524856398E+03    0.47803E-02   -0.18948E-02 11760   0.938E-01    0.384E-01
DAV:   4    -0.191524087543E+03    0.76885E-03   -0.50823E-03 11200   0.457E-01    0.275E-01
DAV:   5    -0.191523605744E+03    0.48180E-03   -0.28163E-03 10960   0.382E-01    0.216E-01
DAV:   6    -0.191523197697E+03    0.40805E-03   -0.14935E-03 10440   0.253E-01    0.988E-02
DAV:   7    -0.191523124953E+03    0.72745E-04   -0.54067E-04  9960   0.114E-01
  54 F= -.19152312E+03 E0= -.19141704E+03  d E =-.223845E-01
       N       E                     dE             d eps       ncg     rms          rms(c)
DAV:   1    -0.191514914487E+03    0.82832E-02   -0.94235E+00  8160   0.680E+00    0.997E-01
DAV:   2    -0.191541020585E+03   -0.26106E-01   -0.37276E-01 13320   0.223E+00    0.167E+00
DAV:   3    -0.191528987463E+03    0.12033E-01   -0.14084E-01 12440   0.246E+00    0.144E+00
DAV:   4    -0.191511948523E+03    0.17039E-01   -0.55912E-02 12360   0.146E+00    0.641E-01
DAV:   5    -0.191508362561E+03    0.35860E-02   -0.25116E-02 11400   0.832E-01    0.646E-01
DAV:   6    -0.191507253834E+03    0.11087E-02   -0.20677E-02 11800   0.945E-01    0.567E-01
DAV:   7    -0.191504257047E+03    0.29968E-02   -0.79997E-03 11600   0.550E-01    0.240E-01
DAV:   8    -0.191503929937E+03    0.32711E-03   -0.24453E-03 11160   0.338E-01    0.160E-01
DAV:   9    -0.191503599261E+03    0.33068E-03   -0.51098E-04  9640   0.153E-01    0.339E-02
DAV:  10    -0.191503602711E+03   -0.34508E-05   -0.13882E-04  7040   0.445E-02
  55 F= -.19150360E+03 E0= -.19139470E+03  d E =0.195222E-01
       N       E                     dE             d eps       ncg     rms          rms(c)
DAV:   1    -0.191553909972E+03   -0.50311E-01   -0.53682E+00  8160   0.490E+00    0.468E-01
DAV:   2    -0.191572328283E+03   -0.18418E-01   -0.15362E-01 12240   0.155E+00    0.968E-01
DAV:   3    -0.191563365923E+03    0.89624E-02   -0.28688E-02 12640   0.122E+00    0.408E-01
DAV:   4    -0.191562269011E+03    0.10969E-02   -0.55365E-03 11040   0.463E-01    0.312E-01
DAV:   5    -0.191562074903E+03    0.19411E-03   -0.50577E-03 11840   0.485E-01    0.341E-01
DAV:   6    -0.191561508380E+03    0.56652E-03   -0.35077E-03 11280   0.378E-01    0.185E-01
DAV:   7    -0.191561258770E+03    0.24961E-03   -0.15918E-03 10960   0.227E-01    0.178E-01
DAV:   8    -0.191560972729E+03    0.28604E-03   -0.61034E-04  8920   0.162E-01    0.311E-02
DAV:   9    -0.191560975695E+03   -0.29664E-05   -0.47988E-05  6080   0.313E-02
  56 F= -.19156098E+03 E0= -.19145400E+03  d E =-.573730E-01
       N       E                     dE             d eps       ncg     rms          rms(c)
DAV:   1    -0.191590927280E+03   -0.29955E-01   -0.14238E+00  8160   0.255E+00    0.266E-01
DAV:   2    -0.191595280102E+03   -0.43528E-02   -0.41943E-02 12720   0.804E-01    0.488E-01
DAV:   3    -0.191593144442E+03    0.21357E-02   -0.73840E-03 12440   0.636E-01    0.230E-01
DAV:   4    -0.191592660447E+03    0.48399E-03   -0.16285E-03 11040   0.259E-01    0.161E-01
DAV:   5    -0.191592735601E+03   -0.75154E-04   -0.15940E-03 10560   0.280E-01    0.204E-01
DAV:   6    -0.191592507473E+03    0.22813E-03   -0.12617E-03 10080   0.230E-01    0.103E-01
DAV:   7    -0.191592351837E+03    0.15564E-03   -0.36872E-04  7760   0.986E-02    0.548E-02
DAV:   8    -0.191592335911E+03    0.15926E-04   -0.10103E-04  6880   0.684E-02
  57 F= -.19159234E+03 E0= -.19148665E+03  d E =-.313602E-01
       N       E                     dE             d eps       ncg     rms          rms(c)
DAV:   1    -0.191639421695E+03   -0.47070E-01   -0.35550E+00  8160   0.403E+00    0.424E-01
DAV:   2    -0.191649041239E+03   -0.96195E-02   -0.10280E-01 12360   0.122E+00    0.703E-01
DAV:   3    -0.191645223412E+03    0.38178E-02   -0.16858E-02 12520   0.986E-01    0.393E-01
DAV:   4    -0.191643305702E+03    0.19177E-02   -0.36939E-03 11800   0.404E-01    0.189E-01
DAV:   5    -0.191644159899E+03   -0.85420E-03   -0.37178E-03 11760   0.431E-01    0.366E-01
DAV:   6    -0.191643171446E+03    0.98845E-03   -0.31938E-03 11320   0.395E-01    0.145E-01
DAV:   7    -0.191642830679E+03    0.34077E-03   -0.67646E-04 10000   0.126E-01    0.444E-02
DAV:   8    -0.191642852566E+03   -0.21887E-04   -0.14409E-04  7600   0.818E-02
  58 F= -.19164285E+03 E0= -.19153970E+03  d E =-.505167E-01
       N       E                     dE             d eps       ncg     rms          rms(c)
DAV:   1    -0.191697935055E+03   -0.55104E-01   -0.48720E+00  8160   0.473E+00    0.481E-01
DAV:   2    -0.191706752267E+03   -0.88172E-02   -0.13371E-01 12080   0.108E+00    0.458E-01
DAV:   3    -0.191709659324E+03   -0.29071E-02   -0.17366E-02 12600   0.101E+00    0.690E-01
DAV:   4    -0.191703923429E+03    0.57359E-02   -0.76064E-03 11840   0.700E-01    0.206E-01
DAV:   5    -0.191705509584E+03   -0.15862E-02   -0.47286E-03 11920   0.503E-01    0.455E-01
DAV:   6    -0.191703780335E+03    0.17292E-02   -0.38705E-03 11240   0.459E-01    0.144E-01
DAV:   7    -0.191703588606E+03    0.19173E-03   -0.78227E-04  9880   0.176E-01    0.116E-01
DAV:   8    -0.191703472276E+03    0.11633E-03   -0.28203E-04  8840   0.116E-01    0.354E-02
DAV:   9    -0.191703464263E+03    0.80139E-05   -0.53460E-05  6440   0.353E-02
  59 F= -.19170346E+03 E0= -.19160428E+03  d E =-.606117E-01
       N       E                     dE             d eps       ncg     rms          rms(c)
DAV:   1    -0.191702050228E+03    0.14220E-02   -0.16027E-02  8560   0.268E-01    0.254E-02
DAV:   2    -0.191702086044E+03   -0.35816E-04   -0.44708E-04 10800   0.688E-02
  60 F= -.19170209E+03 E0= -.19160276E+03  d E =0.137822E-02
       N       E                     dE             d eps       ncg     rms          rms(c)
DAV:   1    -0.191677577027E+03    0.24473E-01   -0.71031E-01  8160   0.182E+00    0.223E-01
DAV:   2    -0.191679245130E+03   -0.16681E-02   -0.23243E-02 12040   0.476E-01    0.321E-01
DAV:   3    -0.191679440023E+03   -0.19489E-03   -0.55528E-03 12560   0.536E-01    0.370E-01
DAV:   4    -0.191678207321E+03    0.12327E-02   -0.20133E-03 10560   0.311E-01    0.125E-01
DAV:   5    -0.191678275980E+03   -0.68658E-04   -0.98643E-04  9880   0.228E-01
  61 F= -.19167828E+03 E0= -.19157782E+03  d E =0.238101E-01
       N       E                     dE             d eps       ncg     rms          rms(c)
DAV:   1    -0.191662324070E+03    0.15883E-01   -0.20280E+00  8160   0.322E+00    0.669E-01
DAV:   2    -0.191662458588E+03   -0.13452E-03   -0.98697E-02 12320   0.119E+00    0.999E-01
DAV:   3    -0.191663082913E+03   -0.62432E-03   -0.52035E-02 12520   0.160E+00    0.106E+00
DAV:   4    -0.191651875132E+03    0.11208E-01   -0.20693E-02 11760   0.963E-01    0.325E-01
DAV:   5    -0.191652509569E+03   -0.63444E-03   -0.86687E-03 11560   0.671E-01    0.462E-01
DAV:   6    -0.191649964819E+03    0.25448E-02   -0.48040E-03 11040   0.517E-01    0.111E-01
DAV:   7    -0.191649940512E+03    0.24307E-04   -0.80248E-04 10360   0.137E-01
  62 F= -.19164994E+03 E0= -.19154792E+03  d E =0.283355E-01
       N       E                     dE             d eps       ncg     rms          rms(c)
DAV:   1    -0.191740170565E+03   -0.90206E-01   -0.76454E+00  8160   0.613E+00    0.939E-01
DAV:   2    -0.191756116989E+03   -0.15946E-01   -0.29074E-01 12720   0.194E+00    0.147E+00
DAV:   3    -0.191751342214E+03    0.47748E-02   -0.93607E-02 12160   0.227E+00    0.132E+00
DAV:   4    -0.191739490999E+03    0.11851E-01   -0.41021E-02 12320   0.142E+00    0.864E-01
DAV:   5    -0.191733888786E+03    0.56022E-02   -0.21297E-02 11280   0.115E+00    0.604E-01
DAV:   6    -0.191731633539E+03    0.22552E-02   -0.13083E-02 12480   0.756E-01    0.431E-01
DAV:   7    -0.191730445873E+03    0.11877E-02   -0.63729E-03 11360   0.576E-01    0.270E-01
DAV:   8    -0.191729660240E+03    0.78563E-03   -0.14850E-03 10480   0.270E-01    0.731E-02
DAV:   9    -0.191729548623E+03    0.11162E-03   -0.25232E-04  7760   0.647E-02    0.284E-02
DAV:  10    -0.191729535136E+03    0.13487E-04   -0.98915E-05  7120   0.304E-02
  63 F= -.19172954E+03 E0= -.19163216E+03  d E =-.795946E-01
       N       E                     dE             d eps       ncg     rms          rms(c)
DAV:   1    -0.191793998277E+03   -0.64450E-01   -0.53166E+00  8160   0.501E+00    0.587E-01
DAV:   2    -0.191800385242E+03   -0.63870E-02   -0.15299E-01 12240   0.102E+00    0.408E-01
DAV:   3    -0.191806016886E+03   -0.56316E-02   -0.21206E-02 12320   0.991E-01    0.949E-01
DAV:   4    -0.191798682109E+03    0.73348E-02   -0.15946E-02 11880   0.984E-01    0.422E-01
DAV:   5    -0.191797456363E+03    0.12257E-02   -0.57526E-03 10360   0.496E-01    0.305E-01
DAV:   6    -0.191797396986E+03    0.59377E-04   -0.39669E-03 12960   0.505E-01    0.278E-01
DAV:   7    -0.191796335037E+03    0.10619E-02   -0.14571E-03 11400   0.275E-01    0.437E-02
DAV:   8    -0.191796370284E+03   -0.35247E-04   -0.22113E-04  7880   0.955E-02
  64 F= -.19179637E+03 E0= -.19170361E+03  d E =-.668351E-01
       N       E                     dE             d eps       ncg     rms          rms(c)
DAV:   1    -0.191823286367E+03   -0.26951E-01   -0.92651E-01  8160   0.206E+00    0.229E-01
DAV:   2    -0.191825217913E+03   -0.19315E-02   -0.26779E-02 12240   0.484E-01    0.260E-01
DAV:   3    -0.191825419692E+03   -0.20178E-03   -0.45672E-03 12160   0.511E-01    0.317E-01
DAV:   4    -0.191824560222E+03    0.85947E-03   -0.21291E-03 11080   0.352E-01    0.156E-01
DAV:   5    -0.191824432622E+03    0.12760E-03   -0.97070E-04 10640   0.234E-01    0.140E-01
DAV:   6    -0.191824377869E+03    0.54753E-04   -0.62789E-04  9480   0.190E-01
  65 F= -.19182438E+03 E0= -.19173366E+03  d E =-.280076E-01
       N       E                     dE             d eps       ncg     rms          rms(c)
DAV:   1    -0.191864937002E+03   -0.40504E-01   -0.19400E+00  8160   0.300E+00    0.367E-01
DAV:   2    -0.191872332649E+03   -0.73956E-02   -0.58428E-02 12280   0.906E-01    0.722E-01
DAV:   3    -0.191868323851E+03    0.40088E-02   -0.14237E-02 12080   0.931E-01    0.450E-01
DAV:   4    -0.191867993350E+03    0.33050E-03   -0.53002E-03 12440   0.547E-01    0.397E-01
DAV:   5    -0.191866402984E+03    0.15904E-02   -0.31883E-03 10880   0.470E-01    0.157E-01
DAV:   6    -0.191866385600E+03    0.17384E-04   -0.11826E-03 11040   0.208E-01    0.133E-01
DAV:   7    -0.191866377454E+03    0.81462E-05   -0.97862E-04 10760   0.237E-01
  66 F= -.19186638E+03 E0= -.19177852E+03  d E =-.419996E-01
       N       E                     dE             d eps       ncg     rms          rms(c)
DAV:   1    -0.191930701504E+03   -0.64316E-01   -0.55621E+00  8160   0.509E+00    0.603E-01
DAV:   2    -0.191946176540E+03   -0.15475E-01   -0.16579E-01 12200   0.135E+00    0.936E-01
DAV:   3    -0.191942060336E+03    0.41162E-02   -0.37146E-02 12400   0.146E+00    0.823E-01
DAV:   4    -0.191938211888E+03    0.38484E-02   -0.14995E-02 12560   0.893E-01    0.532E-01
DAV:   5    -0.191935922427E+03    0.22895E-02   -0.84544E-03 11520   0.738E-01    0.374E-01
DAV:   6    -0.191934922382E+03    0.10000E-02   -0.41235E-03 11960   0.459E-01    0.213E-01
DAV:   7    -0.191935076792E+03   -0.15441E-03   -0.25512E-03 12120   0.389E-01    0.252E-01
DAV:   8    -0.191934301404E+03    0.77539E-03   -0.97998E-04 10400   0.258E-01    0.271E-02
DAV:   9    -0.191934306057E+03   -0.46529E-05   -0.68122E-05  6560   0.314E-02
  67 F= -.19193431E+03 E0= -.19185088E+03  d E =-.679286E-01
       N       E                     dE             d eps       ncg     rms          rms(c)
DAV:   1    -0.192024173081E+03   -0.89872E-01   -0.21645E+01  8160   0.101E+01    0.113E+00
DAV:   2    -0.192078337911E+03   -0.54165E-01   -0.64669E-01 12120   0.240E+00    0.148E+00
DAV:   3    -0.192068745809E+03    0.95921E-02   -0.10853E-01 12440   0.248E+00    0.143E+00
DAV:   4    -0.192058285215E+03    0.10461E-01   -0.55327E-02 11680   0.171E+00    0.106E+00
DAV:   5    -0.192048246473E+03    0.10039E-01   -0.29669E-02 12200   0.140E+00    0.613E-01
DAV:   6    -0.192045239400E+03    0.30071E-02   -0.11688E-02 12360   0.753E-01    0.301E-01
DAV:   7    -0.192043463112E+03    0.17763E-02   -0.37703E-03 12840   0.312E-01    0.963E-02
DAV:   8    -0.192043540022E+03   -0.76911E-04   -0.78325E-04 12200   0.211E-01
  68 F= -.19204354E+03 E0= -.19196484E+03  d E =-.109234E+00
       N       E                     dE             d eps       ncg     rms          rms(c)
DAV:   1    -0.192066566074E+03   -0.23103E-01   -0.27521E+00  8160   0.361E+00    0.469E-01
DAV:   2    -0.192074871128E+03   -0.83051E-02   -0.12363E-01 12240   0.973E-01    0.522E-01
DAV:   3    -0.192077754973E+03   -0.28838E-02   -0.22066E-02 12160   0.105E+00    0.826E-01
DAV:   4    -0.192071416633E+03    0.63383E-02   -0.10746E-02 11800   0.756E-01    0.217E-01
DAV:   5    -0.192071055889E+03    0.36074E-03   -0.29406E-03 11240   0.331E-01    0.206E-01
DAV:   6    -0.192071068394E+03   -0.12505E-04   -0.23285E-03 11560   0.394E-01    0.214E-01
DAV:   7    -0.192070496491E+03    0.57190E-03   -0.10427E-03 11440   0.254E-01    0.605E-02
DAV:   8    -0.192070488201E+03    0.82897E-05   -0.19027E-04  8400   0.111E-01
  69 F= -.19207049E+03 E0= -.19199169E+03  d E =-.269482E-01
       N       E                     dE             d eps       ncg     rms          rms(c)
DAV:   1    -0.192084009517E+03   -0.13513E-01   -0.92683E+00  8160   0.654E+00    0.767E-01
DAV:   2    -0.192118897114E+03   -0.34888E-01   -0.32831E-01 12120   0.198E+00    0.127E+00
DAV:   3    -0.192105073427E+03    0.13824E-01   -0.59892E-02 12560   0.186E+00    0.824E-01
DAV:   4    -0.192102721127E+03    0.23523E-02   -0.22854E-02 12480   0.108E+00    0.716E-01
DAV:   5    -0.192097403441E+03    0.53177E-02   -0.12352E-02 12360   0.911E-01    0.301E-01
DAV:   6    -0.192097068110E+03    0.33533E-03   -0.41553E-03 12320   0.395E-01    0.201E-01
DAV:   7    -0.192096304590E+03    0.76352E-03   -0.19166E-03 12960   0.252E-01    0.114E-01
DAV:   8    -0.192096186246E+03    0.11834E-03   -0.45017E-04 10200   0.166E-01    0.478E-02
DAV:   9    -0.192096153824E+03    0.32422E-04   -0.86321E-05  6880   0.565E-02
  70 F= -.19209615E+03 E0= -.19201667E+03  d E =-.256656E-01
       N       E                     dE             d eps       ncg     rms          rms(c)
DAV:   1    -0.192097171136E+03   -0.98489E-03   -0.58131E-01  8160   0.164E+00    0.221E-01
DAV:   2    -0.192100843420E+03   -0.36723E-02   -0.20469E-02 11400   0.823E-01    0.532E-01
DAV:   3    -0.192097467968E+03    0.33755E-02   -0.60904E-03 12200   0.668E-01    0.134E-01
DAV:   4    -0.192097629853E+03   -0.16188E-03   -0.12532E-03 10600   0.252E-01    0.211E-01
DAV:   5    -0.192097218555E+03    0.41130E-03   -0.10328E-03 10440   0.240E-01    0.918E-02
DAV:   6    -0.192097139884E+03    0.78671E-04   -0.31057E-04  8680   0.915E-02
  71 F= -.19209714E+03 E0= -.19201779E+03  d E =-.986060E-03
       N       E                     dE             d eps       ncg     rms          rms(c)
DAV:   1    -0.192099884221E+03   -0.26657E-02   -0.19065E-01  8160   0.935E-01    0.114E-01
DAV:   2    -0.192101055482E+03   -0.11713E-02   -0.84454E-03 11600   0.360E-01    0.269E-01
DAV:   3    -0.192100406777E+03    0.64871E-03   -0.18828E-03 12040   0.315E-01    0.109E-01
DAV:   4    -0.192100306998E+03    0.99779E-04   -0.28214E-04  8440   0.120E-01
  72 F= -.19210031E+03 E0= -.19202076E+03  d E =-.316711E-02
       N       E                     dE             d eps       ncg     rms          rms(c)
DAV:   1    -0.192101736894E+03   -0.13301E-02   -0.45206E-02  8160   0.465E-01    0.935E-02
DAV:   2    -0.192102496845E+03   -0.75995E-03   -0.29339E-03 12720   0.339E-01    0.264E-01
DAV:   3    -0.192101725430E+03    0.77142E-03   -0.13398E-03 10520   0.302E-01    0.705E-02
DAV:   4    -0.192101766696E+03   -0.41266E-04   -0.27994E-04  8720   0.129E-01
  73 F= -.19210177E+03 E0= -.19202222E+03  d E =-.145970E-02
       N       E                     dE             d eps       ncg     rms          rms(c)
DAV:   1    -0.192103723053E+03   -0.19976E-02   -0.14384E-01  8160   0.823E-01    0.114E-01
DAV:   2    -0.192104987975E+03   -0.12649E-02   -0.67914E-03 12640   0.373E-01    0.316E-01
DAV:   3    -0.192103994812E+03    0.99316E-03   -0.21993E-03 12240   0.341E-01    0.930E-02
DAV:   4    -0.192103927906E+03    0.66906E-04   -0.25865E-04  8480   0.927E-02
  74 F= -.19210393E+03 E0= -.19202419E+03  d E =-.216121E-02
       N       E                     dE             d eps       ncg     rms          rms(c)
DAV:   1    -0.192104622912E+03   -0.62810E-03   -0.15616E-02  8160   0.278E-01    0.696E-02
DAV:   2    -0.192105066105E+03   -0.44319E-03   -0.13962E-03 11640   0.271E-01    0.206E-01
DAV:   3    -0.192104577239E+03    0.48887E-03   -0.73683E-04  9640   0.232E-01    0.485E-02
DAV:   4    -0.192104606366E+03   -0.29127E-04   -0.15867E-04  8240   0.961E-02
  75 F= -.19210461E+03 E0= -.19202480E+03  d E =-.678459E-03
       N       E                     dE             d eps       ncg     rms          rms(c)
DAV:   1    -0.192106062561E+03   -0.14853E-02   -0.10613E-01  8160   0.706E-01    0.944E-02
DAV:   2    -0.192107045942E+03   -0.98338E-03   -0.49621E-03 12560   0.332E-01    0.282E-01
DAV:   3    -0.192106246806E+03    0.79914E-03   -0.16069E-03 11400   0.293E-01    0.653E-02
DAV:   4    -0.192106201632E+03    0.45174E-04   -0.85874E-05  6000   0.575E-02
  76 F= -.19210620E+03 E0= -.19202620E+03  d E =-.159527E-02
       N       E                     dE             d eps       ncg     rms          rms(c)
DAV:   1    -0.192106380534E+03   -0.13373E-03   -0.23388E-03  9520   0.113E-01    0.474E-02
DAV:   2    -0.192106651046E+03   -0.27051E-03   -0.59571E-04 10720   0.208E-01    0.153E-01
DAV:   3    -0.192106344040E+03    0.30701E-03   -0.34470E-04  8880   0.173E-01    0.229E-02
DAV:   4    -0.192106356342E+03   -0.12302E-04   -0.46559E-05  6320   0.490E-02
  77 F= -.19210636E+03 E0= -.19202633E+03  d E =-.154710E-03
       N       E                     dE             d eps       ncg     rms          rms(c)
DAV:   1    -0.192107437372E+03   -0.10933E-02   -0.68209E-02  8160   0.566E-01    0.759E-02
DAV:   2    -0.192108110124E+03   -0.67275E-03   -0.31645E-03 12480   0.275E-01    0.237E-01
DAV:   3    -0.192107539253E+03    0.57087E-03   -0.11013E-03 10640   0.244E-01    0.496E-02
DAV:   4    -0.192107517442E+03    0.21811E-04   -0.58113E-05  6000   0.423E-02
  78 F= -.19210752E+03 E0= -.19202733E+03  d E =-.116110E-02
       N       E                     dE             d eps       ncg     rms          rms(c)
DAV:   1    -0.192107490653E+03    0.48600E-04   -0.23277E-03  8520   0.109E-01    0.304E-02
DAV:   2    -0.192107574882E+03   -0.84229E-04   -0.25975E-04  8520   0.112E-01
  79 F= -.19210757E+03 E0= -.19202735E+03  d E =-.574400E-04
       N       E                     dE             d eps       ncg     rms          rms(c)
DAV:   1    -0.192107888233E+03   -0.39758E-03   -0.11065E-02  8160   0.246E-01    0.448E-02
DAV:   2    -0.192108032028E+03   -0.14379E-03   -0.71359E-04 11800   0.139E-01    0.119E-01
DAV:   3    -0.192107882839E+03    0.14919E-03   -0.32155E-04  8840   0.135E-01    0.377E-02
DAV:   4    -0.192107879363E+03    0.34758E-05   -0.61258E-05  5600   0.480E-02
  80 F= -.19210788E+03 E0= -.19202761E+03  d E =-.304481E-03
       N       E                     dE             d eps       ncg     rms          rms(c)
DAV:   1    -0.192108687072E+03   -0.80423E-03   -0.46340E-02  8160   0.466E-01    0.682E-02
DAV:   2    -0.192109307274E+03   -0.62020E-03   -0.25161E-03 12280   0.268E-01    0.229E-01
DAV:   3    -0.192108751247E+03    0.55603E-03   -0.95206E-04 10360   0.230E-01    0.420E-02
DAV:   4    -0.192108761726E+03   -0.10479E-04   -0.78070E-05  5800   0.711E-02
  81 F= -.19210876E+03 E0= -.19202836E+03  d E =-.882363E-03
