<?xml version="1.0" encoding="ISO-8859-1"?>
<modeling>
 <generator>
  <i name="program" type="string">vasp </i>
  <i name="version" type="string">5.4.1  </i>
  <i name="subversion" type="string">05Feb16 (build Jul 05 2020 17:13:04) complex                          parallel </i>
  <i name="platform" type="string">IFC91_ompi </i>
  <i name="date" type="string">2024 04 21 </i>
  <i name="time" type="string">17:40:37 </i>
 </generator>
 <incar>
  <i type="int" name="ISTART">     0</i>
  <i type="string" name="PREC">normal</i>
  <i type="string" name="ALGO"> Normal</i>
  <i type="int" name="ISPIN">     1</i>
  <i type="int" name="ICHARG">     2</i>
  <i type="int" name="IBRION">     1</i>
  <i type="int" name="NSW">   100</i>
  <i type="int" name="ISIF">     3</i>
  <i type="int" name="ISYM">     0</i>
  <i name="SYMPREC">      0.00000001</i>
  <i name="POTIM">      0.50000000</i>
  <i type="logical" name="LREAL"> F  </i>
  <i type="logical" name="LPLANE"> F  </i>
  <i type="int" name="ISMEAR">     0</i>
  <i type="logical" name="LWAVE"> F  </i>
  <i type="logical" name="LCHARG"> F  </i>
  <v type="int" name="KPOINT_BSE">    -1     0     0     0</v>
 </incar>
 <kpoints>
  <generation param="Gamma">
   <v type="int" name="divisions">       8        8        1 </v>
   <v name="usershift">      0.00000000       0.00000000       0.00000000 </v>
   <v name="genvec1">      0.12500000       0.00000000       0.00000000 </v>
   <v name="genvec2">     -0.00000000       0.12500000       0.00000000 </v>
   <v name="genvec3">      0.00000000       0.00000000       1.00000000 </v>
   <v name="shift">      0.00000000       0.00000000       0.00000000 </v>
  </generation>
  <varray name="kpointlist" >
   <v>       0.00000000       0.00000000       0.00000000 </v>
   <v>       0.12500000       0.00000000       0.00000000 </v>
   <v>       0.25000000       0.00000000       0.00000000 </v>
   <v>       0.37500000       0.00000000       0.00000000 </v>
   <v>       0.50000000       0.00000000       0.00000000 </v>
   <v>       0.00000000       0.12500000       0.00000000 </v>
   <v>       0.12500000       0.12500000       0.00000000 </v>
   <v>       0.25000000       0.12500000       0.00000000 </v>
   <v>       0.37500000       0.12500000       0.00000000 </v>
   <v>       0.50000000       0.12500000       0.00000000 </v>
   <v>      -0.37500000       0.12500000       0.00000000 </v>
   <v>      -0.25000000       0.12500000       0.00000000 </v>
   <v>      -0.12500000       0.12500000       0.00000000 </v>
   <v>       0.00000000       0.25000000       0.00000000 </v>
   <v>       0.12500000       0.25000000       0.00000000 </v>
   <v>       0.25000000       0.25000000       0.00000000 </v>
   <v>       0.37500000       0.25000000       0.00000000 </v>
   <v>       0.50000000       0.25000000       0.00000000 </v>
   <v>      -0.37500000       0.25000000       0.00000000 </v>
   <v>      -0.25000000       0.25000000       0.00000000 </v>
   <v>      -0.12500000       0.25000000       0.00000000 </v>
   <v>      -0.00000000       0.37500000       0.00000000 </v>
   <v>       0.12500000       0.37500000       0.00000000 </v>
   <v>       0.25000000       0.37500000       0.00000000 </v>
   <v>       0.37500000       0.37500000       0.00000000 </v>
   <v>       0.50000000       0.37500000       0.00000000 </v>
   <v>      -0.37500000       0.37500000       0.00000000 </v>
   <v>      -0.25000000       0.37500000       0.00000000 </v>
   <v>      -0.12500000       0.37500000       0.00000000 </v>
   <v>       0.00000000       0.50000000       0.00000000 </v>
   <v>       0.12500000       0.50000000       0.00000000 </v>
   <v>       0.25000000       0.50000000       0.00000000 </v>
   <v>       0.37500000       0.50000000       0.00000000 </v>
   <v>       0.50000000       0.50000000       0.00000000 </v>
  </varray>
  <varray name="weights" >
   <v>       0.01562500 </v>
   <v>       0.03125000 </v>
   <v>       0.03125000 </v>
   <v>       0.03125000 </v>
   <v>       0.01562500 </v>
   <v>       0.03125000 </v>
   <v>       0.03125000 </v>
   <v>       0.03125000 </v>
   <v>       0.03125000 </v>
   <v>       0.03125000 </v>
   <v>       0.03125000 </v>
   <v>       0.03125000 </v>
   <v>       0.03125000 </v>
   <v>       0.03125000 </v>
   <v>       0.03125000 </v>
   <v>       0.03125000 </v>
   <v>       0.03125000 </v>
   <v>       0.03125000 </v>
   <v>       0.03125000 </v>
   <v>       0.03125000 </v>
   <v>       0.03125000 </v>
   <v>       0.03125000 </v>
   <v>       0.03125000 </v>
   <v>       0.03125000 </v>
   <v>       0.03125000 </v>
   <v>       0.03125000 </v>
   <v>       0.03125000 </v>
   <v>       0.03125000 </v>
   <v>       0.03125000 </v>
   <v>       0.01562500 </v>
   <v>       0.03125000 </v>
   <v>       0.03125000 </v>
   <v>       0.03125000 </v>
   <v>       0.01562500 </v>
  </varray>
 </kpoints>
 <parameters>
  <separator name="general" >
   <i type="string" name="SYSTEM">unknown system</i>
   <i type="logical" name="LCOMPAT"> F  </i>
  </separator>
  <separator name="electronic" >
   <i type="string" name="PREC">normal</i>
   <i name="ENMAX">    280.00000000</i>
   <i name="ENAUG">    373.43800000</i>
   <i name="EDIFF">      0.00010000</i>
   <i type="int" name="IALGO">    38</i>
   <i type="int" name="IWAVPR">    11</i>
   <i type="int" name="NBANDS">   120</i>
   <i name="NELECT">    159.00000000</i>
   <i type="int" name="TURBO">     0</i>
   <i type="int" name="IRESTART">     0</i>
   <i type="int" name="NREBOOT">     0</i>
   <i type="int" name="NMIN">     0</i>
   <i name="EREF">      0.00000000</i>
   <separator name="electronic smearing" >
    <i type="int" name="ISMEAR">     0</i>
    <i name="SIGMA">      0.20000000</i>
    <i name="KSPACING">      0.50000000</i>
    <i type="logical" name="KGAMMA"> T  </i>
   </separator>
   <separator name="electronic projectors" >
    <i type="logical" name="LREAL"> F  </i>
    <v name="ROPT">      0.00000000      0.00000000      0.00000000      0.00000000</v>
    <i type="int" name="LMAXPAW">  -100</i>
    <i type="int" name="LMAXMIX">     2</i>
    <i type="logical" name="NLSPLINE"> F  </i>
   </separator>
   <separator name="electronic startup" >
    <i type="int" name="ISTART">     0</i>
    <i type="int" name="ICHARG">     2</i>
    <i type="int" name="INIWAV">     1</i>
   </separator>
   <separator name="electronic spin" >
    <i type="int" name="ISPIN">     1</i>
    <i type="logical" name="LNONCOLLINEAR"> F  </i>
    <v name="MAGMOM">      1.00000000      1.00000000      1.00000000      1.00000000      1.00000000      1.00000000      1.00000000      1.00000000      1.00000000      1.00000000      1.00000000      1.00000000      1.00000000      1.00000000      1.00000000      1.00000000      1.00000000      1.00000000      1.00000000      1.00000000
      1.00000000      1.00000000      1.00000000      1.00000000      1.00000000      1.00000000      1.00000000</v>
    <i name="NUPDOWN">     -1.00000000</i>
    <i type="logical" name="LSORBIT"> F  </i>
    <v name="SAXIS">      0.00000000      0.00000000      1.00000000</v>
    <i type="logical" name="LSPIRAL"> F  </i>
    <v name="QSPIRAL">      0.00000000      0.00000000      0.00000000</v>
    <i type="logical" name="LZEROZ"> F  </i>
   </separator>
   <separator name="electronic exchange-correlation" >
    <i type="logical" name="LASPH"> F  </i>
    <i type="logical" name="LMETAGGA"> F  </i>
   </separator>
   <separator name="electronic convergence" >
    <i type="int" name="NELM">    60</i>
    <i type="int" name="NELMDL">    -5</i>
    <i type="int" name="NELMIN">     2</i>
    <i name="ENINI">    280.00000000</i>
    <separator name="electronic convergence detail" >
     <i type="logical" name="LDIAG"> T  </i>
     <i type="logical" name="LSUBROT"> F  </i>
     <i name="WEIMIN">      0.00100000</i>
     <i name="EBREAK">      0.00000021</i>
     <i name="DEPER">      0.30000000</i>
     <i type="int" name="NRMM">     4</i>
     <i name="TIME">      0.40000000</i>
    </separator>
   </separator>
   <separator name="electronic mixer" >
    <i name="AMIX">      0.40000000</i>
    <i name="BMIX">      1.00000000</i>
    <i name="AMIN">      0.10000000</i>
    <i name="AMIX_MAG">      1.60000000</i>
    <i name="BMIX_MAG">      1.00000000</i>
    <separator name="electronic mixer details" >
     <i type="int" name="IMIX">     4</i>
     <i type="logical" name="MIXFIRST"> F  </i>
     <i type="int" name="MAXMIX">   -45</i>
     <i name="WC">    100.00000000</i>
     <i type="int" name="INIMIX">     1</i>
     <i type="int" name="MIXPRE">     1</i>
     <i type="int" name="MREMOVE">     5</i>
    </separator>
   </separator>
   <separator name="electronic dipolcorrection" >
    <i type="logical" name="LDIPOL"> F  </i>
    <i type="logical" name="LMONO"> F  </i>
    <i type="int" name="IDIPOL">     0</i>
    <i name="EPSILON">      1.00000000</i>
    <v name="DIPOL">   -100.00000000   -100.00000000   -100.00000000</v>
    <i name="EFIELD">      0.00000000</i>
   </separator>
  </separator>
  <separator name="grids" >
   <i type="int" name="NGX">    42</i>
   <i type="int" name="NGY">    42</i>
   <i type="int" name="NGZ">   126</i>
   <i type="int" name="NGXF">    84</i>
   <i type="int" name="NGYF">    84</i>
   <i type="int" name="NGZF">   252</i>
   <i type="logical" name="ADDGRID"> F  </i>
  </separator>
  <separator name="ionic" >
   <i type="int" name="NSW">   100</i>
   <i type="int" name="IBRION">     1</i>
   <i type="int" name="ISIF">     3</i>
   <i name="PSTRESS">      0.00000000</i>
   <i name="EDIFFG">      0.00100000</i>
   <i type="int" name="NFREE">     0</i>
   <i name="POTIM">      0.50000000</i>
   <i name="SMASS">     -3.00000000</i>
   <i name="SCALEE">      1.00000000</i>
  </separator>
  <separator name="ionic md" >
   <i name="TEBEG">      0.00010000</i>
   <i name="TEEND">      0.00010000</i>
   <i type="int" name="NBLOCK">     1</i>
   <i type="int" name="KBLOCK">   100</i>
   <i type="int" name="NPACO">   256</i>
   <i name="APACO">     16.00000000</i>
  </separator>
  <separator name="symmetry" >
   <i type="int" name="ISYM">     0</i>
   <i name="SYMPREC">      0.00000001</i>
  </separator>
  <separator name="dos" >
   <i type="logical" name="LORBIT"> F  </i>
   <v name="RWIGS">     -1.00000000     -1.00000000     -1.00000000     -1.00000000</v>
   <i type="int" name="NEDOS">   301</i>
   <i name="EMIN">     10.00000000</i>
   <i name="EMAX">    -10.00000000</i>
   <i name="EFERMI">      0.00000000</i>
  </separator>
  <separator name="writing" >
   <i type="int" name="NWRITE">     2</i>
   <i type="logical" name="LWAVE"> F  </i>
   <i type="logical" name="LCHARG"> F  </i>
   <i type="logical" name="LPARD"> F  </i>
   <i type="logical" name="LVTOT"> F  </i>
   <i type="logical" name="LVHAR"> F  </i>
   <i type="logical" name="LELF"> F  </i>
   <i type="logical" name="LOPTICS"> F  </i>
   <v name="STM">      0.00000000      0.00000000      0.00000000      0.00000000      0.00000000      0.00000000      0.00000000</v>
  </separator>
  <separator name="performance" >
   <i type="int" name="NPAR">    40</i>
   <i type="int" name="NSIM">     4</i>
   <i type="int" name="NBLK">    -1</i>
   <i type="logical" name="LPLANE"> F  </i>
   <i type="logical" name="LSCALAPACK"> T  </i>
   <i type="logical" name="LSCAAWARE"> F  </i>
   <i type="logical" name="LSCALU"> F  </i>
   <i type="logical" name="LASYNC"> F  </i>
   <i type="logical" name="LORBITALREAL"> F  </i>
  </separator>
  <separator name="miscellaneous" >
   <i type="int" name="IDIOT">     3</i>
   <i type="logical" name="LMUSIC"> F  </i>
   <v name="POMASS">     50.94100000     95.94000000    183.85000000     32.06600000</v>
   <v name="DARWINR">      0.00000000      0.00000000      0.00000000      0.00000000</v>
   <v name="DARWINV">      1.00000000      1.00000000      1.00000000      1.00000000</v>
   <i type="logical" name="LCORR"> T  </i>
  </separator>
  <i type="logical" name="GGA_COMPAT"> T  </i>
  <i type="logical" name="LBERRY"> F  </i>
  <i type="int" name="ICORELEVEL">     0</i>
  <i type="logical" name="LDAU"> F  </i>
  <i type="int" name="I_CONSTRAINED_M">     0</i>
  <separator name="electronic exchange-correlation" >
   <i type="string" name="GGA">--</i>
   <i type="int" name="VOSKOWN">     0</i>
   <i type="logical" name="LHFCALC"> F  </i>
   <i type="string" name="PRECFOCK"></i>
   <i type="logical" name="LSYMGRAD"> F  </i>
   <i type="logical" name="LHFONE"> F  </i>
   <i type="logical" name="LRHFCALC"> F  </i>
   <i type="logical" name="LTHOMAS"> F  </i>
   <i type="logical" name="LMODELHF"> F  </i>
   <i name="ENCUT4O">     -1.00000000</i>
   <i type="int" name="EXXOEP">     0</i>
   <i type="int" name="FOURORBIT">     0</i>
   <i name="AEXX">      0.00000000</i>
   <i name="HFALPHA">      0.00000000</i>
   <i name="MCALPHA">      0.00000000</i>
   <i name="ALDAX">      1.00000000</i>
   <i name="AGGAX">      1.00000000</i>
   <i name="ALDAC">      1.00000000</i>
   <i name="AGGAC">      1.00000000</i>
   <i type="int" name="NKREDX">     1</i>
   <i type="int" name="NKREDY">     1</i>
   <i type="int" name="NKREDZ">     1</i>
   <i type="logical" name="SHIFTRED"> F  </i>
   <i type="logical" name="ODDONLY"> F  </i>
   <i type="logical" name="EVENONLY"> F  </i>
   <i type="int" name="LMAXFOCK">     0</i>
   <i type="int" name="NMAXFOCKAE">     0</i>
   <i type="logical" name="LFOCKAEDFT"> F  </i>
   <i name="HFSCREEN">      0.00000000</i>
   <i name="HFSCREENC">      0.00000000</i>
   <i type="int" name="NBANDSGWLOW">     0</i>
  </separator>
  <separator name="vdW DFT" >
   <i type="logical" name="LUSE_VDW"> F  </i>
   <i name="Zab_VDW">     -0.84910000</i>
   <i name="PARAM1">      0.12340000</i>
   <i name="PARAM2">      1.00000000</i>
   <i name="PARAM3">      0.00000000</i>
  </separator>
  <separator name="model GW" >
   <i type="int" name="MODEL_GW">     0</i>
   <i name="MODEL_EPS0">     58.26239943</i>
   <i name="MODEL_ALPHA">      1.00000000</i>
  </separator>
  <separator name="linear response parameters" >
   <i type="logical" name="LEPSILON"> F  </i>
   <i type="logical" name="LRPA"> F  </i>
   <i type="logical" name="LNABLA"> F  </i>
   <i type="logical" name="LVEL"> F  </i>
   <i type="int" name="KINTER">     0</i>
   <i name="CSHIFT">      0.10000000</i>
   <i name="OMEGAMAX">     -1.00000000</i>
   <i name="DEG_THRESHOLD">      0.00200000</i>
  </separator>
  <separator name="orbital magnetization" >
   <i type="logical" name="NUCIND"> F  </i>
   <v name="MAGPOS">      0.00000000      0.00000000      0.00000000</v>
   <i type="logical" name="LNICSALL"> T  </i>
   <i type="logical" name="ORBITALMAG"> F  </i>
   <i type="logical" name="LMAGBLOCH"> F  </i>
   <i type="logical" name="LCHIMAG"> F  </i>
   <i type="logical" name="LGAUGE"> T  </i>
   <i type="int" name="MAGATOM">     0</i>
   <v name="MAGDIPOL">      0.00000000      0.00000000      0.00000000</v>
   <v name="AVECCONST">      0.00000000      0.00000000      0.00000000</v>
  </separator>
  <separator name="response functions" >
   <i type="logical" name="LADDER"> F  </i>
   <i type="logical" name="LFXC"> F  </i>
   <i type="logical" name="LHARTREE"> T  </i>
   <i type="int" name="IBSE">     0</i>
   <v type="int" name="KPOINT">    -1     0     0     0</v>
   <i type="logical" name="LTCTE"> F  </i>
   <i type="logical" name="LTETE"> F  </i>
   <i type="logical" name="LTRIPLET"> F  </i>
   <i type="logical" name="LFXCEPS"> F  </i>
   <i type="logical" name="LFXHEG"> F  </i>
   <i type="int" name="NATURALO">     0</i>
   <i type="logical" name="L2ORDER"> F  </i>
   <i type="logical" name="LUSEW"> F  </i>
   <i name="ENCUTGW">     -2.00000000</i>
   <i name="ENCUTGWSOFT">     -2.00000000</i>
   <i name="ENCUTLF">     -1.00000000</i>
   <i type="int" name="LMAXMP2">    -1</i>
   <i name="SCISSOR">      0.00000000</i>
   <i type="int" name="NOMEGA">     0</i>
   <i type="int" name="NOMEGAR">     0</i>
   <i type="int" name="NBANDSGW">    -1</i>
   <i type="int" name="NBANDSO">    -1</i>
   <i type="int" name="NBANDSV">    -1</i>
   <i type="int" name="NELM">     1</i>
   <i type="int" name="NELMHF">     1</i>
   <i type="int" name="DIM">     3</i>
   <i type="int" name="ANTIRES">     0</i>
   <i name="OMEGAMAX">    -30.00000000</i>
   <i name="OMEGAMIN">    -30.00000000</i>
   <i name="OMEGATL">   -200.00000000</i>
   <i type="int" name="OMEGAGRID">     0</i>
   <i name="CSHIFT">     -0.10000000</i>
   <i type="logical" name="SELFENERGY"> F  </i>
   <i type="logical" name="LSPECTRAL"> F  </i>
   <i type="logical" name="LSPECTRALGW"> F  </i>
   <i type="logical" name="LSINGLES"> F  </i>
   <i type="logical" name="LFERMIGW"> F  </i>
   <i type="logical" name="ODDONLYGW"> F  </i>
   <i type="logical" name="EVENONLYGW"> F  </i>
   <i type="int" name="NKREDLFX">     1</i>
   <i type="int" name="NKREDLFY">     1</i>
   <i type="int" name="NKREDLFZ">     1</i>
   <i type="int" name="MAXMEM">  1800</i>
   <i type="int" name="TELESCOPE">     0</i>
   <i type="int" name="TAUPAR">     1</i>
   <i type="int" name="OMEGAPAR">    -1</i>
   <i name="LAMBDA">      1.00000000</i>
  </separator>
  <separator name="External order field" >
   <i name="OFIELD_KAPPA">      0.00000000</i>
   <v name="OFIELD_K">      0.00000000      0.00000000      0.00000000</v>
   <i name="OFIELD_Q6_NEAR">      0.00000000</i>
   <i name="OFIELD_Q6_FAR">      0.00000000</i>
   <i name="OFIELD_A">      0.00000000</i>
  </separator>
 </parameters>
 <atominfo>
  <atoms>      27 </atoms>
  <types>       4 </types>
  <array name="atoms" >
   <dimension dim="1">ion</dimension>
   <field type="string">element</field>
   <field type="int">atomtype</field>
   <set>
    <rc><c>V </c><c>   1</c></rc>
    <rc><c>V </c><c>   1</c></rc>
    <rc><c>V </c><c>   1</c></rc>
    <rc><c>Mo</c><c>   2</c></rc>
    <rc><c>Mo</c><c>   2</c></rc>
    <rc><c>Mo</c><c>   2</c></rc>
    <rc><c>W </c><c>   3</c></rc>
    <rc><c>W </c><c>   3</c></rc>
    <rc><c>W </c><c>   3</c></rc>
    <rc><c>S </c><c>   4</c></rc>
    <rc><c>S </c><c>   4</c></rc>
    <rc><c>S </c><c>   4</c></rc>
    <rc><c>S </c><c>   4</c></rc>
    <rc><c>S </c><c>   4</c></rc>
    <rc><c>S </c><c>   4</c></rc>
    <rc><c>S </c><c>   4</c></rc>
    <rc><c>S </c><c>   4</c></rc>
    <rc><c>S </c><c>   4</c></rc>
    <rc><c>S </c><c>   4</c></rc>
    <rc><c>S </c><c>   4</c></rc>
    <rc><c>S </c><c>   4</c></rc>
    <rc><c>S </c><c>   4</c></rc>
    <rc><c>S </c><c>   4</c></rc>
    <rc><c>S </c><c>   4</c></rc>
    <rc><c>S </c><c>   4</c></rc>
    <rc><c>S </c><c>   4</c></rc>
    <rc><c>S </c><c>   4</c></rc>
   </set>
  </array>
  <array name="atomtypes" >
   <dimension dim="1">type</dimension>
   <field type="int">atomspertype</field>
   <field type="string">element</field>
   <field>mass</field>
   <field>valence</field>
   <field type="string">pseudopotential</field>
   <set>
    <rc><c>   3</c><c>V </c><c>     50.94100000</c><c>      5.00000000</c><c> PAW_PBE V 08Apr2002                    </c></rc>
    <rc><c>   3</c><c>Mo</c><c>     95.94000000</c><c>      6.00000000</c><c> PAW_PBE Mo 08Apr2002                   </c></rc>
    <rc><c>   3</c><c>W </c><c>    183.85000000</c><c>      6.00000000</c><c> PAW_PBE W 08Apr2002                    </c></rc>
    <rc><c>  18</c><c>S </c><c>     32.06600000</c><c>      6.00000000</c><c>  PAW_PBE S 17Jan2003                   </c></rc>
   </set>
  </array>
 </atominfo>
 <structure name="initialpos" >
  <crystal>
   <varray name="basis" >
    <v>       8.66999996       5.03999989       0.00000000 </v>
    <v>      -8.66999982       5.04000013       0.00000000 </v>
    <v>       0.00000000       0.00000000      30.00000000 </v>
   </varray>
   <i name="volume">   2621.80797419 </i>
   <varray name="rec_basis" >
    <v>       0.05767013       0.09920635       0.00000000 </v>
    <v>      -0.05767013       0.09920635       0.00000000 </v>
    <v>       0.00000000       0.00000000       0.03333333 </v>
   </varray>
  </crystal>
  <varray name="positions" >
   <v>       1.00000000       0.33333334       0.00000000 </v>
   <v>       0.33333334       0.66666669       0.00000000 </v>
   <v>       0.33333334       0.00000000       0.00000000 </v>
   <v>       0.33333334       0.33333334       0.00000000 </v>
   <v>       0.66666669       0.00000000       0.00000000 </v>
   <v>       0.00000000       0.66666669       0.00000000 </v>
   <v>       0.00000000       0.00000000       0.00000000 </v>
   <v>       0.66666669       0.33333334       0.00000000 </v>
   <v>       0.66666669       0.66666669       0.00000000 </v>
   <v>       0.11068511       0.22244981       0.95539999 </v>
   <v>       0.22244981       0.11068511       0.04460000 </v>
   <v>       0.11068511       0.55578315       0.95539999 </v>
   <v>       0.22244981       0.44401845       0.04460000 </v>
   <v>       0.11068511       0.88911647       0.95539999 </v>
   <v>       0.22244981       0.77735180       0.04460000 </v>
   <v>       0.44401845       0.22244981       0.95539999 </v>
   <v>       0.55578315       0.11068511       0.04460000 </v>
   <v>       0.44401845       0.55578315       0.95539999 </v>
   <v>       0.55578315       0.44401845       0.04460000 </v>
   <v>       0.44401845       0.88911647       0.95539999 </v>
   <v>       0.55578315       0.77735180       0.04460000 </v>
   <v>       0.77735180       0.22244981       0.95539999 </v>
   <v>       0.88911647       0.11068511       0.04460000 </v>
   <v>       0.77735180       0.55578315       0.95539999 </v>
   <v>       0.88911647       0.44401845       0.04460000 </v>
   <v>       0.77735180       0.88911647       0.95539999 </v>
   <v>       0.88911647       0.77735180       0.04460000 </v>
  </varray>
 </structure>
 <calculation>
  <scstep>
   <time name="dav">   21.82   21.87</time>
   <time name="total">   21.86   21.92</time>
   <energy>
    <i name="alphaZ">     81.65567618 </i>
    <i name="ewald">  41890.23011114 </i>
    <i name="hartreedc"> -47722.87972143 </i>
    <i name="XCdc">   -242.92665265 </i>
    <i name="pawpsdc">   3467.42045192 </i>
    <i name="pawaedc">  -2871.19716117 </i>
    <i name="eentropy">     -0.53705391 </i>
    <i name="bandstr">   -238.87137726 </i>
    <i name="atom">   6761.44252427 </i>
    <i name="e_fr_energy">   1124.33679708 </i>
    <i name="e_wo_entrp">   1124.87385100 </i>
    <i name="e_0_energy">   1124.60532404 </i>
   </energy>
  </scstep>
  <scstep>
   <time name="dav">   28.23   28.30</time>
   <time name="total">   28.23   28.31</time>
   <energy>
    <i name="e_fr_energy">     -1.53030966 </i>
    <i name="e_wo_entrp">     -1.33246283 </i>
    <i name="e_0_energy">     -1.43138624 </i>
   </energy>
  </scstep>
  <scstep>
   <time name="dav">   27.56   27.63</time>
   <time name="total">   27.57   27.64</time>
   <energy>
    <i name="e_fr_energy">   -199.82269984 </i>
    <i name="e_wo_entrp">   -199.53950994 </i>
    <i name="e_0_energy">   -199.68110489 </i>
   </energy>
  </scstep>
  <scstep>
   <time name="dav">   29.99   30.06</time>
   <time name="total">   29.99   30.07</time>
   <energy>
    <i name="e_fr_energy">   -209.06966488 </i>
    <i name="e_wo_entrp">   -208.74500064 </i>
    <i name="e_0_energy">   -208.90733276 </i>
   </energy>
  </scstep>
  <scstep>
   <time name="dav">   28.55   28.62</time>
   <time name="total">   29.02   29.10</time>
   <energy>
    <i name="e_fr_energy">   -209.39301672 </i>
    <i name="e_wo_entrp">   -209.07071842 </i>
    <i name="e_0_energy">   -209.23186757 </i>
   </energy>
  </scstep>
  <scstep>
   <time name="dav">   30.89   30.96</time>
   <time name="total">   31.39   31.47</time>
   <energy>
    <i name="e_fr_energy">   -237.09621802 </i>
    <i name="e_wo_entrp">   -236.79649072 </i>
    <i name="e_0_energy">   -236.94635437 </i>
   </energy>
  </scstep>
  <scstep>
   <time name="dav">   32.74   32.82</time>
   <time name="total">   33.25   33.34</time>
   <energy>
    <i name="e_fr_energy">   -196.36861799 </i>
    <i name="e_wo_entrp">   -196.08292341 </i>
    <i name="e_0_energy">   -196.22577070 </i>
   </energy>
  </scstep>
  <scstep>
   <time name="dav">   29.71   29.78</time>
   <time name="total">   30.23   30.31</time>
   <energy>
    <i name="e_fr_energy">   -189.11937583 </i>
    <i name="e_wo_entrp">   -188.81235499 </i>
    <i name="e_0_energy">   -188.96586541 </i>
   </energy>
  </scstep>
  <scstep>
   <time name="dav">   32.92   33.00</time>
   <time name="total">   33.45   33.54</time>
   <energy>
    <i name="e_fr_energy">   -187.44197285 </i>
    <i name="e_wo_entrp">   -187.12928139 </i>
    <i name="e_0_energy">   -187.28562712 </i>
   </energy>
  </scstep>
  <scstep>
   <time name="dav">   32.54   32.62</time>
   <time name="total">   33.08   33.17</time>
   <energy>
    <i name="e_fr_energy">   -186.96937843 </i>
    <i name="e_wo_entrp">   -186.61385332 </i>
    <i name="e_0_energy">   -186.79161587 </i>
   </energy>
  </scstep>
  <scstep>
   <time name="dav">   31.45   31.52</time>
   <time name="total">   31.99   32.07</time>
   <energy>
    <i name="e_fr_energy">   -186.97562915 </i>
    <i name="e_wo_entrp">   -186.63683667 </i>
    <i name="e_0_energy">   -186.80623291 </i>
   </energy>
  </scstep>
  <scstep>
   <time name="dav">   32.01   32.09</time>
   <time name="total">   32.55   32.63</time>
   <energy>
    <i name="e_fr_energy">   -186.91898217 </i>
    <i name="e_wo_entrp">   -186.57978055 </i>
    <i name="e_0_energy">   -186.74938136 </i>
   </energy>
  </scstep>
  <scstep>
   <time name="dav">   31.57   31.65</time>
   <time name="total">   32.11   32.19</time>
   <energy>
    <i name="e_fr_energy">   -186.86230476 </i>
    <i name="e_wo_entrp">   -186.51963895 </i>
    <i name="e_0_energy">   -186.69097185 </i>
   </energy>
  </scstep>
  <scstep>
   <time name="dav">   31.47   31.55</time>
   <time name="total">   32.01   32.10</time>
   <energy>
    <i name="e_fr_energy">   -186.84686537 </i>
    <i name="e_wo_entrp">   -186.49766461 </i>
    <i name="e_0_energy">   -186.67226499 </i>
   </energy>
  </scstep>
  <scstep>
   <time name="dav">   29.92   30.00</time>
   <time name="total">   30.47   30.56</time>
   <energy>
    <i name="e_fr_energy">   -186.83833259 </i>
    <i name="e_wo_entrp">   -186.48966038 </i>
    <i name="e_0_energy">   -186.66399649 </i>
   </energy>
  </scstep>
  <scstep>
   <time name="dav">   32.75   32.83</time>
   <time name="total">   33.29   33.38</time>
   <energy>
    <i name="e_fr_energy">   -186.83689572 </i>
    <i name="e_wo_entrp">   -186.48901589 </i>
    <i name="e_0_energy">   -186.66295581 </i>
   </energy>
  </scstep>
  <scstep>
   <time name="dav">   30.18   30.26</time>
   <time name="total">   30.72   30.81</time>
   <energy>
    <i name="e_fr_energy">   -186.83475953 </i>
    <i name="e_wo_entrp">   -186.48934083 </i>
    <i name="e_0_energy">   -186.66205018 </i>
   </energy>
  </scstep>
  <scstep>
   <time name="dav">   30.88   30.95</time>
   <time name="total">   31.41   31.50</time>
   <energy>
    <i name="e_fr_energy">   -186.83369307 </i>
    <i name="e_wo_entrp">   -186.48701202 </i>
    <i name="e_0_energy">   -186.66035254 </i>
   </energy>
  </scstep>
  <scstep>
   <time name="dav">   26.63   26.70</time>
   <time name="total">   27.17   27.24</time>
   <energy>
    <i name="e_fr_energy">   -186.83422223 </i>
    <i name="e_wo_entrp">   -186.48778428 </i>
    <i name="e_0_energy">   -186.66100325 </i>
   </energy>
  </scstep>
  <scstep>
   <time name="dav">   24.67   24.73</time>
   <time name="total">   25.20   25.27</time>
   <energy>
    <i name="e_fr_energy">   -186.83462927 </i>
    <i name="e_wo_entrp">   -186.48840052 </i>
    <i name="e_0_energy">   -186.66151490 </i>
   </energy>
  </scstep>
  <scstep>
   <time name="dav">   20.95   21.00</time>
   <time name="total">   21.49   21.55</time>
   <energy>
    <i name="e_fr_energy">   -186.83547887 </i>
    <i name="e_wo_entrp">   -186.48908850 </i>
    <i name="e_0_energy">   -186.66228368 </i>
   </energy>
  </scstep>
  <scstep>
   <time name="dav">   18.20   18.25</time>
   <time name="total">   18.74   18.79</time>
   <energy>
    <i name="e_fr_energy">   -186.83622606 </i>
    <i name="e_wo_entrp">   -186.48974453 </i>
    <i name="e_0_energy">   -186.66298529 </i>
   </energy>
  </scstep>
  <scstep>
   <time name="dav">   20.42   20.47</time>
   <time name="total">   20.96   21.02</time>
   <energy>
    <i name="e_fr_energy">   -186.83745237 </i>
    <i name="e_wo_entrp">   -186.49108312 </i>
    <i name="e_0_energy">   -186.66426774 </i>
   </energy>
  </scstep>
  <scstep>
   <time name="dav">   18.85   18.90</time>
   <time name="total">   19.39   19.45</time>
   <energy>
    <i name="e_fr_energy">   -186.83801189 </i>
    <i name="e_wo_entrp">   -186.49163892 </i>
    <i name="e_0_energy">   -186.66482541 </i>
   </energy>
  </scstep>
  <scstep>
   <time name="dav">   16.43   16.46</time>
   <time name="total">   16.96   17.01</time>
   <energy>
    <i name="e_fr_energy">   -186.83844114 </i>
    <i name="e_wo_entrp">   -186.49201074 </i>
    <i name="e_0_energy">   -186.66522594 </i>
   </energy>
  </scstep>
  <scstep>
   <time name="dav">   19.06   19.11</time>
   <time name="total">   19.60   19.65</time>
   <energy>
    <i name="e_fr_energy">   -186.83863800 </i>
    <i name="e_wo_entrp">   -186.49222910 </i>
    <i name="e_0_energy">   -186.66543355 </i>
   </energy>
  </scstep>
  <scstep>
   <time name="dav">   19.22   19.27</time>
   <time name="total">   19.26   19.31</time>
   <energy>
    <i name="alphaZ">     81.65567618 </i>
    <i name="ewald">  41890.23011114 </i>
    <i name="hartreedc"> -47832.72216772 </i>
    <i name="XCdc">   -231.61199727 </i>
    <i name="pawpsdc">   4192.01029088 </i>
    <i name="pawaedc">  -3610.00683383 </i>
    <i name="eentropy">     -0.34640023 </i>
    <i name="bandstr">  -1437.48994119 </i>
    <i name="atom">   6761.44252427 </i>
    <i name="e_fr_energy">   -186.83873777 </i>
    <i name="e_wo_entrp">   -186.49233754 </i>
    <i name="e_0_energy">   -186.66553765 </i>
   </energy>
  </scstep>
  <structure>
   <crystal>
    <varray name="basis" >
     <v>       8.66999996       5.03999989       0.00000000 </v>
     <v>      -8.66999982       5.04000013       0.00000000 </v>
     <v>       0.00000000       0.00000000      30.00000000 </v>
    </varray>
    <i name="volume">   2621.80797419 </i>
    <varray name="rec_basis" >
     <v>       0.05767013       0.09920635       0.00000000 </v>
     <v>      -0.05767013       0.09920635       0.00000000 </v>
     <v>       0.00000000       0.00000000       0.03333333 </v>
    </varray>
   </crystal>
   <varray name="positions" >
    <v>       1.00000000       0.33333334       0.00000000 </v>
    <v>       0.33333334       0.66666669       0.00000000 </v>
    <v>       0.33333334       0.00000000       0.00000000 </v>
    <v>       0.33333334       0.33333334       0.00000000 </v>
    <v>       0.66666669       0.00000000       0.00000000 </v>
    <v>       0.00000000       0.66666669       0.00000000 </v>
    <v>       0.00000000       0.00000000       0.00000000 </v>
    <v>       0.66666669       0.33333334       0.00000000 </v>
    <v>       0.66666669       0.66666669       0.00000000 </v>
    <v>       0.11068511       0.22244981       0.95539999 </v>
    <v>       0.22244981       0.11068511       0.04460000 </v>
    <v>       0.11068511       0.55578315       0.95539999 </v>
    <v>       0.22244981       0.44401845       0.04460000 </v>
    <v>       0.11068511       0.88911647       0.95539999 </v>
    <v>       0.22244981       0.77735180       0.04460000 </v>
    <v>       0.44401845       0.22244981       0.95539999 </v>
    <v>       0.55578315       0.11068511       0.04460000 </v>
    <v>       0.44401845       0.55578315       0.95539999 </v>
    <v>       0.55578315       0.44401845       0.04460000 </v>
    <v>       0.44401845       0.88911647       0.95539999 </v>
    <v>       0.55578315       0.77735180       0.04460000 </v>
    <v>       0.77735180       0.22244981       0.95539999 </v>
    <v>       0.88911647       0.11068511       0.04460000 </v>
    <v>       0.77735180       0.55578315       0.95539999 </v>
    <v>       0.88911647       0.44401845       0.04460000 </v>
    <v>       0.77735180       0.88911647       0.95539999 </v>
    <v>       0.88911647       0.77735180       0.04460000 </v>
   </varray>
  </structure>
  <varray name="forces" >
   <v>      -0.00235492       0.10376724       0.10459266 </v>
   <v>      -0.09468896      -0.05450245       0.00268661 </v>
   <v>       0.09480679      -0.03687552      -0.10869382 </v>
   <v>      -0.03732984       0.01017648       0.04569622 </v>
   <v>      -0.00690303      -0.03588670      -0.03642724 </v>
   <v>       0.04489412       0.01196154      -0.00924347 </v>
   <v>      -0.00448183       0.05409548       0.13086123 </v>
   <v>       0.07171684      -0.04787437      -0.13474492 </v>
   <v>      -0.06771139      -0.02498929       0.00566297 </v>
   <v>      -0.66021118      -0.13888047      -2.10252936 </v>
   <v>       0.64342239      -0.16169146       2.09840206 </v>
   <v>       0.89153258       0.00260478      -1.46005944 </v>
   <v>      -0.89816697      -0.02351639       1.47126161 </v>
   <v>       0.39560050       0.72107108      -2.16971874 </v>
   <v>       0.32495643       0.66332277       1.42245552 </v>
   <v>       0.63124675      -0.55666033      -2.17205376 </v>
   <v>      -0.60817541      -0.55354093       2.14168255 </v>
   <v>      -0.65240401       0.15957824      -2.11677100 </v>
   <v>      -0.07982495       0.14962021       2.89579953 </v>
   <v>      -0.34428054      -0.66185393      -1.43114312 </v>
   <v>      -0.35922990      -0.69453997       2.15891362 </v>
   <v>       0.34549437       0.69245951      -2.14915879 </v>
   <v>      -0.36025565       0.72153885       2.18408016 </v>
   <v>       0.05345450      -0.15267166      -2.91484862 </v>
   <v>       0.69565580      -0.13366287       2.12647330 </v>
   <v>       0.27207439      -0.02332252      -2.89229659 </v>
   <v>      -0.28883690       0.01027270       2.90912083 </v>
  </varray>
  <varray name="stress" >
   <v>       7.31418937      -0.00343161      -1.52020819 </v>
   <v>      -0.00343160       4.41919219      -0.05279326 </v>
   <v>      -1.52020817      -0.05279330      30.32724705 </v>
  </varray>
  <energy>
   <i name="e_fr_energy">   -186.83873777 </i>
   <i name="e_wo_entrp">   -186.66553765 </i>
   <i name="e_0_energy">     -0.34640023 </i>
  </energy>
  <time name="totalsc">  783.47  785.58</time>
 </calculation>
 <calculation>
  <scstep>
   <time name="dav">   21.80   21.85</time>
   <time name="total">   22.34   22.40</time>
   <energy>
    <i name="alphaZ">     78.92615835 </i>
    <i name="ewald">  39381.74820036 </i>
    <i name="hartreedc"> -45339.10344852 </i>
    <i name="XCdc">   -239.06821086 </i>
    <i name="pawpsdc">   4191.98277826 </i>
    <i name="pawaedc">  -3609.97987042 </i>
    <i name="eentropy">     -0.29778169 </i>
    <i name="bandstr">  -1413.08522663 </i>
    <i name="atom">   6761.44252427 </i>
    <i name="e_fr_energy">   -187.43487688 </i>
    <i name="e_wo_entrp">   -187.13709519 </i>
    <i name="e_0_energy">   -187.28598603 </i>
   </energy>
  </scstep>
  <scstep>
   <time name="dav">   30.29   30.37</time>
   <time name="total">   30.84   30.92</time>
   <energy>
    <i name="e_fr_energy">   -189.15768749 </i>
    <i name="e_wo_entrp">   -188.84463115 </i>
    <i name="e_0_energy">   -189.00115932 </i>
   </energy>
  </scstep>
  <scstep>
   <time name="dav">   30.39   30.47</time>
   <time name="total">   30.94   31.02</time>
   <energy>
    <i name="e_fr_energy">   -189.35400592 </i>
    <i name="e_wo_entrp">   -189.06458950 </i>
    <i name="e_0_energy">   -189.20929771 </i>
   </energy>
  </scstep>
  <scstep>
   <time name="dav">   30.84   30.92</time>
   <time name="total">   31.39   31.48</time>
   <energy>
    <i name="e_fr_energy">   -188.72233313 </i>
    <i name="e_wo_entrp">   -188.42844269 </i>
    <i name="e_0_energy">   -188.57538791 </i>
   </energy>
  </scstep>
  <scstep>
   <time name="dav">   27.55   27.61</time>
   <time name="total">   28.09   28.16</time>
   <energy>
    <i name="e_fr_energy">   -188.70472329 </i>
    <i name="e_wo_entrp">   -188.40522567 </i>
    <i name="e_0_energy">   -188.55497448 </i>
   </energy>
  </scstep>
  <scstep>
   <time name="dav">   31.03   31.11</time>
   <time name="total">   31.58   31.66</time>
   <energy>
    <i name="e_fr_energy">   -188.75635114 </i>
    <i name="e_wo_entrp">   -188.45539922 </i>
    <i name="e_0_energy">   -188.60587518 </i>
   </energy>
  </scstep>
  <scstep>
   <time name="dav">   31.14   31.21</time>
   <time name="total">   31.69   31.77</time>
   <energy>
    <i name="e_fr_energy">   -188.61955780 </i>
    <i name="e_wo_entrp">   -188.32498954 </i>
    <i name="e_0_energy">   -188.47227367 </i>
   </energy>
  </scstep>
  <scstep>
   <time name="dav">   30.86   30.94</time>
   <time name="total">   31.41   31.49</time>
   <energy>
    <i name="e_fr_energy">   -188.61423216 </i>
    <i name="e_wo_entrp">   -188.31908354 </i>
    <i name="e_0_energy">   -188.46665785 </i>
   </energy>
  </scstep>
  <scstep>
   <time name="dav">   31.24   31.32</time>
   <time name="total">   31.78   31.87</time>
   <energy>
    <i name="e_fr_energy">   -188.60307482 </i>
    <i name="e_wo_entrp">   -188.30777746 </i>
    <i name="e_0_energy">   -188.45542614 </i>
   </energy>
  </scstep>
  <scstep>
   <time name="dav">   29.17   29.24</time>
   <time name="total">   29.72   29.79</time>
   <energy>
    <i name="e_fr_energy">   -188.60224447 </i>
    <i name="e_wo_entrp">   -188.30688292 </i>
    <i name="e_0_energy">   -188.45456370 </i>
   </energy>
  </scstep>
  <scstep>
   <time name="dav">   30.19   30.26</time>
   <time name="total">   30.73   30.81</time>
   <energy>
    <i name="e_fr_energy">   -188.60158511 </i>
    <i name="e_wo_entrp">   -188.30681340 </i>
    <i name="e_0_energy">   -188.45419925 </i>
   </energy>
  </scstep>
  <scstep>
   <time name="dav">   27.74   27.80</time>
   <time name="total">   28.28   28.36</time>
   <energy>
    <i name="e_fr_energy">   -188.60171886 </i>
    <i name="e_wo_entrp">   -188.30695662 </i>
    <i name="e_0_energy">   -188.45433774 </i>
   </energy>
  </scstep>
  <scstep>
   <time name="dav">   21.76   21.81</time>
   <time name="total">   21.79   21.85</time>
   <energy>
    <i name="alphaZ">     78.92615835 </i>
    <i name="ewald">  39381.74820036 </i>
    <i name="hartreedc"> -45349.93778095 </i>
    <i name="XCdc">   -237.98624997 </i>
    <i name="pawpsdc">   3950.03982204 </i>
    <i name="pawaedc">  -3364.53280866 </i>
    <i name="eentropy">     -0.29480037 </i>
    <i name="bandstr">  -1408.00676645 </i>
    <i name="atom">   6761.44252427 </i>
    <i name="e_fr_energy">   -188.60170137 </i>
    <i name="e_wo_entrp">   -188.30690100 </i>
    <i name="e_0_energy">   -188.45430119 </i>
   </energy>
  </scstep>
  <structure>
   <crystal>
    <varray name="basis" >
     <v>       8.85536360       5.10503542       0.00000000 </v>
     <v>      -8.85546460       5.10520964       0.00000000 </v>
     <v>       0.00000000       0.00000000      30.00000000 </v>
    </varray>
    <i name="volume">   2712.47844059 </i>
    <varray name="rec_basis" >
     <v>       0.05646360       0.09794140       0.00000000 </v>
     <v>      -0.05646167       0.09794028       0.00000000 </v>
     <v>       0.00000000       0.00000000       0.03333333 </v>
    </varray>
   </crystal>
   <varray name="positions" >
    <v>       1.00049008       0.33383652       0.00016819 </v>
    <v>       0.33280906       0.66666928       0.00000432 </v>
    <v>       0.33342063      -0.00044025      -0.00017479 </v>
    <v>       0.33327819       0.33348591       0.00007348 </v>
    <v>       0.66647573      -0.00015255      -0.00005858 </v>
    <v>       0.00018215       0.66659903      -0.00001486 </v>
    <v>       0.00024643       0.00027137       0.00021044 </v>
    <v>       0.66663709       0.33290469      -0.00021668 </v>
    <v>       0.66635870       0.66673547       0.00000911 </v>
    <v>       0.10818362       0.22362194       0.95201894 </v>
    <v>       0.22346606       0.10812115       0.04797441 </v>
    <v>       0.11317796       0.55331523       0.95305209 </v>
    <v>       0.21983842       0.44640475       0.04696592 </v>
    <v>       0.11523676       0.89146687       0.95191089 </v>
    <v>       0.22652854       0.77962236       0.04688743 </v>
    <v>       0.44311052       0.21802942       0.95190714 </v>
    <v>       0.55144188       0.10972792       0.04804401 </v>
    <v>       0.44296710       0.55836198       0.95199604 </v>
    <v>       0.55627715       0.44495662       0.04925670 </v>
    <v>       0.43989299       0.88690669       0.95309859 </v>
    <v>       0.55145966       0.77502718       0.04807172 </v>
    <v>       0.78162711       0.22480268       0.95194395 </v>
    <v>       0.89156745       0.11514067       0.04811219 </v>
    <v>       0.77676983       0.55490375       0.95071266 </v>
    <v>       0.89041218       0.44144332       0.04801956 </v>
    <v>       0.77799713       0.88824789       0.95074892 </v>
    <v>       0.88836204       0.77820455       0.04927812 </v>
   </varray>
  </structure>
  <varray name="forces" >
   <v>       0.01402741       0.01886255       0.03249082 </v>
   <v>      -0.02269850      -0.01409024       0.00206767 </v>
   <v>       0.02414738       0.00554397      -0.03435075 </v>
   <v>       0.10232598       0.09373904       0.00817710 </v>
   <v>       0.13297066       0.04802775      -0.00663335 </v>
   <v>      -0.23844134      -0.13701604      -0.00158495 </v>
   <v>      -0.01802882      -0.11254363       0.03674735 </v>
   <v>      -0.09458754       0.03401582      -0.03757871 </v>
   <v>       0.08550596       0.05517268       0.00002527 </v>
   <v>       0.01075819      -0.10274934       0.05468622 </v>
   <v>      -0.00078575      -0.11368974      -0.00988528 </v>
   <v>       0.04477356       0.01040195       0.08156909 </v>
   <v>      -0.04969315       0.00077747      -0.04332294 </v>
   <v>      -0.10452451       0.07417433       0.02566879 </v>
   <v>       0.01638509       0.04247342      -0.06859878 </v>
   <v>       0.09584192       0.03854347      -0.02206427 </v>
   <v>      -0.08474120       0.04010184      -0.06398914 </v>
   <v>      -0.00214290       0.09799118       0.01097192 </v>
   <v>       0.09056990       0.11571643      -0.00313637 </v>
   <v>      -0.01100622      -0.05457863       0.02680338 </v>
   <v>       0.08895288      -0.06680852      -0.02835307 </v>
   <v>      -0.10149085       0.07005842       0.02459537 </v>
   <v>       0.10691406       0.07351358       0.01428677 </v>
   <v>      -0.08188257      -0.12377996      -0.04360384 </v>
   <v>      -0.00161822      -0.11084836      -0.00112792 </v>
   <v>       0.12906162       0.00982790      -0.00563061 </v>
   <v>      -0.13059303       0.00716264       0.05177022 </v>
  </varray>
  <varray name="stress" >
   <v>     -19.86842938      -0.00759020       0.04666379 </v>
   <v>      -0.00759016     -19.44614788      -0.02659303 </v>
   <v>       0.04666374      -0.02659296      -1.71971225 </v>
  </varray>
  <energy>
   <i name="e_fr_energy">   -188.60170137 </i>
   <i name="e_wo_entrp">   -188.45430119 </i>
   <i name="e_0_energy">     -0.29480037 </i>
  </energy>
  <time name="totalsc">  423.24  424.35</time>
 </calculation>
 <calculation>
  <scstep>
   <time name="dav">   24.23   24.29</time>
   <time name="total">   24.77   24.83</time>
   <energy>
    <i name="alphaZ">     82.35508701 </i>
    <i name="ewald">  41307.19721238 </i>
    <i name="hartreedc"> -47306.05931612 </i>
    <i name="XCdc">   -233.85929240 </i>
    <i name="pawpsdc">   3949.67211578 </i>
    <i name="pawaedc">  -3364.16168178 </i>
    <i name="eentropy">     -0.24441641 </i>
    <i name="bandstr">  -1386.84689113 </i>
    <i name="atom">   6761.44252427 </i>
    <i name="e_fr_energy">   -190.50465840 </i>
    <i name="e_wo_entrp">   -190.26024199 </i>
    <i name="e_0_energy">   -190.38245020 </i>
   </energy>
  </scstep>
  <scstep>
   <time name="dav">   27.80   27.87</time>
   <time name="total">   28.32   28.40</time>
   <energy>
    <i name="e_fr_energy">   -190.56932015 </i>
    <i name="e_wo_entrp">   -190.31645706 </i>
    <i name="e_0_energy">   -190.44288860 </i>
   </energy>
  </scstep>
  <scstep>
   <time name="dav">   30.34   30.42</time>
   <time name="total">   30.87   30.96</time>
   <energy>
    <i name="e_fr_energy">   -189.97043874 </i>
    <i name="e_wo_entrp">   -189.71774071 </i>
    <i name="e_0_energy">   -189.84408972 </i>
   </energy>
  </scstep>
  <scstep>
   <time name="dav">   31.12   31.20</time>
   <time name="total">   31.66   31.74</time>
   <energy>
    <i name="e_fr_energy">   -189.76895492 </i>
    <i name="e_wo_entrp">   -189.51723026 </i>
    <i name="e_0_energy">   -189.64309259 </i>
   </energy>
  </scstep>
  <scstep>
   <time name="dav">   30.10   30.18</time>
   <time name="total">   30.64   30.72</time>
   <energy>
    <i name="e_fr_energy">   -189.70754664 </i>
    <i name="e_wo_entrp">   -189.45939082 </i>
    <i name="e_0_energy">   -189.58346873 </i>
   </energy>
  </scstep>
  <scstep>
   <time name="dav">   30.05   30.12</time>
   <time name="total">   30.58   30.66</time>
   <energy>
    <i name="e_fr_energy">   -189.67169431 </i>
    <i name="e_wo_entrp">   -189.42224559 </i>
    <i name="e_0_energy">   -189.54696995 </i>
   </energy>
  </scstep>
  <scstep>
   <time name="dav">   29.84   29.92</time>
   <time name="total">   30.38   30.46</time>
   <energy>
    <i name="e_fr_energy">   -189.66544042 </i>
    <i name="e_wo_entrp">   -189.41529509 </i>
    <i name="e_0_energy">   -189.54036776 </i>
   </energy>
  </scstep>
  <scstep>
   <time name="dav">   27.45   27.52</time>
   <time name="total">   27.98   28.06</time>
   <energy>
    <i name="e_fr_energy">   -189.66555786 </i>
    <i name="e_wo_entrp">   -189.41568694 </i>
    <i name="e_0_energy">   -189.54062240 </i>
   </energy>
  </scstep>
  <scstep>
   <time name="dav">   26.81   26.88</time>
   <time name="total">   27.35   27.42</time>
   <energy>
    <i name="e_fr_energy">   -189.66592755 </i>
    <i name="e_wo_entrp">   -189.41624336 </i>
    <i name="e_0_energy">   -189.54108545 </i>
   </energy>
  </scstep>
  <scstep>
   <time name="dav">   26.50   26.56</time>
   <time name="total">   27.04   27.11</time>
   <energy>
    <i name="e_fr_energy">   -189.66608669 </i>
    <i name="e_wo_entrp">   -189.41636530 </i>
    <i name="e_0_energy">   -189.54122599 </i>
   </energy>
  </scstep>
  <scstep>
   <time name="dav">   24.23   24.29</time>
   <time name="total">   24.76   24.83</time>
   <energy>
    <i name="e_fr_energy">   -189.66561090 </i>
    <i name="e_wo_entrp">   -189.41575842 </i>
    <i name="e_0_energy">   -189.54068466 </i>
   </energy>
  </scstep>
  <scstep>
   <time name="dav">   17.86   17.91</time>
   <time name="total">   17.90   17.95</time>
   <energy>
    <i name="alphaZ">     82.35508701 </i>
    <i name="ewald">  41307.19721238 </i>
    <i name="hartreedc"> -47279.38866841 </i>
    <i name="XCdc">   -235.25724997 </i>
    <i name="pawpsdc">   4038.26015497 </i>
    <i name="pawaedc">  -3453.94818421 </i>
    <i name="eentropy">     -0.24981423 </i>
    <i name="bandstr">  -1410.07669337 </i>
    <i name="atom">   6761.44252427 </i>
    <i name="e_fr_energy">   -189.66563157 </i>
    <i name="e_wo_entrp">   -189.41581734 </i>
    <i name="e_0_energy">   -189.54072446 </i>
   </energy>
  </scstep>
  <structure>
   <crystal>
    <varray name="basis" >
     <v>       8.66701072       4.99871101       0.00000000 </v>
     <v>      -8.66719252       4.99902549       0.00000000 </v>
     <v>       0.00000000       0.00000000      30.00000000 </v>
    </varray>
    <i name="volume">   2599.54194331 </i>
    <varray name="rec_basis" >
     <v>       0.05769123       0.10002369       0.00000000 </v>
     <v>      -0.05768760       0.10002159       0.00000000 </v>
     <v>       0.00000000       0.00000000       0.03333333 </v>
    </varray>
   </crystal>
   <varray name="positions" >
    <v>       1.00053513       0.33385454       0.00018668 </v>
    <v>       0.33276362       0.66666760       0.00000550 </v>
    <v>       0.33345317      -0.00045426      -0.00019433 </v>
    <v>       0.33353352       0.33354400       0.00007814 </v>
    <v>       0.66668418      -0.00020041      -0.00006235 </v>
    <v>      -0.00027672       0.66659977      -0.00001577 </v>
    <v>       0.00004091       0.00010060       0.00023134 </v>
    <v>       0.66660279       0.33305272      -0.00023806 </v>
    <v>       0.66653335       0.66674530       0.00000912 </v>
    <v>       0.10802221       0.22343980       0.95205005 </v>
    <v>       0.22327524       0.10793185       0.04796879 </v>
    <v>       0.11323851       0.55328947       0.95309850 </v>
    <v>       0.21979182       0.44645394       0.04694127 </v>
    <v>       0.11526003       0.89169161       0.95192550 </v>
    <v>       0.22661534       0.77967758       0.04684840 </v>
    <v>       0.44326733       0.21800148       0.95189458 </v>
    <v>       0.55142725       0.10987663       0.04800761 </v>
    <v>       0.44312885       0.55852787       0.95200228 </v>
    <v>       0.55655789       0.44506278       0.04925492 </v>
    <v>       0.43979114       0.88682606       0.95311384 </v>
    <v>       0.55143371       0.77482976       0.04805559 </v>
    <v>       0.78164642       0.22501762       0.95195795 </v>
    <v>       0.89179339       0.11516053       0.04812032 </v>
    <v>       0.77648398       0.55477573       0.95068785 </v>
    <v>       0.89022531       0.44125957       0.04801891 </v>
    <v>       0.77813795       0.88813994       0.95074572 </v>
    <v>       0.88824815       0.77834239       0.04930758 </v>
   </varray>
  </structure>
  <varray name="forces" >
   <v>       0.01946260      -0.03412213       0.00591149 </v>
   <v>       0.02259406       0.00833203       0.00110732 </v>
   <v>      -0.02070511       0.03583527      -0.00665062 </v>
   <v>       0.15006131       0.11914797      -0.00544642 </v>
   <v>       0.17740291       0.07426853       0.00455173 </v>
   <v>      -0.32680162      -0.19034435       0.00085279 </v>
   <v>      -0.02320824      -0.18230246       0.00042092 </v>
   <v>      -0.16085647       0.06364822      -0.00013455 </v>
   <v>       0.14877033       0.08769103      -0.00098639 </v>
   <v>      -0.09869970      -0.03156479      -0.43018404 </v>
   <v>       0.12069468      -0.04062081       0.48902522 </v>
   <v>       0.11417631       0.00930880      -0.35924403 </v>
   <v>      -0.12741810       0.00832683       0.40960494 </v>
   <v>       0.00529475       0.13331691      -0.47429086 </v>
   <v>       0.04945415       0.10116419       0.37191224 </v>
   <v>       0.09491276      -0.09369889      -0.53286831 </v>
   <v>      -0.07989615      -0.08577527       0.42076918 </v>
   <v>      -0.11911868       0.03199150      -0.48425910 </v>
   <v>       0.06113397       0.05664021       0.55377216 </v>
   <v>      -0.04116123      -0.12209406      -0.42583445 </v>
   <v>      -0.02943459      -0.13460879       0.46967223 </v>
   <v>       0.02226142       0.14022058      -0.47327613 </v>
   <v>      -0.01497334       0.13991269       0.52750412 </v>
   <v>      -0.04936582      -0.06196017      -0.61515895 </v>
   <v>       0.10299464      -0.04819402       0.49365729 </v>
   <v>       0.06381379       0.01432110      -0.56411494 </v>
   <v>      -0.06138862       0.00115989       0.62368718 </v>
  </varray>
  <varray name="stress" >
   <v>     -10.16790365       0.00695019       0.02945797 </v>
   <v>       0.00695014      -9.85705387      -0.02293037 </v>
   <v>       0.02945787      -0.02293044       6.54867353 </v>
  </varray>
  <energy>
   <i name="e_fr_energy">   -189.66563157 </i>
   <i name="e_wo_entrp">   -189.54072446 </i>
   <i name="e_0_energy">     -0.24981423 </i>
  </energy>
  <time name="totalsc">  374.53  375.53</time>
 </calculation>
 <calculation>
  <scstep>
   <time name="dav">   21.73   21.78</time>
   <time name="total">   22.25   22.30</time>
   <energy>
    <i name="alphaZ">     85.86273003 </i>
    <i name="ewald">  42851.37034051 </i>
    <i name="hartreedc"> -48868.53864971 </i>
    <i name="XCdc">   -232.94826278 </i>
    <i name="pawpsdc">   4038.31603948 </i>
    <i name="pawaedc">  -3454.00071701 </i>
    <i name="eentropy">     -0.19683623 </i>
    <i name="bandstr">  -1372.48328519 </i>
    <i name="atom">   6761.44252427 </i>
    <i name="e_fr_energy">   -191.17611663 </i>
    <i name="e_wo_entrp">   -190.97928040 </i>
    <i name="e_0_energy">   -191.07769851 </i>
   </energy>
  </scstep>
  <scstep>
   <time name="dav">   32.75   32.83</time>
   <time name="total">   33.27   33.36</time>
   <energy>
    <i name="e_fr_energy">   -191.12939926 </i>
    <i name="e_wo_entrp">   -190.91812347 </i>
    <i name="e_0_energy">   -191.02376136 </i>
   </energy>
  </scstep>
  <scstep>
   <time name="dav">   30.08   30.16</time>
   <time name="total">   30.60   30.69</time>
   <energy>
    <i name="e_fr_energy">   -191.02506372 </i>
    <i name="e_wo_entrp">   -190.81325522 </i>
    <i name="e_0_energy">   -190.91915947 </i>
   </energy>
  </scstep>
  <scstep>
   <time name="dav">   32.18   32.26</time>
   <time name="total">   32.70   32.79</time>
   <energy>
    <i name="e_fr_energy">   -190.66073833 </i>
    <i name="e_wo_entrp">   -190.45540558 </i>
    <i name="e_0_energy">   -190.55807195 </i>
   </energy>
  </scstep>
  <scstep>
   <time name="dav">   30.09   30.16</time>
   <time name="total">   30.61   30.69</time>
   <energy>
    <i name="e_fr_energy">   -190.60534150 </i>
    <i name="e_wo_entrp">   -190.40069554 </i>
    <i name="e_0_energy">   -190.50301852 </i>
   </energy>
  </scstep>
  <scstep>
   <time name="dav">   30.50   30.57</time>
   <time name="total">   31.02   31.10</time>
   <energy>
    <i name="e_fr_energy">   -190.56556485 </i>
    <i name="e_wo_entrp">   -190.35916835 </i>
    <i name="e_0_energy">   -190.46236660 </i>
   </energy>
  </scstep>
  <scstep>
   <time name="dav">   30.06   30.13</time>
   <time name="total">   30.58   30.67</time>
   <energy>
    <i name="e_fr_energy">   -190.56099532 </i>
    <i name="e_wo_entrp">   -190.35475878 </i>
    <i name="e_0_energy">   -190.45787705 </i>
   </energy>
  </scstep>
  <scstep>
   <time name="dav">   26.79   26.86</time>
   <time name="total">   27.31   27.38</time>
   <energy>
    <i name="e_fr_energy">   -190.55729320 </i>
    <i name="e_wo_entrp">   -190.35166471 </i>
    <i name="e_0_energy">   -190.45447896 </i>
   </energy>
  </scstep>
  <scstep>
   <time name="dav">   28.52   28.59</time>
   <time name="total">   29.04   29.12</time>
   <energy>
    <i name="e_fr_energy">   -190.55801006 </i>
    <i name="e_wo_entrp">   -190.35253319 </i>
    <i name="e_0_energy">   -190.45527163 </i>
   </energy>
  </scstep>
  <scstep>
   <time name="dav">   27.18   27.25</time>
   <time name="total">   27.70   27.77</time>
   <energy>
    <i name="e_fr_energy">   -190.55759240 </i>
    <i name="e_wo_entrp">   -190.35217545 </i>
    <i name="e_0_energy">   -190.45488393 </i>
   </energy>
  </scstep>
  <scstep>
   <time name="dav">   23.14   23.19</time>
   <time name="total">   23.66   23.72</time>
   <energy>
    <i name="e_fr_energy">   -190.55743208 </i>
    <i name="e_wo_entrp">   -190.35197807 </i>
    <i name="e_0_energy">   -190.45470508 </i>
   </energy>
  </scstep>
  <scstep>
   <time name="dav">   19.96   20.01</time>
   <time name="total">   20.00   20.06</time>
   <energy>
    <i name="alphaZ">     85.86273003 </i>
    <i name="ewald">  42851.37034051 </i>
    <i name="hartreedc"> -48839.75772753 </i>
    <i name="XCdc">   -234.31203512 </i>
    <i name="pawpsdc">   4061.97280443 </i>
    <i name="pawaedc">  -3477.81852303 </i>
    <i name="eentropy">     -0.20544693 </i>
    <i name="bandstr">  -1399.11209313 </i>
    <i name="atom">   6761.44252427 </i>
    <i name="e_fr_energy">   -190.55742651 </i>
    <i name="e_wo_entrp">   -190.35197957 </i>
    <i name="e_0_energy">   -190.45470304 </i>
   </energy>
  </scstep>
  <structure>
   <crystal>
    <varray name="basis" >
     <v>       8.48433435       4.89830599       0.00000000 </v>
     <v>      -8.48401860       4.89775812       0.00000000 </v>
     <v>       0.00000000       0.00000000      30.00000000 </v>
    </varray>
    <i name="volume">   2493.34609856 </i>
    <varray name="rec_basis" >
     <v>       0.05892994       0.10207992       0.00000000 </v>
     <v>      -0.05893654       0.10208371       0.00000000 </v>
     <v>       0.00000000       0.00000000       0.03333333 </v>
    </varray>
   </crystal>
   <varray name="positions" >
    <v>       1.00026648       0.33342920       0.00017629 </v>
    <v>       0.33301937       0.66662884       0.00000698 </v>
    <v>       0.33361430      -0.00001358      -0.00018452 </v>
    <v>       0.33495790       0.33374332       0.00005522 </v>
    <v>       0.66792310      -0.00037508      -0.00004337 </v>
    <v>      -0.00291703       0.66658231      -0.00001192 </v>
    <v>      -0.00137016      -0.00112734       0.00020125 </v>
    <v>       0.66639829       0.33420498      -0.00020642 </v>
    <v>       0.66779576       0.66674715       0.00000621 </v>
    <v>       0.10748670       0.22393550       0.95074407 </v>
    <v>       0.22381586       0.10724720       0.04940883 </v>
    <v>       0.11380806       0.55283138       0.95197727 </v>
    <v>       0.21928920       0.44709893       0.04817732 </v>
    <v>       0.11642312       0.89249913       0.95051513 </v>
    <v>       0.22762453       0.78023295       0.04799566 </v>
    <v>       0.44269016       0.21673939       0.95035343 </v>
    <v>       0.55029086       0.10930510       0.04929396 </v>
    <v>       0.44256397       0.55916383       0.95057526 </v>
    <v>       0.55694452       0.44509152       0.05087875 </v>
    <v>       0.43866266       0.88608290       0.95184436 </v>
    <v>       0.55014099       0.77409225       0.04945472 </v>
    <v>       0.78296206       0.22581452       0.95055147 </v>
    <v>       0.89260803       0.11643567       0.04965240 </v>
    <v>       0.77611789       0.55467338       0.94892415 </v>
    <v>       0.89060381       0.44058974       0.04946505 </v>
    <v>       0.77837607       0.88810419       0.94909908 </v>
    <v>       0.88811796       0.77845706       0.05108928 </v>
   </varray>
  </structure>
  <varray name="forces" >
   <v>       0.02669801      -0.10001595      -0.05235622 </v>
   <v>       0.05710673       0.03041486       0.00021100 </v>
   <v>      -0.07001502       0.07575292       0.05239723 </v>
   <v>       0.19194400       0.13782891      -0.01673310 </v>
   <v>       0.21595911       0.09515049       0.01634594 </v>
   <v>      -0.39022466      -0.22539578       0.00041824 </v>
   <v>      -0.02684588      -0.27302878      -0.03489597 </v>
   <v>      -0.23803577       0.10214896       0.03465069 </v>
   <v>       0.23584966       0.14330090       0.00064930 </v>
   <v>      -0.01033056       0.01679630      -0.22844205 </v>
   <v>       0.04086520      -0.01200282       0.29568965 </v>
   <v>      -0.01452829       0.00302043      -0.23655420 </v>
   <v>      -0.02461028       0.01873992       0.32237142 </v>
   <v>       0.01141332       0.02769496      -0.32036464 </v>
   <v>      -0.01763803      -0.01247663       0.23871506 </v>
   <v>       0.05455329      -0.03720167      -0.40953050 </v>
   <v>       0.00336724      -0.02817076       0.22530997 </v>
   <v>      -0.04281025       0.01232854      -0.31291914 </v>
   <v>       0.00870754       0.01676600       0.40393140 </v>
   <v>       0.01476883      -0.02787588      -0.32481240 </v>
   <v>      -0.01814546      -0.05061072       0.30613126 </v>
   <v>       0.01670691       0.05224610      -0.29286974 </v>
   <v>      -0.00640709       0.06597180       0.40716084 </v>
   <v>      -0.01731948      -0.02948517      -0.50081671 </v>
   <v>       0.01673785      -0.00334844       0.32953797 </v>
   <v>       0.01735626       0.00107545      -0.40537046 </v>
   <v>      -0.03512317       0.00037606       0.50214515 </v>
  </varray>
  <varray name="stress" >
   <v>      -5.87934564       0.00411925      -0.05905307 </v>
   <v>       0.00411928      -5.88957800      -0.02191232 </v>
   <v>      -0.05905309      -0.02191258       4.52639225 </v>
  </varray>
  <energy>
   <i name="e_fr_energy">   -190.55742651 </i>
   <i name="e_wo_entrp">   -190.45470304 </i>
   <i name="e_0_energy">     -0.20544693 </i>
  </energy>
  <time name="totalsc">  380.86  381.88</time>
 </calculation>
 <calculation>
  <scstep>
   <time name="dav">   21.76   21.81</time>
   <time name="total">   22.27   22.33</time>
   <energy>
    <i name="alphaZ">     90.46715257 </i>
    <i name="ewald">  44792.61898438 </i>
    <i name="hartreedc"> -50839.43896717 </i>
    <i name="XCdc">   -231.68453093 </i>
    <i name="pawpsdc">   4061.85775848 </i>
    <i name="pawaedc">  -3477.69903439 </i>
    <i name="eentropy">     -0.15985383 </i>
    <i name="bandstr">  -1349.38521436 </i>
    <i name="atom">   6761.44252427 </i>
    <i name="e_fr_energy">   -191.98118099 </i>
    <i name="e_wo_entrp">   -191.82132715 </i>
    <i name="e_0_energy">   -191.90125407 </i>
   </energy>
  </scstep>
  <scstep>
   <time name="dav">   31.79   31.86</time>
   <time name="total">   32.30   32.38</time>
   <energy>
    <i name="e_fr_energy">   -191.66820687 </i>
    <i name="e_wo_entrp">   -191.48743725 </i>
    <i name="e_0_energy">   -191.57782206 </i>
   </energy>
  </scstep>
  <scstep>
   <time name="dav">   29.91   29.98</time>
   <time name="total">   30.42   30.50</time>
   <energy>
    <i name="e_fr_energy">   -191.98548268 </i>
    <i name="e_wo_entrp">   -191.80895508 </i>
    <i name="e_0_energy">   -191.89721888 </i>
   </energy>
  </scstep>
  <scstep>
   <time name="dav">   30.07   30.14</time>
   <time name="total">   30.58   30.66</time>
   <energy>
    <i name="e_fr_energy">   -191.34434966 </i>
    <i name="e_wo_entrp">   -191.17116438 </i>
    <i name="e_0_energy">   -191.25775702 </i>
   </energy>
  </scstep>
  <scstep>
   <time name="dav">   29.97   30.04</time>
   <time name="total">   30.48   30.56</time>
   <energy>
    <i name="e_fr_energy">   -191.29557349 </i>
    <i name="e_wo_entrp">   -191.12637215 </i>
    <i name="e_0_energy">   -191.21097282 </i>
   </energy>
  </scstep>
  <scstep>
   <time name="dav">   29.80   29.87</time>
   <time name="total">   30.31   30.39</time>
   <energy>
    <i name="e_fr_energy">   -191.12376992 </i>
    <i name="e_wo_entrp">   -190.95268612 </i>
    <i name="e_0_energy">   -191.03822802 </i>
   </energy>
  </scstep>
  <scstep>
   <time name="dav">   30.06   30.13</time>
   <time name="total">   30.57   30.65</time>
   <energy>
    <i name="e_fr_energy">   -191.12215298 </i>
    <i name="e_wo_entrp">   -190.95093499 </i>
    <i name="e_0_energy">   -191.03654399 </i>
   </energy>
  </scstep>
  <scstep>
   <time name="dav">   27.29   27.36</time>
   <time name="total">   27.80   27.88</time>
   <energy>
    <i name="e_fr_energy">   -191.11893038 </i>
    <i name="e_wo_entrp">   -190.94851024 </i>
    <i name="e_0_energy">   -191.03372031 </i>
   </energy>
  </scstep>
  <scstep>
   <time name="dav">   29.78   29.85</time>
   <time name="total">   30.29   30.37</time>
   <energy>
    <i name="e_fr_energy">   -191.12024181 </i>
    <i name="e_wo_entrp">   -190.94999509 </i>
    <i name="e_0_energy">   -191.03511845 </i>
   </energy>
  </scstep>
  <scstep>
   <time name="dav">   29.00   29.07</time>
   <time name="total">   29.51   29.59</time>
   <energy>
    <i name="e_fr_energy">   -191.11917521 </i>
    <i name="e_wo_entrp">   -190.94904698 </i>
    <i name="e_0_energy">   -191.03411110 </i>
   </energy>
  </scstep>
  <scstep>
   <time name="dav">   25.87   25.94</time>
   <time name="total">   26.39   26.46</time>
   <energy>
    <i name="e_fr_energy">   -191.11906401 </i>
    <i name="e_wo_entrp">   -190.94895708 </i>
    <i name="e_0_energy">   -191.03401055 </i>
   </energy>
  </scstep>
  <scstep>
   <time name="dav">   20.66   20.71</time>
   <time name="total">   20.70   20.76</time>
   <energy>
    <i name="alphaZ">     90.46715257 </i>
    <i name="ewald">  44792.61898438 </i>
    <i name="hartreedc"> -50803.05490447 </i>
    <i name="XCdc">   -233.36502944 </i>
    <i name="pawpsdc">   4081.19335637 </i>
    <i name="pawaedc">  -3497.06304033 </i>
    <i name="eentropy">     -0.17016539 </i>
    <i name="bandstr">  -1383.18789527 </i>
    <i name="atom">   6761.44252427 </i>
    <i name="e_fr_energy">   -191.11901731 </i>
    <i name="e_wo_entrp">   -190.94885192 </i>
    <i name="e_0_energy">   -191.03393461 </i>
   </energy>
  </scstep>
  <structure>
   <crystal>
    <varray name="basis" >
     <v>       8.26604024       4.77246292       0.00000000 </v>
     <v>      -8.26513701       4.77089694       0.00000000 </v>
     <v>       0.00000000       0.00000000      30.00000000 </v>
    </varray>
    <i name="volume">   2366.44458082 </i>
    <varray name="rec_basis" >
     <v>       0.06048183       0.10477917       0.00000000 </v>
     <v>      -0.06050169       0.10479063       0.00000000 </v>
     <v>       0.00000000       0.00000000       0.03333333 </v>
    </varray>
   </crystal>
   <varray name="positions" >
    <v>       0.99915562       0.33192472      -0.00003363 </v>
    <v>       0.33389286       0.66658163       0.00000736 </v>
    <v>       0.33405382       0.00150336       0.00002628 </v>
    <v>       0.33818269       0.33408777      -0.00002129 </v>
    <v>       0.67078026      -0.00074367       0.00002874 </v>
    <v>      -0.00879794       0.66657093      -0.00000744 </v>
    <v>      -0.00507092      -0.00442606       0.00004019 </v>
    <v>       0.66593763       0.33728990      -0.00004492 </v>
    <v>       0.67134766       0.66681599       0.00000692 </v>
    <v>       0.10747344       0.22463387       0.94919121 </v>
    <v>       0.22442583       0.10667568       0.05124807 </v>
    <v>       0.11399955       0.55273168       0.95048098 </v>
    <v>       0.21911120       0.44775935       0.05001916 </v>
    <v>       0.11740586       0.89294476       0.94859551 </v>
    <v>       0.22784122       0.78045543       0.04950645 </v>
    <v>       0.44215803       0.21533322       0.94807305 </v>
    <v>       0.54940169       0.10851873       0.05083027 </v>
    <v>       0.44196102       0.55974787       0.94868133 </v>
    <v>       0.55711283       0.44512926       0.05319851 </v>
    <v>       0.43793927       0.88536274       0.94998500 </v>
    <v>       0.54879897       0.77345068       0.05131921 </v>
    <v>       0.78433191       0.22649782       0.94873219 </v>
    <v>       0.89350392       0.11786756       0.05192383 </v>
    <v>       0.77577351       0.55453307       0.94621073 </v>
    <v>       0.89106426       0.44026633       0.05142283 </v>
    <v>       0.77848633       0.88809480       0.94676676 </v>
    <v>       0.88794394       0.77860702       0.05381260 </v>
   </varray>
  </structure>
  <varray name="forces" >
   <v>       0.04103726      -0.12530050      -0.02141830 </v>
   <v>       0.05499722       0.02667193      -0.00123707 </v>
   <v>      -0.08598693       0.10373194       0.02241040 </v>
   <v>       0.16772492       0.14692034      -0.00376072 </v>
   <v>       0.20889651       0.06873163       0.00380779 </v>
   <v>      -0.27010899      -0.15687847      -0.00119432 </v>
   <v>      -0.02742697      -0.30510898       0.01302140 </v>
   <v>      -0.27496787       0.12386441      -0.01275368 </v>
   <v>       0.21922848       0.12725178      -0.00221656 </v>
   <v>       0.11527342       0.01867910       0.07476571 </v>
   <v>      -0.07605443      -0.02218441      -0.04329631 </v>
   <v>      -0.16147008      -0.01805962       0.06684188 </v>
   <v>       0.08847148       0.00307322      -0.00703991 </v>
   <v>      -0.03183266      -0.09581474      -0.01136630 </v>
   <v>      -0.09541996      -0.12932534      -0.07000595 </v>
   <v>       0.02859296       0.05810023      -0.10323176 </v>
   <v>       0.07662793       0.09062216      -0.06583715 </v>
   <v>       0.08905148       0.05061580      -0.00052717 </v>
   <v>      -0.04870661       0.03094558       0.17402456 </v>
   <v>       0.04430917       0.07832912       0.00919839 </v>
   <v>       0.08566974       0.05468509       0.00475300 </v>
   <v>      -0.05379269      -0.05149999       0.03724780 </v>
   <v>       0.06107619      -0.00660515       0.09984690 </v>
   <v>      -0.02190297      -0.02854201      -0.24667161 </v>
   <v>      -0.09647474       0.01742966       0.00910004 </v>
   <v>       0.00348120      -0.05349923      -0.17605662 </v>
   <v>      -0.04029304      -0.00683355       0.25159556 </v>
  </varray>
  <varray name="stress" >
   <v>      -0.37968604       0.11357137      -0.06318511 </v>
   <v>       0.11357136      -0.48548102       0.08461166 </v>
   <v>      -0.06318514       0.08461178      -0.47123369 </v>
  </varray>
  <energy>
   <i name="e_fr_energy">   -191.11901731 </i>
   <i name="e_wo_entrp">   -191.03393461 </i>
   <i name="e_0_energy">     -0.17016539 </i>
  </energy>
  <time name="totalsc">  383.84  384.87</time>
 </calculation>
 <calculation>
  <scstep>
   <time name="dav">   21.77   21.83</time>
   <time name="total">   22.29   22.35</time>
   <energy>
    <i name="alphaZ">     90.79250179 </i>
    <i name="ewald">  44922.71616310 </i>
    <i name="hartreedc"> -50937.42392405 </i>
    <i name="XCdc">   -233.20749038 </i>
    <i name="pawpsdc">   4081.04722225 </i>
    <i name="pawaedc">  -3496.91127939 </i>
    <i name="eentropy">     -0.17323219 </i>
    <i name="bandstr">  -1379.44887229 </i>
    <i name="atom">   6761.44252427 </i>
    <i name="e_fr_energy">   -191.16638689 </i>
    <i name="e_wo_entrp">   -190.99315470 </i>
    <i name="e_0_energy">   -191.07977079 </i>
   </energy>
  </scstep>
  <scstep>
   <time name="dav">   32.76   32.84</time>
   <time name="total">   33.27   33.36</time>
   <energy>
    <i name="e_fr_energy">   -191.19777088 </i>
    <i name="e_wo_entrp">   -191.02485729 </i>
    <i name="e_0_energy">   -191.11131408 </i>
   </energy>
  </scstep>
  <scstep>
   <time name="dav">   30.50   30.57</time>
   <time name="total">   31.01   31.10</time>
   <energy>
    <i name="e_fr_energy">   -191.17298081 </i>
    <i name="e_wo_entrp">   -190.99871216 </i>
    <i name="e_0_energy">   -191.08584649 </i>
   </energy>
  </scstep>
  <scstep>
   <time name="dav">   26.87   26.93</time>
   <time name="total">   27.38   27.45</time>
   <energy>
    <i name="e_fr_energy">   -191.16966339 </i>
    <i name="e_wo_entrp">   -190.99536211 </i>
    <i name="e_0_energy">   -191.08251275 </i>
   </energy>
  </scstep>
  <scstep>
   <time name="dav">   28.94   29.01</time>
   <time name="total">   29.45   29.53</time>
   <energy>
    <i name="e_fr_energy">   -191.16885708 </i>
    <i name="e_wo_entrp">   -190.99567122 </i>
    <i name="e_0_energy">   -191.08226415 </i>
   </energy>
  </scstep>
  <scstep>
   <time name="dav">   29.07   29.14</time>
   <time name="total">   29.58   29.66</time>
   <energy>
    <i name="e_fr_energy">   -191.16740362 </i>
    <i name="e_wo_entrp">   -190.99357622 </i>
    <i name="e_0_energy">   -191.08048992 </i>
   </energy>
  </scstep>
  <scstep>
   <time name="dav">   26.63   26.70</time>
   <time name="total">   27.14   27.22</time>
   <energy>
    <i name="e_fr_energy">   -191.16712604 </i>
    <i name="e_wo_entrp">   -190.99312233 </i>
    <i name="e_0_energy">   -191.08012419 </i>
   </energy>
  </scstep>
  <scstep>
   <time name="dav">   19.47   19.52</time>
   <time name="total">   19.51   19.57</time>
   <energy>
    <i name="alphaZ">     90.79250179 </i>
    <i name="ewald">  44922.71616310 </i>
    <i name="hartreedc"> -50935.63140448 </i>
    <i name="XCdc">   -233.31227995 </i>
    <i name="pawpsdc">   4081.14996740 </i>
    <i name="pawaedc">  -3496.99983575 </i>
    <i name="eentropy">     -0.17387614 </i>
    <i name="bandstr">  -1381.15083657 </i>
    <i name="atom">   6761.44252427 </i>
    <i name="e_fr_energy">   -191.16707633 </i>
    <i name="e_wo_entrp">   -190.99320019 </i>
    <i name="e_0_energy">   -191.08013826 </i>
   </energy>
  </scstep>
  <structure>
   <crystal>
    <varray name="basis" >
     <v>       8.25397305       4.76585007       0.00000000 </v>
     <v>      -8.25000899       4.75898250       0.00000000 </v>
     <v>       0.00000000       0.00000000      30.00000000 </v>
    </varray>
    <i name="volume">   2357.96457545 </i>
    <varray name="rec_basis" >
     <v>       0.06054776       0.10496352       0.00000000 </v>
     <v>      -0.06063514       0.10501396       0.00000000 </v>
     <v>       0.00000000       0.00000000       0.03333333 </v>
    </varray>
   </crystal>
   <varray name="positions" >
    <v>       0.99856917       0.33106966      -0.00007773 </v>
    <v>       0.33423980       0.66655231       0.00000525 </v>
    <v>       0.33435976       0.00238245       0.00007212 </v>
    <v>       0.33960961       0.33436897      -0.00003069 </v>
    <v>       0.67190188      -0.00103518       0.00003800 </v>
    <v>      -0.01069513       0.66656530      -0.00000925 </v>
    <v>      -0.00692847      -0.00609902       0.00005606 </v>
    <v>       0.66573351       0.33891963      -0.00006029 </v>
    <v>       0.67283907       0.66682165       0.00000312 </v>
    <v>       0.10792616       0.22441260       0.94924722 </v>
    <v>       0.22410498       0.10676825       0.05125647 </v>
    <v>       0.11341636       0.55312518       0.95052767 </v>
    <v>       0.21938930       0.44753206       0.05008694 </v>
    <v>       0.11684292       0.89255029       0.94849146 </v>
    <v>       0.22687268       0.78007162       0.04945503 </v>
    <v>       0.44252750       0.21549178       0.94779926 </v>
    <v>       0.55007863       0.10872887       0.05078880 </v>
    <v>       0.44247512       0.55976780       0.94859658 </v>
    <v>       0.55713168       0.44544466       0.05359592 </v>
    <v>       0.43845829       0.88561287       0.94992008 </v>
    <v>       0.54929433       0.77345191       0.05141004 </v>
    <v>       0.78395368       0.22641679       0.94871441 </v>
    <v>       0.89369299       0.11770878       0.05219153 </v>
    <v>       0.77554373       0.55444519       0.94567511 </v>
    <v>       0.89088510       0.44064269       0.05152442 </v>
    <v>       0.77821372       0.88779935       0.94636526 </v>
    <v>       0.88777808       0.77869800       0.05435708 </v>
   </varray>
  </structure>
  <varray name="forces" >
   <v>       0.04925221      -0.10342795      -0.02563096 </v>
   <v>       0.03084885       0.01291729       0.00082328 </v>
   <v>      -0.06247904       0.10114249       0.02587997 </v>
   <v>       0.16778873       0.19370664      -0.00417795 </v>
   <v>       0.24711910       0.04770187       0.00361044 </v>
   <v>      -0.24913037      -0.14550723       0.00167065 </v>
   <v>      -0.04571772      -0.31464252      -0.01080415 </v>
   <v>      -0.29242303       0.11287201       0.01131618 </v>
   <v>       0.17721558       0.10261114       0.00051894 </v>
   <v>       0.09744443      -0.00002891       0.10950511 </v>
   <v>      -0.05773169      -0.02870168      -0.06680325 </v>
   <v>      -0.11434809      -0.01760836       0.10340055 </v>
   <v>       0.06112451      -0.00555432      -0.04655838 </v>
   <v>      -0.03519924      -0.06461524       0.01549225 </v>
   <v>      -0.07184960      -0.08888939      -0.10752429 </v>
   <v>       0.02664641       0.04274890      -0.08662784 </v>
   <v>       0.04951001       0.08400557      -0.10296622 </v>
   <v>       0.06686578       0.04772467       0.01162967 </v>
   <v>      -0.03247095       0.04036528       0.13985234 </v>
   <v>       0.02342050       0.05763475       0.04828183 </v>
   <v>       0.07293431       0.03578345      -0.01232043 </v>
   <v>      -0.05147966      -0.03399146       0.06335074 </v>
   <v>       0.04770324       0.00010030       0.08413530 </v>
   <v>      -0.02207199      -0.01849431      -0.20336378 </v>
   <v>      -0.07270474       0.00012616      -0.01526968 </v>
   <v>       0.01919593      -0.04594491      -0.14110897 </v>
   <v>      -0.02946347      -0.01203425       0.20368867 </v>
  </varray>
  <varray name="stress" >
   <v>       0.12298347       0.05285697      -0.04793857 </v>
   <v>       0.05285682       0.06946130       0.06573010 </v>
   <v>      -0.04793856       0.06573020      -1.03781496 </v>
  </varray>
  <energy>
   <i name="e_fr_energy">   -191.16707633 </i>
   <i name="e_wo_entrp">   -191.08013826 </i>
   <i name="e_0_energy">     -0.17387614 </i>
  </energy>
  <time name="totalsc">  261.78  262.48</time>
 </calculation>
 <calculation>
  <scstep>
   <time name="dav">   21.76   21.81</time>
   <time name="total">   22.28   22.33</time>
   <energy>
    <i name="alphaZ">     90.74803724 </i>
    <i name="ewald">  44892.80487239 </i>
    <i name="hartreedc"> -50905.53054937 </i>
    <i name="XCdc">   -233.37955482 </i>
    <i name="pawpsdc">   4081.27377799 </i>
    <i name="pawaedc">  -3497.12480079 </i>
    <i name="eentropy">     -0.18038656 </i>
    <i name="bandstr">  -1381.25628186 </i>
    <i name="atom">   6761.44252427 </i>
    <i name="e_fr_energy">   -191.20236151 </i>
    <i name="e_wo_entrp">   -191.02197495 </i>
    <i name="e_0_energy">   -191.11216823 </i>
   </energy>
  </scstep>
  <scstep>
   <time name="dav">   33.08   33.16</time>
   <time name="total">   33.59   33.68</time>
   <energy>
    <i name="e_fr_energy">   -191.24224537 </i>
    <i name="e_wo_entrp">   -191.06315228 </i>
    <i name="e_0_energy">   -191.15269883 </i>
   </energy>
  </scstep>
  <scstep>
   <time name="dav">   30.85   30.93</time>
   <time name="total">   31.37   31.45</time>
   <energy>
    <i name="e_fr_energy">   -191.20606356 </i>
    <i name="e_wo_entrp">   -191.02575834 </i>
    <i name="e_0_energy">   -191.11591095 </i>
   </energy>
  </scstep>
  <scstep>
   <time name="dav">   28.72   28.79</time>
   <time name="total">   29.23   29.31</time>
   <energy>
    <i name="e_fr_energy">   -191.20582581 </i>
    <i name="e_wo_entrp">   -191.02520610 </i>
    <i name="e_0_energy">   -191.11551595 </i>
   </energy>
  </scstep>
  <scstep>
   <time name="dav">   29.35   29.42</time>
   <time name="total">   29.86   29.94</time>
   <energy>
    <i name="e_fr_energy">   -191.20553939 </i>
    <i name="e_wo_entrp">   -191.02553541 </i>
    <i name="e_0_energy">   -191.11553740 </i>
   </energy>
  </scstep>
  <scstep>
   <time name="dav">   26.25   26.31</time>
   <time name="total">   26.76   26.83</time>
   <energy>
    <i name="e_fr_energy">   -191.20492604 </i>
    <i name="e_wo_entrp">   -191.02462632 </i>
    <i name="e_0_energy">   -191.11477618 </i>
   </energy>
  </scstep>
  <scstep>
   <time name="dav">   25.75   25.81</time>
   <time name="total">   25.78   25.86</time>
   <energy>
    <i name="alphaZ">     90.74803724 </i>
    <i name="ewald">  44892.80487239 </i>
    <i name="hartreedc"> -50906.42184264 </i>
    <i name="XCdc">   -233.35626003 </i>
    <i name="pawpsdc">   4080.97528275 </i>
    <i name="pawaedc">  -3496.81607502 </i>
    <i name="eentropy">     -0.18037312 </i>
    <i name="bandstr">  -1380.40106453 </i>
    <i name="atom">   6761.44252427 </i>
    <i name="e_fr_energy">   -191.20489869 </i>
    <i name="e_wo_entrp">   -191.02452557 </i>
[...]
      <set comment="kpoint 31">
       <r>  -17.5780    1.0000 </r>
       <r>  -17.2410    1.0000 </r>
       <r>  -16.8956    1.0000 </r>
       <r>  -16.7396    1.0000 </r>
       <r>  -16.5163    1.0000 </r>
       <r>  -16.4132    1.0000 </r>
       <r>  -16.3930    1.0000 </r>
       <r>  -16.2124    1.0000 </r>
       <r>  -16.0703    1.0000 </r>
       <r>  -16.0394    1.0000 </r>
       <r>  -15.9525    1.0000 </r>
       <r>  -15.8107    1.0000 </r>
       <r>  -15.7503    1.0000 </r>
       <r>  -15.6493    1.0000 </r>
       <r>  -15.5452    1.0000 </r>
       <r>  -15.4546    1.0000 </r>
       <r>  -15.3974    1.0000 </r>
       <r>  -15.2432    1.0000 </r>
       <r>   -9.7909    1.0000 </r>
       <r>   -9.4859    1.0000 </r>
       <r>   -9.4326    1.0000 </r>
       <r>   -9.1286    1.0000 </r>
       <r>   -8.8063    1.0000 </r>
       <r>   -8.6808    1.0000 </r>
       <r>   -8.5246    1.0000 </r>
       <r>   -8.4248    1.0000 </r>
       <r>   -8.3811    1.0000 </r>
       <r>   -8.3011    1.0000 </r>
       <r>   -8.2615    1.0000 </r>
       <r>   -8.1993    1.0000 </r>
       <r>   -8.1494    1.0000 </r>
       <r>   -8.0981    1.0000 </r>
       <r>   -7.9930    1.0000 </r>
       <r>   -7.9227    1.0000 </r>
       <r>   -7.8179    1.0000 </r>
       <r>   -7.7682    1.0000 </r>
       <r>   -7.5666    1.0000 </r>
       <r>   -7.3502    1.0000 </r>
       <r>   -7.3056    1.0000 </r>
       <r>   -7.1848    1.0000 </r>
       <r>   -7.0953    1.0000 </r>
       <r>   -7.0457    1.0000 </r>
       <r>   -6.9828    1.0000 </r>
       <r>   -6.8972    1.0000 </r>
       <r>   -6.8210    1.0000 </r>
       <r>   -6.7568    1.0000 </r>
       <r>   -6.7271    1.0000 </r>
       <r>   -6.6032    1.0000 </r>
       <r>   -6.5376    1.0000 </r>
       <r>   -6.4937    1.0000 </r>
       <r>   -6.4251    1.0000 </r>
       <r>   -6.3288    1.0000 </r>
       <r>   -6.2800    1.0000 </r>
       <r>   -6.2144    1.0000 </r>
       <r>   -6.1719    1.0000 </r>
       <r>   -6.0271    1.0000 </r>
       <r>   -6.0153    1.0000 </r>
       <r>   -5.9575    1.0000 </r>
       <r>   -5.8572    1.0000 </r>
       <r>   -5.8111    1.0000 </r>
       <r>   -5.7298    1.0000 </r>
       <r>   -5.6433    1.0000 </r>
       <r>   -5.5505    1.0000 </r>
       <r>   -5.2730    1.0000 </r>
       <r>   -5.2362    1.0000 </r>
       <r>   -5.1258    1.0000 </r>
       <r>   -5.0374    1.0000 </r>
       <r>   -4.9062    1.0000 </r>
       <r>   -4.8558    1.0000 </r>
       <r>   -4.6304    1.0000 </r>
       <r>   -4.5314    1.0000 </r>
       <r>   -4.4932    1.0000 </r>
       <r>   -4.4462    1.0000 </r>
       <r>   -4.2240    1.0000 </r>
       <r>   -4.1756    1.0000 </r>
       <r>   -4.0072    1.0000 </r>
       <r>   -3.8686    1.0000 </r>
       <r>   -3.6735    0.9992 </r>
       <r>   -3.5024    0.9746 </r>
       <r>   -3.0193    0.0718 </r>
       <r>   -2.9455    0.0236 </r>
       <r>   -2.7809    0.0008 </r>
       <r>   -2.6948    0.0001 </r>
       <r>   -2.6476    0.0000 </r>
       <r>   -2.5508    0.0000 </r>
       <r>   -2.4497    0.0000 </r>
       <r>   -2.2872    0.0000 </r>
       <r>   -2.2440    0.0000 </r>
       <r>   -2.1239    0.0000 </r>
       <r>   -1.9819    0.0000 </r>
       <r>   -1.9720    0.0000 </r>
       <r>   -1.7361    0.0000 </r>
       <r>   -1.3817    0.0000 </r>
       <r>   -1.2104    0.0000 </r>
       <r>   -1.1636    0.0000 </r>
       <r>   -1.0830    0.0000 </r>
       <r>   -0.9870    0.0000 </r>
       <r>   -0.9204    0.0000 </r>
       <r>   -0.9022    0.0000 </r>
       <r>   -0.7999    0.0000 </r>
       <r>   -0.7474    0.0000 </r>
       <r>   -0.7321    0.0000 </r>
       <r>   -0.6003    0.0000 </r>
       <r>   -0.4775    0.0000 </r>
       <r>   -0.4339    0.0000 </r>
       <r>   -0.2841    0.0000 </r>
       <r>   -0.2452    0.0000 </r>
       <r>   -0.0814    0.0000 </r>
       <r>    0.0661    0.0000 </r>
       <r>    0.3391    0.0000 </r>
       <r>    0.3486    0.0000 </r>
       <r>    0.5355    0.0000 </r>
       <r>    0.5966    0.0000 </r>
       <r>    0.9846    0.0000 </r>
       <r>    1.0935    0.0000 </r>
       <r>    1.1784    0.0000 </r>
       <r>    1.3419    0.0000 </r>
       <r>    2.1028    0.0000 </r>
       <r>    2.2995    0.0000 </r>
       <r>    2.3770    0.0000 </r>
      </set>
      <set comment="kpoint 32">
       <r>  -17.5915    1.0000 </r>
       <r>  -17.1680    1.0000 </r>
       <r>  -17.0083    1.0000 </r>
       <r>  -16.7389    1.0000 </r>
       <r>  -16.4404    1.0000 </r>
       <r>  -16.4227    1.0000 </r>
       <r>  -16.3103    1.0000 </r>
       <r>  -16.2590    1.0000 </r>
       <r>  -16.0996    1.0000 </r>
       <r>  -16.0544    1.0000 </r>
       <r>  -15.9512    1.0000 </r>
       <r>  -15.8152    1.0000 </r>
       <r>  -15.7446    1.0000 </r>
       <r>  -15.6915    1.0000 </r>
       <r>  -15.5354    1.0000 </r>
       <r>  -15.4546    1.0000 </r>
       <r>  -15.3605    1.0000 </r>
       <r>  -15.2580    1.0000 </r>
       <r>   -9.7436    1.0000 </r>
       <r>   -9.5561    1.0000 </r>
       <r>   -9.4542    1.0000 </r>
       <r>   -9.1535    1.0000 </r>
       <r>   -8.6931    1.0000 </r>
       <r>   -8.5862    1.0000 </r>
       <r>   -8.4834    1.0000 </r>
       <r>   -8.3983    1.0000 </r>
       <r>   -8.3903    1.0000 </r>
       <r>   -8.3320    1.0000 </r>
       <r>   -8.2996    1.0000 </r>
       <r>   -8.2304    1.0000 </r>
       <r>   -8.1511    1.0000 </r>
       <r>   -8.1109    1.0000 </r>
       <r>   -8.0329    1.0000 </r>
       <r>   -7.9455    1.0000 </r>
       <r>   -7.8395    1.0000 </r>
       <r>   -7.7611    1.0000 </r>
       <r>   -7.5415    1.0000 </r>
       <r>   -7.3679    1.0000 </r>
       <r>   -7.3056    1.0000 </r>
       <r>   -7.2381    1.0000 </r>
       <r>   -7.1712    1.0000 </r>
       <r>   -7.0496    1.0000 </r>
       <r>   -6.9951    1.0000 </r>
       <r>   -6.8840    1.0000 </r>
       <r>   -6.8069    1.0000 </r>
       <r>   -6.7315    1.0000 </r>
       <r>   -6.6990    1.0000 </r>
       <r>   -6.6089    1.0000 </r>
       <r>   -6.5246    1.0000 </r>
       <r>   -6.4846    1.0000 </r>
       <r>   -6.4414    1.0000 </r>
       <r>   -6.3579    1.0000 </r>
       <r>   -6.3102    1.0000 </r>
       <r>   -6.2412    1.0000 </r>
       <r>   -6.1632    1.0000 </r>
       <r>   -5.9923    1.0000 </r>
       <r>   -5.9713    1.0000 </r>
       <r>   -5.9198    1.0000 </r>
       <r>   -5.8669    1.0000 </r>
       <r>   -5.7335    1.0000 </r>
       <r>   -5.6998    1.0000 </r>
       <r>   -5.5429    1.0000 </r>
       <r>   -5.4992    1.0000 </r>
       <r>   -5.4422    1.0000 </r>
       <r>   -5.2587    1.0000 </r>
       <r>   -5.1777    1.0000 </r>
       <r>   -5.0619    1.0000 </r>
       <r>   -4.9208    1.0000 </r>
       <r>   -4.8441    1.0000 </r>
       <r>   -4.6506    1.0000 </r>
       <r>   -4.5811    1.0000 </r>
       <r>   -4.5026    1.0000 </r>
       <r>   -4.3373    1.0000 </r>
       <r>   -4.2114    1.0000 </r>
       <r>   -4.1274    1.0000 </r>
       <r>   -4.0138    1.0000 </r>
       <r>   -3.8854    1.0000 </r>
       <r>   -3.6590    0.9989 </r>
       <r>   -3.4768    0.9619 </r>
       <r>   -3.1176    0.2214 </r>
       <r>   -2.9617    0.0308 </r>
       <r>   -2.7963    0.0012 </r>
       <r>   -2.6940    0.0001 </r>
       <r>   -2.5848    0.0000 </r>
       <r>   -2.5480    0.0000 </r>
       <r>   -2.4319    0.0000 </r>
       <r>   -2.3117    0.0000 </r>
       <r>   -2.2307    0.0000 </r>
       <r>   -2.1138    0.0000 </r>
       <r>   -1.9825    0.0000 </r>
       <r>   -1.9388    0.0000 </r>
       <r>   -1.7959    0.0000 </r>
       <r>   -1.3957    0.0000 </r>
       <r>   -1.1667    0.0000 </r>
       <r>   -1.1256    0.0000 </r>
       <r>   -1.0652    0.0000 </r>
       <r>   -1.0113    0.0000 </r>
       <r>   -0.9129    0.0000 </r>
       <r>   -0.8888    0.0000 </r>
       <r>   -0.8032    0.0000 </r>
       <r>   -0.7590    0.0000 </r>
       <r>   -0.7390    0.0000 </r>
       <r>   -0.6096    0.0000 </r>
       <r>   -0.5471    0.0000 </r>
       <r>   -0.4587    0.0000 </r>
       <r>   -0.3355    0.0000 </r>
       <r>   -0.1999    0.0000 </r>
       <r>   -0.0508    0.0000 </r>
       <r>    0.0616    0.0000 </r>
       <r>    0.2085    0.0000 </r>
       <r>    0.3214    0.0000 </r>
       <r>    0.5641    0.0000 </r>
       <r>    0.6277    0.0000 </r>
       <r>    1.0055    0.0000 </r>
       <r>    1.1370    0.0000 </r>
       <r>    1.1976    0.0000 </r>
       <r>    1.3532    0.0000 </r>
       <r>    2.0761    0.0000 </r>
       <r>    2.2652    0.0000 </r>
       <r>    2.4939    0.0000 </r>
      </set>
      <set comment="kpoint 33">
       <r>  -17.5900    1.0000 </r>
       <r>  -17.2250    1.0000 </r>
       <r>  -16.9046    1.0000 </r>
       <r>  -16.7378    1.0000 </r>
       <r>  -16.4894    1.0000 </r>
       <r>  -16.4333    1.0000 </r>
       <r>  -16.3938    1.0000 </r>
       <r>  -16.1981    1.0000 </r>
       <r>  -16.0714    1.0000 </r>
       <r>  -16.0152    1.0000 </r>
       <r>  -15.9559    1.0000 </r>
       <r>  -15.8341    1.0000 </r>
       <r>  -15.7477    1.0000 </r>
       <r>  -15.7049    1.0000 </r>
       <r>  -15.5172    1.0000 </r>
       <r>  -15.4561    1.0000 </r>
       <r>  -15.3575    1.0000 </r>
       <r>  -15.2748    1.0000 </r>
       <r>   -9.7917    1.0000 </r>
       <r>   -9.4726    1.0000 </r>
       <r>   -9.3845    1.0000 </r>
       <r>   -9.1559    1.0000 </r>
       <r>   -8.8042    1.0000 </r>
       <r>   -8.6794    1.0000 </r>
       <r>   -8.5350    1.0000 </r>
       <r>   -8.4453    1.0000 </r>
       <r>   -8.3750    1.0000 </r>
       <r>   -8.3144    1.0000 </r>
       <r>   -8.2795    1.0000 </r>
       <r>   -8.1736    1.0000 </r>
       <r>   -8.1243    1.0000 </r>
       <r>   -8.0927    1.0000 </r>
       <r>   -7.9662    1.0000 </r>
       <r>   -7.9159    1.0000 </r>
       <r>   -7.8354    1.0000 </r>
       <r>   -7.6904    1.0000 </r>
       <r>   -7.5898    1.0000 </r>
       <r>   -7.3897    1.0000 </r>
       <r>   -7.2748    1.0000 </r>
       <r>   -7.2433    1.0000 </r>
       <r>   -7.1728    1.0000 </r>
       <r>   -7.1038    1.0000 </r>
       <r>   -7.0230    1.0000 </r>
       <r>   -6.9279    1.0000 </r>
       <r>   -6.8122    1.0000 </r>
       <r>   -6.7125    1.0000 </r>
       <r>   -6.6268    1.0000 </r>
       <r>   -6.6153    1.0000 </r>
       <r>   -6.5158    1.0000 </r>
       <r>   -6.4911    1.0000 </r>
       <r>   -6.4600    1.0000 </r>
       <r>   -6.3780    1.0000 </r>
       <r>   -6.3011    1.0000 </r>
       <r>   -6.2380    1.0000 </r>
       <r>   -6.1219    1.0000 </r>
       <r>   -6.0313    1.0000 </r>
       <r>   -5.9672    1.0000 </r>
       <r>   -5.9115    1.0000 </r>
       <r>   -5.8652    1.0000 </r>
       <r>   -5.8102    1.0000 </r>
       <r>   -5.7088    1.0000 </r>
       <r>   -5.6493    1.0000 </r>
       <r>   -5.5415    1.0000 </r>
       <r>   -5.3624    1.0000 </r>
       <r>   -5.2424    1.0000 </r>
       <r>   -5.1590    1.0000 </r>
       <r>   -5.0480    1.0000 </r>
       <r>   -4.8963    1.0000 </r>
       <r>   -4.7737    1.0000 </r>
       <r>   -4.7183    1.0000 </r>
       <r>   -4.5492    1.0000 </r>
       <r>   -4.4208    1.0000 </r>
       <r>   -4.2886    1.0000 </r>
       <r>   -4.2027    1.0000 </r>
       <r>   -4.1078    1.0000 </r>
       <r>   -4.0443    1.0000 </r>
       <r>   -3.8883    1.0000 </r>
       <r>   -3.6701    0.9992 </r>
       <r>   -3.5347    0.9854 </r>
       <r>   -3.1615    0.3239 </r>
       <r>   -2.9644    0.0321 </r>
       <r>   -2.8219    0.0021 </r>
       <r>   -2.6981    0.0001 </r>
       <r>   -2.5674    0.0000 </r>
       <r>   -2.5252    0.0000 </r>
       <r>   -2.4193    0.0000 </r>
       <r>   -2.3562    0.0000 </r>
       <r>   -2.1934    0.0000 </r>
       <r>   -2.0917    0.0000 </r>
       <r>   -2.0157    0.0000 </r>
       <r>   -1.8919    0.0000 </r>
       <r>   -1.7934    0.0000 </r>
       <r>   -1.3833    0.0000 </r>
       <r>   -1.1672    0.0000 </r>
       <r>   -1.1035    0.0000 </r>
       <r>   -1.0372    0.0000 </r>
       <r>   -1.0122    0.0000 </r>
       <r>   -0.9315    0.0000 </r>
       <r>   -0.9090    0.0000 </r>
       <r>   -0.8185    0.0000 </r>
       <r>   -0.7740    0.0000 </r>
       <r>   -0.7044    0.0000 </r>
       <r>   -0.6661    0.0000 </r>
       <r>   -0.5423    0.0000 </r>
       <r>   -0.5001    0.0000 </r>
       <r>   -0.3693    0.0000 </r>
       <r>   -0.1910    0.0000 </r>
       <r>   -0.1017    0.0000 </r>
       <r>    0.0240    0.0000 </r>
       <r>    0.1618    0.0000 </r>
       <r>    0.3292    0.0000 </r>
       <r>    0.5674    0.0000 </r>
       <r>    0.6587    0.0000 </r>
       <r>    1.0187    0.0000 </r>
       <r>    1.1778    0.0000 </r>
       <r>    1.2663    0.0000 </r>
       <r>    1.4078    0.0000 </r>
       <r>    2.1027    0.0000 </r>
       <r>    2.2863    0.0000 </r>
       <r>    2.3548    0.0000 </r>
      </set>
      <set comment="kpoint 34">
       <r>  -17.5850    1.0000 </r>
       <r>  -17.2645    1.0000 </r>
       <r>  -16.7814    1.0000 </r>
       <r>  -16.7363    1.0000 </r>
       <r>  -16.6110    1.0000 </r>
       <r>  -16.4460    1.0000 </r>
       <r>  -16.3961    1.0000 </r>
       <r>  -16.1851    1.0000 </r>
       <r>  -16.0635    1.0000 </r>
       <r>  -15.9680    1.0000 </r>
       <r>  -15.9305    1.0000 </r>
       <r>  -15.8809    1.0000 </r>
       <r>  -15.7403    1.0000 </r>
       <r>  -15.7080    1.0000 </r>
       <r>  -15.5022    1.0000 </r>
       <r>  -15.4608    1.0000 </r>
       <r>  -15.3678    1.0000 </r>
       <r>  -15.2806    1.0000 </r>
       <r>   -9.8225    1.0000 </r>
       <r>   -9.4079    1.0000 </r>
       <r>   -9.3038    1.0000 </r>
       <r>   -9.1367    1.0000 </r>
       <r>   -8.9378    1.0000 </r>
       <r>   -8.7882    1.0000 </r>
       <r>   -8.5372    1.0000 </r>
       <r>   -8.4660    1.0000 </r>
       <r>   -8.3818    1.0000 </r>
       <r>   -8.2803    1.0000 </r>
       <r>   -8.2694    1.0000 </r>
       <r>   -8.1517    1.0000 </r>
       <r>   -8.1403    1.0000 </r>
       <r>   -8.0263    1.0000 </r>
       <r>   -7.9862    1.0000 </r>
       <r>   -7.8983    1.0000 </r>
       <r>   -7.7690    1.0000 </r>
       <r>   -7.6639    1.0000 </r>
       <r>   -7.5339    1.0000 </r>
       <r>   -7.4234    1.0000 </r>
       <r>   -7.3551    1.0000 </r>
       <r>   -7.1966    1.0000 </r>
       <r>   -7.1835    1.0000 </r>
       <r>   -7.1163    1.0000 </r>
       <r>   -7.0626    1.0000 </r>
       <r>   -6.9161    1.0000 </r>
       <r>   -6.7996    1.0000 </r>
       <r>   -6.6906    1.0000 </r>
       <r>   -6.6381    1.0000 </r>
       <r>   -6.5831    1.0000 </r>
       <r>   -6.5535    1.0000 </r>
       <r>   -6.4637    1.0000 </r>
       <r>   -6.4135    1.0000 </r>
       <r>   -6.3864    1.0000 </r>
       <r>   -6.3314    1.0000 </r>
       <r>   -6.2456    1.0000 </r>
       <r>   -6.1800    1.0000 </r>
       <r>   -6.0489    1.0000 </r>
       <r>   -5.9717    1.0000 </r>
       <r>   -5.9046    1.0000 </r>
       <r>   -5.8701    1.0000 </r>
       <r>   -5.8263    1.0000 </r>
       <r>   -5.7250    1.0000 </r>
       <r>   -5.6753    1.0000 </r>
       <r>   -5.5378    1.0000 </r>
       <r>   -5.4147    1.0000 </r>
       <r>   -5.2490    1.0000 </r>
       <r>   -5.0692    1.0000 </r>
       <r>   -5.0088    1.0000 </r>
       <r>   -4.9222    1.0000 </r>
       <r>   -4.8018    1.0000 </r>
       <r>   -4.6546    1.0000 </r>
       <r>   -4.5331    1.0000 </r>
       <r>   -4.3699    1.0000 </r>
       <r>   -4.2323    1.0000 </r>
       <r>   -4.2150    1.0000 </r>
       <r>   -4.1342    1.0000 </r>
       <r>   -4.0537    1.0000 </r>
       <r>   -3.8921    1.0000 </r>
       <r>   -3.6960    0.9996 </r>
       <r>   -3.5765    0.9934 </r>
       <r>   -3.1656    0.3346 </r>
       <r>   -2.9598    0.0299 </r>
       <r>   -2.8301    0.0026 </r>
       <r>   -2.7080    0.0001 </r>
       <r>   -2.5788    0.0000 </r>
       <r>   -2.5043    0.0000 </r>
       <r>   -2.4104    0.0000 </r>
       <r>   -2.3755    0.0000 </r>
       <r>   -2.1790    0.0000 </r>
       <r>   -2.0782    0.0000 </r>
       <r>   -2.0342    0.0000 </r>
       <r>   -1.8703    0.0000 </r>
       <r>   -1.7783    0.0000 </r>
       <r>   -1.3689    0.0000 </r>
       <r>   -1.1787    0.0000 </r>
       <r>   -1.1033    0.0000 </r>
       <r>   -1.0129    0.0000 </r>
       <r>   -1.0042    0.0000 </r>
       <r>   -0.9554    0.0000 </r>
       <r>   -0.9138    0.0000 </r>
       <r>   -0.8448    0.0000 </r>
       <r>   -0.7621    0.0000 </r>
       <r>   -0.7320    0.0000 </r>
       <r>   -0.6417    0.0000 </r>
       <r>   -0.5550    0.0000 </r>
       <r>   -0.5030    0.0000 </r>
       <r>   -0.4016    0.0000 </r>
       <r>   -0.2050    0.0000 </r>
       <r>   -0.1241    0.0000 </r>
       <r>    0.0241    0.0000 </r>
       <r>    0.1545    0.0000 </r>
       <r>    0.3233    0.0000 </r>
       <r>    0.5540    0.0000 </r>
       <r>    0.6877    0.0000 </r>
       <r>    1.0237    0.0000 </r>
       <r>    1.2123    0.0000 </r>
       <r>    1.2883    0.0000 </r>
       <r>    1.4445    0.0000 </r>
       <r>    2.1576    0.0000 </r>
       <r>    2.2318    0.0000 </r>
       <r>    2.3773    0.0000 </r>
      </set>
     </set>
    </set>
   </array>
  </eigenvalues>
  <separator name="orbital magnetization" >
   <v name="MAGDIPOLOUT">      0.00000000      0.00000000      0.00000000</v>
  </separator>
 </calculation>
 <structure name="finalpos" >
  <crystal>
   <varray name="basis" >
    <v>       8.38235310       4.83994103       0.00000000 </v>
    <v>      -8.34973784       4.78334882       0.00000000 </v>
    <v>       0.00000000       0.00000000      30.00000000 </v>
   </varray>
   <i name="volume">   2415.23872693 </i>
   <varray name="rec_basis" >
    <v>       0.05941461       0.10371320       0.00000000 </v>
    <v>      -0.06011755       0.10411832       0.00000000 </v>
    <v>       0.00000000       0.00000000       0.03333333 </v>
   </varray>
  </crystal>
  <varray name="positions" >
   <v>       0.98413890       0.35171210      -0.00126457 </v>
   <v>       0.34709382       0.66647296       0.00000820 </v>
   <v>       0.29921939      -0.01818203       0.00120745 </v>
   <v>       0.37115588       0.35537760      -0.00057803 </v>
   <v>       0.68235002      -0.02228827       0.00062134 </v>
   <v>      -0.01581381       0.66659949      -0.00001184 </v>
   <v>      -0.02025571      -0.03328688      -0.00057522 </v>
   <v>       0.67957087       0.36645803       0.00057007 </v>
   <v>       0.66895909       0.66649489       0.00001355 </v>
   <v>       0.11087944       0.22535775       0.95915001 </v>
   <v>       0.22016650       0.11047932       0.04852580 </v>
   <v>       0.11322351       0.55839514       0.95121164 </v>
   <v>       0.21997734       0.44535749       0.04689175 </v>
   <v>       0.11276009       0.88918414       0.94569907 </v>
   <v>       0.22149929       0.77495337       0.04874143 </v>
   <v>       0.44900437       0.21959515       0.94998894 </v>
   <v>       0.55220244       0.10785688       0.04086577 </v>
   <v>       0.44575701       0.56294088       0.94688360 </v>
   <v>       0.56310982       0.45008353       0.05680873 </v>
   <v>       0.44133374       0.88783322       0.95312788 </v>
   <v>       0.54931858       0.77010197       0.05315010 </v>
   <v>       0.77631297       0.22269464       0.95150387 </v>
   <v>       0.89614985       0.11375534       0.04998054 </v>
   <v>       0.77664748       0.55964088       0.94344310 </v>
   <v>       0.89027098       0.44408276       0.05426064 </v>
   <v>       0.77956371       0.88299468       0.94321939 </v>
   <v>       0.88361887       0.77354942       0.05655666 </v>
  </varray>
 </structure>
</modeling>
