       N       E                     dE             d eps       ncg     rms          rms(c)
DAV:   1     0.112442493554E+04    0.11244E+04   -0.35857E+04  8160   0.577E+02
DAV:   2    -0.665077311511E+01   -0.11311E+04   -0.10912E+04 11600   0.173E+02
DAV:   3    -0.200236678743E+03   -0.19359E+03   -0.18650E+03 10880   0.817E+01
DAV:   4    -0.209031210336E+03   -0.87945E+01   -0.85695E+01 12360   0.258E+01
DAV:   5    -0.209302733329E+03   -0.27152E+00   -0.27075E+00 11240   0.329E+00    0.275E+01
DAV:   6    -0.236712826076E+03   -0.27410E+02   -0.10792E+02 12840   0.604E+01    0.593E+01
DAV:   7    -0.196699966822E+03    0.40013E+02   -0.17804E+02 13120   0.151E+02    0.202E+01
DAV:   8    -0.189934490154E+03    0.67655E+01   -0.20031E+01 11840   0.133E+01    0.134E+01
DAV:   9    -0.188237743223E+03    0.16967E+01   -0.28897E+00 11760   0.622E+00    0.920E+00
DAV:  10    -0.187050229838E+03    0.11875E+01   -0.18647E+00 13400   0.772E+00    0.291E+00
DAV:  11    -0.187026900178E+03    0.23330E-01   -0.62249E-01 13560   0.305E+00    0.308E+00
DAV:  12    -0.187173615344E+03   -0.14672E+00   -0.82034E-01 13160   0.525E+00    0.577E+00
DAV:  13    -0.186922128879E+03    0.25149E+00   -0.77816E-01 12760   0.415E+00    0.212E+00
DAV:  14    -0.186875879204E+03    0.46250E-01   -0.11877E-01 13240   0.203E+00    0.792E-01
DAV:  15    -0.186869671865E+03    0.62073E-02   -0.12056E-02 13120   0.443E-01    0.299E-01
DAV:  16    -0.186870748588E+03   -0.10767E-02   -0.80768E-03 13360   0.523E-01    0.531E-01
DAV:  17    -0.186868520844E+03    0.22277E-02   -0.60629E-03 12600   0.439E-01    0.209E-01
DAV:  18    -0.186867958258E+03    0.56259E-03   -0.11329E-03 11560   0.139E-01    0.561E-02
DAV:  19    -0.186868577713E+03   -0.61946E-03   -0.72839E-04  9320   0.514E-02    0.540E-02
DAV:  20    -0.186869249180E+03   -0.67147E-03   -0.30976E-04  7960   0.533E-02    0.580E-02
DAV:  21    -0.186870125021E+03   -0.87584E-03   -0.25581E-04  7720   0.465E-02    0.345E-02
DAV:  22    -0.186871496125E+03   -0.13711E-02   -0.16911E-04  7640   0.421E-02    0.153E-02
DAV:  23    -0.186872076564E+03   -0.58044E-03   -0.30132E-05  6680   0.163E-02    0.885E-03
DAV:  24    -0.186872364969E+03   -0.28841E-03   -0.16407E-05  5600   0.111E-02    0.502E-03
DAV:  25    -0.186872731339E+03   -0.36637E-03   -0.12097E-05  5600   0.883E-03    0.330E-03
DAV:  26    -0.186872964407E+03   -0.23307E-03   -0.83941E-06  6840   0.618E-03    0.247E-03
DAV:  27    -0.186873051751E+03   -0.87344E-04   -0.34893E-06  7120   0.438E-03
   1 F= -.18687305E+03 E0= -.18670149E+03  d E =-.186873E+03
       N       E                     dE             d eps       ncg     rms          rms(c)
DAV:   1    -0.187493671779E+03   -0.62071E+00   -0.26986E+02  8160   0.349E+01    0.459E+00
DAV:   2    -0.189299433923E+03   -0.18058E+01   -0.19983E+01 12240   0.149E+01    0.829E+00
DAV:   3    -0.189414099662E+03   -0.11467E+00   -0.42109E+00 12400   0.120E+01    0.696E+00
DAV:   4    -0.188761872477E+03    0.65223E+00   -0.62565E-01 12160   0.491E+00    0.200E+00
DAV:   5    -0.188875730609E+03   -0.11386E+00   -0.43279E-01 11240   0.360E+00    0.537E+00
DAV:   6    -0.188744997240E+03    0.13073E+00   -0.78901E-01 12680   0.434E+00    0.237E+00
DAV:   7    -0.188681600251E+03    0.63397E-01   -0.18466E-01 11440   0.139E+00    0.107E+00
DAV:   8    -0.188665836840E+03    0.15763E-01   -0.48845E-02 11520   0.685E-01    0.652E-01
DAV:   9    -0.188661026383E+03    0.48105E-02   -0.90926E-03 12240   0.308E-01    0.342E-01
DAV:  10    -0.188660335366E+03    0.69102E-03   -0.32744E-03 12960   0.245E-01    0.146E-01
DAV:  11    -0.188660167411E+03    0.16795E-03   -0.15737E-03 12440   0.149E-01    0.136E-01
DAV:  12    -0.188660458514E+03   -0.29110E-03   -0.11002E-03 11960   0.194E-01    0.214E-01
DAV:  13    -0.188660149975E+03    0.30854E-03   -0.58891E-04  9920   0.144E-01    0.220E-02
DAV:  14    -0.188660271171E+03   -0.12120E-03   -0.48096E-05  7320   0.229E-02    0.121E-02
DAV:  15    -0.188660364721E+03   -0.93551E-04   -0.22497E-05  7480   0.171E-02
   2 F= -.18866036E+03 E0= -.18851933E+03  d E =-.178731E+01
       N       E                     dE             d eps       ncg     rms          rms(c)
DAV:   1    -0.190572396141E+03   -0.19121E+01   -0.30734E+01  9200   0.141E+01    0.445E+00
DAV:   2    -0.190568331456E+03    0.40647E-02   -0.28145E+00 11520   0.971E+00    0.750E+00
DAV:   3    -0.190049700679E+03    0.51863E+00   -0.13617E+00 12320   0.863E+00    0.417E+00
DAV:   4    -0.189852642682E+03    0.19706E+00   -0.73036E-01 12720   0.411E+00    0.268E+00
DAV:   5    -0.189898594888E+03   -0.45952E-01   -0.48177E-01 12360   0.420E+00    0.382E+00
DAV:   6    -0.189745743370E+03    0.15285E+00   -0.21841E-01 12320   0.321E+00    0.618E-01
DAV:   7    -0.189739854900E+03    0.58885E-02   -0.14928E-02 11840   0.460E-01    0.210E-01
DAV:   8    -0.189739858941E+03   -0.40414E-05   -0.28127E-03 10120   0.153E-01    0.145E-01
DAV:   9    -0.189739949878E+03   -0.90936E-04   -0.89146E-04 10680   0.993E-02
   3 F= -.18973995E+03 E0= -.18962091E+03  d E =-.107959E+01
       N       E                     dE             d eps       ncg     rms          rms(c)
DAV:   1    -0.191314155916E+03   -0.15743E+01   -0.70964E+01  8160   0.193E+01    0.467E+00
DAV:   2    -0.191178615174E+03    0.13554E+00   -0.54534E+00 13440   0.837E+00    0.524E+00
DAV:   3    -0.191217273578E+03   -0.38658E-01   -0.15967E+00 12200   0.934E+00    0.633E+00
DAV:   4    -0.190819908107E+03    0.39737E+00   -0.11744E+00 12960   0.692E+00    0.259E+00
DAV:   5    -0.190727933955E+03    0.91974E-01   -0.30164E-01 10960   0.238E+00    0.148E+00
DAV:   6    -0.190721223264E+03    0.67107E-02   -0.13672E-01 12720   0.241E+00    0.151E+00
DAV:   7    -0.190702836900E+03    0.18386E-01   -0.51243E-02 12320   0.147E+00    0.498E-01
DAV:   8    -0.190698905706E+03    0.39312E-02   -0.75853E-03 10120   0.413E-01    0.209E-01
DAV:   9    -0.190699114857E+03   -0.20915E-03   -0.22203E-03 12680   0.304E-01    0.248E-01
DAV:  10    -0.190699087687E+03    0.27170E-04   -0.18461E-03 11440   0.258E-01    0.149E-01
DAV:  11    -0.190698809342E+03    0.27835E-03   -0.87623E-04 10480   0.130E-01    0.482E-02
DAV:  12    -0.190698813246E+03   -0.39038E-05   -0.11463E-04  7200   0.435E-02
   4 F= -.19069881E+03 E0= -.19059767E+03  d E =-.958863E+00
       N       E                     dE             d eps       ncg     rms          rms(c)
DAV:   1    -0.192046353556E+03   -0.13475E+01   -0.14203E+02  8160   0.267E+01    0.557E+00
DAV:   2    -0.191771705313E+03    0.27465E+00   -0.90141E+00 12240   0.793E+00    0.373E+00
DAV:   3    -0.191827300625E+03   -0.55595E-01   -0.16399E+00 12240   0.848E+00    0.592E+00
DAV:   4    -0.191599455965E+03    0.22784E+00   -0.14693E+00 12360   0.931E+00    0.381E+00
DAV:   5    -0.191366687202E+03    0.23277E+00   -0.40025E-01 12440   0.358E+00    0.766E-01
DAV:   6    -0.191358577516E+03    0.81097E-02   -0.82221E-02 11360   0.986E-01    0.519E-01
DAV:   7    -0.191356758792E+03    0.18187E-02   -0.18280E-02 11520   0.785E-01    0.580E-01
DAV:   8    -0.191353597933E+03    0.31609E-02   -0.62170E-03 12080   0.593E-01    0.182E-01
DAV:   9    -0.191353738819E+03   -0.14089E-03   -0.26391E-03 11000   0.163E-01    0.853E-02
DAV:  10    -0.191353735345E+03    0.34740E-05   -0.71420E-04 11360   0.102E-01
   5 F= -.19135374E+03 E0= -.19125786E+03  d E =-.654922E+00
       N       E                     dE             d eps       ncg     rms          rms(c)
DAV:   1    -0.191461336392E+03   -0.10760E+00   -0.11603E+01  8160   0.722E+00    0.907E-01
DAV:   2    -0.191529580407E+03   -0.68244E-01   -0.39927E-01 12320   0.275E+00    0.219E+00
DAV:   3    -0.191478206646E+03    0.51374E-01   -0.13911E-01 12480   0.279E+00    0.784E-01
DAV:   4    -0.191472084310E+03    0.61223E-02   -0.18284E-02 11440   0.738E-01    0.405E-01
DAV:   5    -0.191472373821E+03   -0.28951E-03   -0.11890E-02 12400   0.732E-01    0.563E-01
DAV:   6    -0.191470037477E+03    0.23363E-02   -0.98437E-03 11680   0.687E-01    0.276E-01
DAV:   7    -0.191469210986E+03    0.82649E-03   -0.27788E-03 11360   0.274E-01    0.990E-02
DAV:   8    -0.191469237376E+03   -0.26390E-04   -0.78608E-04  9080   0.174E-01
   6 F= -.19146924E+03 E0= -.19137055E+03  d E =-.115502E+00
       N       E                     dE             d eps       ncg     rms          rms(c)
DAV:   1    -0.191512838857E+03   -0.43628E-01   -0.15610E+00  8160   0.267E+00    0.404E-01
DAV:   2    -0.191530583656E+03   -0.17745E-01   -0.78145E-02 12720   0.164E+00    0.122E+00
DAV:   3    -0.191514164784E+03    0.16419E-01   -0.28980E-02 12480   0.130E+00    0.207E-01
DAV:   4    -0.191514052188E+03    0.11260E-03   -0.27801E-03 11680   0.272E-01    0.240E-01
DAV:   5    -0.191513820897E+03    0.23129E-03   -0.25893E-03 10680   0.370E-01    0.233E-01
DAV:   6    -0.191513380041E+03    0.44086E-03   -0.14906E-03 10080   0.257E-01    0.901E-02
DAV:   7    -0.191513294407E+03    0.85635E-04   -0.36649E-04  8200   0.919E-02
   7 F= -.19151329E+03 E0= -.19141392E+03  d E =-.440570E-01
       N       E                     dE             d eps       ncg     rms          rms(c)
DAV:   1    -0.191581784142E+03   -0.68404E-01   -0.41415E+00  8160   0.430E+00    0.547E-01
DAV:   2    -0.191620632566E+03   -0.38848E-01   -0.16054E-01 13120   0.232E+00    0.175E+00
DAV:   3    -0.191587517555E+03    0.33115E-01   -0.60993E-02 12440   0.190E+00    0.347E-01
DAV:   4    -0.191588202453E+03   -0.68490E-03   -0.77193E-03 11520   0.558E-01    0.460E-01
DAV:   5    -0.191586280111E+03    0.19223E-02   -0.53808E-03 11480   0.534E-01    0.212E-01
DAV:   6    -0.191585941489E+03    0.33862E-03   -0.16684E-03 11240   0.220E-01    0.116E-01
DAV:   7    -0.191586166866E+03   -0.22538E-03   -0.13692E-03 10240   0.234E-01    0.204E-01
DAV:   8    -0.191585747987E+03    0.41888E-03   -0.78394E-04  8480   0.200E-01    0.349E-02
DAV:   9    -0.191585752269E+03   -0.42820E-05   -0.57058E-05  5800   0.373E-02
   8 F= -.19158575E+03 E0= -.19148675E+03  d E =-.724579E-01
       N       E                     dE             d eps       ncg     rms          rms(c)
DAV:   1    -0.191619279761E+03   -0.33532E-01   -0.89934E-01  8160   0.201E+00    0.231E-01
DAV:   2    -0.191625204619E+03   -0.59249E-02   -0.31574E-02 13200   0.890E-01    0.632E-01
DAV:   3    -0.191620690901E+03    0.45137E-02   -0.88498E-03 11960   0.735E-01    0.159E-01
DAV:   4    -0.191620637158E+03    0.53743E-04   -0.11224E-03  9840   0.188E-01    0.152E-01
DAV:   5    -0.191620492548E+03    0.14461E-03   -0.90594E-04  8920   0.213E-01    0.119E-01
DAV:   6    -0.191620406613E+03    0.85936E-04   -0.46795E-04  8400   0.134E-01
   9 F= -.19162041E+03 E0= -.19152217E+03  d E =-.346543E-01
       N       E                     dE             d eps       ncg     rms          rms(c)
DAV:   1    -0.191684496200E+03   -0.64004E-01   -0.34726E+00  8160   0.395E+00    0.439E-01
DAV:   2    -0.191703045764E+03   -0.18550E-01   -0.10826E-01 12400   0.159E+00    0.111E+00
DAV:   3    -0.191689716853E+03    0.13329E-01   -0.28795E-02 12320   0.135E+00    0.328E-01
DAV:   4    -0.191689011447E+03    0.70541E-03   -0.35023E-03 11160   0.343E-01    0.252E-01
DAV:   5    -0.191688786370E+03    0.22508E-03   -0.26864E-03 11160   0.392E-01    0.247E-01
DAV:   6    -0.191688392997E+03    0.39337E-03   -0.17158E-03 10440   0.281E-01    0.120E-01
DAV:   7    -0.191688186341E+03    0.20666E-03   -0.54854E-04 10040   0.108E-01    0.375E-02
DAV:   8    -0.191688202125E+03   -0.15785E-04   -0.13055E-04  6920   0.781E-02
  10 F= -.19168820E+03 E0= -.19159200E+03  d E =-.677955E-01
       N       E                     dE             d eps       ncg     rms          rms(c)
DAV:   1    -0.191776566977E+03   -0.88381E-01   -0.65412E+00  8160   0.549E+00    0.689E-01
DAV:   2    -0.191822440275E+03   -0.45873E-01   -0.25874E-01 13400   0.264E+00    0.186E+00
DAV:   3    -0.191786775115E+03    0.35665E-01   -0.71155E-02 12240   0.213E+00    0.463E-01
DAV:   4    -0.191787249874E+03   -0.47476E-03   -0.11552E-02 12320   0.752E-01    0.604E-01
DAV:   5    -0.191783804921E+03    0.34450E-02   -0.85739E-03 11360   0.740E-01    0.299E-01
DAV:   6    -0.191783230039E+03    0.57488E-03   -0.36415E-03 11520   0.327E-01    0.164E-01
DAV:   7    -0.191782697004E+03    0.53304E-03   -0.12154E-03 10520   0.144E-01    0.545E-02
DAV:   8    -0.191782731694E+03   -0.34690E-04   -0.30576E-04  8720   0.115E-01
  11 F= -.19178273E+03 E0= -.19168971E+03  d E =-.945296E-01
       N       E                     dE             d eps       ncg     rms          rms(c)
DAV:   1    -0.191916508787E+03   -0.13381E+00   -0.72863E+01  8160   0.184E+01    0.191E+00
DAV:   2    -0.192193847132E+03   -0.27734E+00   -0.24221E+00 12560   0.635E+00    0.373E+00
DAV:   3    -0.192076780015E+03    0.11707E+00   -0.43836E-01 12080   0.543E+00    0.174E+00
DAV:   4    -0.192051220184E+03    0.25560E-01   -0.79577E-02 12520   0.214E+00    0.134E+00
DAV:   5    -0.192034813951E+03    0.16406E-01   -0.48032E-02 11040   0.191E+00    0.904E-01
DAV:   6    -0.192030827948E+03    0.39860E-02   -0.31798E-02 12640   0.111E+00    0.540E-01
DAV:   7    -0.192024617275E+03    0.62107E-02   -0.10844E-02 10520   0.446E-01    0.138E-01
DAV:   8    -0.192025131423E+03   -0.51415E-03   -0.24553E-03 12400   0.323E-01    0.245E-01
DAV:   9    -0.192024494549E+03    0.63687E-03   -0.12915E-03 10320   0.271E-01    0.713E-02
DAV:  10    -0.192024413028E+03    0.81521E-04   -0.31977E-04  7600   0.728E-02
  12 F= -.19202441E+03 E0= -.19194003E+03  d E =-.241681E+00
       N       E                     dE             d eps       ncg     rms          rms(c)
DAV:   1    -0.192034876884E+03   -0.10382E-01   -0.16726E+00  8160   0.277E+00    0.373E-01
DAV:   2    -0.192035288004E+03   -0.41112E-03   -0.49212E-02 11040   0.633E-01    0.294E-01
DAV:   3    -0.192036230407E+03   -0.94240E-03   -0.98783E-03 11720   0.684E-01    0.519E-01
DAV:   4    -0.192033539595E+03    0.26908E-02   -0.52376E-03 11960   0.605E-01    0.182E-01
DAV:   5    -0.192033434655E+03    0.10494E-03   -0.20384E-03 11360   0.300E-01    0.186E-01
DAV:   6    -0.192033075795E+03    0.35886E-03   -0.11257E-03 11160   0.290E-01    0.101E-01
DAV:   7    -0.192032976478E+03    0.99317E-04   -0.28584E-04  8840   0.123E-01
  13 F= -.19203298E+03 E0= -.19194795E+03  d E =-.856345E-02
       N       E                     dE             d eps       ncg     rms          rms(c)
DAV:   1    -0.192060514689E+03   -0.27439E-01   -0.35622E+01  8160   0.128E+01    0.131E+00
DAV:   2    -0.192161747732E+03   -0.10123E+00   -0.12664E+00 12040   0.354E+00    0.154E+00
DAV:   3    -0.192167700484E+03   -0.59528E-02   -0.14078E-01 12280   0.321E+00    0.171E+00
DAV:   4    -0.192133687721E+03    0.34013E-01   -0.48376E-02 12520   0.190E+00    0.697E-01
DAV:   5    -0.192132433169E+03    0.12546E-02   -0.20644E-02 11440   0.127E+00    0.707E-01
DAV:   6    -0.192127876068E+03    0.45571E-02   -0.16060E-02 12640   0.851E-01    0.293E-01
DAV:   7    -0.192125907734E+03    0.19683E-02   -0.36422E-03 10640   0.244E-01    0.715E-02
DAV:   8    -0.192125896176E+03    0.11559E-04   -0.66309E-04 11320   0.106E-01
  14 F= -.19212590E+03 E0= -.19204308E+03  d E =-.929197E-01
       N       E                     dE             d eps       ncg     rms          rms(c)
DAV:   1    -0.192120883064E+03    0.50247E-02   -0.27159E+00  8160   0.352E+00    0.319E-01
DAV:   2    -0.192124903522E+03   -0.40205E-02   -0.61881E-02 11160   0.723E-01    0.329E-01
DAV:   3    -0.192125906242E+03   -0.10027E-02   -0.90983E-03 12480   0.734E-01    0.489E-01
DAV:   4    -0.192123323736E+03    0.25825E-02   -0.41393E-03 12080   0.514E-01    0.132E-01
DAV:   5    -0.192123366139E+03   -0.42403E-04   -0.13812E-03 10480   0.241E-01    0.155E-01
DAV:   6    -0.192123194690E+03    0.17145E-03   -0.99503E-04 11160   0.276E-01    0.122E-01
DAV:   7    -0.192123003724E+03    0.19097E-03   -0.32689E-04  9760   0.140E-01    0.341E-02
DAV:   8    -0.192123001938E+03    0.17860E-05   -0.73429E-05  7560   0.585E-02
  15 F= -.19212300E+03 E0= -.19203985E+03  d E =0.289424E-02
       N       E                     dE             d eps       ncg     rms          rms(c)
DAV:   1    -0.192135622231E+03   -0.12619E-01   -0.93220E-01  8160   0.205E+00    0.226E-01
DAV:   2    -0.192138005986E+03   -0.23838E-02   -0.34925E-02 10520   0.485E-01    0.179E-01
DAV:   3    -0.192138766322E+03   -0.76034E-03   -0.30471E-03 12480   0.469E-01    0.328E-01
DAV:   4    -0.192137485874E+03    0.12804E-02   -0.15884E-03 10240   0.358E-01    0.948E-02
DAV:   5    -0.192137684158E+03   -0.19828E-03   -0.72509E-04  9720   0.226E-01    0.159E-01
DAV:   6    -0.192137416550E+03    0.26761E-03   -0.49281E-04  9440   0.180E-01    0.403E-02
DAV:   7    -0.192137392113E+03    0.24437E-04   -0.83186E-05  6480   0.464E-02
  16 F= -.19213739E+03 E0= -.19205465E+03  d E =-.143902E-01
       N       E                     dE             d eps       ncg     rms          rms(c)
DAV:   1    -0.192154601105E+03   -0.17185E-01   -0.41903E+00  8160   0.437E+00    0.511E-01
DAV:   2    -0.192165576580E+03   -0.10975E-01   -0.17214E-01 11200   0.104E+00    0.338E-01
DAV:   3    -0.192169116799E+03   -0.35402E-02   -0.12904E-02 12400   0.908E-01    0.707E-01
DAV:   4    -0.192163436337E+03    0.56805E-02   -0.76872E-03 11200   0.791E-01    0.195E-01
DAV:   5    -0.192164394711E+03   -0.95837E-03   -0.37073E-03 11600   0.467E-01    0.341E-01
DAV:   6    -0.192163085634E+03    0.13091E-02   -0.24037E-03 11320   0.427E-01    0.108E-01
DAV:   7    -0.192162910590E+03    0.17504E-03   -0.52896E-04  9640   0.133E-01    0.381E-02
DAV:   8    -0.192162913684E+03   -0.30941E-05   -0.10598E-04  8000   0.755E-02
  17 F= -.19216291E+03 E0= -.19208052E+03  d E =-.255216E-01
       N       E                     dE             d eps       ncg     rms          rms(c)
DAV:   1    -0.192171386901E+03   -0.84763E-02   -0.48540E+00  8160   0.467E+00    0.523E-01
DAV:   2    -0.192185759136E+03   -0.14372E-01   -0.19266E-01 11200   0.120E+00    0.445E-01
DAV:   3    -0.192188434753E+03   -0.26756E-02   -0.15483E-02 12480   0.111E+00    0.660E-01
DAV:   4    -0.192182633269E+03    0.58015E-02   -0.62437E-03 12000   0.760E-01    0.169E-01
DAV:   5    -0.192184601460E+03   -0.19682E-02   -0.43766E-03 11960   0.542E-01    0.448E-01
DAV:   6    -0.192182411515E+03    0.21899E-02   -0.30655E-03 11240   0.470E-01    0.623E-02
DAV:   7    -0.192182367858E+03    0.43657E-04   -0.27372E-04  7760   0.695E-02
  18 F= -.19218237E+03 E0= -.19210070E+03  d E =-.194542E-01
       N       E                     dE             d eps       ncg     rms          rms(c)
DAV:   1    -0.192185598381E+03   -0.31869E-02   -0.20429E-01  8160   0.969E-01    0.122E-01
DAV:   2    -0.192186551345E+03   -0.95296E-03   -0.98306E-03 10360   0.352E-01    0.196E-01
DAV:   3    -0.192186319528E+03    0.23182E-03   -0.16758E-03 12280   0.327E-01    0.142E-01
DAV:   4    -0.192186100982E+03    0.21855E-03   -0.33607E-04  8680   0.147E-01    0.413E-02
DAV:   5    -0.192186113976E+03   -0.12994E-04   -0.11253E-04  6680   0.772E-02
  19 F= -.19218611E+03 E0= -.19210450E+03  d E =-.374612E-02
       N       E                     dE             d eps       ncg     rms          rms(c)
DAV:   1    -0.192189963421E+03   -0.38624E-02   -0.38851E-01  8160   0.133E+00    0.154E-01
DAV:   2    -0.192191032509E+03   -0.10691E-02   -0.15892E-02 10240   0.352E-01    0.110E-01
DAV:   3    -0.192191433032E+03   -0.40052E-03   -0.15181E-03 11880   0.309E-01    0.226E-01
DAV:   4    -0.192190849042E+03    0.58399E-03   -0.90256E-04 10640   0.254E-01    0.551E-02
DAV:   5    -0.192190941268E+03   -0.92226E-04   -0.29053E-04  8680   0.130E-01
  20 F= -.19219094E+03 E0= -.19210987E+03  d E =-.482729E-02
       N       E                     dE             d eps       ncg     rms          rms(c)
DAV:   1    -0.192191885486E+03   -0.10364E-02   -0.24256E-02  8160   0.345E-01    0.771E-02
DAV:   2    -0.192192097932E+03   -0.21245E-03   -0.15719E-03 11560   0.226E-01    0.149E-01
DAV:   3    -0.192191821225E+03    0.27671E-03   -0.46941E-04  9200   0.205E-01    0.529E-02
DAV:   4    -0.192191805770E+03    0.15455E-04   -0.13636E-04  6280   0.870E-02
  21 F= -.19219181E+03 E0= -.19211078E+03  d E =-.864502E-03
       N       E                     dE             d eps       ncg     rms          rms(c)
DAV:   1    -0.192196561882E+03   -0.47407E-02   -0.17981E+00  8160   0.287E+00    0.347E-01
DAV:   2    -0.192201457537E+03   -0.48957E-02   -0.71614E-02 10760   0.839E-01    0.334E-01
DAV:   3    -0.192201797833E+03   -0.34030E-03   -0.67259E-03 12600   0.727E-01    0.385E-01
DAV:   4    -0.192199780112E+03    0.20177E-02   -0.25397E-03 11880   0.476E-01    0.122E-01
DAV:   5    -0.192200047199E+03   -0.26709E-03   -0.15029E-03 11760   0.256E-01    0.191E-01
DAV:   6    -0.192199804771E+03    0.24243E-03   -0.11200E-03 10640   0.290E-01    0.118E-01
DAV:   7    -0.192199629372E+03    0.17540E-03   -0.29239E-04  8360   0.119E-01    0.214E-02
DAV:   8    -0.192199632615E+03   -0.32427E-05   -0.44215E-05  6800   0.267E-02
  22 F= -.19219963E+03 E0= -.19211944E+03  d E =-.782685E-02
       N       E                     dE             d eps       ncg     rms          rms(c)
DAV:   1    -0.192196174622E+03    0.34548E-02   -0.41223E-01  8160   0.139E+00    0.195E-01
DAV:   2    -0.192198002451E+03   -0.18278E-02   -0.18717E-02 11280   0.586E-01    0.335E-01
DAV:   3    -0.192196890295E+03    0.11122E-02   -0.30896E-03 12040   0.491E-01    0.159E-01
DAV:   4    -0.192196723121E+03    0.16717E-03   -0.92369E-04 10280   0.243E-01    0.147E-01
DAV:   5    -0.192196573899E+03    0.14922E-03   -0.65437E-04 10200   0.227E-01    0.101E-01
DAV:   6    -0.192196463393E+03    0.11051E-03   -0.30880E-04  7640   0.119E-01    0.271E-02
DAV:   7    -0.192196458599E+03    0.47941E-05   -0.61859E-05  6960   0.455E-02
  23 F= -.19219646E+03 E0= -.19211574E+03  d E =0.317402E-02
       N       E                     dE             d eps       ncg     rms          rms(c)
DAV:   1    -0.192198149677E+03   -0.16863E-02   -0.11196E-01  8160   0.713E-01    0.764E-02
DAV:   2    -0.192198489287E+03   -0.33961E-03   -0.44344E-03 10120   0.206E-01    0.727E-02
DAV:   3    -0.192198519179E+03   -0.29892E-04   -0.32206E-04 10320   0.166E-01
  24 F= -.19219852E+03 E0= -.19211775E+03  d E =-.206058E-02
       N       E                     dE             d eps       ncg     rms          rms(c)
DAV:   1    -0.192198149311E+03    0.33998E-03   -0.22270E-03  9240   0.158E-01    0.318E-02
DAV:   2    -0.192198319855E+03   -0.17054E-03   -0.34952E-04  8960   0.148E-01    0.121E-01
DAV:   3    -0.192198151268E+03    0.16859E-03   -0.19529E-04  7240   0.129E-01    0.113E-02
DAV:   4    -0.192198162629E+03   -0.11361E-04   -0.19684E-05  5800   0.179E-02
  25 F= -.19219816E+03 E0= -.19211754E+03  d E =0.356550E-03
       N       E                     dE             d eps       ncg     rms          rms(c)
DAV:   1    -0.192199556575E+03   -0.14053E-02   -0.85332E-02  8160   0.620E-01    0.712E-02
DAV:   2    -0.192199828347E+03   -0.27177E-03   -0.37857E-03 10000   0.174E-01    0.602E-02
DAV:   3    -0.192199901711E+03   -0.73364E-04   -0.35327E-04 10360   0.153E-01
  26 F= -.19219990E+03 E0= -.19211929E+03  d E =-.173908E-02
       N       E                     dE             d eps       ncg     rms          rms(c)
DAV:   1    -0.192200231179E+03   -0.40283E-03   -0.88068E-03  8560   0.240E-01    0.542E-02
DAV:   2    -0.192200308152E+03   -0.76973E-04   -0.46506E-04 10240   0.131E-01
  27 F= -.19220031E+03 E0= -.19211977E+03  d E =-.406441E-03
       N       E                     dE             d eps       ncg     rms          rms(c)
DAV:   1    -0.192201621829E+03   -0.13906E-02   -0.10629E-01  8160   0.711E-01    0.100E-01
DAV:   2    -0.192201820056E+03   -0.19823E-03   -0.43087E-03 10240   0.176E-01    0.750E-02
DAV:   3    -0.192202015730E+03   -0.19567E-03   -0.64716E-04 11400   0.212E-01    0.158E-01
DAV:   4    -0.192201727409E+03    0.28832E-03   -0.39509E-04  8520   0.173E-01    0.324E-02
DAV:   5    -0.192201768235E+03   -0.40826E-04   -0.11107E-04  6000   0.793E-02
  28 F= -.19220177E+03 E0= -.19212115E+03  d E =-.146008E-02
       N       E                     dE             d eps       ncg     rms          rms(c)
DAV:   1    -0.192202927762E+03   -0.12004E-02   -0.10707E-01  8160   0.696E-01    0.873E-02
DAV:   2    -0.192203329477E+03   -0.40172E-03   -0.48281E-03 10040   0.237E-01    0.119E-01
DAV:   3    -0.192203296525E+03    0.32952E-04   -0.79701E-04 11120   0.222E-01
  29 F= -.19220330E+03 E0= -.19212276E+03  d E =-.152829E-02
       N       E                     dE             d eps       ncg     rms          rms(c)
DAV:   1    -0.192204325218E+03   -0.99574E-03   -0.11721E-01  8160   0.738E-01    0.101E-01
DAV:   2    -0.192204789943E+03   -0.46472E-03   -0.45341E-03 12080   0.289E-01    0.166E-01
DAV:   3    -0.192204564134E+03    0.22581E-03   -0.96527E-04 11000   0.254E-01    0.993E-02
DAV:   4    -0.192204488969E+03    0.75165E-04   -0.26202E-04  7920   0.127E-01
  30 F= -.19220449E+03 E0= -.19212394E+03  d E =-.119244E-02
       N       E                     dE             d eps       ncg     rms          rms(c)
DAV:   1    -0.192205736876E+03   -0.11727E-02   -0.23627E-01  8160   0.104E+00    0.130E-01
DAV:   2    -0.192206467322E+03   -0.73045E-03   -0.95124E-03 10440   0.310E-01    0.149E-01
DAV:   3    -0.192206565576E+03   -0.98254E-04   -0.13417E-03 11480   0.309E-01    0.183E-01
DAV:   4    -0.192206193871E+03    0.37170E-03   -0.45727E-04  8360   0.188E-01    0.493E-02
DAV:   5    -0.192206270925E+03   -0.77054E-04   -0.19207E-04  7960   0.124E-01
  31 F= -.19220627E+03 E0= -.19212579E+03  d E =-.178196E-02
       N       E                     dE             d eps       ncg     rms          rms(c)
DAV:   1    -0.192206274763E+03   -0.80892E-04   -0.58319E-03  8400   0.178E-01    0.502E-02
DAV:   2    -0.192206413272E+03   -0.13851E-03   -0.66416E-04 11000   0.178E-01    0.121E-01
DAV:   3    -0.192206237534E+03    0.17574E-03   -0.29466E-04  8920   0.158E-01    0.389E-02
DAV:   4    -0.192206225533E+03    0.12001E-04   -0.57673E-05  6160   0.636E-02
  32 F= -.19220623E+03 E0= -.19212584E+03  d E =0.453922E-04
