<?xml version="1.0" encoding="ISO-8859-1"?>
<modeling>
 <generator>
  <i name="program" type="string">vasp </i>
  <i name="version" type="string">5.4.1  </i>
  <i name="subversion" type="string">05Feb16 (build Jul 05 2020 17:13:04) complex                          parallel </i>
  <i name="platform" type="string">IFC91_ompi </i>
  <i name="date" type="string">2024 04 21 </i>
  <i name="time" type="string">09:38:52 </i>
 </generator>
 <incar>
  <i type="int" name="ISTART">     0</i>
  <i type="string" name="PREC">normal</i>
  <i type="string" name="ALGO"> Normal</i>
  <i type="int" name="ISPIN">     1</i>
  <i type="int" name="ICHARG">     2</i>
  <i type="int" name="IBRION">     1</i>
  <i type="int" name="NSW">   100</i>
  <i type="int" name="ISIF">     3</i>
  <i type="int" name="ISYM">     0</i>
  <i name="SYMPREC">      0.00000001</i>
  <i name="POTIM">      0.50000000</i>
  <i type="logical" name="LREAL"> F  </i>
  <i type="logical" name="LPLANE"> F  </i>
  <i type="int" name="ISMEAR">     0</i>
  <i type="logical" name="LWAVE"> F  </i>
  <i type="logical" name="LCHARG"> F  </i>
  <v type="int" name="KPOINT_BSE">    -1     0     0     0</v>
 </incar>
 <kpoints>
  <generation param="Gamma">
   <v type="int" name="divisions">       8        8        1 </v>
   <v name="usershift">      0.00000000       0.00000000       0.00000000 </v>
   <v name="genvec1">      0.12500000       0.00000000       0.00000000 </v>
   <v name="genvec2">     -0.00000000       0.12500000       0.00000000 </v>
   <v name="genvec3">      0.00000000       0.00000000       1.00000000 </v>
   <v name="shift">      0.00000000       0.00000000       0.00000000 </v>
  </generation>
  <varray name="kpointlist" >
   <v>       0.00000000       0.00000000       0.00000000 </v>
   <v>       0.12500000       0.00000000       0.00000000 </v>
   <v>       0.25000000       0.00000000       0.00000000 </v>
   <v>       0.37500000       0.00000000       0.00000000 </v>
   <v>       0.50000000       0.00000000       0.00000000 </v>
   <v>       0.00000000       0.12500000       0.00000000 </v>
   <v>       0.12500000       0.12500000       0.00000000 </v>
   <v>       0.25000000       0.12500000       0.00000000 </v>
   <v>       0.37500000       0.12500000       0.00000000 </v>
   <v>       0.50000000       0.12500000       0.00000000 </v>
   <v>      -0.37500000       0.12500000       0.00000000 </v>
   <v>      -0.25000000       0.12500000       0.00000000 </v>
   <v>      -0.12500000       0.12500000       0.00000000 </v>
   <v>       0.00000000       0.25000000       0.00000000 </v>
   <v>       0.12500000       0.25000000       0.00000000 </v>
   <v>       0.25000000       0.25000000       0.00000000 </v>
   <v>       0.37500000       0.25000000       0.00000000 </v>
   <v>       0.50000000       0.25000000       0.00000000 </v>
   <v>      -0.37500000       0.25000000       0.00000000 </v>
   <v>      -0.25000000       0.25000000       0.00000000 </v>
   <v>      -0.12500000       0.25000000       0.00000000 </v>
   <v>      -0.00000000       0.37500000       0.00000000 </v>
   <v>       0.12500000       0.37500000       0.00000000 </v>
   <v>       0.25000000       0.37500000       0.00000000 </v>
   <v>       0.37500000       0.37500000       0.00000000 </v>
   <v>       0.50000000       0.37500000       0.00000000 </v>
   <v>      -0.37500000       0.37500000       0.00000000 </v>
   <v>      -0.25000000       0.37500000       0.00000000 </v>
   <v>      -0.12500000       0.37500000       0.00000000 </v>
   <v>       0.00000000       0.50000000       0.00000000 </v>
   <v>       0.12500000       0.50000000       0.00000000 </v>
   <v>       0.25000000       0.50000000       0.00000000 </v>
   <v>       0.37500000       0.50000000       0.00000000 </v>
   <v>       0.50000000       0.50000000       0.00000000 </v>
  </varray>
  <varray name="weights" >
   <v>       0.01562500 </v>
   <v>       0.03125000 </v>
   <v>       0.03125000 </v>
   <v>       0.03125000 </v>
   <v>       0.01562500 </v>
   <v>       0.03125000 </v>
   <v>       0.03125000 </v>
   <v>       0.03125000 </v>
   <v>       0.03125000 </v>
   <v>       0.03125000 </v>
   <v>       0.03125000 </v>
   <v>       0.03125000 </v>
   <v>       0.03125000 </v>
   <v>       0.03125000 </v>
   <v>       0.03125000 </v>
   <v>       0.03125000 </v>
   <v>       0.03125000 </v>
   <v>       0.03125000 </v>
   <v>       0.03125000 </v>
   <v>       0.03125000 </v>
   <v>       0.03125000 </v>
   <v>       0.03125000 </v>
   <v>       0.03125000 </v>
   <v>       0.03125000 </v>
   <v>       0.03125000 </v>
   <v>       0.03125000 </v>
   <v>       0.03125000 </v>
   <v>       0.03125000 </v>
   <v>       0.03125000 </v>
   <v>       0.01562500 </v>
   <v>       0.03125000 </v>
   <v>       0.03125000 </v>
   <v>       0.03125000 </v>
   <v>       0.01562500 </v>
  </varray>
 </kpoints>
 <parameters>
  <separator name="general" >
   <i type="string" name="SYSTEM">unknown system</i>
   <i type="logical" name="LCOMPAT"> F  </i>
  </separator>
  <separator name="electronic" >
   <i type="string" name="PREC">normal</i>
   <i name="ENMAX">    280.00000000</i>
   <i name="ENAUG">    373.43800000</i>
   <i name="EDIFF">      0.00010000</i>
   <i type="int" name="IALGO">    38</i>
   <i type="int" name="IWAVPR">    11</i>
   <i type="int" name="NBANDS">   120</i>
   <i name="NELECT">    159.00000000</i>
   <i type="int" name="TURBO">     0</i>
   <i type="int" name="IRESTART">     0</i>
   <i type="int" name="NREBOOT">     0</i>
   <i type="int" name="NMIN">     0</i>
   <i name="EREF">      0.00000000</i>
   <separator name="electronic smearing" >
    <i type="int" name="ISMEAR">     0</i>
    <i name="SIGMA">      0.20000000</i>
    <i name="KSPACING">      0.50000000</i>
    <i type="logical" name="KGAMMA"> T  </i>
   </separator>
   <separator name="electronic projectors" >
    <i type="logical" name="LREAL"> F  </i>
    <v name="ROPT">      0.00000000      0.00000000      0.00000000      0.00000000</v>
    <i type="int" name="LMAXPAW">  -100</i>
    <i type="int" name="LMAXMIX">     2</i>
    <i type="logical" name="NLSPLINE"> F  </i>
   </separator>
   <separator name="electronic startup" >
    <i type="int" name="ISTART">     0</i>
    <i type="int" name="ICHARG">     2</i>
    <i type="int" name="INIWAV">     1</i>
   </separator>
   <separator name="electronic spin" >
    <i type="int" name="ISPIN">     1</i>
    <i type="logical" name="LNONCOLLINEAR"> F  </i>
    <v name="MAGMOM">      1.00000000      1.00000000      1.00000000      1.00000000      1.00000000      1.00000000      1.00000000      1.00000000      1.00000000      1.00000000      1.00000000      1.00000000      1.00000000      1.00000000      1.00000000      1.00000000      1.00000000      1.00000000      1.00000000      1.00000000
      1.00000000      1.00000000      1.00000000      1.00000000      1.00000000      1.00000000      1.00000000</v>
    <i name="NUPDOWN">     -1.00000000</i>
    <i type="logical" name="LSORBIT"> F  </i>
    <v name="SAXIS">      0.00000000      0.00000000      1.00000000</v>
    <i type="logical" name="LSPIRAL"> F  </i>
    <v name="QSPIRAL">      0.00000000      0.00000000      0.00000000</v>
    <i type="logical" name="LZEROZ"> F  </i>
   </separator>
   <separator name="electronic exchange-correlation" >
    <i type="logical" name="LASPH"> F  </i>
    <i type="logical" name="LMETAGGA"> F  </i>
   </separator>
   <separator name="electronic convergence" >
    <i type="int" name="NELM">    60</i>
    <i type="int" name="NELMDL">    -5</i>
    <i type="int" name="NELMIN">     2</i>
    <i name="ENINI">    280.00000000</i>
    <separator name="electronic convergence detail" >
     <i type="logical" name="LDIAG"> T  </i>
     <i type="logical" name="LSUBROT"> F  </i>
     <i name="WEIMIN">      0.00100000</i>
     <i name="EBREAK">      0.00000021</i>
     <i name="DEPER">      0.30000000</i>
     <i type="int" name="NRMM">     4</i>
     <i name="TIME">      0.40000000</i>
    </separator>
   </separator>
   <separator name="electronic mixer" >
    <i name="AMIX">      0.40000000</i>
    <i name="BMIX">      1.00000000</i>
    <i name="AMIN">      0.10000000</i>
    <i name="AMIX_MAG">      1.60000000</i>
    <i name="BMIX_MAG">      1.00000000</i>
    <separator name="electronic mixer details" >
     <i type="int" name="IMIX">     4</i>
     <i type="logical" name="MIXFIRST"> F  </i>
     <i type="int" name="MAXMIX">   -45</i>
     <i name="WC">    100.00000000</i>
     <i type="int" name="INIMIX">     1</i>
     <i type="int" name="MIXPRE">     1</i>
     <i type="int" name="MREMOVE">     5</i>
    </separator>
   </separator>
   <separator name="electronic dipolcorrection" >
    <i type="logical" name="LDIPOL"> F  </i>
    <i type="logical" name="LMONO"> F  </i>
    <i type="int" name="IDIPOL">     0</i>
    <i name="EPSILON">      1.00000000</i>
    <v name="DIPOL">   -100.00000000   -100.00000000   -100.00000000</v>
    <i name="EFIELD">      0.00000000</i>
   </separator>
  </separator>
  <separator name="grids" >
   <i type="int" name="NGX">    42</i>
   <i type="int" name="NGY">    42</i>
   <i type="int" name="NGZ">   126</i>
   <i type="int" name="NGXF">    84</i>
   <i type="int" name="NGYF">    84</i>
   <i type="int" name="NGZF">   252</i>
   <i type="logical" name="ADDGRID"> F  </i>
  </separator>
  <separator name="ionic" >
   <i type="int" name="NSW">   100</i>
   <i type="int" name="IBRION">     1</i>
   <i type="int" name="ISIF">     3</i>
   <i name="PSTRESS">      0.00000000</i>
   <i name="EDIFFG">      0.00100000</i>
   <i type="int" name="NFREE">     0</i>
   <i name="POTIM">      0.50000000</i>
   <i name="SMASS">     -3.00000000</i>
   <i name="SCALEE">      1.00000000</i>
  </separator>
  <separator name="ionic md" >
   <i name="TEBEG">      0.00010000</i>
   <i name="TEEND">      0.00010000</i>
   <i type="int" name="NBLOCK">     1</i>
   <i type="int" name="KBLOCK">   100</i>
   <i type="int" name="NPACO">   256</i>
   <i name="APACO">     16.00000000</i>
  </separator>
  <separator name="symmetry" >
   <i type="int" name="ISYM">     0</i>
   <i name="SYMPREC">      0.00000001</i>
  </separator>
  <separator name="dos" >
   <i type="logical" name="LORBIT"> F  </i>
   <v name="RWIGS">     -1.00000000     -1.00000000     -1.00000000     -1.00000000</v>
   <i type="int" name="NEDOS">   301</i>
   <i name="EMIN">     10.00000000</i>
   <i name="EMAX">    -10.00000000</i>
   <i name="EFERMI">      0.00000000</i>
  </separator>
  <separator name="writing" >
   <i type="int" name="NWRITE">     2</i>
   <i type="logical" name="LWAVE"> F  </i>
   <i type="logical" name="LCHARG"> F  </i>
   <i type="logical" name="LPARD"> F  </i>
   <i type="logical" name="LVTOT"> F  </i>
   <i type="logical" name="LVHAR"> F  </i>
   <i type="logical" name="LELF"> F  </i>
   <i type="logical" name="LOPTICS"> F  </i>
   <v name="STM">      0.00000000      0.00000000      0.00000000      0.00000000      0.00000000      0.00000000      0.00000000</v>
  </separator>
  <separator name="performance" >
   <i type="int" name="NPAR">    40</i>
   <i type="int" name="NSIM">     4</i>
   <i type="int" name="NBLK">    -1</i>
   <i type="logical" name="LPLANE"> F  </i>
   <i type="logical" name="LSCALAPACK"> T  </i>
   <i type="logical" name="LSCAAWARE"> F  </i>
   <i type="logical" name="LSCALU"> F  </i>
   <i type="logical" name="LASYNC"> F  </i>
   <i type="logical" name="LORBITALREAL"> F  </i>
  </separator>
  <separator name="miscellaneous" >
   <i type="int" name="IDIOT">     3</i>
   <i type="logical" name="LMUSIC"> F  </i>
   <v name="POMASS">     50.94100000     95.94000000    183.85000000     32.06600000</v>
   <v name="DARWINR">      0.00000000      0.00000000      0.00000000      0.00000000</v>
   <v name="DARWINV">      1.00000000      1.00000000      1.00000000      1.00000000</v>
   <i type="logical" name="LCORR"> T  </i>
  </separator>
  <i type="logical" name="GGA_COMPAT"> T  </i>
  <i type="logical" name="LBERRY"> F  </i>
  <i type="int" name="ICORELEVEL">     0</i>
  <i type="logical" name="LDAU"> F  </i>
  <i type="int" name="I_CONSTRAINED_M">     0</i>
  <separator name="electronic exchange-correlation" >
   <i type="string" name="GGA">--</i>
   <i type="int" name="VOSKOWN">     0</i>
   <i type="logical" name="LHFCALC"> F  </i>
   <i type="string" name="PRECFOCK"></i>
   <i type="logical" name="LSYMGRAD"> F  </i>
   <i type="logical" name="LHFONE"> F  </i>
   <i type="logical" name="LRHFCALC"> F  </i>
   <i type="logical" name="LTHOMAS"> F  </i>
   <i type="logical" name="LMODELHF"> F  </i>
   <i name="ENCUT4O">     -1.00000000</i>
   <i type="int" name="EXXOEP">     0</i>
   <i type="int" name="FOURORBIT">     0</i>
   <i name="AEXX">      0.00000000</i>
   <i name="HFALPHA">      0.00000000</i>
   <i name="MCALPHA">      0.00000000</i>
   <i name="ALDAX">      1.00000000</i>
   <i name="AGGAX">      1.00000000</i>
   <i name="ALDAC">      1.00000000</i>
   <i name="AGGAC">      1.00000000</i>
   <i type="int" name="NKREDX">     1</i>
   <i type="int" name="NKREDY">     1</i>
   <i type="int" name="NKREDZ">     1</i>
   <i type="logical" name="SHIFTRED"> F  </i>
   <i type="logical" name="ODDONLY"> F  </i>
   <i type="logical" name="EVENONLY"> F  </i>
   <i type="int" name="LMAXFOCK">     0</i>
   <i type="int" name="NMAXFOCKAE">     0</i>
   <i type="logical" name="LFOCKAEDFT"> F  </i>
   <i name="HFSCREEN">      0.00000000</i>
   <i name="HFSCREENC">      0.00000000</i>
   <i type="int" name="NBANDSGWLOW">     0</i>
  </separator>
  <separator name="vdW DFT" >
   <i type="logical" name="LUSE_VDW"> F  </i>
   <i name="Zab_VDW">     -0.84910000</i>
   <i name="PARAM1">      0.12340000</i>
   <i name="PARAM2">      1.00000000</i>
   <i name="PARAM3">      0.00000000</i>
  </separator>
  <separator name="model GW" >
   <i type="int" name="MODEL_GW">     0</i>
   <i name="MODEL_EPS0">     58.26239943</i>
   <i name="MODEL_ALPHA">      1.00000000</i>
  </separator>
  <separator name="linear response parameters" >
   <i type="logical" name="LEPSILON"> F  </i>
   <i type="logical" name="LRPA"> F  </i>
   <i type="logical" name="LNABLA"> F  </i>
   <i type="logical" name="LVEL"> F  </i>
   <i type="int" name="KINTER">     0</i>
   <i name="CSHIFT">      0.10000000</i>
   <i name="OMEGAMAX">     -1.00000000</i>
   <i name="DEG_THRESHOLD">      0.00200000</i>
  </separator>
  <separator name="orbital magnetization" >
   <i type="logical" name="NUCIND"> F  </i>
   <v name="MAGPOS">      0.00000000      0.00000000      0.00000000</v>
   <i type="logical" name="LNICSALL"> T  </i>
   <i type="logical" name="ORBITALMAG"> F  </i>
   <i type="logical" name="LMAGBLOCH"> F  </i>
   <i type="logical" name="LCHIMAG"> F  </i>
   <i type="logical" name="LGAUGE"> T  </i>
   <i type="int" name="MAGATOM">     0</i>
   <v name="MAGDIPOL">      0.00000000      0.00000000      0.00000000</v>
   <v name="AVECCONST">      0.00000000      0.00000000      0.00000000</v>
  </separator>
  <separator name="response functions" >
   <i type="logical" name="LADDER"> F  </i>
   <i type="logical" name="LFXC"> F  </i>
   <i type="logical" name="LHARTREE"> T  </i>
   <i type="int" name="IBSE">     0</i>
   <v type="int" name="KPOINT">    -1     0     0     0</v>
   <i type="logical" name="LTCTE"> F  </i>
   <i type="logical" name="LTETE"> F  </i>
   <i type="logical" name="LTRIPLET"> F  </i>
   <i type="logical" name="LFXCEPS"> F  </i>
   <i type="logical" name="LFXHEG"> F  </i>
   <i type="int" name="NATURALO">     0</i>
   <i type="logical" name="L2ORDER"> F  </i>
   <i type="logical" name="LUSEW"> F  </i>
   <i name="ENCUTGW">     -2.00000000</i>
   <i name="ENCUTGWSOFT">     -2.00000000</i>
   <i name="ENCUTLF">     -1.00000000</i>
   <i type="int" name="LMAXMP2">    -1</i>
   <i name="SCISSOR">      0.00000000</i>
   <i type="int" name="NOMEGA">     0</i>
   <i type="int" name="NOMEGAR">     0</i>
   <i type="int" name="NBANDSGW">    -1</i>
   <i type="int" name="NBANDSO">    -1</i>
   <i type="int" name="NBANDSV">    -1</i>
   <i type="int" name="NELM">     1</i>
   <i type="int" name="NELMHF">     1</i>
   <i type="int" name="DIM">     3</i>
   <i type="int" name="ANTIRES">     0</i>
   <i name="OMEGAMAX">    -30.00000000</i>
   <i name="OMEGAMIN">    -30.00000000</i>
   <i name="OMEGATL">   -200.00000000</i>
   <i type="int" name="OMEGAGRID">     0</i>
   <i name="CSHIFT">     -0.10000000</i>
   <i type="logical" name="SELFENERGY"> F  </i>
   <i type="logical" name="LSPECTRAL"> F  </i>
   <i type="logical" name="LSPECTRALGW"> F  </i>
   <i type="logical" name="LSINGLES"> F  </i>
   <i type="logical" name="LFERMIGW"> F  </i>
   <i type="logical" name="ODDONLYGW"> F  </i>
   <i type="logical" name="EVENONLYGW"> F  </i>
   <i type="int" name="NKREDLFX">     1</i>
   <i type="int" name="NKREDLFY">     1</i>
   <i type="int" name="NKREDLFZ">     1</i>
   <i type="int" name="MAXMEM">  1800</i>
   <i type="int" name="TELESCOPE">     0</i>
   <i type="int" name="TAUPAR">     1</i>
   <i type="int" name="OMEGAPAR">    -1</i>
   <i name="LAMBDA">      1.00000000</i>
  </separator>
  <separator name="External order field" >
   <i name="OFIELD_KAPPA">      0.00000000</i>
   <v name="OFIELD_K">      0.00000000      0.00000000      0.00000000</v>
   <i name="OFIELD_Q6_NEAR">      0.00000000</i>
   <i name="OFIELD_Q6_FAR">      0.00000000</i>
   <i name="OFIELD_A">      0.00000000</i>
  </separator>
 </parameters>
 <atominfo>
  <atoms>      27 </atoms>
  <types>       4 </types>
  <array name="atoms" >
   <dimension dim="1">ion</dimension>
   <field type="string">element</field>
   <field type="int">atomtype</field>
   <set>
    <rc><c>V </c><c>   1</c></rc>
    <rc><c>V </c><c>   1</c></rc>
    <rc><c>V </c><c>   1</c></rc>
    <rc><c>Mo</c><c>   2</c></rc>
    <rc><c>Mo</c><c>   2</c></rc>
    <rc><c>Mo</c><c>   2</c></rc>
    <rc><c>W </c><c>   3</c></rc>
    <rc><c>W </c><c>   3</c></rc>
    <rc><c>W </c><c>   3</c></rc>
    <rc><c>S </c><c>   4</c></rc>
    <rc><c>S </c><c>   4</c></rc>
    <rc><c>S </c><c>   4</c></rc>
    <rc><c>S </c><c>   4</c></rc>
    <rc><c>S </c><c>   4</c></rc>
    <rc><c>S </c><c>   4</c></rc>
    <rc><c>S </c><c>   4</c></rc>
    <rc><c>S </c><c>   4</c></rc>
    <rc><c>S </c><c>   4</c></rc>
    <rc><c>S </c><c>   4</c></rc>
    <rc><c>S </c><c>   4</c></rc>
    <rc><c>S </c><c>   4</c></rc>
    <rc><c>S </c><c>   4</c></rc>
    <rc><c>S </c><c>   4</c></rc>
    <rc><c>S </c><c>   4</c></rc>
    <rc><c>S </c><c>   4</c></rc>
    <rc><c>S </c><c>   4</c></rc>
    <rc><c>S </c><c>   4</c></rc>
   </set>
  </array>
  <array name="atomtypes" >
   <dimension dim="1">type</dimension>
   <field type="int">atomspertype</field>
   <field type="string">element</field>
   <field>mass</field>
   <field>valence</field>
   <field type="string">pseudopotential</field>
   <set>
    <rc><c>   3</c><c>V </c><c>     50.94100000</c><c>      5.00000000</c><c> PAW_PBE V 08Apr2002                    </c></rc>
    <rc><c>   3</c><c>Mo</c><c>     95.94000000</c><c>      6.00000000</c><c> PAW_PBE Mo 08Apr2002                   </c></rc>
    <rc><c>   3</c><c>W </c><c>    183.85000000</c><c>      6.00000000</c><c> PAW_PBE W 08Apr2002                    </c></rc>
    <rc><c>  18</c><c>S </c><c>     32.06600000</c><c>      6.00000000</c><c>  PAW_PBE S 17Jan2003                   </c></rc>
   </set>
  </array>
 </atominfo>
 <structure name="initialpos" >
  <crystal>
   <varray name="basis" >
    <v>       8.66999996       5.03999989       0.00000000 </v>
    <v>      -8.66999982       5.04000013       0.00000000 </v>
    <v>       0.00000000       0.00000000      30.00000000 </v>
   </varray>
   <i name="volume">   2621.80797419 </i>
   <varray name="rec_basis" >
    <v>       0.05767013       0.09920635       0.00000000 </v>
    <v>      -0.05767013       0.09920635       0.00000000 </v>
    <v>       0.00000000       0.00000000       0.03333333 </v>
   </varray>
  </crystal>
  <varray name="positions" >
   <v>       0.66666669       0.33333334       0.00000000 </v>
   <v>       0.33333334       0.33333334       0.00000000 </v>
   <v>       0.33333334       0.66666669       0.00000000 </v>
   <v>       0.00000000       0.00000000       0.00000000 </v>
   <v>       0.33333334       0.00000000       0.00000000 </v>
   <v>       1.00000000       0.33333334       0.00000000 </v>
   <v>       0.00000000       0.66666669       0.00000000 </v>
   <v>       0.66666669       0.00000000       0.00000000 </v>
   <v>       0.66666669       0.66666669       0.00000000 </v>
   <v>       0.11068511       0.22244981       0.95539999 </v>
   <v>       0.22244981       0.11068511       0.04460000 </v>
   <v>       0.11068511       0.55578315       0.95539999 </v>
   <v>       0.22244981       0.44401845       0.04460000 </v>
   <v>       0.11068511       0.88911647       0.95539999 </v>
   <v>       0.22244981       0.77735180       0.04460000 </v>
   <v>       0.44401845       0.22244981       0.95539999 </v>
   <v>       0.55578315       0.11068511       0.04460000 </v>
   <v>       0.44401845       0.55578315       0.95539999 </v>
   <v>       0.55578315       0.44401845       0.04460000 </v>
   <v>       0.44401845       0.88911647       0.95539999 </v>
   <v>       0.55578315       0.77735180       0.04460000 </v>
   <v>       0.77735180       0.22244981       0.95539999 </v>
   <v>       0.88911647       0.11068511       0.04460000 </v>
   <v>       0.77735180       0.55578315       0.95539999 </v>
   <v>       0.88911647       0.44401845       0.04460000 </v>
   <v>       0.77735180       0.88911647       0.95539999 </v>
   <v>       0.88911647       0.77735180       0.04460000 </v>
  </varray>
 </structure>
 <calculation>
  <scstep>
   <time name="dav">   21.74   21.80</time>
   <time name="total">   21.79   21.85</time>
   <energy>
    <i name="alphaZ">     81.65567618 </i>
    <i name="ewald">  41890.25211670 </i>
    <i name="hartreedc"> -47722.88707200 </i>
    <i name="XCdc">   -242.92852174 </i>
    <i name="pawpsdc">   3467.42045192 </i>
    <i name="pawaedc">  -2871.19716117 </i>
    <i name="eentropy">     -0.53120382 </i>
    <i name="bandstr">   -238.80187481 </i>
    <i name="atom">   6761.44252427 </i>
    <i name="e_fr_energy">   1124.42493554 </i>
    <i name="e_wo_entrp">   1124.95613935 </i>
    <i name="e_0_energy">   1124.69053745 </i>
   </energy>
  </scstep>
  <scstep>
   <time name="dav">   29.04   29.11</time>
   <time name="total">   29.05   29.12</time>
   <energy>
    <i name="e_fr_energy">     -6.65077312 </i>
    <i name="e_wo_entrp">     -6.44293134 </i>
    <i name="e_0_energy">     -6.54685223 </i>
   </energy>
  </scstep>
  <scstep>
   <time name="dav">   27.51   27.58</time>
   <time name="total">   27.52   27.59</time>
   <energy>
    <i name="e_fr_energy">   -200.23667874 </i>
    <i name="e_wo_entrp">   -199.94604447 </i>
    <i name="e_0_energy">   -200.09136160 </i>
   </energy>
  </scstep>
  <scstep>
   <time name="dav">   30.60   30.68</time>
   <time name="total">   30.61   30.69</time>
   <energy>
    <i name="e_fr_energy">   -209.03121034 </i>
    <i name="e_wo_entrp">   -208.72234407 </i>
    <i name="e_0_energy">   -208.87677720 </i>
   </energy>
  </scstep>
  <scstep>
   <time name="dav">   28.21   28.28</time>
   <time name="total">   28.67   28.74</time>
   <energy>
    <i name="e_fr_energy">   -209.30273333 </i>
    <i name="e_wo_entrp">   -208.99656765 </i>
    <i name="e_0_energy">   -209.14965049 </i>
   </energy>
  </scstep>
  <scstep>
   <time name="dav">   31.41   31.48</time>
   <time name="total">   31.91   31.99</time>
   <energy>
    <i name="e_fr_energy">   -236.71282608 </i>
    <i name="e_wo_entrp">   -236.43016742 </i>
    <i name="e_0_energy">   -236.57149675 </i>
   </energy>
  </scstep>
  <scstep>
   <time name="dav">   32.07   32.14</time>
   <time name="total">   32.57   32.66</time>
   <energy>
    <i name="e_fr_energy">   -196.69996682 </i>
    <i name="e_wo_entrp">   -196.37877161 </i>
    <i name="e_0_energy">   -196.53936922 </i>
   </energy>
  </scstep>
  <scstep>
   <time name="dav">   29.39   29.46</time>
   <time name="total">   29.90   29.97</time>
   <energy>
    <i name="e_fr_energy">   -189.93449015 </i>
    <i name="e_wo_entrp">   -189.65792753 </i>
    <i name="e_0_energy">   -189.79620884 </i>
   </energy>
  </scstep>
  <scstep>
   <time name="dav">   29.18   29.25</time>
   <time name="total">   29.70   29.77</time>
   <energy>
    <i name="e_fr_energy">   -188.23774322 </i>
    <i name="e_wo_entrp">   -187.90718896 </i>
    <i name="e_0_energy">   -188.07246609 </i>
   </energy>
  </scstep>
  <scstep>
   <time name="dav">   32.65   32.73</time>
   <time name="total">   33.18   33.26</time>
   <energy>
    <i name="e_fr_energy">   -187.05022984 </i>
    <i name="e_wo_entrp">   -186.70799891 </i>
    <i name="e_0_energy">   -186.87911437 </i>
   </energy>
  </scstep>
  <scstep>
   <time name="dav">   32.99   33.07</time>
   <time name="total">   33.53   33.61</time>
   <energy>
    <i name="e_fr_energy">   -187.02690018 </i>
    <i name="e_wo_entrp">   -186.67479009 </i>
    <i name="e_0_energy">   -186.85084513 </i>
   </energy>
  </scstep>
  <scstep>
   <time name="dav">   32.17   32.25</time>
   <time name="total">   32.70   32.78</time>
   <energy>
    <i name="e_fr_energy">   -187.17361534 </i>
    <i name="e_wo_entrp">   -186.83951859 </i>
    <i name="e_0_energy">   -187.00656697 </i>
   </energy>
  </scstep>
  <scstep>
   <time name="dav">   31.33   31.41</time>
   <time name="total">   31.86   31.95</time>
   <energy>
    <i name="e_fr_energy">   -186.92212888 </i>
    <i name="e_wo_entrp">   -186.58871583 </i>
    <i name="e_0_energy">   -186.75542235 </i>
   </energy>
  </scstep>
  <scstep>
   <time name="dav">   32.28   32.36</time>
   <time name="total">   32.81   32.89</time>
   <energy>
    <i name="e_fr_energy">   -186.87587920 </i>
    <i name="e_wo_entrp">   -186.52983453 </i>
    <i name="e_0_energy">   -186.70285687 </i>
   </energy>
  </scstep>
  <scstep>
   <time name="dav">   32.05   32.13</time>
   <time name="total">   32.58   32.67</time>
   <energy>
    <i name="e_fr_energy">   -186.86967186 </i>
    <i name="e_wo_entrp">   -186.52543644 </i>
    <i name="e_0_energy">   -186.69755415 </i>
   </energy>
  </scstep>
  <scstep>
   <time name="dav">   32.58   32.66</time>
   <time name="total">   33.11   33.20</time>
   <energy>
    <i name="e_fr_energy">   -186.87074859 </i>
    <i name="e_wo_entrp">   -186.52727418 </i>
    <i name="e_0_energy">   -186.69901138 </i>
   </energy>
  </scstep>
  <scstep>
   <time name="dav">   30.95   31.03</time>
   <time name="total">   31.49   31.57</time>
   <energy>
    <i name="e_fr_energy">   -186.86852084 </i>
    <i name="e_wo_entrp">   -186.52562823 </i>
    <i name="e_0_energy">   -186.69707454 </i>
   </energy>
  </scstep>
  <scstep>
   <time name="dav">   28.78   28.84</time>
   <time name="total">   29.30   29.38</time>
   <energy>
    <i name="e_fr_energy">   -186.86795826 </i>
    <i name="e_wo_entrp">   -186.52466654 </i>
    <i name="e_0_energy">   -186.69631240 </i>
   </energy>
  </scstep>
  <scstep>
   <time name="dav">   24.09   24.14</time>
   <time name="total">   24.62   24.68</time>
   <energy>
    <i name="e_fr_energy">   -186.86857771 </i>
    <i name="e_wo_entrp">   -186.52546254 </i>
    <i name="e_0_energy">   -186.69702013 </i>
   </energy>
  </scstep>
  <scstep>
   <time name="dav">   21.38   21.43</time>
   <time name="total">   21.91   21.97</time>
   <energy>
    <i name="e_fr_energy">   -186.86924918 </i>
    <i name="e_wo_entrp">   -186.52610338 </i>
    <i name="e_0_energy">   -186.69767628 </i>
   </energy>
  </scstep>
  <scstep>
   <time name="dav">   20.89   20.94</time>
   <time name="total">   21.42   21.48</time>
   <energy>
    <i name="e_fr_energy">   -186.87012502 </i>
    <i name="e_wo_entrp">   -186.52694602 </i>
    <i name="e_0_energy">   -186.69853552 </i>
   </energy>
  </scstep>
  <scstep>
   <time name="dav">   20.68   20.73</time>
   <time name="total">   21.21   21.26</time>
   <energy>
    <i name="e_fr_energy">   -186.87149613 </i>
    <i name="e_wo_entrp">   -186.52844830 </i>
    <i name="e_0_energy">   -186.69997221 </i>
   </energy>
  </scstep>
  <scstep>
   <time name="dav">   18.75   18.80</time>
   <time name="total">   19.28   19.34</time>
   <energy>
    <i name="e_fr_energy">   -186.87207656 </i>
    <i name="e_wo_entrp">   -186.52898197 </i>
    <i name="e_0_energy">   -186.70052927 </i>
   </energy>
  </scstep>
  <scstep>
   <time name="dav">   16.57   16.61</time>
   <time name="total">   17.10   17.15</time>
   <energy>
    <i name="e_fr_energy">   -186.87236497 </i>
    <i name="e_wo_entrp">   -186.52924596 </i>
    <i name="e_0_energy">   -186.70080546 </i>
   </energy>
  </scstep>
  <scstep>
   <time name="dav">   16.55   16.59</time>
   <time name="total">   17.08   17.13</time>
   <energy>
    <i name="e_fr_energy">   -186.87273134 </i>
    <i name="e_wo_entrp">   -186.52960279 </i>
    <i name="e_0_energy">   -186.70116706 </i>
   </energy>
  </scstep>
  <scstep>
   <time name="dav">   19.09   19.13</time>
   <time name="total">   19.62   19.67</time>
   <energy>
    <i name="e_fr_energy">   -186.87296441 </i>
    <i name="e_wo_entrp">   -186.52983919 </i>
    <i name="e_0_energy">   -186.70140180 </i>
   </energy>
  </scstep>
  <scstep>
   <time name="dav">   19.71   19.76</time>
   <time name="total">   19.75   19.80</time>
   <energy>
    <i name="alphaZ">     81.65567618 </i>
    <i name="ewald">  41890.25211670 </i>
    <i name="hartreedc"> -47833.02011059 </i>
    <i name="XCdc">   -231.60492870 </i>
    <i name="pawpsdc">   4192.11681990 </i>
    <i name="pawaedc">  -3610.12974173 </i>
    <i name="eentropy">     -0.34311399 </i>
    <i name="bandstr">  -1437.24229381 </i>
    <i name="atom">   6761.44252427 </i>
    <i name="e_fr_energy">   -186.87305175 </i>
    <i name="e_wo_entrp">   -186.52993777 </i>
    <i name="e_0_energy">   -186.70149476 </i>
   </energy>
  </scstep>
  <structure>
   <crystal>
    <varray name="basis" >
     <v>       8.66999996       5.03999989       0.00000000 </v>
     <v>      -8.66999982       5.04000013       0.00000000 </v>
     <v>       0.00000000       0.00000000      30.00000000 </v>
    </varray>
    <i name="volume">   2621.80797419 </i>
    <varray name="rec_basis" >
     <v>       0.05767013       0.09920635       0.00000000 </v>
     <v>      -0.05767013       0.09920635       0.00000000 </v>
     <v>       0.00000000       0.00000000       0.03333333 </v>
    </varray>
   </crystal>
   <varray name="positions" >
    <v>       0.66666669       0.33333334       0.00000000 </v>
    <v>       0.33333334       0.33333334       0.00000000 </v>
    <v>       0.33333334       0.66666669       0.00000000 </v>
    <v>       0.00000000       0.00000000       0.00000000 </v>
    <v>       0.33333334       0.00000000       0.00000000 </v>
    <v>       1.00000000       0.33333334       0.00000000 </v>
    <v>       0.00000000       0.66666669       0.00000000 </v>
    <v>       0.66666669       0.00000000       0.00000000 </v>
    <v>       0.66666669       0.66666669       0.00000000 </v>
    <v>       0.11068511       0.22244981       0.95539999 </v>
    <v>       0.22244981       0.11068511       0.04460000 </v>
    <v>       0.11068511       0.55578315       0.95539999 </v>
    <v>       0.22244981       0.44401845       0.04460000 </v>
    <v>       0.11068511       0.88911647       0.95539999 </v>
    <v>       0.22244981       0.77735180       0.04460000 </v>
    <v>       0.44401845       0.22244981       0.95539999 </v>
    <v>       0.55578315       0.11068511       0.04460000 </v>
    <v>       0.44401845       0.55578315       0.95539999 </v>
    <v>       0.55578315       0.44401845       0.04460000 </v>
    <v>       0.44401845       0.88911647       0.95539999 </v>
    <v>       0.55578315       0.77735180       0.04460000 </v>
    <v>       0.77735180       0.22244981       0.95539999 </v>
    <v>       0.88911647       0.11068511       0.04460000 </v>
    <v>       0.77735180       0.55578315       0.95539999 </v>
    <v>       0.88911647       0.44401845       0.04460000 </v>
    <v>       0.77735180       0.88911647       0.95539999 </v>
    <v>       0.88911647       0.77735180       0.04460000 </v>
   </varray>
  </structure>
  <varray name="forces" >
   <v>       0.12963145      -0.15098696      -0.08653556 </v>
   <v>       0.00001890      -0.39226661       0.00000014 </v>
   <v>      -0.12962131      -0.15097488       0.08653884 </v>
   <v>      -0.00000186       0.27950837      -0.00000690 </v>
   <v>      -0.29512229      -0.10474218      -0.06292189 </v>
   <v>       0.29510538      -0.10477771       0.06290373 </v>
   <v>       0.05332539       0.29989366       0.14435760 </v>
   <v>      -0.05335234       0.29993620      -0.14436283 </v>
   <v>       0.00002184       0.13813162       0.00000355 </v>
   <v>       0.52171629       0.68889021      -2.18211212 </v>
   <v>      -0.52169339       0.68887568       2.18209499 </v>
   <v>       0.37636535       0.68198982      -2.14875737 </v>
   <v>       0.31067224       0.67605105       1.43048576 </v>
   <v>       0.18535129      -0.14512048      -2.89170509 </v>
   <v>       0.68240237      -0.17711818       2.15913093 </v>
   <v>      -0.31064322       0.67606342      -1.43046303 </v>
   <v>      -0.37639118       0.68201141       2.14874000 </v>
   <v>      -0.23606793      -0.51653498      -1.39148142 </v>
   <v>       0.23609631      -0.51652484       1.39147176 </v>
   <v>       0.61966683      -0.53534300      -2.09868357 </v>
   <v>      -0.47067625      -0.61040974       2.17286197 </v>
   <v>      -0.68246267      -0.17712100      -2.15914084 </v>
   <v>      -0.18533085      -0.14514409       2.89173169 </v>
   <v>       0.47069299      -0.61041689      -2.17285376 </v>
   <v>      -0.61971473      -0.53535538       2.09869326 </v>
   <v>       0.04017340      -0.11925432      -2.91047492 </v>
   <v>      -0.04016200      -0.11926020       2.91048506 </v>
  </varray>
  <varray name="stress" >
   <v>       7.29640699       0.00001433      -1.60738166 </v>
   <v>       0.00001433       4.45932618      -0.00001670 </v>
   <v>      -1.60738179      -0.00001670      30.28507104 </v>
  </varray>
  <energy>
   <i name="e_fr_energy">   -186.87305175 </i>
   <i name="e_wo_entrp">   -186.70149476 </i>
   <i name="e_0_energy">     -0.34311399 </i>
  </energy>
  <time name="totalsc">  776.96  779.00</time>
 </calculation>
 <calculation>
  <scstep>
   <time name="dav">   21.76   21.81</time>
   <time name="total">   22.30   22.35</time>
   <energy>
    <i name="alphaZ">     78.92103325 </i>
    <i name="ewald">  39380.07781244 </i>
    <i name="hartreedc"> -45337.56430001 </i>
    <i name="XCdc">   -239.05991549 </i>
    <i name="pawpsdc">   4192.09694478 </i>
    <i name="pawaedc">  -3610.11002519 </i>
    <i name="eentropy">     -0.28489557 </i>
    <i name="bandstr">  -1413.01285026 </i>
    <i name="atom">   6761.44252427 </i>
    <i name="e_fr_energy">   -187.49367178 </i>
    <i name="e_wo_entrp">   -187.20877621 </i>
    <i name="e_0_energy">   -187.35122399 </i>
   </energy>
  </scstep>
  <scstep>
   <time name="dav">   30.31   30.38</time>
   <time name="total">   30.85   30.93</time>
   <energy>
    <i name="e_fr_energy">   -189.29943392 </i>
    <i name="e_wo_entrp">   -188.97755333 </i>
    <i name="e_0_energy">   -189.13849363 </i>
   </energy>
  </scstep>
  <scstep>
   <time name="dav">   30.43   30.50</time>
   <time name="total">   30.98   31.06</time>
   <energy>
    <i name="e_fr_energy">   -189.41409966 </i>
    <i name="e_wo_entrp">   -189.13694713 </i>
    <i name="e_0_energy">   -189.27552339 </i>
   </energy>
  </scstep>
  <scstep>
   <time name="dav">   29.94   30.01</time>
   <time name="total">   30.48   30.56</time>
   <energy>
    <i name="e_fr_energy">   -188.76187248 </i>
    <i name="e_wo_entrp">   -188.47843667 </i>
    <i name="e_0_energy">   -188.62015457 </i>
   </energy>
  </scstep>
  <scstep>
   <time name="dav">   28.09   28.15</time>
   <time name="total">   28.63   28.70</time>
   <energy>
    <i name="e_fr_energy">   -188.87573061 </i>
    <i name="e_wo_entrp">   -188.58383725 </i>
    <i name="e_0_energy">   -188.72978393 </i>
   </energy>
  </scstep>
  <scstep>
   <time name="dav">   31.03   31.10</time>
   <time name="total">   31.57   31.65</time>
   <energy>
    <i name="e_fr_energy">   -188.74499724 </i>
    <i name="e_wo_entrp">   -188.45961223 </i>
    <i name="e_0_energy">   -188.60230474 </i>
   </energy>
  </scstep>
  <scstep>
   <time name="dav">   28.50   28.57</time>
   <time name="total">   29.04   29.12</time>
   <energy>
    <i name="e_fr_energy">   -188.68160025 </i>
    <i name="e_wo_entrp">   -188.39733852 </i>
    <i name="e_0_energy">   -188.53946938 </i>
   </energy>
  </scstep>
  <scstep>
   <time name="dav">   28.67   28.74</time>
   <time name="total">   29.21   29.29</time>
   <energy>
    <i name="e_fr_energy">   -188.66583684 </i>
    <i name="e_wo_entrp">   -188.38255933 </i>
    <i name="e_0_energy">   -188.52419808 </i>
   </energy>
  </scstep>
  <scstep>
   <time name="dav">   30.30   30.38</time>
   <time name="total">   30.85   30.93</time>
   <energy>
    <i name="e_fr_energy">   -188.66102638 </i>
    <i name="e_wo_entrp">   -188.37832331 </i>
    <i name="e_0_energy">   -188.51967485 </i>
   </energy>
  </scstep>
  <scstep>
   <time name="dav">   31.62   31.69</time>
   <time name="total">   32.16   32.25</time>
   <energy>
    <i name="e_fr_energy">   -188.66033537 </i>
    <i name="e_wo_entrp">   -188.37781330 </i>
    <i name="e_0_energy">   -188.51907433 </i>
   </energy>
  </scstep>
  <scstep>
   <time name="dav">   30.61   30.69</time>
   <time name="total">   31.15   31.24</time>
   <energy>
    <i name="e_fr_energy">   -188.66016741 </i>
    <i name="e_wo_entrp">   -188.37845910 </i>
    <i name="e_0_energy">   -188.51931326 </i>
   </energy>
  </scstep>
  <scstep>
   <time name="dav">   29.70   29.77</time>
   <time name="total">   30.24   30.32</time>
   <energy>
    <i name="e_fr_energy">   -188.66045851 </i>
    <i name="e_wo_entrp">   -188.37864653 </i>
    <i name="e_0_energy">   -188.51955252 </i>
   </energy>
  </scstep>
  <scstep>
   <time name="dav">   25.50   25.56</time>
   <time name="total">   26.04   26.11</time>
   <energy>
    <i name="e_fr_energy">   -188.66014998 </i>
    <i name="e_wo_entrp">   -188.37812301 </i>
    <i name="e_0_energy">   -188.51913649 </i>
   </energy>
  </scstep>
  <scstep>
   <time name="dav">   20.15   20.20</time>
   <time name="total">   20.70   20.75</time>
   <energy>
    <i name="e_fr_energy">   -188.66027117 </i>
    <i name="e_wo_entrp">   -188.37824176 </i>
    <i name="e_0_energy">   -188.51925647 </i>
   </energy>
  </scstep>
  <scstep>
   <time name="dav">   20.52   20.57</time>
   <time name="total">   20.56   20.61</time>
   <energy>
    <i name="alphaZ">     78.92103325 </i>
    <i name="ewald">  39380.07781244 </i>
    <i name="hartreedc"> -45347.87454912 </i>
    <i name="XCdc">   -237.97995845 </i>
    <i name="pawpsdc">   3949.17047462 </i>
    <i name="pawaedc">  -3363.66912795 </i>
    <i name="eentropy">     -0.28207352 </i>
    <i name="bandstr">  -1408.46650026 </i>
    <i name="atom">   6761.44252427 </i>
    <i name="e_fr_energy">   -188.66036472 </i>
    <i name="e_wo_entrp">   -188.37829120 </i>
    <i name="e_0_energy">   -188.51932796 </i>
   </energy>
  </scstep>
  <structure>
   <crystal>
    <varray name="basis" >
     <v>       8.85496361       5.10571419       0.00000000 </v>
     <v>      -8.85496304       5.10571371       0.00000000 </v>
     <v>       0.00000000       0.00000000      30.00000000 </v>
    </varray>
    <i name="volume">   2712.65458787 </i>
    <varray name="rec_basis" >
     <v>       0.05646551       0.09792949       0.00000000 </v>
     <v>      -0.05646551       0.09792950       0.00000000 </v>
     <v>       0.00000000       0.00000000       0.03333333 </v>
    </varray>
   </crystal>
   <varray name="positions" >
    <v>       0.66630472       0.33225007      -0.00013916 </v>
    <v>       0.33145602       0.33145591       0.00000000 </v>
    <v>       0.33225015       0.66630475       0.00013916 </v>
    <v>       0.00133772       0.00133773      -0.00000001 </v>
    <v>       0.33201097       0.00031978      -0.00010118 </v>
    <v>       1.00031957       0.33201085       0.00010115 </v>
    <v>       0.00158364       0.66795361       0.00023214 </v>
    <v>       0.66795374       0.00158392      -0.00023215 </v>
    <v>       0.66732784       0.66732772       0.00000001 </v>
    <v>       0.11543362       0.22429532       0.95189096 </v>
    <v>       0.22429532       0.11543349       0.04810900 </v>
    <v>       0.11499621       0.55800003       0.95194460 </v>
    <v>       0.22654971       0.44638968       0.04690035 </v>
    <v>       0.11050624       0.88790625       0.95074987 </v>
    <v>       0.22350068       0.77460556       0.04807207 </v>
    <v>       0.44638982       0.22654969       0.95309968 </v>
    <v>       0.55800006       0.11499638       0.04805536 </v>
    <v>       0.44088955       0.55396781       0.95316236 </v>
    <v>       0.55396793       0.44088952       0.04683761 </v>
    <v>       0.44318033       0.88483031       0.95202512 </v>
    <v>       0.55155225       0.77573989       0.04809415 </v>
    <v>       0.77460538       0.22350083       0.95192790 </v>
    <v>       0.88790619       0.11050607       0.04925016 </v>
    <v>       0.77573990       0.55155217       0.95190585 </v>
    <v>       0.88483012       0.44318040       0.04797488 </v>
    <v>       0.77689282       0.88843395       0.95071969 </v>
    <v>       0.88843395       0.77689276       0.04928032 </v>
   </varray>
  </structure>
  <varray name="forces" >
   <v>       0.17132296      -0.12841006       0.04587656 </v>
   <v>       0.00006837      -0.38637163      -0.00003956 </v>
   <v>      -0.17138356      -0.12825420      -0.04593545 </v>
   <v>       0.00027116       0.08630104      -0.00000794 </v>
   <v>      -0.25135633      -0.29123863      -0.07184871 </v>
   <v>       0.25136631      -0.29089943       0.07188196 </v>
   <v>      -0.09283523       0.35075797       0.04051846 </v>
   <v>       0.09273854       0.35033999      -0.04051502 </v>
   <v>      -0.00003411       0.35917438      -0.00006657 </v>
   <v>       0.03377122       0.09315604      -0.15338244 </v>
   <v>      -0.03377104       0.09307362       0.15349246 </v>
   <v>      -0.09584231       0.04662768       0.09009707 </v>
   <v>       0.02512797       0.04081421      -0.02991315 </v>
   <v>       0.04887733      -0.12338023      -0.13908459 </v>
   <v>      -0.01027067      -0.10668693       0.11990656 </v>
   <v>      -0.02528919       0.04043564       0.02939072 </v>
   <v>       0.09602769       0.04618991      -0.08976967 </v>
   <v>       0.06501877       0.07442745       0.21856640 </v>
   <v>      -0.06564959       0.07434376      -0.21800126 </v>
   <v>       0.08698112       0.04782056       0.12391303 </v>
   <v>       0.04252340       0.05098350      -0.13532290 </v>
   <v>       0.01061902      -0.10673663      -0.12024592 </v>
   <v>      -0.04880520      -0.12342853       0.13907316 </v>
   <v>      -0.04264210       0.05140482       0.13497249 </v>
   <v>      -0.08685353       0.04823133      -0.12357545 </v>
   <v>      -0.07353413      -0.08434798      -0.04490282 </v>
   <v>       0.07355313      -0.08432766       0.04492260 </v>
  </varray>
  <varray name="stress" >
   <v>     -19.83685624      -0.00040434      -0.01520989 </v>
   <v>      -0.00040424     -19.43753993      -0.00010159 </v>
   <v>      -0.01520990      -0.00010173      -1.63858536 </v>
  </varray>
  <energy>
   <i name="e_fr_energy">   -188.66036472 </i>
   <i name="e_wo_entrp">   -188.51932796 </i>
   <i name="e_0_energy">     -0.28207352 </i>
  </energy>
  <time name="totalsc">  467.28  468.50</time>
 </calculation>
 <calculation>
  <scstep>
   <time name="dav">   23.83   23.89</time>
   <time name="total">   24.37   24.43</time>
   <energy>
    <i name="alphaZ">     82.34026284 </i>
    <i name="ewald">  41299.83400671 </i>
    <i name="hartreedc"> -47298.22694148 </i>
    <i name="XCdc">   -233.86442910 </i>
    <i name="pawpsdc">   3949.21172770 </i>
    <i name="pawaedc">  -3363.71171882 </i>
    <i name="eentropy">     -0.23574459 </i>
    <i name="bandstr">  -1387.36208368 </i>
    <i name="atom">   6761.44252427 </i>
    <i name="e_fr_energy">   -190.57239614 </i>
    <i name="e_wo_entrp">   -190.33665155 </i>
    <i name="e_0_energy">   -190.45452385 </i>
   </energy>
  </scstep>
  <scstep>
   <time name="dav">   28.71   28.78</time>
   <time name="total">   29.23   29.31</time>
   <energy>
    <i name="e_fr_energy">   -190.56833146 </i>
    <i name="e_wo_entrp">   -190.33003924 </i>
    <i name="e_0_energy">   -190.44918535 </i>
   </energy>
  </scstep>
  <scstep>
   <time name="dav">   30.26   30.33</time>
   <time name="total">   30.79   30.87</time>
   <energy>
    <i name="e_fr_energy">   -190.04970068 </i>
    <i name="e_wo_entrp">   -189.79971445 </i>
    <i name="e_0_energy">   -189.92470757 </i>
   </energy>
  </scstep>
  <scstep>
   <time name="dav">   31.15   31.23</time>
   <time name="total">   31.69   31.77</time>
   <energy>
    <i name="e_fr_energy">   -189.85264268 </i>
    <i name="e_wo_entrp">   -189.61683523 </i>
    <i name="e_0_energy">   -189.73473896 </i>
   </energy>
  </scstep>
  <scstep>
   <time name="dav">   30.34   30.41</time>
   <time name="total">   30.86   30.94</time>
   <energy>
    <i name="e_fr_energy">   -189.89859489 </i>
    <i name="e_wo_entrp">   -189.65347853 </i>
    <i name="e_0_energy">   -189.77603671 </i>
   </energy>
  </scstep>
  <scstep>
   <time name="dav">   30.28   30.35</time>
   <time name="total">   30.81   30.89</time>
   <energy>
    <i name="e_fr_energy">   -189.74574337 </i>
    <i name="e_wo_entrp">   -189.50749659 </i>
    <i name="e_0_energy">   -189.62661998 </i>
   </energy>
  </scstep>
  <scstep>
   <time name="dav">   29.29   29.36</time>
   <time name="total">   29.82   29.90</time>
   <energy>
    <i name="e_fr_energy">   -189.73985490 </i>
    <i name="e_wo_entrp">   -189.50191561 </i>
    <i name="e_0_energy">   -189.62088526 </i>
   </energy>
  </scstep>
  <scstep>
   <time name="dav">   25.79   25.86</time>
   <time name="total">   26.32   26.40</time>
   <energy>
    <i name="e_fr_energy">   -189.73985894 </i>
    <i name="e_wo_entrp">   -189.50193246 </i>
    <i name="e_0_energy">   -189.62089570 </i>
   </energy>
  </scstep>
  <scstep>
   <time name="dav">   26.95   27.02</time>
   <time name="total">   26.99   27.06</time>
   <energy>
    <i name="alphaZ">     82.34026284 </i>
    <i name="ewald">  41299.83400671 </i>
    <i name="hartreedc"> -47270.85010365 </i>
    <i name="XCdc">   -235.25654010 </i>
    <i name="pawpsdc">   4029.93652014 </i>
    <i name="pawaedc">  -3445.55672102 </i>
    <i name="eentropy">     -0.23807107 </i>
    <i name="bandstr">  -1411.39182801 </i>
    <i name="atom">   6761.44252427 </i>
    <i name="e_fr_energy">   -189.73994988 </i>
    <i name="e_wo_entrp">   -189.50187881 </i>
    <i name="e_0_energy">   -189.62091434 </i>
   </energy>
  </scstep>
  <structure>
   <crystal>
    <varray name="basis" >
     <v>       8.66726925       4.99966682       0.00000000 </v>
     <v>      -8.66727311       4.99967399       0.00000000 </v>
     <v>       0.00000000       0.00000000      30.00000000 </v>
    </varray>
    <i name="volume">   2600.00995309 </i>
    <varray name="rec_basis" >
     <v>       0.05768833       0.10000661       0.00000000 </v>
     <v>      -0.05768824       0.10000657       0.00000000 </v>
     <v>       0.00000000       0.00000000       0.03333333 </v>
    </varray>
   </crystal>
   <varray name="positions" >
    <v>       0.66625528       0.33187095      -0.00011310 </v>
    <v>       0.33081134       0.33081110      -0.00000002 </v>
    <v>       0.33187124       0.66625563       0.00011307 </v>
    <v>       0.00148199       0.00148148      -0.00000002 </v>
    <v>       0.33128313       0.00007564      -0.00014199 </v>
    <v>       1.00007600       0.33128357       0.00014198 </v>
    <v>       0.00207963       0.66862825       0.00025515 </v>
    <v>       0.66862758       0.00207931      -0.00025516 </v>
    <v>       0.66792717       0.66792711      -0.00000003 </v>
    <v>       0.11562156       0.22441828       0.95180384 </v>
    <v>       0.22441814       0.11562129       0.04819618 </v>
    <v>       0.11498180       0.55817006       0.95199577 </v>
    <v>       0.22664200       0.44643361       0.04688336 </v>
    <v>       0.11034739       0.88765333       0.95067087 </v>
    <v>       0.22331277       0.77443741       0.04814018 </v>
    <v>       0.44643296       0.22664150       0.95311637 </v>
    <v>       0.55816954       0.11498106       0.04800437 </v>
    <v>       0.44107631       0.55402945       0.95328651 </v>
    <v>       0.55402883       0.44107674       0.04671378 </v>
    <v>       0.44334381       0.88482642       0.95209550 </v>
    <v>       0.55167824       0.77578405       0.04801729 </v>
    <v>       0.77443748       0.22331250       0.95185960 </v>
    <v>       0.88765327       0.11034707       0.04932915 </v>
    <v>       0.77578465       0.55167898       0.95198251 </v>
    <v>       0.88482704       0.44334445       0.04790469 </v>
    <v>       0.77668131       0.88836395       0.95069418 </v>
    <v>       0.88836400       0.77668127       0.04930583 </v>
   </varray>
  </structure>
  <varray name="forces" >
   <v>       0.21118328      -0.10622568       0.06652789 </v>
   <v>      -0.00130551      -0.38586542      -0.00000062 </v>
   <v>      -0.21071938      -0.10779029      -0.06656667 </v>
   <v>      -0.00089093       0.00820229       0.00005072 </v>
   <v>      -0.21981120      -0.35650434      -0.05029103 </v>
   <v>       0.22080286      -0.35610671       0.05013168 </v>
   <v>      -0.14603205       0.36664267       0.00183386 </v>
   <v>       0.14745460       0.36752768      -0.00187068 </v>
   <v>      -0.00029858       0.42959214       0.00016659 </v>
   <v>       0.06744528       0.15550982      -0.64836034 </v>
   <v>      -0.06827889       0.15545731       0.64857820 </v>
   <v>       0.01877321       0.08361729      -0.38278035 </v>
   <v>       0.06697782       0.09736059       0.41722215 </v>
   <v>       0.00655793      -0.06283338      -0.69349337 </v>
   <v>       0.09632462      -0.01814308       0.64051805 </v>
   <v>      -0.06754241       0.09766693      -0.41721349 </v>
   <v>      -0.01830080       0.08379315       0.38303613 </v>
   <v>      -0.00043000      -0.05357092      -0.22318639 </v>
   <v>       0.00014753      -0.05358262       0.22314321 </v>
   <v>       0.07836533      -0.06970646      -0.35187141 </v>
   <v>      -0.03996339      -0.05382064       0.35769939 </v>
   <v>      -0.09573157      -0.01756596      -0.64049276 </v>
   <v>      -0.00696166      -0.06217564       0.69337593 </v>
   <v>       0.03975086      -0.05352311      -0.35798879 </v>
   <v>      -0.07757336      -0.06948105       0.35220255 </v>
   <v>      -0.03552710      -0.00921767      -0.61219668 </v>
   <v>       0.03558351      -0.00925692       0.61182621 </v>
  </varray>
  <varray name="stress" >
   <v>     -10.22562525       0.00119754      -0.02559090 </v>
   <v>       0.00119759      -9.89348074       0.00014957 </v>
   <v>      -0.02559114       0.00014954       6.57790253 </v>
  </varray>
  <energy>
   <i name="e_fr_energy">   -189.73994988 </i>
   <i name="e_wo_entrp">   -189.62091434 </i>
   <i name="e_0_energy">     -0.23807107 </i>
  </energy>
  <time name="totalsc">  303.31  304.10</time>
 </calculation>
 <calculation>
  <scstep>
   <time name="dav">   21.77   21.82</time>
   <time name="total">   22.28   22.34</time>
   <energy>
    <i name="alphaZ">     85.87334461 </i>
    <i name="ewald">  42858.73692930 </i>
    <i name="hartreedc"> -48875.44840731 </i>
    <i name="XCdc">   -232.91542912 </i>
    <i name="pawpsdc">   4037.62568995 </i>
    <i name="pawaedc">  -3453.32128887 </i>
    <i name="eentropy">     -0.19647516 </i>
    <i name="bandstr">  -1373.11104358 </i>
    <i name="atom">   6761.44252427 </i>
    <i name="e_fr_energy">   -191.31415592 </i>
    <i name="e_wo_entrp">   -191.11768076 </i>
    <i name="e_0_energy">   -191.21591834 </i>
   </energy>
  </scstep>
  <scstep>
   <time name="dav">   32.72   32.80</time>
   <time name="total">   33.24   33.32</time>
   <energy>
    <i name="e_fr_energy">   -191.17861517 </i>
    <i name="e_wo_entrp">   -190.97721312 </i>
    <i name="e_0_energy">   -191.07791415 </i>
   </energy>
  </scstep>
  <scstep>
   <time name="dav">   30.00   30.07</time>
   <time name="total">   30.51   30.59</time>
   <energy>
    <i name="e_fr_energy">   -191.21727358 </i>
    <i name="e_wo_entrp">   -190.99909422 </i>
    <i name="e_0_energy">   -191.10818390 </i>
   </energy>
  </scstep>
  <scstep>
   <time name="dav">   31.67   31.74</time>
   <time name="total">   32.19   32.27</time>
   <energy>
    <i name="e_fr_energy">   -190.81990811 </i>
    <i name="e_wo_entrp">   -190.62082562 </i>
    <i name="e_0_energy">   -190.72036687 </i>
   </energy>
  </scstep>
  <scstep>
   <time name="dav">   27.49   27.56</time>
   <time name="total">   28.01   28.08</time>
   <energy>
    <i name="e_fr_energy">   -190.72793396 </i>
    <i name="e_wo_entrp">   -190.52503657 </i>
    <i name="e_0_energy">   -190.62648526 </i>
   </energy>
  </scstep>
  <scstep>
   <time name="dav">   31.13   31.21</time>
   <time name="total">   31.65   31.73</time>
   <energy>
    <i name="e_fr_energy">   -190.72122326 </i>
    <i name="e_wo_entrp">   -190.51807286 </i>
    <i name="e_0_energy">   -190.61964806 </i>
   </energy>
  </scstep>
  <scstep>
   <time name="dav">   30.30   30.37</time>
   <time name="total">   30.81   30.89</time>
   <energy>
    <i name="e_fr_energy">   -190.70283690 </i>
    <i name="e_wo_entrp">   -190.50063455 </i>
    <i name="e_0_energy">   -190.60173572 </i>
   </energy>
  </scstep>
  <scstep>
   <time name="dav">   25.74   25.80</time>
   <time name="total">   26.26   26.33</time>
   <energy>
    <i name="e_fr_energy">   -190.69890571 </i>
    <i name="e_wo_entrp">   -190.49663933 </i>
    <i name="e_0_energy">   -190.59777252 </i>
   </energy>
  </scstep>
  <scstep>
   <time name="dav">   31.12   31.19</time>
   <time name="total">   31.64   31.72</time>
   <energy>
    <i name="e_fr_energy">   -190.69911486 </i>
    <i name="e_wo_entrp">   -190.49669025 </i>
    <i name="e_0_energy">   -190.59790255 </i>
   </energy>
  </scstep>
  <scstep>
   <time name="dav">   28.47   28.54</time>
   <time name="total">   28.99   29.07</time>
   <energy>
    <i name="e_fr_energy">   -190.69908769 </i>
    <i name="e_wo_entrp">   -190.49661228 </i>
    <i name="e_0_energy">   -190.59784998 </i>
   </energy>
  </scstep>
  <scstep>
   <time name="dav">   26.55   26.61</time>
   <time name="total">   27.06   27.13</time>
   <energy>
    <i name="e_fr_energy">   -190.69880934 </i>
    <i name="e_wo_entrp">   -190.49649167 </i>
    <i name="e_0_energy">   -190.59765051 </i>
   </energy>
  </scstep>
  <scstep>
   <time name="dav">   19.89   19.94</time>
   <time name="total">   19.92   19.98</time>
   <energy>
    <i name="alphaZ">     85.87334461 </i>
    <i name="ewald">  42858.73692930 </i>
    <i name="hartreedc"> -48846.91739751 </i>
    <i name="XCdc">   -234.27643400 </i>
    <i name="pawpsdc">   4063.86322561 </i>
    <i name="pawaedc">  -3479.74043796 </i>
    <i name="eentropy">     -0.20228102 </i>
    <i name="bandstr">  -1399.47828654 </i>
    <i name="atom">   6761.44252427 </i>
    <i name="e_fr_energy">   -190.69881325 </i>
    <i name="e_wo_entrp">   -190.49653223 </i>
    <i name="e_0_energy">   -190.59767274 </i>
   </energy>
  </scstep>
  <structure>
   <crystal>
    <varray name="basis" >
     <v>       8.48242808       4.89851288       0.00000000 </v>
     <v>      -8.48236140       4.89839777       0.00000000 </v>
     <v>       0.00000000       0.00000000      30.00000000 </v>
    </varray>
    <i name="volume">   2493.03790263 </i>
    <varray name="rec_basis" >
     <v>       0.05894493       0.10207259       0.00000000 </v>
     <v>      -0.05894631       0.10207339       0.00000000 </v>
     <v>       0.00000000       0.00000000       0.03333333 </v>
    </varray>
   </crystal>
   <varray name="positions" >
    <v>       0.66646836       0.33043311       0.00004317 </v>
    <v>       0.32837664       0.32838992       0.00000001 </v>
    <v>       0.33042163       0.66645204      -0.00004326 </v>
    <v>       0.00133024       0.00133961       0.00000014 </v>
    <v>       0.32812073      -0.00158241      -0.00022797 </v>
    <v>       0.99842564       0.32811878       0.00022747 </v>
    <v>       0.00381985       0.67158518       0.00022551 </v>
    <v>       0.67160079       0.00382102      -0.00022563 </v>
    <v>       0.67080914       0.67081203       0.00000052 </v>
    <v>       0.11705333       0.22526143       0.95002688 </v>
    <v>       0.22525678       0.11705706       0.04997369 </v>
    <v>       0.11583832       0.55855435       0.95079044 </v>
    <v>       0.22770321       0.44688564       0.04813808 </v>
    <v>       0.11006748       0.88744979       0.94874861 </v>
    <v>       0.22392958       0.77404214       0.04992300 </v>
    <v>       0.44688602       0.22770902       0.95186213 </v>
    <v>       0.55855863       0.11583811       0.04921018 </v>
    <v>       0.44031636       0.55346440       0.95244012 </v>
    <v>       0.55346337       0.44031742       0.04755956 </v>
    <v>       0.44287836       0.88381693       0.95095196 </v>
    <v>       0.55080710       0.77544492       0.04918787 </v>
    <v>       0.77404995       0.22393203       0.95007715 </v>
    <v>       0.88745350       0.11007526       0.05125108 </v>
    <v>       0.77544617       0.55081030       0.95081139 </v>
    <v>       0.88382235       0.44287609       0.04904892 </v>
    <v>       0.77674083       0.88857018       0.94892991 </v>
    <v>       0.88857010       0.77674013       0.05106900 </v>
   </varray>
  </structure>
  <varray name="forces" >
   <v>       0.25299479      -0.09324030       0.07772952 </v>
   <v>       0.00070935      -0.33732257       0.00007306 </v>
   <v>      -0.25321733      -0.09300633      -0.07739145 </v>
   <v>      -0.00019921      -0.11545542      -0.00016726 </v>
   <v>      -0.20923398      -0.42859508       0.00443999 </v>
   <v>       0.20849685      -0.42903121      -0.00471641 </v>
   <v>      -0.22776957       0.41615261      -0.03242984 </v>
   <v>       0.22729518       0.41651881       0.03233267 </v>
   <v>       0.00048363       0.44346552       0.00015453 </v>
   <v>       0.04147486       0.03712272      -0.46219571 </v>
   <v>      -0.04048229       0.03717661       0.46099167 </v>
   <v>       0.02355360      -0.02783450      -0.19940272 </v>
   <v>       0.02809091      -0.00741397       0.31446497 </v>
   <v>      -0.04783271      -0.00029641      -0.54335493 </v>
   <v>       0.02272045       0.01509907       0.49842917 </v>
   <v>      -0.02817076      -0.00795234      -0.31322917 </v>
   <v>      -0.02357482      -0.02848717       0.19871409 </v>
   <v>       0.02485973      -0.00653072      -0.09848725 </v>
   <v>      -0.02512256      -0.00670708       0.09792044 </v>
   <v>       0.00351322       0.01220541      -0.19159928 </v>
   <v>      -0.03998353       0.00859809       0.20958838 </v>
   <v>      -0.02251726       0.01491686      -0.49906411 </v>
   <v>       0.04797858      -0.00082781       0.54482828 </v>
   <v>       0.03946531       0.00868559      -0.20966121 </v>
   <v>      -0.00366620       0.01229389       0.19221819 </v>
   <v>      -0.00981358       0.08021271      -0.49179859 </v>
   <v>       0.00994734       0.08025301       0.49161299 </v>
  </varray>
  <varray name="stress" >
   <v>      -5.74596748      -0.00116914      -0.03900405 </v>
   <v>      -0.00116905      -5.69532538      -0.00081786 </v>
   <v>      -0.03900414      -0.00081764       4.55687682 </v>
  </varray>
  <energy>
   <i name="e_fr_energy">   -190.69881325 </i>
   <i name="e_wo_entrp">   -190.59767274 </i>
   <i name="e_0_energy">     -0.20228102 </i>
  </energy>
  <time name="totalsc">  384.76  385.76</time>
 </calculation>
 <calculation>
  <scstep>
   <time name="dav">   21.74   21.80</time>
   <time name="total">   22.25   22.31</time>
   <energy>
    <i name="alphaZ">     90.18263154 </i>
    <i name="ewald">  44668.40741311 </i>
    <i name="hartreedc"> -50711.51866980 </i>
    <i name="XCdc">   -231.85708626 </i>
    <i name="pawpsdc">   4063.77823019 </i>
    <i name="pawaedc">  -3479.65073913 </i>
    <i name="eentropy">     -0.18355339 </i>
    <i name="bandstr">  -1352.64710410 </i>
    <i name="atom">   6761.44252427 </i>
    <i name="e_fr_energy">   -192.04635356 </i>
    <i name="e_wo_entrp">   -191.86280017 </i>
    <i name="e_0_energy">   -191.95457686 </i>
   </energy>
  </scstep>
  <scstep>
   <time name="dav">   30.15   30.22</time>
   <time name="total">   30.65   30.74</time>
   <energy>
    <i name="e_fr_energy">   -191.77170531 </i>
    <i name="e_wo_entrp">   -191.58167328 </i>
    <i name="e_0_energy">   -191.67668929 </i>
   </energy>
  </scstep>
  <scstep>
   <time name="dav">   30.12   30.19</time>
   <time name="total">   30.62   30.70</time>
   <energy>
    <i name="e_fr_energy">   -191.82730063 </i>
    <i name="e_wo_entrp">   -191.62883917 </i>
    <i name="e_0_energy">   -191.72806990 </i>
   </energy>
  </scstep>
  <scstep>
   <time name="dav">   30.34   30.41</time>
   <time name="total">   30.84   30.92</time>
   <energy>
    <i name="e_fr_energy">   -191.59945597 </i>
    <i name="e_wo_entrp">   -191.41572483 </i>
    <i name="e_0_energy">   -191.50759040 </i>
   </energy>
  </scstep>
  <scstep>
   <time name="dav">   30.53   30.60</time>
   <time name="total">   31.03   31.11</time>
   <energy>
    <i name="e_fr_energy">   -191.36668720 </i>
    <i name="e_wo_entrp">   -191.17451697 </i>
    <i name="e_0_energy">   -191.27060209 </i>
   </energy>
  </scstep>
  <scstep>
   <time name="dav">   28.35   28.42</time>
   <time name="total">   28.85   28.93</time>
   <energy>
    <i name="e_fr_energy">   -191.35857752 </i>
    <i name="e_wo_entrp">   -191.16700847 </i>
    <i name="e_0_energy">   -191.26279299 </i>
   </energy>
  </scstep>
  <scstep>
   <time name="dav">   28.66   28.73</time>
   <time name="total">   29.17   29.24</time>
   <energy>
    <i name="e_fr_energy">   -191.35675879 </i>
    <i name="e_wo_entrp">   -191.16472425 </i>
    <i name="e_0_energy">   -191.26074152 </i>
   </energy>
  </scstep>
  <scstep>
   <time name="dav">   29.85   29.92</time>
   <time name="total">   30.35   30.43</time>
   <energy>
    <i name="e_fr_energy">   -191.35359793 </i>
    <i name="e_wo_entrp">   -191.16185820 </i>
    <i name="e_0_energy">   -191.25772807 </i>
   </energy>
  </scstep>
  <scstep>
   <time name="dav">   27.56   27.62</time>
   <time name="total">   28.06   28.14</time>
   <energy>
    <i name="e_fr_energy">   -191.35373882 </i>
    <i name="e_wo_entrp">   -191.16196955 </i>
    <i name="e_0_energy">   -191.25785418 </i>
   </energy>
  </scstep>
  <scstep>
   <time name="dav">   28.34   28.41</time>
   <time name="total">   28.38   28.45</time>
   <energy>
    <i name="alphaZ">     90.18263154 </i>
    <i name="ewald">  44668.40741311 </i>
    <i name="hartreedc"> -50677.42648156 </i>
    <i name="XCdc">   -233.38609666 </i>
    <i name="pawpsdc">   4082.83562049 </i>
    <i name="pawaedc">  -3498.75779201 </i>
    <i name="eentropy">     -0.19175726 </i>
    <i name="bandstr">  -1384.45979727 </i>
    <i name="atom">   6761.44252427 </i>
    <i name="e_fr_energy">   -191.35373534 </i>
    <i name="e_wo_entrp">   -191.16197808 </i>
    <i name="e_0_energy">   -191.25785671 </i>
   </energy>
  </scstep>
  <structure>
   <crystal>
    <varray name="basis" >
     <v>       8.27544624       4.78107487       0.00000000 </v>
     <v>      -8.27540932       4.78101118       0.00000000 </v>
     <v>       0.00000000       0.00000000      30.00000000 </v>
    </varray>
    <i name="volume">   2373.91057763 </i>
    <varray name="rec_basis" >
     <v>       0.06041943       0.10457946       0.00000000 </v>
     <v>      -0.06042024       0.10457992       0.00000000 </v>
     <v>       0.00000000       0.00000000       0.03333333 </v>
    </varray>
   </crystal>
   <varray name="positions" >
    <v>       0.66717738       0.32754568       0.00036459 </v>
    <v>       0.32420598       0.32421768       0.00000030 </v>
    <v>       0.32752913       0.66715604      -0.00036352 </v>
    <v>      -0.00009310      -0.00007579      -0.00000035 </v>
    <v>       0.32142974      -0.00542568      -0.00021854 </v>
    <v>       0.99457675       0.32142588       0.00021682 </v>
    <v>       0.00722675       0.67820273       0.00007785 </v>
    <v>       0.67822831       0.00723595      -0.00007836 </v>
    <v>       0.67637015       0.67636866       0.00000136 </v>
    <v>       0.11824957       0.22571562       0.94761829 </v>
    <v>       0.22571537       0.11825003       0.05237838 </v>
    <v>       0.11614103       0.55815766       0.94944366 </v>
    <v>       0.22825202       0.44682821       0.04987167 </v>
    <v>       0.10978068       0.88786885       0.94598046 </v>
    <v>       0.22471686       0.77401815       0.05247633 </v>
    <v>       0.44682374       0.22825636       0.95013328 </v>
    <v>       0.55815796       0.11613524       0.05055467 </v>
    <v>       0.43983445       0.55289873       0.95155381 </v>
    <v>       0.55289476       0.43983514       0.04844331 </v>
    <v>       0.44263608       0.88341061       0.94964549 </v>
    <v>       0.55009149       0.77556192       0.05057578 </v>
    <v>       0.77402901       0.22471795       0.94752201 </v>
    <v>       0.88786980       0.10978629       0.05402410 </v>
    <v>       0.77556072       0.55009923       0.94942313 </v>
    <v>       0.88341772       0.44263365       0.05035768 </v>
    <v>       0.77775027       0.88964083       0.94636882 </v>
    <v>       0.88964185       0.77774884       0.05362887 </v>
   </varray>
  </structure>
  <varray name="forces" >
   <v>       0.27667561      -0.12644059       0.00087025 </v>
   <v>       0.00018777      -0.26089283      -0.00011737 </v>
   <v>      -0.27488553      -0.12732843      -0.00077451 </v>
   <v>      -0.00005882      -0.18571814       0.00020192 </v>
   <v>      -0.16873283      -0.34745519       0.02373110 </v>
   <v>       0.16732679      -0.34884060      -0.02306645 </v>
   <v>      -0.29178595       0.37869352       0.00592430 </v>
   <v>       0.29028712       0.38082803      -0.00574122 </v>
   <v>       0.00081006       0.41023995      -0.00027928 </v>
   <v>      -0.00961015      -0.10127334      -0.11553056 </v>
   <v>       0.00936740      -0.10140183       0.11624077 </v>
   <v>      -0.06023835      -0.18026371       0.09757905 </v>
   <v>      -0.03791917      -0.11795465      -0.00947057 </v>
   <v>      -0.11646975       0.04143542      -0.27791849 </v>
   <v>      -0.06340204      -0.00396420       0.17384949 </v>
   <v>       0.03859370      -0.11681151       0.00943217 </v>
   <v>       0.05970655      -0.17885631      -0.09873040 </v>
   <v>       0.04308595       0.08475138       0.17615008 </v>
   <v>      -0.04202179       0.08463728      -0.17614825 </v>
   <v>      -0.08030024       0.17613770       0.15551317 </v>
   <v>      -0.00685439       0.11764304      -0.07165942 </v>
   <v>       0.06207839      -0.00405237      -0.17311284 </v>
   <v>       0.11636833       0.04172286       0.27730945 </v>
   <v>       0.00778858       0.11653621       0.07152622 </v>
   <v>       0.08000372       0.17490892      -0.15616428 </v>
   <v>      -0.02932511       0.09665724      -0.23991660 </v>
   <v>       0.02932416       0.09706215       0.24030224 </v>
  </varray>
  <varray name="stress" >
   <v>      -0.64751772       0.00131634       0.32356462 </v>
   <v>       0.00131631      -0.17821735       0.00118137 </v>
   <v>       0.32356461       0.00118149      -0.44165534 </v>
  </varray>
  <energy>
   <i name="e_fr_energy">   -191.35373534 </i>
   <i name="e_wo_entrp">   -191.25785671 </i>
   <i name="e_0_energy">     -0.19175726 </i>
  </energy>
  <time name="totalsc">  332.43  333.29</time>
 </calculation>
 <calculation>
  <scstep>
   <time name="dav">   21.74   21.80</time>
   <time name="total">   22.25   22.30</time>
   <energy>
    <i name="alphaZ">     90.51398617 </i>
    <i name="ewald">  44799.49692241 </i>
    <i name="hartreedc"> -50812.85834830 </i>
    <i name="XCdc">   -233.24076361 </i>
    <i name="pawpsdc">   4083.26154895 </i>
    <i name="pawaedc">  -3499.18244993 </i>
    <i name="eentropy">     -0.19449266 </i>
    <i name="bandstr">  -1380.70026369 </i>
    <i name="atom">   6761.44252427 </i>
    <i name="e_fr_energy">   -191.46133639 </i>
    <i name="e_wo_entrp">   -191.26684373 </i>
    <i name="e_0_energy">   -191.36409006 </i>
   </energy>
  </scstep>
  <scstep>
   <time name="dav">   30.24   30.31</time>
   <time name="total">   30.75   30.83</time>
   <energy>
    <i name="e_fr_energy">   -191.52958041 </i>
    <i name="e_wo_entrp">   -191.32448688 </i>
    <i name="e_0_energy">   -191.42703364 </i>
   </energy>
  </scstep>
  <scstep>
   <time name="dav">   30.63   30.70</time>
   <time name="total">   31.13   31.21</time>
   <energy>
    <i name="e_fr_energy">   -191.47820665 </i>
    <i name="e_wo_entrp">   -191.28299416 </i>
    <i name="e_0_energy">   -191.38060040 </i>
   </energy>
  </scstep>
  <scstep>
   <time name="dav">   28.46   28.53</time>
   <time name="total">   28.97   29.04</time>
   <energy>
    <i name="e_fr_energy">   -191.47208431 </i>
    <i name="e_wo_entrp">   -191.27580186 </i>
    <i name="e_0_energy">   -191.37394309 </i>
   </energy>
  </scstep>
  <scstep>
   <time name="dav">   30.48   30.55</time>
   <time name="total">   30.98   31.06</time>
   <energy>
    <i name="e_fr_energy">   -191.47237382 </i>
    <i name="e_wo_entrp">   -191.27491383 </i>
    <i name="e_0_energy">   -191.37364382 </i>
   </energy>
  </scstep>
  <scstep>
   <time name="dav">   28.94   29.01</time>
   <time name="total">   29.45   29.52</time>
   <energy>
    <i name="e_fr_energy">   -191.47003748 </i>
    <i name="e_wo_entrp">   -191.27280605 </i>
    <i name="e_0_energy">   -191.37142176 </i>
   </energy>
  </scstep>
  <scstep>
   <time name="dav">   28.35   28.42</time>
   <time name="total">   28.86   28.93</time>
   <energy>
    <i name="e_fr_energy">   -191.46921099 </i>
    <i name="e_wo_entrp">   -191.27177107 </i>
    <i name="e_0_energy">   -191.37049103 </i>
   </energy>
  </scstep>
  <scstep>
   <time name="dav">   23.67   23.73</time>
   <time name="total">   23.71   23.77</time>
   <energy>
    <i name="alphaZ">     90.51398617 </i>
    <i name="ewald">  44799.49692241 </i>
    <i name="hartreedc"> -50811.25468018 </i>
    <i name="XCdc">   -233.33239511 </i>
    <i name="pawpsdc">   4084.51979080 </i>
    <i name="pawaedc">  -3500.43560961 </i>
    <i name="eentropy">     -0.19738342 </i>
    <i name="bandstr">  -1382.22239271 </i>
    <i name="atom">   6761.44252427 </i>
    <i name="e_fr_energy">   -191.46923738 </i>
    <i name="e_wo_entrp">   -191.27185396 </i>
    <i name="e_0_energy">   -191.37054567 </i>
   </energy>
  </scstep>
  <structure>
   <crystal>
    <varray name="basis" >
     <v>       8.25467164       4.77560254       0.00000000 </v>
     <v>      -8.25459865       4.77547633       0.00000000 </v>
     <v>       0.00000000       0.00000000      30.00000000 </v>
    </varray>
    <i name="volume">   2365.22013874 </i>
    <varray name="rec_basis" >
     <v>       0.06057123       0.10469975       0.00000000 </v>
     <v>      -0.06057283       0.10470068       0.00000000 </v>
     <v>       0.00000000       0.00000000       0.03333333 </v>
    </varray>
   </crystal>
   <varray name="positions" >
    <v>       0.66739353       0.32585806       0.00038125 </v>
    <v>       0.32259503       0.32260574       0.00000011 </v>
    <v>       0.32584189       0.66736123      -0.00037997 </v>
    <v>      -0.00116844      -0.00115024      -0.00000001 </v>
    <v>       0.31870435      -0.00696368      -0.00017726 </v>
    <v>       0.99302670       0.31869721       0.00017663 </v>
    <v>       0.00852330       0.68147924       0.00008075 </v>
    <v>       0.68151244       0.00854918      -0.00008096 </v>
    <v>       0.67886250       0.67885581       0.00000092 </v>
    <v>       0.11773812       0.22522547       0.94728971 </v>
    <v>       0.22522386       0.11773859       0.05270804 </v>
    <v>       0.11500104       0.55735231       0.94953352 </v>
    <v>       0.22753095       0.44631080       0.04994999 </v>
    <v>       0.10962866       0.88848165       0.94535294 </v>
    <v>       0.22454627       0.77419307       0.05291260 </v>
    <v>       0.44631450       0.22753945       0.95005511 </v>
    <v>       0.55735853       0.11500437       0.05046272 </v>
    <v>       0.44039015       0.55318832       0.95180278 </v>
    <v>       0.55318698       0.44038687       0.04819422 </v>
    <v>       0.44331707       0.88458472       0.94983785 </v>
    <v>       0.55065959       0.77621974       0.05053272 </v>
    <v>       0.77419954       0.22455104       0.94708696 </v>
    <v>       0.88848380       0.10963621       0.05465076 </v>
    <v>       0.77621536       0.55065859       0.94946595 </v>
    <v>       0.88458435       0.44330882       0.05016429 </v>
    <v>       0.77823302       0.89030814       0.94581670 </v>
    <v>       0.89031140       0.77823375       0.05418159 </v>
   </varray>
  </structure>
  <varray name="forces" >
   <v>       0.28252576      -0.18183400       0.03747594 </v>
   <v>       0.00593104      -0.29627672       0.00027390 </v>
   <v>      -0.26821007      -0.17878190      -0.03582404 </v>
   <v>       0.00355031      -0.15322125      -0.00076766 </v>
   <v>      -0.22846067      -0.31964715      -0.00188156 </v>
   <v>       0.21593316      -0.33401368       0.00157198 </v>
   <v>      -0.31086525       0.37533589      -0.02340702 </v>
   <v>       0.29454585       0.38586519       0.02323835 </v>
   <v>       0.00621558       0.44471755       0.00027966 </v>
   <v>       0.00245368      -0.07556733      -0.08730188 </v>
   <v>      -0.00238668      -0.07628885       0.08899014 </v>
   <v>      -0.07775111      -0.14844869       0.13493508 </v>
   <v>      -0.03049599      -0.07866942      -0.04248946 </v>
   <v>      -0.10730438       0.03226614      -0.23082239 </v>
   <v>      -0.05347785      -0.00665506       0.16585196 </v>
   <v>       0.03311603      -0.07378662       0.04629854 </v>
   <v>       0.07447763      -0.14257776      -0.13999201 </v>
   <v>       0.03226949       0.07743198       0.24610658 </v>
   <v>      -0.02731906       0.07718226      -0.25146264 </v>
   <v>      -0.04872414       0.15771307       0.21891452 </v>
   <v>      -0.00605246       0.10458132      -0.09773199 </v>
   <v>       0.04761649      -0.00631772      -0.16366820 </v>
   <v>       0.10745685       0.03258010       0.23208268 </v>
   <v>       0.00937983       0.10107530       0.10050866 </v>
   <v>       0.04537044       0.15256473      -0.22282268 </v>
   <v>      -0.01976379       0.06477671      -0.22527962 </v>
   <v>       0.01996933       0.06599591       0.22692316 </v>
  </varray>
  <varray name="stress" >
   <v>       0.32732770       0.00831179       0.28267035 </v>
   <v>       0.00831186       0.58033250       0.00182436 </v>
   <v>       0.28267032       0.00182464      -1.15173344 </v>
  </varray>
  <energy>
   <i name="e_fr_energy">   -191.46923738 </i>
   <i name="e_wo_entrp">   -191.37054567 </i>
   <i name="e_0_energy">     -0.19738342 </i>
  </energy>
  <time name="totalsc">  268.73  269.43</time>
 </calculation>
 <calculation>
  <scstep>
   <time name="dav">   21.69   21.75</time>
   <time name="total">   22.20   22.25</time>
   <energy>
    <i name="alphaZ">     90.33811064 </i>
    <i name="ewald">  44720.14792584 </i>
    <i name="hartreedc"> -50729.87061020 </i>
    <i name="XCdc">   -233.45307911 </i>
    <i name="pawpsdc">   4084.60343710 </i>
    <i name="pawaedc">  -3500.52031874 </i>
    <i name="eentropy">     -0.19761179 </i>
    <i name="bandstr">  -1384.00321687 </i>
    <i name="atom">   6761.44252427 </i>
    <i name="e_fr_energy">   -191.51283886 </i>
    <i name="e_wo_entrp">   -191.31522706 </i>
    <i name="e_0_energy">   -191.41403296 </i>
   </energy>
  </scstep>
  <scstep>
   <time name="dav">   31.17   31.24</time>
   <time name="total">   31.67   31.75</time>
   <energy>
    <i name="e_fr_energy">   -191.53058366 </i>
    <i name="e_wo_entrp">   -191.32683121 </i>
    <i name="e_0_energy">   -191.42870743 </i>
   </energy>
  </scstep>
  <scstep>
   <time name="dav">   30.64   30.72</time>
   <time name="total">   31.15   31.23</time>
   <energy>
    <i name="e_fr_energy">   -191.51416478 </i>
    <i name="e_wo_entrp">   -191.31587397 </i>
    <i name="e_0_energy">   -191.41501938 </i>
   </energy>
  </scstep>
  <scstep>
   <time name="dav">   28.93   29.00</time>
   <time name="total">   29.44   29.52</time>
   <energy>
    <i name="e_fr_energy">   -191.51405219 </i>
    <i name="e_wo_entrp">   -191.31545068 </i>
    <i name="e_0_energy">   -191.41475143 </i>
   </energy>
  </scstep>
  <scstep>
   <time name="dav">   26.94   27.00</time>
   <time name="total">   27.44   27.51</time>
   <energy>
    <i name="e_fr_energy">   -191.51382090 </i>
    <i name="e_wo_entrp">   -191.31474836 </i>
    <i name="e_0_energy">   -191.41428463 </i>
   </energy>
  </scstep>
  <scstep>
   <time name="dav">   25.66   25.72</time>
   <time name="total">   26.17   26.23</time>
   <energy>
    <i name="e_fr_energy">   -191.51338004 </i>
    <i name="e_wo_entrp">   -191.31456452 </i>
    <i name="e_0_energy">   -191.41397228 </i>
   </energy>
  </scstep>
  <scstep>
   <time name="dav">   21.89   21.94</time>
   <time name="total">   21.92   21.98</time>
   <energy>
    <i name="alphaZ">     90.33811064 </i>
    <i name="ewald">  44720.14792584 </i>
    <i name="hartreedc"> -50732.04015570 </i>
    <i name="XCdc">   -233.37487474 </i>
    <i name="pawpsdc">   4084.97009622 </i>
    <i name="pawaedc">  -3500.89183722 </i>
    <i name="eentropy">     -0.19873974 </i>
    <i name="bandstr">  -1381.90634399 </i>
    <i name="atom">   6761.44252427 </i>
    <i name="e_fr_energy">   -191.51329441 </i>
    <i name="e_wo_entrp">   -191.31455467 </i>
    <i name="e_0_energy">   -191.41392454 </i>
   </energy>
  </scstep>
  <structure>
   <crystal>
    <varray name="basis" >
     <v>       8.26159601       4.78101100       0.00000000 </v>
     <v>      -8.26141768       4.78070268       0.00000000 </v>
     <v>       0.00000000       0.00000000      30.00000000 </v>
    </varray>
    <i name="volume">   2369.82488805 </i>
    <varray name="rec_basis" >
     <v>       0.06051970       0.10458263       0.00000000 </v>
     <v>      -0.06052360       0.10458489       0.00000000 </v>
     <v>       0.00000000       0.00000000       0.03333333 </v>
    </varray>
   </crystal>
   <varray name="positions" >
    <v>       0.66732286       0.32508887       0.00040446 </v>
    <v>       0.32198630       0.32197929       0.00000033 </v>
[...]
      <set comment="kpoint 31">
       <r>  -17.5527    1.0000 </r>
       <r>  -17.2568    1.0000 </r>
       <r>  -16.9144    1.0000 </r>
       <r>  -16.7278    1.0000 </r>
       <r>  -16.5209    1.0000 </r>
       <r>  -16.4579    1.0000 </r>
       <r>  -16.3250    1.0000 </r>
       <r>  -16.1802    1.0000 </r>
       <r>  -16.0610    1.0000 </r>
       <r>  -16.0151    1.0000 </r>
       <r>  -15.9551    1.0000 </r>
       <r>  -15.8736    1.0000 </r>
       <r>  -15.7605    1.0000 </r>
       <r>  -15.6959    1.0000 </r>
       <r>  -15.6150    1.0000 </r>
       <r>  -15.4818    1.0000 </r>
       <r>  -15.4118    1.0000 </r>
       <r>  -15.2399    1.0000 </r>
       <r>   -9.7600    1.0000 </r>
       <r>   -9.4737    1.0000 </r>
       <r>   -9.3525    1.0000 </r>
       <r>   -9.0731    1.0000 </r>
       <r>   -8.8502    1.0000 </r>
       <r>   -8.7295    1.0000 </r>
       <r>   -8.5419    1.0000 </r>
       <r>   -8.5023    1.0000 </r>
       <r>   -8.4226    1.0000 </r>
       <r>   -8.3288    1.0000 </r>
       <r>   -8.2675    1.0000 </r>
       <r>   -8.1976    1.0000 </r>
       <r>   -8.1188    1.0000 </r>
       <r>   -8.0564    1.0000 </r>
       <r>   -8.0355    1.0000 </r>
       <r>   -7.8937    1.0000 </r>
       <r>   -7.8251    1.0000 </r>
       <r>   -7.7518    1.0000 </r>
       <r>   -7.6236    1.0000 </r>
       <r>   -7.4030    1.0000 </r>
       <r>   -7.2932    1.0000 </r>
       <r>   -7.2060    1.0000 </r>
       <r>   -7.1446    1.0000 </r>
       <r>   -7.1053    1.0000 </r>
       <r>   -7.0264    1.0000 </r>
       <r>   -6.9018    1.0000 </r>
       <r>   -6.8340    1.0000 </r>
       <r>   -6.7787    1.0000 </r>
       <r>   -6.7303    1.0000 </r>
       <r>   -6.6074    1.0000 </r>
       <r>   -6.5205    1.0000 </r>
       <r>   -6.4881    1.0000 </r>
       <r>   -6.4105    1.0000 </r>
       <r>   -6.3556    1.0000 </r>
       <r>   -6.3017    1.0000 </r>
       <r>   -6.2502    1.0000 </r>
       <r>   -6.1650    1.0000 </r>
       <r>   -6.0578    1.0000 </r>
       <r>   -5.9692    1.0000 </r>
       <r>   -5.8990    1.0000 </r>
       <r>   -5.8730    1.0000 </r>
       <r>   -5.8045    1.0000 </r>
       <r>   -5.6953    1.0000 </r>
       <r>   -5.6203    1.0000 </r>
       <r>   -5.4808    1.0000 </r>
       <r>   -5.3468    1.0000 </r>
       <r>   -5.2758    1.0000 </r>
       <r>   -5.1099    1.0000 </r>
       <r>   -5.0746    1.0000 </r>
       <r>   -4.8939    1.0000 </r>
       <r>   -4.8236    1.0000 </r>
       <r>   -4.6721    1.0000 </r>
       <r>   -4.6275    1.0000 </r>
       <r>   -4.5302    1.0000 </r>
       <r>   -4.4005    1.0000 </r>
       <r>   -4.2682    1.0000 </r>
       <r>   -4.1284    1.0000 </r>
       <r>   -4.0218    1.0000 </r>
       <r>   -3.8102    0.9994 </r>
       <r>   -3.7118    0.9944 </r>
       <r>   -3.5455    0.9135 </r>
       <r>   -3.4195    0.6813 </r>
       <r>   -2.9656    0.0031 </r>
       <r>   -2.8892    0.0005 </r>
       <r>   -2.7261    0.0000 </r>
       <r>   -2.5925    0.0000 </r>
       <r>   -2.5169    0.0000 </r>
       <r>   -2.4107    0.0000 </r>
       <r>   -2.2906    0.0000 </r>
       <r>   -2.1956    0.0000 </r>
       <r>   -2.1448    0.0000 </r>
       <r>   -1.9335    0.0000 </r>
       <r>   -1.7609    0.0000 </r>
       <r>   -1.6352    0.0000 </r>
       <r>   -1.4277    0.0000 </r>
       <r>   -1.3250    0.0000 </r>
       <r>   -1.2415    0.0000 </r>
       <r>   -1.1804    0.0000 </r>
       <r>   -1.0846    0.0000 </r>
       <r>   -1.0328    0.0000 </r>
       <r>   -0.9549    0.0000 </r>
       <r>   -0.8870    0.0000 </r>
       <r>   -0.7857    0.0000 </r>
       <r>   -0.7349    0.0000 </r>
       <r>   -0.6784    0.0000 </r>
       <r>   -0.5898    0.0000 </r>
       <r>   -0.4640    0.0000 </r>
       <r>   -0.4021    0.0000 </r>
       <r>   -0.1839    0.0000 </r>
       <r>   -0.1191    0.0000 </r>
       <r>   -0.0423    0.0000 </r>
       <r>    0.2667    0.0000 </r>
       <r>    0.3911    0.0000 </r>
       <r>    0.5500    0.0000 </r>
       <r>    0.6709    0.0000 </r>
       <r>    0.8996    0.0000 </r>
       <r>    1.0305    0.0000 </r>
       <r>    1.2663    0.0000 </r>
       <r>    1.5333    0.0000 </r>
       <r>    2.1285    0.0000 </r>
       <r>    2.3041    0.0000 </r>
       <r>    2.3858    0.0000 </r>
      </set>
      <set comment="kpoint 32">
       <r>  -17.5505    1.0000 </r>
       <r>  -17.2180    1.0000 </r>
       <r>  -17.0080    1.0000 </r>
       <r>  -16.7257    1.0000 </r>
       <r>  -16.4808    1.0000 </r>
       <r>  -16.3868    1.0000 </r>
       <r>  -16.3025    1.0000 </r>
       <r>  -16.2265    1.0000 </r>
       <r>  -16.1156    1.0000 </r>
       <r>  -16.0541    1.0000 </r>
       <r>  -15.9346    1.0000 </r>
       <r>  -15.8520    1.0000 </r>
       <r>  -15.7665    1.0000 </r>
       <r>  -15.6830    1.0000 </r>
       <r>  -15.6014    1.0000 </r>
       <r>  -15.4911    1.0000 </r>
       <r>  -15.4016    1.0000 </r>
       <r>  -15.2440    1.0000 </r>
       <r>   -9.6917    1.0000 </r>
       <r>   -9.5832    1.0000 </r>
       <r>   -9.4379    1.0000 </r>
       <r>   -9.0197    1.0000 </r>
       <r>   -8.7093    1.0000 </r>
       <r>   -8.6809    1.0000 </r>
       <r>   -8.5506    1.0000 </r>
       <r>   -8.4477    1.0000 </r>
       <r>   -8.4342    1.0000 </r>
       <r>   -8.3442    1.0000 </r>
       <r>   -8.2795    1.0000 </r>
       <r>   -8.2445    1.0000 </r>
       <r>   -8.1377    1.0000 </r>
       <r>   -8.1053    1.0000 </r>
       <r>   -8.0291    1.0000 </r>
       <r>   -7.9399    1.0000 </r>
       <r>   -7.8321    1.0000 </r>
       <r>   -7.7902    1.0000 </r>
       <r>   -7.5823    1.0000 </r>
       <r>   -7.4070    1.0000 </r>
       <r>   -7.3107    1.0000 </r>
       <r>   -7.2522    1.0000 </r>
       <r>   -7.1947    1.0000 </r>
       <r>   -7.0949    1.0000 </r>
       <r>   -7.0033    1.0000 </r>
       <r>   -6.9075    1.0000 </r>
       <r>   -6.8524    1.0000 </r>
       <r>   -6.7487    1.0000 </r>
       <r>   -6.7012    1.0000 </r>
       <r>   -6.5807    1.0000 </r>
       <r>   -6.5327    1.0000 </r>
       <r>   -6.4693    1.0000 </r>
       <r>   -6.4171    1.0000 </r>
       <r>   -6.3585    1.0000 </r>
       <r>   -6.2857    1.0000 </r>
       <r>   -6.2331    1.0000 </r>
       <r>   -6.1164    1.0000 </r>
       <r>   -6.0470    1.0000 </r>
       <r>   -5.9665    1.0000 </r>
       <r>   -5.9102    1.0000 </r>
       <r>   -5.8556    1.0000 </r>
       <r>   -5.7051    1.0000 </r>
       <r>   -5.6867    1.0000 </r>
       <r>   -5.5663    1.0000 </r>
       <r>   -5.4871    1.0000 </r>
       <r>   -5.4119    1.0000 </r>
       <r>   -5.2528    1.0000 </r>
       <r>   -5.1942    1.0000 </r>
       <r>   -5.0648    1.0000 </r>
       <r>   -4.9665    1.0000 </r>
       <r>   -4.8337    1.0000 </r>
       <r>   -4.6986    1.0000 </r>
       <r>   -4.6078    1.0000 </r>
       <r>   -4.4907    1.0000 </r>
       <r>   -4.3932    1.0000 </r>
       <r>   -4.3663    1.0000 </r>
       <r>   -4.1263    1.0000 </r>
       <r>   -4.0373    1.0000 </r>
       <r>   -3.8283    0.9996 </r>
       <r>   -3.6265    0.9735 </r>
       <r>   -3.5147    0.8738 </r>
       <r>   -3.3369    0.4553 </r>
       <r>   -3.0516    0.0166 </r>
       <r>   -2.9123    0.0009 </r>
       <r>   -2.7693    0.0000 </r>
       <r>   -2.5942    0.0000 </r>
       <r>   -2.5289    0.0000 </r>
       <r>   -2.4402    0.0000 </r>
       <r>   -2.2632    0.0000 </r>
       <r>   -2.1934    0.0000 </r>
       <r>   -2.1309    0.0000 </r>
       <r>   -1.9468    0.0000 </r>
       <r>   -1.7907    0.0000 </r>
       <r>   -1.6476    0.0000 </r>
       <r>   -1.4064    0.0000 </r>
       <r>   -1.2999    0.0000 </r>
       <r>   -1.1946    0.0000 </r>
       <r>   -1.1490    0.0000 </r>
       <r>   -1.0536    0.0000 </r>
       <r>   -0.9874    0.0000 </r>
       <r>   -0.9582    0.0000 </r>
       <r>   -0.9112    0.0000 </r>
       <r>   -0.8159    0.0000 </r>
       <r>   -0.7364    0.0000 </r>
       <r>   -0.6755    0.0000 </r>
       <r>   -0.5745    0.0000 </r>
       <r>   -0.5190    0.0000 </r>
       <r>   -0.4004    0.0000 </r>
       <r>   -0.2674    0.0000 </r>
       <r>   -0.0835    0.0000 </r>
       <r>    0.0454    0.0000 </r>
       <r>    0.2719    0.0000 </r>
       <r>    0.4006    0.0000 </r>
       <r>    0.4974    0.0000 </r>
       <r>    0.6757    0.0000 </r>
       <r>    0.8748    0.0000 </r>
       <r>    1.0325    0.0000 </r>
       <r>    1.2648    0.0000 </r>
       <r>    1.5276    0.0000 </r>
       <r>    2.1046    0.0000 </r>
       <r>    2.2692    0.0000 </r>
       <r>    2.5685    0.0000 </r>
      </set>
      <set comment="kpoint 33">
       <r>  -17.5205    1.0000 </r>
       <r>  -17.3091    1.0000 </r>
       <r>  -16.8956    1.0000 </r>
       <r>  -16.7231    1.0000 </r>
       <r>  -16.5056    1.0000 </r>
       <r>  -16.4570    1.0000 </r>
       <r>  -16.3413    1.0000 </r>
       <r>  -16.1862    1.0000 </r>
       <r>  -16.1501    1.0000 </r>
       <r>  -16.0345    1.0000 </r>
       <r>  -15.8830    1.0000 </r>
       <r>  -15.8134    1.0000 </r>
       <r>  -15.7701    1.0000 </r>
       <r>  -15.6842    1.0000 </r>
       <r>  -15.6052    1.0000 </r>
       <r>  -15.5062    1.0000 </r>
       <r>  -15.4042    1.0000 </r>
       <r>  -15.2515    1.0000 </r>
       <r>   -9.7641    1.0000 </r>
       <r>   -9.4729    1.0000 </r>
       <r>   -9.4114    1.0000 </r>
       <r>   -8.9709    1.0000 </r>
       <r>   -8.8021    1.0000 </r>
       <r>   -8.7580    1.0000 </r>
       <r>   -8.6489    1.0000 </r>
       <r>   -8.6120    1.0000 </r>
       <r>   -8.3778    1.0000 </r>
       <r>   -8.2863    1.0000 </r>
       <r>   -8.2358    1.0000 </r>
       <r>   -8.1639    1.0000 </r>
       <r>   -8.0964    1.0000 </r>
       <r>   -8.0776    1.0000 </r>
       <r>   -7.9667    1.0000 </r>
       <r>   -7.9110    1.0000 </r>
       <r>   -7.8584    1.0000 </r>
       <r>   -7.7823    1.0000 </r>
       <r>   -7.5152    1.0000 </r>
       <r>   -7.4816    1.0000 </r>
       <r>   -7.3935    1.0000 </r>
       <r>   -7.3360    1.0000 </r>
       <r>   -7.1419    1.0000 </r>
       <r>   -7.0613    1.0000 </r>
       <r>   -6.9695    1.0000 </r>
       <r>   -6.9032    1.0000 </r>
       <r>   -6.8664    1.0000 </r>
       <r>   -6.7747    1.0000 </r>
       <r>   -6.6651    1.0000 </r>
       <r>   -6.6047    1.0000 </r>
       <r>   -6.5500    1.0000 </r>
       <r>   -6.4641    1.0000 </r>
       <r>   -6.4257    1.0000 </r>
       <r>   -6.3380    1.0000 </r>
       <r>   -6.2820    1.0000 </r>
       <r>   -6.1385    1.0000 </r>
       <r>   -6.0832    1.0000 </r>
       <r>   -6.0408    1.0000 </r>
       <r>   -5.9554    1.0000 </r>
       <r>   -5.9385    1.0000 </r>
       <r>   -5.8841    1.0000 </r>
       <r>   -5.7619    1.0000 </r>
       <r>   -5.6576    1.0000 </r>
       <r>   -5.6111    1.0000 </r>
       <r>   -5.5271    1.0000 </r>
       <r>   -5.4164    1.0000 </r>
       <r>   -5.3061    1.0000 </r>
       <r>   -5.1869    1.0000 </r>
       <r>   -5.0909    1.0000 </r>
       <r>   -4.8620    1.0000 </r>
       <r>   -4.7582    1.0000 </r>
       <r>   -4.7074    1.0000 </r>
       <r>   -4.6002    1.0000 </r>
       <r>   -4.4454    1.0000 </r>
       <r>   -4.4225    1.0000 </r>
       <r>   -4.3724    1.0000 </r>
       <r>   -4.1646    1.0000 </r>
       <r>   -4.0525    1.0000 </r>
       <r>   -3.9058    1.0000 </r>
       <r>   -3.5597    0.9282 </r>
       <r>   -3.4598    0.7753 </r>
       <r>   -3.3142    0.3925 </r>
       <r>   -3.0884    0.0308 </r>
       <r>   -2.9449    0.0020 </r>
       <r>   -2.8453    0.0002 </r>
       <r>   -2.5918    0.0000 </r>
       <r>   -2.5448    0.0000 </r>
       <r>   -2.4738    0.0000 </r>
       <r>   -2.2324    0.0000 </r>
       <r>   -2.1831    0.0000 </r>
       <r>   -2.1304    0.0000 </r>
       <r>   -1.9111    0.0000 </r>
       <r>   -1.8155    0.0000 </r>
       <r>   -1.6392    0.0000 </r>
       <r>   -1.3863    0.0000 </r>
       <r>   -1.2952    0.0000 </r>
       <r>   -1.1478    0.0000 </r>
       <r>   -1.1208    0.0000 </r>
       <r>   -1.0495    0.0000 </r>
       <r>   -0.9822    0.0000 </r>
       <r>   -0.9433    0.0000 </r>
       <r>   -0.8824    0.0000 </r>
       <r>   -0.8464    0.0000 </r>
       <r>   -0.7376    0.0000 </r>
       <r>   -0.6724    0.0000 </r>
       <r>   -0.5873    0.0000 </r>
       <r>   -0.5169    0.0000 </r>
       <r>   -0.4776    0.0000 </r>
       <r>   -0.3754    0.0000 </r>
       <r>   -0.0203    0.0000 </r>
       <r>    0.0980    0.0000 </r>
       <r>    0.2351    0.0000 </r>
       <r>    0.4137    0.0000 </r>
       <r>    0.5170    0.0000 </r>
       <r>    0.6827    0.0000 </r>
       <r>    0.8613    0.0000 </r>
       <r>    1.0622    0.0000 </r>
       <r>    1.2602    0.0000 </r>
       <r>    1.5482    0.0000 </r>
       <r>    2.1414    0.0000 </r>
       <r>    2.2989    0.0000 </r>
       <r>    2.4045    0.0000 </r>
      </set>
      <set comment="kpoint 34">
       <r>  -17.4847    1.0000 </r>
       <r>  -17.3781    1.0000 </r>
       <r>  -16.7510    1.0000 </r>
       <r>  -16.7218    1.0000 </r>
       <r>  -16.6445    1.0000 </r>
       <r>  -16.4827    1.0000 </r>
       <r>  -16.3293    1.0000 </r>
       <r>  -16.1804    1.0000 </r>
       <r>  -16.1587    1.0000 </r>
       <r>  -16.0193    1.0000 </r>
       <r>  -15.8511    1.0000 </r>
       <r>  -15.7890    1.0000 </r>
       <r>  -15.7647    1.0000 </r>
       <r>  -15.6860    1.0000 </r>
       <r>  -15.6175    1.0000 </r>
       <r>  -15.5160    1.0000 </r>
       <r>  -15.4106    1.0000 </r>
       <r>  -15.2548    1.0000 </r>
       <r>   -9.8025    1.0000 </r>
       <r>   -9.3943    1.0000 </r>
       <r>   -9.3465    1.0000 </r>
       <r>   -8.9367    1.0000 </r>
       <r>   -8.9073    1.0000 </r>
       <r>   -8.8788    1.0000 </r>
       <r>   -8.6999    1.0000 </r>
       <r>   -8.6307    1.0000 </r>
       <r>   -8.3542    1.0000 </r>
       <r>   -8.2975    1.0000 </r>
       <r>   -8.2212    1.0000 </r>
       <r>   -8.1457    1.0000 </r>
       <r>   -8.0699    1.0000 </r>
       <r>   -8.0294    1.0000 </r>
       <r>   -7.9142    1.0000 </r>
       <r>   -7.8912    1.0000 </r>
       <r>   -7.7668    1.0000 </r>
       <r>   -7.7610    1.0000 </r>
       <r>   -7.6655    1.0000 </r>
       <r>   -7.4599    1.0000 </r>
       <r>   -7.4284    1.0000 </r>
       <r>   -7.3458    1.0000 </r>
       <r>   -7.0895    1.0000 </r>
       <r>   -7.0555    1.0000 </r>
       <r>   -6.9909    1.0000 </r>
       <r>   -6.9003    1.0000 </r>
       <r>   -6.8283    1.0000 </r>
       <r>   -6.7864    1.0000 </r>
       <r>   -6.6778    1.0000 </r>
       <r>   -6.5965    1.0000 </r>
       <r>   -6.5517    1.0000 </r>
       <r>   -6.4550    1.0000 </r>
       <r>   -6.4483    1.0000 </r>
       <r>   -6.3138    1.0000 </r>
       <r>   -6.2856    1.0000 </r>
       <r>   -6.1822    1.0000 </r>
       <r>   -6.1142    1.0000 </r>
       <r>   -6.0288    1.0000 </r>
       <r>   -5.9572    1.0000 </r>
       <r>   -5.9265    1.0000 </r>
       <r>   -5.7966    1.0000 </r>
       <r>   -5.7571    1.0000 </r>
       <r>   -5.7539    1.0000 </r>
       <r>   -5.5832    1.0000 </r>
       <r>   -5.5550    1.0000 </r>
       <r>   -5.4846    1.0000 </r>
       <r>   -5.3204    1.0000 </r>
       <r>   -5.1393    1.0000 </r>
       <r>   -5.1288    1.0000 </r>
       <r>   -4.8202    1.0000 </r>
       <r>   -4.7035    1.0000 </r>
       <r>   -4.6981    1.0000 </r>
       <r>   -4.4913    1.0000 </r>
       <r>   -4.4787    1.0000 </r>
       <r>   -4.4211    1.0000 </r>
       <r>   -4.3621    1.0000 </r>
       <r>   -4.2379    1.0000 </r>
       <r>   -4.0567    1.0000 </r>
       <r>   -3.9514    1.0000 </r>
       <r>   -3.5358    0.9021 </r>
       <r>   -3.3857    0.5919 </r>
       <r>   -3.3791    0.5737 </r>
       <r>   -3.0686    0.0222 </r>
       <r>   -2.9455    0.0020 </r>
       <r>   -2.9071    0.0008 </r>
       <r>   -2.5764    0.0000 </r>
       <r>   -2.5675    0.0000 </r>
       <r>   -2.4870    0.0000 </r>
       <r>   -2.2213    0.0000 </r>
       <r>   -2.1717    0.0000 </r>
       <r>   -2.1338    0.0000 </r>
       <r>   -1.8880    0.0000 </r>
       <r>   -1.8232    0.0000 </r>
       <r>   -1.6295    0.0000 </r>
       <r>   -1.3747    0.0000 </r>
       <r>   -1.2933    0.0000 </r>
       <r>   -1.1336    0.0000 </r>
       <r>   -1.1011    0.0000 </r>
       <r>   -1.0773    0.0000 </r>
       <r>   -1.0035    0.0000 </r>
       <r>   -0.9326    0.0000 </r>
       <r>   -0.8415    0.0000 </r>
       <r>   -0.8406    0.0000 </r>
       <r>   -0.7217    0.0000 </r>
       <r>   -0.6553    0.0000 </r>
       <r>   -0.6106    0.0000 </r>
       <r>   -0.5909    0.0000 </r>
       <r>   -0.4914    0.0000 </r>
       <r>   -0.3943    0.0000 </r>
       <r>   -0.0070    0.0000 </r>
       <r>    0.1105    0.0000 </r>
       <r>    0.2105    0.0000 </r>
       <r>    0.4316    0.0000 </r>
       <r>    0.5337    0.0000 </r>
       <r>    0.6861    0.0000 </r>
       <r>    0.8665    0.0000 </r>
       <r>    1.0805    0.0000 </r>
       <r>    1.2555    0.0000 </r>
       <r>    1.5639    0.0000 </r>
       <r>    2.2252    0.0000 </r>
       <r>    2.2589    0.0000 </r>
       <r>    2.3893    0.0000 </r>
      </set>
     </set>
    </set>
   </array>
  </eigenvalues>
  <separator name="orbital magnetization" >
   <v name="MAGDIPOLOUT">      0.00000000      0.00000000      0.00000000</v>
  </separator>
 </calculation>
 <structure name="finalpos" >
  <crystal>
   <varray name="basis" >
    <v>       8.32683779       4.82556965       0.00000000 </v>
    <v>      -8.32692570       4.82572016       0.00000000 </v>
    <v>       0.00000000       0.00000000      30.00000000 </v>
   </varray>
   <i name="volume">   2410.95446685 </i>
   <varray name="rec_basis" >
    <v>       0.06004742       0.10361364       0.00000000 </v>
    <v>      -0.06004555       0.10361255       0.00000000 </v>
    <v>       0.00000000       0.00000000       0.03333333 </v>
   </varray>
  </crystal>
  <varray name="positions" >
   <v>       0.65454200       0.29754673      -0.00150029 </v>
   <v>       0.30938266       0.30942174       0.00000578 </v>
   <v>       0.29760157       0.65441379       0.00149064 </v>
   <v>       0.00282897       0.00281302      -0.00000115 </v>
   <v>       0.30785921      -0.00810962       0.00050523 </v>
   <v>       0.99179739       0.30781823      -0.00050699 </v>
   <v>       0.01530455       0.70124571       0.00032874 </v>
   <v>       0.70120152       0.01533099      -0.00032569 </v>
   <v>       0.70127931       0.70130338       0.00000208 </v>
   <v>       0.11767582       0.22663683       0.94540418 </v>
   <v>       0.22662544       0.11767620       0.05459886 </v>
   <v>       0.10405926       0.55567527       0.95024716 </v>
   <v>       0.22209561       0.44129600       0.05048057 </v>
   <v>       0.11099667       0.89531302       0.94336267 </v>
   <v>       0.22066115       0.77581030       0.05523506 </v>
   <v>       0.44137088       0.22215384       0.94953332 </v>
   <v>       0.55568698       0.10408472       0.04976675 </v>
   <v>       0.44404004       0.55746310       0.95819258 </v>
   <v>       0.55749784       0.44402361       0.04178698 </v>
   <v>       0.44661077       0.88397630       0.95655088 </v>
   <v>       0.55269231       0.77788641       0.04783146 </v>
   <v>       0.77578431       0.22066545       0.94474046 </v>
   <v>       0.89529107       0.11097520       0.05663641 </v>
   <v>       0.77786962       0.55265925       0.95217898 </v>
   <v>       0.88396197       0.44661930       0.04344960 </v>
   <v>       0.78589168       0.89760815       0.94331122 </v>
   <v>       0.89760587       0.78590752       0.05669442 </v>
  </varray>
 </structure>
</modeling>
