   27   27  100    1
  0.9710400E+02  0.1002848E-08  0.1002848E-08  0.3000000E-08  0.5000000E-15
  1.000000000000000E-004
  CAR 
 unknown system                          
    159     34    120
 
  0.0000000E+00  0.0000000E+00  0.0000000E+00  0.1562500E-01
    1      -17.803910   1.000000
    2      -16.729041   1.000000
    3      -16.678863   1.000000
    4      -16.578771   1.000000
    5      -16.536959   1.000000
    6      -16.461128   1.000000
    7      -16.428730   1.000000
    8      -16.314109   1.000000
    9      -16.157717   1.000000
   10      -16.098104   1.000000
   11      -16.075604   1.000000
   12      -15.950523   1.000000
   13      -15.917175   1.000000
   14      -15.676466   1.000000
   15      -15.591740   1.000000
   16      -15.532850   1.000000
   17      -15.323331   1.000000
   18      -15.255302   1.000000
   19       -9.285516   1.000000
   20       -9.001839   1.000000
   21       -8.925999   1.000000
   22       -8.822498   1.000000
   23       -8.768876   1.000000
   24       -8.706785   1.000000
   25       -8.654051   1.000000
   26       -8.604575   1.000000
   27       -8.556752   1.000000
   28       -8.423705   1.000000
   29       -8.403740   1.000000
   30       -8.352051   1.000000
   31       -8.288499   1.000000
   32       -8.197271   1.000000
   33       -8.121335   1.000000
   34       -8.032219   1.000000
   35       -7.874086   1.000000
   36       -7.769629   1.000000
   37       -7.692070   1.000000
   38       -7.518693   1.000000
   39       -7.501670   1.000000
   40       -7.430550   1.000000
   41       -7.313083   1.000000
   42       -7.210276   1.000000
   43       -7.134596   1.000000
   44       -6.899007   1.000000
   45       -6.812759   1.000000
   46       -6.807457   1.000000
   47       -6.684957   1.000000
   48       -6.641023   1.000000
   49       -6.542163   1.000000
   50       -6.536993   1.000000
   51       -6.484407   1.000000
   52       -6.427121   1.000000
   53       -6.322788   1.000000
   54       -6.223653   1.000000
   55       -6.176388   1.000000
   56       -6.067242   1.000000
   57       -6.037682   1.000000
   58       -5.863193   1.000000
   59       -5.822966   1.000000
   60       -5.573447   1.000000
   61       -5.505557   1.000000
   62       -5.460103   1.000000
   63       -5.254632   1.000000
   64       -5.115600   1.000000
   65       -5.057726   1.000000
   66       -4.996463   1.000000
   67       -4.960465   1.000000
   68       -4.825072   1.000000
   69       -4.790415   1.000000
   70       -4.690866   1.000000
   71       -4.589386   1.000000
   72       -4.570263   1.000000
   73       -4.538499   1.000000
   74       -4.371172   1.000000
   75       -4.155816   1.000000
   76       -4.020569   0.999999
   77       -3.761170   0.998862
   78       -3.630445   0.983303
   79       -3.539371   0.931004
   80       -3.362167   0.591068
   81       -3.267084   0.329228
   82       -2.846849   0.000321
   83       -2.761762   0.000030
   84       -2.546697   0.000000
   85       -2.481775   0.000000
   86       -2.362269   0.000000
   87       -2.316472   0.000000
   88       -2.200986   0.000000
   89       -2.140084   0.000000
   90       -2.032547   0.000000
   91       -1.777294   0.000000
   92       -1.527786   0.000000
   93       -1.497320   0.000000
   94       -1.369217   0.000000
   95       -1.262036   0.000000
   96       -1.013639   0.000000
   97       -0.969985   0.000000
   98       -0.847379   0.000000
   99       -0.824960   0.000000
  100       -0.639194   0.000000
  101       -0.514995   0.000000
  102       -0.470404   0.000000
  103       -0.466162   0.000000
  104       -0.312624   0.000000
  105       -0.282336   0.000000
  106       -0.162641   0.000000
  107       -0.079544   0.000000
  108       -0.047353   0.000000
  109        0.075390   0.000000
  110        0.183475   0.000000
  111        0.375415   0.000000
  112        0.488339   0.000000
  113        0.679967   0.000000
  114        0.820289   0.000000
  115        0.835029   0.000000
  116        1.091583   0.000000
  117        1.301387   0.000000
  118        1.643699   0.000000
  119        1.834612   0.000000
  120        2.150380   0.000000
 
  0.1250000E+00  0.2775558E-16  0.0000000E+00  0.3125000E-01
    1      -17.779102   1.000000
    2      -16.783007   1.000000
    3      -16.725098   1.000000
    4      -16.625026   1.000000
    5      -16.544175   1.000000
    6      -16.472234   1.000000
    7      -16.387776   1.000000
    8      -16.268575   1.000000
    9      -16.183742   1.000000
   10      -16.070150   1.000000
   11      -16.013311   1.000000
   12      -15.943694   1.000000
   13      -15.895177   1.000000
   14      -15.677285   1.000000
   15      -15.607596   1.000000
   16      -15.528895   1.000000
   17      -15.334726   1.000000
   18      -15.259423   1.000000
   19       -9.278690   1.000000
   20       -9.155843   1.000000
   21       -9.025313   1.000000
   22       -8.943935   1.000000
   23       -8.802926   1.000000
   24       -8.721925   1.000000
   25       -8.647729   1.000000
   26       -8.578657   1.000000
   27       -8.518118   1.000000
   28       -8.408591   1.000000
   29       -8.372984   1.000000
   30       -8.329642   1.000000
   31       -8.227903   1.000000
   32       -8.106980   1.000000
   33       -8.007732   1.000000
   34       -7.941430   1.000000
   35       -7.826356   1.000000
   36       -7.756851   1.000000
   37       -7.618938   1.000000
   38       -7.589925   1.000000
   39       -7.494719   1.000000
   40       -7.432108   1.000000
   41       -7.271322   1.000000
   42       -7.218058   1.000000
   43       -7.151583   1.000000
   44       -6.957419   1.000000
   45       -6.886296   1.000000
   46       -6.782583   1.000000
   47       -6.692268   1.000000
   48       -6.633655   1.000000
   49       -6.584299   1.000000
   50       -6.534793   1.000000
   51       -6.465803   1.000000
   52       -6.395484   1.000000
   53       -6.283369   1.000000
   54       -6.235254   1.000000
   55       -6.195344   1.000000
   56       -6.093467   1.000000
   57       -5.987981   1.000000
   58       -5.859558   1.000000
   59       -5.774263   1.000000
   60       -5.558711   1.000000
   61       -5.535379   1.000000
   62       -5.465347   1.000000
   63       -5.321196   1.000000
   64       -5.196749   1.000000
   65       -5.145257   1.000000
   66       -5.065093   1.000000
   67       -4.928190   1.000000
   68       -4.870045   1.000000
   69       -4.792098   1.000000
   70       -4.673517   1.000000
   71       -4.607698   1.000000
   72       -4.520493   1.000000
   73       -4.414001   1.000000
   74       -4.300650   1.000000
   75       -4.133063   1.000000
   76       -4.007401   0.999999
   77       -3.785847   0.999373
   78       -3.743979   0.998306
   79       -3.524067   0.915450
   80       -3.459326   0.820510
   81       -3.126238   0.075220
   82       -2.847068   0.000322
   83       -2.740086   0.000015
   84       -2.572050   0.000000
   85       -2.451316   0.000000
   86       -2.380310   0.000000
   87       -2.296568   0.000000
   88       -2.167619   0.000000
   89       -2.138693   0.000000
   90       -2.005057   0.000000
   91       -1.793932   0.000000
   92       -1.522885   0.000000
   93       -1.496601   0.000000
   94       -1.364243   0.000000
   95       -1.263048   0.000000
   96       -1.016673   0.000000
   97       -0.969149   0.000000
   98       -0.882592   0.000000
   99       -0.827486   0.000000
  100       -0.720119   0.000000
  101       -0.612810   0.000000
  102       -0.527551   0.000000
  103       -0.458904   0.000000
  104       -0.340714   0.000000
  105       -0.309132   0.000000
  106       -0.210353   0.000000
  107       -0.125611   0.000000
  108       -0.051080   0.000000
  109        0.084386   0.000000
  110        0.139920   0.000000
  111        0.415835   0.000000
  112        0.556034   0.000000
  113        0.718574   0.000000
  114        0.824962   0.000000
  115        0.886624   0.000000
  116        1.108043   0.000000
  117        1.272427   0.000000
  118        1.688482   0.000000
  119        1.873220   0.000000
  120        2.185585   0.000000
 
  0.2500000E+00  0.5551115E-16  0.0000000E+00  0.3125000E-01
    1      -17.706283   1.000000
    2      -16.978054   1.000000
    3      -16.747747   1.000000
    4      -16.663574   1.000000
    5      -16.603095   1.000000
    6      -16.446857   1.000000
    7      -16.343138   1.000000
    8      -16.225850   1.000000
    9      -16.163670   1.000000
   10      -16.029352   1.000000
   11      -15.958723   1.000000
   12      -15.916404   1.000000
   13      -15.807925   1.000000
   14      -15.695711   1.000000
   15      -15.620058   1.000000
   16      -15.532924   1.000000
   17      -15.371338   1.000000
   18      -15.260610   1.000000
   19       -9.487750   1.000000
   20       -9.226039   1.000000
   21       -9.161167   1.000000
   22       -9.038103   1.000000
   23       -8.898900   1.000000
   24       -8.777942   1.000000
   25       -8.679389   1.000000
   26       -8.518991   1.000000
   27       -8.436507   1.000000
   28       -8.353784   1.000000
   29       -8.305791   1.000000
   30       -8.268870   1.000000
   31       -8.148632   1.000000
   32       -8.044782   1.000000
   33       -7.949038   1.000000
   34       -7.844409   1.000000
   35       -7.752028   1.000000
   36       -7.644980   1.000000
   37       -7.591524   1.000000
   38       -7.532413   1.000000
   39       -7.430048   1.000000
   40       -7.389983   1.000000
   41       -7.259672   1.000000
   42       -7.209628   1.000000
   43       -7.128980   1.000000
   44       -6.964470   1.000000
   45       -6.939165   1.000000
   46       -6.794469   1.000000
   47       -6.745260   1.000000
   48       -6.658862   1.000000
   49       -6.585665   1.000000
   50       -6.512612   1.000000
   51       -6.455352   1.000000
   52       -6.388721   1.000000
   53       -6.241602   1.000000
   54       -6.222762   1.000000
   55       -6.126861   1.000000
   56       -6.089745   1.000000
   57       -5.970331   1.000000
   58       -5.844500   1.000000
   59       -5.753523   1.000000
   60       -5.710264   1.000000
   61       -5.598934   1.000000
   62       -5.571488   1.000000
   63       -5.412176   1.000000
   64       -5.341421   1.000000
   65       -5.176729   1.000000
   66       -5.090693   1.000000
   67       -5.017999   1.000000
   68       -4.872239   1.000000
   69       -4.819552   1.000000
   70       -4.597807   1.000000
   71       -4.517745   1.000000
   72       -4.402083   1.000000
   73       -4.320489   1.000000
   74       -4.241314   1.000000
   75       -4.124436   1.000000
   76       -4.071478   1.000000
   77       -4.004723   0.999999
   78       -3.696750   0.995286
   79       -3.503050   0.889992
   80       -3.443924   0.790569
   81       -3.013967   0.012812
   82       -2.834796   0.000234
   83       -2.700719   0.000004
   84       -2.587790   0.000000
   85       -2.435555   0.000000
   86       -2.410365   0.000000
   87       -2.259328   0.000000
   88       -2.170294   0.000000
   89       -2.039130   0.000000
   90       -1.945401   0.000000
   91       -1.821224   0.000000
   92       -1.532935   0.000000
   93       -1.488209   0.000000
   94       -1.340038   0.000000
   95       -1.262296   0.000000
   96       -1.082112   0.000000
   97       -0.999698   0.000000
   98       -0.949535   0.000000
   99       -0.862092   0.000000
  100       -0.839655   0.000000
  101       -0.728427   0.000000
  102       -0.634334   0.000000
  103       -0.520796   0.000000
  104       -0.427214   0.000000
  105       -0.380246   0.000000
  106       -0.303247   0.000000
  107       -0.160865   0.000000
  108       -0.095537   0.000000
  109        0.008111   0.000000
  110        0.144465   0.000000
  111        0.488527   0.000000
  112        0.582503   0.000000
  113        0.730520   0.000000
  114        0.932391   0.000000
  115        1.005883   0.000000
  116        1.180611   0.000000
  117        1.233216   0.000000
  118        1.811693   0.000000
  119        1.983987   0.000000
  120        2.289855   0.000000
 
  0.3750000E+00  0.0000000E+00  0.0000000E+00  0.3125000E-01
    1      -17.593004   1.000000
    2      -17.184609   1.000000
    3      -16.778303   1.000000
    4      -16.675891   1.000000
    5      -16.635221   1.000000
    6      -16.436050   1.000000
    7      -16.340364   1.000000
    8      -16.211497   1.000000
    9      -16.082105   1.000000
   10      -15.991222   1.000000
   11      -15.947664   1.000000
   12      -15.878739   1.000000
   13      -15.756098   1.000000
   14      -15.710249   1.000000
   15      -15.601632   1.000000
   16      -15.543068   1.000000
   17      -15.427508   1.000000
   18      -15.249634   1.000000
   19       -9.703321   1.000000
   20       -9.333131   1.000000
   21       -9.146268   1.000000
   22       -9.104701   1.000000
   23       -8.948293   1.000000
   24       -8.807744   1.000000
   25       -8.655969   1.000000
   26       -8.464041   1.000000
   27       -8.409411   1.000000
   28       -8.311897   1.000000
   29       -8.274164   1.000000
   30       -8.190771   1.000000
   31       -8.133075   1.000000
   32       -8.063746   1.000000
   33       -7.920463   1.000000
   34       -7.845769   1.000000
   35       -7.773256   1.000000
   36       -7.681143   1.000000
   37       -7.549598   1.000000
   38       -7.438942   1.000000
   39       -7.337380   1.000000
   40       -7.299625   1.000000
   41       -7.198545   1.000000
   42       -7.164297   1.000000
   43       -7.059131   1.000000
   44       -6.933764   1.000000
   45       -6.903388   1.000000
   46       -6.848906   1.000000
   47       -6.691349   1.000000
   48       -6.597902   1.000000
   49       -6.551718   1.000000
   50       -6.529840   1.000000
   51       -6.398972   1.000000
   52       -6.314035   1.000000
   53       -6.226804   1.000000
   54       -6.202879   1.000000
   55       -6.131736   1.000000
   56       -6.109543   1.000000
   57       -5.996679   1.000000
   58       -5.906183   1.000000
   59       -5.865388   1.000000
   60       -5.789157   1.000000
   61       -5.744134   1.000000
   62       -5.660754   1.000000
   63       -5.540970   1.000000
   64       -5.323565   1.000000
   65       -5.209447   1.000000
   66       -5.106668   1.000000
   67       -5.023843   1.000000
   68       -4.928093   1.000000
   69       -4.746385   1.000000
   70       -4.682809   1.000000
   71       -4.458529   1.000000
   72       -4.420493   1.000000
   73       -4.291358   1.000000
   74       -4.244821   1.000000
   75       -4.154124   1.000000
   76       -4.061634   1.000000
   77       -3.964826   0.999996
   78       -3.636349   0.984960
   79       -3.531291   0.923091
   80       -3.371311   0.615984
   81       -2.926264   0.002172
   82       -2.802656   0.000097
   83       -2.713952   0.000007
   84       -2.555504   0.000000
   85       -2.475071   0.000000
   86       -2.415057   0.000000
   87       -2.222682   0.000000
   88       -2.176294   0.000000
   89       -1.990156   0.000000
   90       -1.876092   0.000000
   91       -1.777379   0.000000
   92       -1.546934   0.000000
   93       -1.495632   0.000000
   94       -1.311905   0.000000
   95       -1.261769   0.000000
   96       -1.196677   0.000000
   97       -1.099232   0.000000
   98       -1.038482   0.000000
   99       -0.919339   0.000000
  100       -0.843771   0.000000
  101       -0.776328   0.000000
  102       -0.715156   0.000000
  103       -0.612202   0.000000
  104       -0.522447   0.000000
  105       -0.421342   0.000000
  106       -0.356494   0.000000
  107       -0.230344   0.000000
  108       -0.146351   0.000000
  109       -0.061484   0.000000
  110        0.162125   0.000000
  111        0.484678   0.000000
  112        0.585640   0.000000
  113        0.760384   0.000000
  114        0.996714   0.000000
  115        1.129156   0.000000
  116        1.206724   0.000000
  117        1.305402   0.000000
  118        1.994739   0.000000
  119        2.156964   0.000000
  120        2.459314   0.000000
 
  0.5000000E+00  0.1110223E-15  0.0000000E+00  0.1562500E-01
    1      -17.497679   1.000000
    2      -17.313332   1.000000
    3      -16.790988   1.000000
    4      -16.682565   1.000000
    5      -16.640234   1.000000
    6      -16.435438   1.000000
    7      -16.342855   1.000000
    8      -16.206845   1.000000
    9      -16.034314   1.000000
   10      -15.974478   1.000000
   11      -15.953962   1.000000
   12      -15.851382   1.000000
   13      -15.781827   1.000000
   14      -15.692978   1.000000
   15      -15.595630   1.000000
   16      -15.521368   1.000000
   17      -15.473445   1.000000
   18      -15.241538   1.000000
   19       -9.781624   1.000000
   20       -9.374818   1.000000
   21       -9.166428   1.000000
   22       -9.109911   1.000000
   23       -8.955886   1.000000
   24       -8.787053   1.000000
   25       -8.628204   1.000000
   26       -8.508164   1.000000
   27       -8.418581   1.000000
   28       -8.282644   1.000000
   29       -8.250950   1.000000
   30       -8.126459   1.000000
   31       -8.116673   1.000000
   32       -8.065633   1.000000
   33       -7.931094   1.000000
   34       -7.838004   1.000000
   35       -7.824197   1.000000
   36       -7.741135   1.000000
   37       -7.565530   1.000000
   38       -7.414296   1.000000
   39       -7.317565   1.000000
   40       -7.274061   1.000000
   41       -7.164242   1.000000
   42       -7.054300   1.000000
   43       -6.966655   1.000000
   44       -6.933728   1.000000
   45       -6.898584   1.000000
   46       -6.758467   1.000000
   47       -6.716615   1.000000
   48       -6.581160   1.000000
   49       -6.549171   1.000000
   50       -6.512724   1.000000
   51       -6.435469   1.000000
   52       -6.344023   1.000000
   53       -6.263773   1.000000
   54       -6.214137   1.000000
   55       -6.103017   1.000000
   56       -6.054157   1.000000
   57       -5.974376   1.000000
   58       -5.931691   1.000000
   59       -5.884533   1.000000
   60       -5.865719   1.000000
   61       -5.776147   1.000000
   62       -5.638728   1.000000
   63       -5.512719   1.000000
   64       -5.410575   1.000000
   65       -5.326264   1.000000
   66       -5.101053   1.000000
   67       -5.062703   1.000000
   68       -4.972084   1.000000
   69       -4.756704   1.000000
   70       -4.624957   1.000000
   71       -4.468578   1.000000
   72       -4.391258   1.000000
   73       -4.342202   1.000000
   74       -4.245909   1.000000
   75       -4.129318   1.000000
   76       -4.035077   1.000000
   77       -3.922774   0.999986
   78       -3.609389   0.976059
   79       -3.551265   0.941491
   80       -3.351450   0.561396
   81       -2.839013   0.000261
   82       -2.808388   0.000114
   83       -2.752455   0.000022
   84       -2.524916   0.000000
   85       -2.493590   0.000000
   86       -2.427023   0.000000
   87       -2.205370   0.000000
   88       -2.178863   0.000000
   89       -1.985402   0.000000
   90       -1.866476   0.000000
   91       -1.706429   0.000000
   92       -1.568327   0.000000
   93       -1.485872   0.000000
   94       -1.328624   0.000000
   95       -1.271691   0.000000
   96       -1.230860   0.000000
   97       -1.129985   0.000000
   98       -1.092606   0.000000
   99       -0.945140   0.000000
  100       -0.836467   0.000000
  101       -0.787441   0.000000
  102       -0.736738   0.000000
  103       -0.652964   0.000000
  104       -0.572330   0.000000
  105       -0.436362   0.000000
  106       -0.362135   0.000000
  107       -0.263207   0.000000
  108       -0.177384   0.000000
  109       -0.084470   0.000000
  110        0.169099   0.000000
  111        0.474748   0.000000
  112        0.581560   0.000000
  113        0.781020   0.000000
  114        1.013862   0.000000
  115        1.159452   0.000000
  116        1.227634   0.000000
  117        1.350475   0.000000
  118        2.208128   0.000000
  119        2.247032   0.000000
  120        2.379171   0.000000
 
  0.0000000E+00  0.1250000E+00  0.0000000E+00  0.3125000E-01
    1      -17.778598   1.000000
    2      -16.811804   1.000000
    3      -16.706816   1.000000
    4      -16.593855   1.000000
    5      -16.564126   1.000000
    6      -16.451608   1.000000
    7      -16.403472   1.000000
    8      -16.271521   1.000000
    9      -16.173336   1.000000
   10      -16.087770   1.000000
   11      -16.022531   1.000000
   12      -15.950663   1.000000
   13      -15.880189   1.000000
   14      -15.669439   1.000000
   15      -15.601869   1.000000
   16      -15.534996   1.000000
   17      -15.335174   1.000000
   18      -15.261266   1.000000
   19       -9.258739   1.000000
   20       -9.158302   1.000000
   21       -9.016705   1.000000
   22       -8.972461   1.000000
   23       -8.823055   1.000000
   24       -8.705463   1.000000
   25       -8.634538   1.000000
   26       -8.576121   1.000000
   27       -8.492812   1.000000
   28       -8.420965   1.000000
   29       -8.380503   1.000000
   30       -8.320197   1.000000
   31       -8.251746   1.000000
   32       -8.106278   1.000000
   33       -8.043180   1.000000
   34       -7.901634   1.000000
   35       -7.871441   1.000000
   36       -7.726878   1.000000
   37       -7.663933   1.000000
   38       -7.559281   1.000000
   39       -7.450313   1.000000
   40       -7.407748   1.000000
   41       -7.316466   1.000000
   42       -7.257003   1.000000
   43       -7.141091   1.000000
   44       -6.911693   1.000000
   45       -6.880275   1.000000
   46       -6.846771   1.000000
   47       -6.706611   1.000000
   48       -6.649483   1.000000
   49       -6.560355   1.000000
   50       -6.495239   1.000000
   51       -6.470452   1.000000
   52       -6.369859   1.000000
   53       -6.294733   1.000000
   54       -6.235508   1.000000
   55       -6.169795   1.000000
   56       -6.061777   1.000000
   57       -6.001032   1.000000
   58       -5.885790   1.000000
   59       -5.779618   1.000000
   60       -5.583740   1.000000
   61       -5.543263   1.000000
   62       -5.450468   1.000000
   63       -5.382833   1.000000
   64       -5.146338   1.000000
   65       -5.106949   1.000000
   66       -5.020839   1.000000
   67       -4.956557   1.000000
   68       -4.855279   1.000000
   69       -4.749586   1.000000
   70       -4.700784   1.000000
   71       -4.658369   1.000000
   72       -4.511362   1.000000
   73       -4.427417   1.000000
   74       -4.345027   1.000000
   75       -4.119276   1.000000
   76       -4.005926   0.999999
   77       -3.786502   0.999383
   78       -3.703239   0.995880
   79       -3.581037   0.962293
   80       -3.463444   0.828034
   81       -3.102592   0.054227
   82       -2.846468   0.000317
   83       -2.742106   0.000016
   84       -2.554444   0.000000
   85       -2.464391   0.000000
   86       -2.351860   0.000000
   87       -2.302683   0.000000
   88       -2.175890   0.000000
   89       -2.134060   0.000000
   90       -2.020621   0.000000
   91       -1.801995   0.000000
   92       -1.541453   0.000000
   93       -1.478826   0.000000
   94       -1.343750   0.000000
   95       -1.260615   0.000000
   96       -1.014312   0.000000
   97       -0.980840   0.000000
   98       -0.865855   0.000000
   99       -0.813348   0.000000
  100       -0.687668   0.000000
  101       -0.654285   0.000000
  102       -0.539887   0.000000
  103       -0.484414   0.000000
  104       -0.356863   0.000000
  105       -0.313121   0.000000
  106       -0.188237   0.000000
  107       -0.137681   0.000000
  108        0.025956   0.000000
  109        0.114912   0.000000
  110        0.174263   0.000000
  111        0.403299   0.000000
  112        0.460806   0.000000
  113        0.668608   0.000000
  114        0.807366   0.000000
  115        0.878763   0.000000
  116        1.124551   0.000000
  117        1.326326   0.000000
  118        1.687314   0.000000
  119        1.873543   0.000000
  120        2.185555   0.000000
 
  0.1250000E+00  0.1250000E+00  0.0000000E+00  0.3125000E-01
    1      -17.729132   1.000000
    2      -16.922075   1.000000
    3      -16.762810   1.000000
    4      -16.674912   1.000000
    5      -16.528047   1.000000
    6      -16.434510   1.000000
    7      -16.376806   1.000000
    8      -16.214811   1.000000
    9      -16.203490   1.000000
   10      -16.069612   1.000000
   11      -15.984240   1.000000
   12      -15.909353   1.000000
   13      -15.824826   1.000000
   14      -15.669646   1.000000
   15      -15.613643   1.000000
   16      -15.527418   1.000000
   17      -15.365733   1.000000
   18      -15.268208   1.000000
   19       -9.364335   1.000000
   20       -9.260511   1.000000
   21       -9.157741   1.000000
   22       -9.020659   1.000000
   23       -8.874758   1.000000
   24       -8.731100   1.000000
   25       -8.620712   1.000000
   26       -8.539786   1.000000
   27       -8.498352   1.000000
   28       -8.375000   1.000000
   29       -8.343696   1.000000
   30       -8.283265   1.000000
   31       -8.181055   1.000000
   32       -8.083345   1.000000
   33       -8.002252   1.000000
   34       -7.839111   1.000000
   35       -7.728380   1.000000
   36       -7.651592   1.000000
   37       -7.626017   1.000000
   38       -7.502588   1.000000
   39       -7.446332   1.000000
   40       -7.341428   1.000000
   41       -7.282421   1.000000
   42       -7.239065   1.000000
   43       -7.181124   1.000000
   44       -7.001330   1.000000
   45       -6.937865   1.000000
   46       -6.827532   1.000000
   47       -6.715357   1.000000
   48       -6.659283   1.000000
   49       -6.590715   1.000000
   50       -6.534572   1.000000
   51       -6.451496   1.000000
   52       -6.323483   1.000000
   53       -6.234370   1.000000
   54       -6.205239   1.000000
   55       -6.195895   1.000000
   56       -6.050148   1.000000
   57       -5.956478   1.000000
   58       -5.870619   1.000000
   59       -5.734159   1.000000
   60       -5.681778   1.000000
   61       -5.541185   1.000000
   62       -5.474007   1.000000
   63       -5.434481   1.000000
   64       -5.367550   1.000000
   65       -5.165344   1.000000
   66       -5.090411   1.000000
   67       -4.954682   1.000000
   68       -4.882185   1.000000
   69       -4.792261   1.000000
   70       -4.643919   1.000000
   71       -4.607348   1.000000
   72       -4.426006   1.000000
   73       -4.303351   1.000000
   74       -4.264368   1.000000
   75       -4.101818   1.000000
   76       -4.084989   1.000000
   77       -3.930547   0.999989
   78       -3.733085   0.997835
   79       -3.544803   0.935961
   80       -3.434257   0.770364
   81       -2.998467   0.009604
   82       -2.860167   0.000451
   83       -2.717474   0.000008
   84       -2.591744   0.000000
   85       -2.425512   0.000000
   86       -2.385020   0.000000
   87       -2.290488   0.000000
   88       -2.167922   0.000000
   89       -2.061751   0.000000
   90       -1.990068   0.000000
   91       -1.837378   0.000000
   92       -1.535092   0.000000
   93       -1.476183   0.000000
   94       -1.310799   0.000000
   95       -1.265621   0.000000
   96       -1.043280   0.000000
   97       -0.997388   0.000000
   98       -0.886765   0.000000
   99       -0.833474   0.000000
  100       -0.781789   0.000000
  101       -0.770924   0.000000
  102       -0.634152   0.000000
  103       -0.514980   0.000000
  104       -0.415020   0.000000
  105       -0.322705   0.000000
  106       -0.232823   0.000000
  107       -0.169830   0.000000
  108       -0.025552   0.000000
  109        0.031082   0.000000
  110        0.122675   0.000000
  111        0.477209   0.000000
  112        0.492304   0.000000
  113        0.722955   0.000000
  114        0.818257   0.000000
  115        0.956015   0.000000
  116        1.183967   0.000000
  117        1.340627   0.000000
  118        1.773527   0.000000
  119        1.946074   0.000000
  120        2.255729   0.000000
 
  0.2500000E+00  0.1250000E+00  0.0000000E+00  0.3125000E-01
    1      -17.634322   1.000000
    2      -17.087784   1.000000
    3      -16.882899   1.000000
    4      -16.658185   1.000000
    5      -16.535485   1.000000
    6      -16.413160   1.000000
    7      -16.340890   1.000000
    8      -16.228272   1.000000
    9      -16.130092   1.000000
   10      -16.030561   1.000000
   11      -15.973459   1.000000
   12      -15.899439   1.000000
   13      -15.729647   1.000000
   14      -15.703353   1.000000
   15      -15.590138   1.000000
   16      -15.529472   1.000000
   17      -15.423143   1.000000
   18      -15.260615   1.000000
   19       -9.596608   1.000000
   20       -9.398054   1.000000
   21       -9.193199   1.000000
   22       -9.061982   1.000000
   23       -8.863207   1.000000
   24       -8.755176   1.000000
   25       -8.644165   1.000000
   26       -8.488062   1.000000
   27       -8.397570   1.000000
   28       -8.348657   1.000000
   29       -8.277223   1.000000
   30       -8.203732   1.000000
   31       -8.169843   1.000000
   32       -8.092994   1.000000
   33       -7.966439   1.000000
   34       -7.904940   1.000000
   35       -7.785309   1.000000
   36       -7.604434   1.000000
   37       -7.560083   1.000000
   38       -7.429496   1.000000
   39       -7.341781   1.000000
   40       -7.268433   1.000000
   41       -7.250880   1.000000
   42       -7.191901   1.000000
   43       -7.123725   1.000000
   44       -6.994861   1.000000
   45       -6.855046   1.000000
   46       -6.806711   1.000000
   47       -6.695935   1.000000