       N       E                     dE             d eps       ncg     rms          rms(c)
DAV:   1     0.112624222622E+04    0.11262E+04   -0.35980E+04  8160   0.577E+02
DAV:   2    -0.441900779776E+01   -0.11307E+04   -0.10922E+04 11040   0.173E+02
DAV:   3    -0.199770888617E+03   -0.19535E+03   -0.18741E+03 10920   0.819E+01
DAV:   4    -0.208994805373E+03   -0.92239E+01   -0.89014E+01 12240   0.259E+01
DAV:   5    -0.209322208381E+03   -0.32740E+00   -0.32635E+00 11680   0.348E+00    0.275E+01
DAV:   6    -0.237938276392E+03   -0.28616E+02   -0.10715E+02 12440   0.601E+01    0.595E+01
DAV:   7    -0.196569668557E+03    0.41369E+02   -0.17610E+02 13520   0.153E+02    0.200E+01
DAV:   8    -0.189474190062E+03    0.70955E+01   -0.17856E+01 11880   0.127E+01    0.125E+01
DAV:   9    -0.188156377329E+03    0.13178E+01   -0.30975E+00 13520   0.626E+00    0.921E+00
DAV:  10    -0.186953706754E+03    0.12027E+01   -0.17222E+00 13280   0.766E+00    0.214E+00
DAV:  11    -0.187050891853E+03   -0.97185E-01   -0.57705E-01 13600   0.289E+00    0.374E+00
DAV:  12    -0.186985922455E+03    0.64969E-01   -0.74540E-01 12800   0.427E+00    0.351E+00
DAV:  13    -0.186884097300E+03    0.10183E+00   -0.28676E-01 13160   0.293E+00    0.184E+00
DAV:  14    -0.186847390267E+03    0.36707E-01   -0.10167E-01 13200   0.169E+00    0.795E-01
DAV:  15    -0.186846374572E+03    0.10157E-02   -0.25135E-02 12840   0.818E-01    0.833E-01
DAV:  16    -0.186840874002E+03    0.55006E-02   -0.12061E-02 13400   0.579E-01    0.296E-01
DAV:  17    -0.186839546849E+03    0.13272E-02   -0.45938E-03 12800   0.301E-01    0.186E-01
DAV:  18    -0.186839278096E+03    0.26875E-03   -0.17917E-03 12200   0.153E-01    0.122E-01
DAV:  19    -0.186839128711E+03    0.14938E-03   -0.76556E-04 10760   0.838E-02    0.612E-02
DAV:  20    -0.186839867606E+03   -0.73889E-03   -0.68858E-04  9160   0.778E-02    0.574E-02
DAV:  21    -0.186840704894E+03   -0.83729E-03   -0.24627E-04  8200   0.505E-02    0.321E-02
DAV:  22    -0.186841655812E+03   -0.95092E-03   -0.15957E-04  7520   0.392E-02    0.317E-02
DAV:  23    -0.186842798414E+03   -0.11426E-02   -0.10630E-04  7480   0.368E-02    0.129E-02
DAV:  24    -0.186843353017E+03   -0.55460E-03   -0.24246E-05  6840   0.153E-02    0.506E-03
DAV:  25    -0.186843748147E+03   -0.39513E-03   -0.15767E-05  5480   0.970E-03    0.327E-03
DAV:  26    -0.186843992946E+03   -0.24480E-03   -0.93184E-06  6800   0.714E-03    0.166E-03
DAV:  27    -0.186844078490E+03   -0.85544E-04   -0.32126E-06  7560   0.410E-03
   1 F= -.18684408E+03 E0= -.18667308E+03  d E =-.186844E+03
       N       E                     dE             d eps       ncg     rms          rms(c)
DAV:   1    -0.187500169668E+03   -0.65618E+00   -0.27239E+02  8160   0.350E+01    0.461E+00
DAV:   2    -0.189391908768E+03   -0.18917E+01   -0.19974E+01 12240   0.151E+01    0.921E+00
DAV:   3    -0.189367631777E+03    0.24277E-01   -0.46650E+00 12440   0.125E+01    0.649E+00
DAV:   4    -0.188777307878E+03    0.59032E+00   -0.62782E-01 12480   0.491E+00    0.244E+00
DAV:   5    -0.188855384391E+03   -0.78077E-01   -0.42576E-01 11120   0.390E+00    0.507E+00
DAV:   6    -0.188721317137E+03    0.13407E+00   -0.69832E-01 12200   0.391E+00    0.202E+00
DAV:   7    -0.188684648311E+03    0.36669E-01   -0.17319E-01 10920   0.146E+00    0.143E+00
DAV:   8    -0.188675617877E+03    0.90304E-02   -0.82796E-02 13360   0.148E+00    0.160E+00
DAV:   9    -0.188659519122E+03    0.16099E-01   -0.47441E-02 11760   0.115E+00    0.682E-01
DAV:  10    -0.188656468539E+03    0.30506E-02   -0.60314E-03 11680   0.315E-01    0.314E-01
DAV:  11    -0.188655712822E+03    0.75572E-03   -0.30696E-03 13160   0.250E-01    0.135E-01
DAV:  12    -0.188655628113E+03    0.84709E-04   -0.10531E-03 12080   0.106E-01    0.104E-01
DAV:  13    -0.188655630172E+03   -0.20588E-05   -0.31135E-04  8280   0.749E-02
   2 F= -.18865563E+03 E0= -.18851668E+03  d E =-.181155E+01
       N       E                     dE             d eps       ncg     rms          rms(c)
DAV:   1    -0.190584427699E+03   -0.19288E+01   -0.31272E+01  9200   0.142E+01    0.446E+00
DAV:   2    -0.190529901399E+03    0.54526E-01   -0.27796E+00 11560   0.945E+00    0.719E+00
DAV:   3    -0.190065839399E+03    0.46406E+00   -0.12953E+00 12320   0.862E+00    0.426E+00
DAV:   4    -0.189852419151E+03    0.21342E+00   -0.68064E-01 12960   0.432E+00    0.252E+00
DAV:   5    -0.189816718369E+03    0.35701E-01   -0.36051E-01 12240   0.301E+00    0.271E+00
DAV:   6    -0.189751101903E+03    0.65616E-01   -0.14660E-01 12720   0.241E+00    0.712E-01
DAV:   7    -0.189745950205E+03    0.51517E-02   -0.14373E-02 11640   0.586E-01    0.377E-01
DAV:   8    -0.189745908441E+03    0.41765E-04   -0.57516E-03 12640   0.463E-01    0.347E-01
DAV:   9    -0.189744992377E+03    0.91606E-03   -0.21522E-03 11480   0.251E-01    0.117E-01
DAV:  10    -0.189745424177E+03   -0.43180E-03   -0.95334E-04 10760   0.103E-01    0.129E-01
DAV:  11    -0.189745128122E+03    0.29605E-03   -0.51828E-04  9280   0.793E-02    0.203E-02
DAV:  12    -0.189745148048E+03   -0.19926E-04   -0.61791E-05  7280   0.258E-02
   3 F= -.18974515E+03 E0= -.18962887E+03  d E =-.108952E+01
       N       E                     dE             d eps       ncg     rms          rms(c)
DAV:   1    -0.191315265488E+03   -0.15701E+01   -0.75253E+01  8160   0.198E+01    0.460E+00
DAV:   2    -0.191116290203E+03    0.19898E+00   -0.53317E+00 13440   0.755E+00    0.441E+00
DAV:   3    -0.191317443507E+03   -0.20115E+00   -0.15039E+00 12240   0.909E+00    0.734E+00
DAV:   4    -0.190903591513E+03    0.41385E+00   -0.16799E+00 12000   0.855E+00    0.348E+00
DAV:   5    -0.190908709898E+03   -0.51184E-02   -0.68045E-01 10960   0.542E+00    0.356E+00
DAV:   6    -0.190734223684E+03    0.17449E+00   -0.20667E-01 11760   0.317E+00    0.620E-01
DAV:   7    -0.190735892068E+03   -0.16684E-02   -0.32829E-02 12280   0.827E-01    0.658E-01
DAV:   8    -0.190733242884E+03    0.26492E-02   -0.15578E-02 11680   0.834E-01    0.536E-01
DAV:   9    -0.190730389874E+03    0.28530E-02   -0.47289E-03 11520   0.460E-01    0.155E-01
DAV:  10    -0.190730700656E+03   -0.31078E-03   -0.14298E-03 10320   0.142E-01    0.109E-01
DAV:  11    -0.190730532175E+03    0.16848E-03   -0.61529E-04 10040   0.934E-02    0.434E-02
DAV:  12    -0.190730534121E+03   -0.19461E-05   -0.10536E-04  7120   0.363E-02
   4 F= -.19073053E+03 E0= -.19063307E+03  d E =-.985386E+00
       N       E                     dE             d eps       ncg     rms          rms(c)
DAV:   1    -0.192165068803E+03   -0.14345E+01   -0.16682E+02  8160   0.288E+01    0.574E+00
DAV:   2    -0.191871638664E+03    0.29343E+00   -0.93940E+00 10960   0.791E+00    0.396E+00
DAV:   3    -0.192334256266E+03   -0.46262E+00   -0.27032E+00 12240   0.107E+01    0.850E+00
DAV:   4    -0.191668131403E+03    0.66612E+00   -0.22192E+00 11680   0.107E+01    0.342E+00
DAV:   5    -0.191617030992E+03    0.51100E-01   -0.55493E-01 12240   0.550E+00    0.429E+00
DAV:   6    -0.191467478229E+03    0.14955E+00   -0.59470E-01 12320   0.511E+00    0.160E+00
DAV:   7    -0.191457353735E+03    0.10124E-01   -0.97742E-02 12480   0.186E+00    0.120E+00
DAV:   8    -0.191441481638E+03    0.15872E-01   -0.32654E-02 12240   0.137E+00    0.458E-01
DAV:   9    -0.191438817997E+03    0.26636E-02   -0.69993E-03 11280   0.476E-01    0.191E-01
DAV:  10    -0.191438964394E+03   -0.14640E-03   -0.27001E-03 11560   0.204E-01    0.995E-02
DAV:  11    -0.191438893203E+03    0.71191E-04   -0.55972E-04 10120   0.899E-02
   5 F= -.19143889E+03 E0= -.19134586E+03  d E =-.708359E+00
       N       E                     dE             d eps       ncg     rms          rms(c)
DAV:   1    -0.191513764075E+03   -0.74800E-01   -0.64169E+00  8160   0.533E+00    0.738E-01
DAV:   2    -0.191590615490E+03   -0.76851E-01   -0.31647E-01 13440   0.349E+00    0.245E+00
DAV:   3    -0.191523067754E+03    0.67548E-01   -0.11668E-01 12600   0.262E+00    0.342E-01
DAV:   4    -0.191526064692E+03   -0.29969E-02   -0.12904E-02 11480   0.766E-01    0.704E-01
DAV:   5    -0.191521463496E+03    0.46012E-02   -0.98489E-03 11400   0.707E-01    0.224E-01
DAV:   6    -0.191521989964E+03   -0.52647E-03   -0.36938E-03 11360   0.334E-01    0.296E-01
DAV:   7    -0.191521477975E+03    0.51199E-03   -0.35272E-03 11320   0.410E-01    0.221E-01
DAV:   8    -0.191520952798E+03    0.52518E-03   -0.10134E-03  9800   0.206E-01    0.386E-02
DAV:   9    -0.191520957558E+03   -0.47607E-05   -0.10122E-04  6640   0.412E-02
   6 F= -.19152096E+03 E0= -.19142609E+03  d E =-.820644E-01
       N       E                     dE             d eps       ncg     rms          rms(c)
DAV:   1    -0.191627438575E+03   -0.10649E+00   -0.19074E+01  8160   0.911E+00    0.104E+00
DAV:   2    -0.191740415775E+03   -0.11298E+00   -0.52501E-01 12920   0.384E+00    0.294E+00
DAV:   3    -0.191645381826E+03    0.95034E-01   -0.20794E-01 12480   0.345E+00    0.717E-01
DAV:   4    -0.191653271911E+03   -0.78901E-02   -0.39144E-02 12320   0.135E+00    0.119E+00
DAV:   5    -0.191639681029E+03    0.13591E-01   -0.28729E-02 11840   0.119E+00    0.340E-01
DAV:   6    -0.191641314537E+03   -0.16335E-02   -0.91899E-03 11400   0.578E-01    0.515E-01
DAV:   7    -0.191639515363E+03    0.17992E-02   -0.88699E-03 11720   0.662E-01    0.306E-01
DAV:   8    -0.191638470890E+03    0.10445E-02   -0.21966E-03 10440   0.289E-01    0.619E-02
DAV:   9    -0.191638433898E+03    0.36992E-04   -0.26712E-04  8080   0.623E-02
   7 F= -.19163843E+03 E0= -.19154285E+03  d E =-.117476E+00
       N       E                     dE             d eps       ncg     rms          rms(c)
DAV:   1    -0.191659564843E+03   -0.21094E-01   -0.47975E-01  8160   0.157E+00    0.331E-01
DAV:   2    -0.191661754503E+03   -0.21897E-02   -0.28622E-02 11520   0.866E-01    0.612E-01
DAV:   3    -0.191658000628E+03    0.37539E-02   -0.11284E-02 11560   0.816E-01    0.241E-01
DAV:   4    -0.191657679056E+03    0.32157E-03   -0.38751E-03 10960   0.368E-01    0.282E-01
DAV:   5    -0.191657342853E+03    0.33620E-03   -0.34922E-03 11720   0.410E-01    0.237E-01
DAV:   6    -0.191656743626E+03    0.59923E-03   -0.13802E-03  9960   0.235E-01    0.607E-02
DAV:   7    -0.191656762270E+03   -0.18645E-04   -0.30194E-04  6560   0.110E-01
   8 F= -.19165676E+03 E0= -.19156069E+03  d E =-.183284E-01
       N       E                     dE             d eps       ncg     rms          rms(c)
DAV:   1    -0.191713010578E+03   -0.56267E-01   -0.58115E+00  8160   0.507E+00    0.546E-01
DAV:   2    -0.191741207702E+03   -0.28197E-01   -0.16939E-01 12760   0.207E+00    0.138E+00
DAV:   3    -0.191720180515E+03    0.21027E-01   -0.48941E-02 12480   0.165E+00    0.379E-01
DAV:   4    -0.191721630872E+03   -0.14504E-02   -0.10085E-02 12280   0.666E-01    0.567E-01
DAV:   5    -0.191718583263E+03    0.30476E-02   -0.70893E-03 11240   0.622E-01    0.214E-01
DAV:   6    -0.191718574393E+03    0.88701E-05   -0.24454E-03 11600   0.265E-01    0.166E-01
DAV:   7    -0.191718640570E+03   -0.66177E-04   -0.20808E-03 10680   0.295E-01    0.237E-01
DAV:   8    -0.191718105895E+03    0.53467E-03   -0.99523E-04  8800   0.211E-01    0.352E-02
DAV:   9    -0.191718113159E+03   -0.72641E-05   -0.64077E-05  5920   0.361E-02
   9 F= -.19171811E+03 E0= -.19162244E+03  d E =-.613509E-01
       N       E                     dE             d eps       ncg     rms          rms(c)
DAV:   1    -0.191745800347E+03   -0.27694E-01   -0.11331E+00  8160   0.229E+00    0.317E-01
DAV:   2    -0.191752822506E+03   -0.70222E-02   -0.46477E-02 13440   0.112E+00    0.760E-01
DAV:   3    -0.191746590341E+03    0.62322E-02   -0.14248E-02 11720   0.892E-01    0.211E-01
DAV:   4    -0.191747330742E+03   -0.74040E-03   -0.42566E-03 11640   0.435E-01    0.382E-01
DAV:   5    -0.191745946421E+03    0.13843E-02   -0.31751E-03 11040   0.409E-01    0.130E-01
DAV:   6    -0.191745887939E+03    0.58483E-04   -0.94607E-04 10080   0.166E-01
  10 F= -.19174589E+03 E0= -.19165031E+03  d E =-.277748E-01
       N       E                     dE             d eps       ncg     rms          rms(c)
DAV:   1    -0.191810787658E+03   -0.64841E-01   -0.86997E+00  8160   0.628E+00    0.687E-01
DAV:   2    -0.191848132676E+03   -0.37345E-01   -0.28303E-01 12240   0.236E+00    0.162E+00
DAV:   3    -0.191825370921E+03    0.22762E-01   -0.81581E-02 12360   0.191E+00    0.655E-01
DAV:   4    -0.191827510238E+03   -0.21393E-02   -0.24609E-02 12200   0.109E+00    0.821E-01
DAV:   5    -0.191819914060E+03    0.75962E-02   -0.12828E-02 11720   0.873E-01    0.220E-01
DAV:   6    -0.191820211858E+03   -0.29780E-03   -0.45221E-03 10680   0.308E-01    0.209E-01
DAV:   7    -0.191819807763E+03    0.40410E-03   -0.24195E-03 11920   0.317E-01    0.212E-01
DAV:   8    -0.191819379713E+03    0.42805E-03   -0.83526E-04  8560   0.208E-01    0.482E-02
DAV:   9    -0.191819358584E+03    0.21129E-04   -0.89569E-05  6000   0.439E-02
  11 F= -.19181936E+03 E0= -.19172471E+03  d E =-.734706E-01
       N       E                     dE             d eps       ncg     rms          rms(c)
DAV:   1    -0.191844071720E+03   -0.24692E-01   -0.89911E-01  8160   0.207E+00    0.299E-01
DAV:   2    -0.191848851985E+03   -0.47803E-02   -0.39509E-02 11960   0.879E-01    0.690E-01
DAV:   3    -0.191845090059E+03    0.37619E-02   -0.14613E-02 11760   0.799E-01    0.308E-01
DAV:   4    -0.191844660934E+03    0.42913E-03   -0.37241E-03 11480   0.410E-01    0.256E-01
DAV:   5    -0.191844054130E+03    0.60680E-03   -0.20794E-03 10560   0.368E-01    0.157E-01
DAV:   6    -0.191843805929E+03    0.24820E-03   -0.10667E-03  9720   0.198E-01    0.713E-02
DAV:   7    -0.191843749115E+03    0.56815E-04   -0.29222E-04  7400   0.971E-02
  12 F= -.19184375E+03 E0= -.19174923E+03  d E =-.243905E-01
       N       E                     dE             d eps       ncg     rms          rms(c)
DAV:   1    -0.191896175827E+03   -0.52370E-01   -0.53611E+00  8160   0.495E+00    0.540E-01
DAV:   2    -0.191918556645E+03   -0.22381E-01   -0.17706E-01 11440   0.165E+00    0.130E+00
DAV:   3    -0.191906255925E+03    0.12301E-01   -0.52545E-02 12520   0.148E+00    0.554E-01
DAV:   4    -0.191903310400E+03    0.29455E-02   -0.79763E-03 11520   0.493E-01    0.252E-01
DAV:   5    -0.191902539799E+03    0.77060E-03   -0.31600E-03 11920   0.328E-01    0.202E-01
DAV:   6    -0.191903006518E+03   -0.46672E-03   -0.32568E-03 12560   0.452E-01    0.263E-01
DAV:   7    -0.191902064356E+03    0.94216E-03   -0.14907E-03 10000   0.283E-01    0.588E-02
DAV:   8    -0.191902085573E+03   -0.21217E-04   -0.22079E-04  7360   0.103E-01
  13 F= -.19190209E+03 E0= -.19180868E+03  d E =-.583365E-01
       N       E                     dE             d eps       ncg     rms          rms(c)
DAV:   1    -0.191914169965E+03   -0.12106E-01   -0.22710E-01  8160   0.104E+00    0.147E-01
DAV:   2    -0.191915605793E+03   -0.14358E-02   -0.10428E-02 11240   0.437E-01    0.363E-01
DAV:   3    -0.191914541871E+03    0.10639E-02   -0.38078E-03 11600   0.414E-01    0.147E-01
DAV:   4    -0.191914324996E+03    0.21688E-03   -0.58739E-04  9080   0.131E-01    0.573E-02
DAV:   5    -0.191914289038E+03    0.35958E-04   -0.20830E-04  6840   0.751E-02
  14 F= -.19191429E+03 E0= -.19182114E+03  d E =-.122035E-01
       N       E                     dE             d eps       ncg     rms          rms(c)
DAV:   1    -0.191965516131E+03   -0.51191E-01   -0.49243E+00  8160   0.479E+00    0.591E-01
DAV:   2    -0.191995106596E+03   -0.29590E-01   -0.19007E-01 11080   0.190E+00    0.160E+00
DAV:   3    -0.191973981841E+03    0.21125E-01   -0.65570E-02 12480   0.172E+00    0.529E-01
DAV:   4    -0.191972425438E+03    0.15564E-02   -0.10509E-02 11400   0.626E-01    0.428E-01
DAV:   5    -0.191970312124E+03    0.21133E-02   -0.62945E-03 13040   0.620E-01    0.229E-01
DAV:   6    -0.191970173962E+03    0.13816E-03   -0.26968E-03 11800   0.331E-01    0.163E-01
DAV:   7    -0.191969742240E+03    0.43172E-03   -0.11873E-03 10840   0.187E-01    0.973E-02
DAV:   8    -0.191969685096E+03    0.57144E-04   -0.31384E-04  8480   0.133E-01
  15 F= -.19196969E+03 E0= -.19187755E+03  d E =-.553961E-01
       N       E                     dE             d eps       ncg     rms          rms(c)
DAV:   1    -0.192039633915E+03   -0.69892E-01   -0.18656E+01  8160   0.928E+00    0.111E+00
DAV:   2    -0.192158372229E+03   -0.11874E+00   -0.71912E-01 11200   0.376E+00    0.306E+00
DAV:   3    -0.192078460129E+03    0.79912E-01   -0.23823E-01 12240   0.338E+00    0.104E+00
DAV:   4    -0.192075133843E+03    0.33263E-02   -0.42735E-02 12120   0.152E+00    0.975E-01
DAV:   5    -0.192064137148E+03    0.10997E-01   -0.25449E-02 12440   0.129E+00    0.416E-01
DAV:   6    -0.192064777153E+03   -0.64001E-03   -0.10481E-02 12600   0.690E-01    0.504E-01
DAV:   7    -0.192064096036E+03    0.68112E-03   -0.96831E-03 12120   0.788E-01    0.437E-01
DAV:   8    -0.192061733687E+03    0.23623E-02   -0.34014E-03 10880   0.418E-01    0.586E-02
DAV:   9    -0.192061724766E+03    0.89204E-05   -0.34191E-04  9240   0.653E-02
  16 F= -.19206172E+03 E0= -.19197166E+03  d E =-.920397E-01
       N       E                     dE             d eps       ncg     rms          rms(c)
DAV:   1    -0.192070136624E+03   -0.84029E-02   -0.30585E-01  8160   0.125E+00    0.246E-01
DAV:   2    -0.192072401868E+03   -0.22652E-02   -0.19339E-02 10840   0.704E-01    0.542E-01
DAV:   3    -0.192070018944E+03    0.23829E-02   -0.75631E-03 12040   0.670E-01    0.251E-01
DAV:   4    -0.192069521151E+03    0.49779E-03   -0.20595E-03 11320   0.330E-01    0.183E-01
DAV:   5    -0.192069365098E+03    0.15605E-03   -0.14651E-03 10200   0.312E-01    0.162E-01
DAV:   6    -0.192069128676E+03    0.23642E-03   -0.90002E-04 10600   0.207E-01    0.107E-01
DAV:   7    -0.192069037665E+03    0.91010E-04   -0.35611E-04  8760   0.148E-01
  17 F= -.19206904E+03 E0= -.19197920E+03  d E =-.731290E-02
       N       E                     dE             d eps       ncg     rms          rms(c)
DAV:   1    -0.192087532938E+03   -0.18404E-01   -0.12444E+00  8160   0.237E+00    0.310E-01
DAV:   2    -0.192097592303E+03   -0.10059E-01   -0.54419E-02 10320   0.120E+00    0.865E-01
DAV:   3    -0.192089983153E+03    0.76092E-02   -0.16966E-02 12400   0.100E+00    0.284E-01
DAV:   4    -0.192089894286E+03    0.88866E-04   -0.33049E-03 10680   0.427E-01    0.269E-01
DAV:   5    -0.192089112463E+03    0.78182E-03   -0.17679E-03 10200   0.331E-01    0.109E-01
DAV:   6    -0.192089052232E+03    0.60232E-04   -0.64195E-04 11280   0.124E-01
  18 F= -.19208905E+03 E0= -.19199987E+03  d E =-.200146E-01
       N       E                     dE             d eps       ncg     rms          rms(c)
DAV:   1    -0.192103423198E+03   -0.14311E-01   -0.79956E-01  8160   0.192E+00    0.248E-01
DAV:   2    -0.192108699277E+03   -0.52761E-02   -0.32625E-02 11080   0.804E-01    0.634E-01
DAV:   3    -0.192105013951E+03    0.36853E-02   -0.10133E-02 12360   0.753E-01    0.235E-01
DAV:   4    -0.192104885719E+03    0.12823E-03   -0.20297E-03 10400   0.309E-01    0.207E-01
DAV:   5    -0.192104384963E+03    0.50076E-03   -0.10824E-03 10880   0.268E-01    0.824E-02
DAV:   6    -0.192104372232E+03    0.12731E-04   -0.39690E-04  9640   0.112E-01
  19 F= -.19210437E+03 E0= -.19201581E+03  d E =-.153200E-01
       N       E                     dE             d eps       ncg     rms          rms(c)
DAV:   1    -0.192143653303E+03   -0.39268E-01   -0.15903E+01  8160   0.858E+00    0.104E+00
DAV:   2    -0.192233032057E+03   -0.89379E-01   -0.59344E-01 11680   0.329E+00    0.250E+00
DAV:   3    -0.192177926416E+03    0.55106E-01   -0.16103E-01 12240   0.308E+00    0.998E-01
DAV:   4    -0.192173550206E+03    0.43762E-02   -0.31563E-02 12080   0.135E+00    0.863E-01
DAV:   5    -0.192164953202E+03    0.85970E-02   -0.20325E-02 12480   0.117E+00    0.368E-01
DAV:   6    -0.192165595193E+03   -0.64199E-03   -0.95799E-03 12600   0.611E-01    0.433E-01
DAV:   7    -0.192164708531E+03    0.88666E-03   -0.70774E-03 11560   0.696E-01    0.364E-01
DAV:   8    -0.192163105648E+03    0.16029E-02   -0.21426E-03 11000   0.366E-01    0.564E-02
DAV:   9    -0.192163083703E+03    0.21945E-04   -0.27103E-04  8720   0.600E-02
  20 F= -.19216308E+03 E0= -.19207678E+03  d E =-.587115E-01
       N       E                     dE             d eps       ncg     rms          rms(c)
DAV:   1    -0.192160406330E+03    0.26993E-02   -0.33585E-01  8160   0.129E+00    0.221E-01
DAV:   2    -0.192161642623E+03   -0.12363E-02   -0.14096E-02 10920   0.540E-01    0.419E-01
DAV:   3    -0.192160239863E+03    0.14028E-02   -0.48027E-03 12320   0.556E-01    0.226E-01
DAV:   4    -0.192159646106E+03    0.59376E-03   -0.14493E-03 10880   0.245E-01    0.940E-02
DAV:   5    -0.192159589184E+03    0.56922E-04   -0.63465E-04 10320   0.169E-01
  21 F= -.19215959E+03 E0= -.19207384E+03  d E =0.349452E-02
       N       E                     dE             d eps       ncg     rms          rms(c)
DAV:   1    -0.192172757448E+03   -0.13111E-01   -0.94602E-01  8160   0.210E+00    0.253E-01
DAV:   2    -0.192177075413E+03   -0.43180E-02   -0.32394E-02 11760   0.749E-01    0.497E-01
DAV:   3    -0.192174384712E+03    0.26907E-02   -0.75091E-03 12240   0.709E-01    0.224E-01
DAV:   4    -0.192174421444E+03   -0.36732E-04   -0.18204E-03 10520   0.340E-01    0.244E-01
DAV:   5    -0.192173834707E+03    0.58674E-03   -0.11961E-03 10080   0.290E-01    0.925E-02
DAV:   6    -0.192173803108E+03    0.31598E-04   -0.47592E-04 10440   0.113E-01
  22 F= -.19217380E+03 E0= -.19208798E+03  d E =-.142139E-01
       N       E                     dE             d eps       ncg     rms          rms(c)
DAV:   1    -0.192171895494E+03    0.19392E-02   -0.24513E-02  8160   0.351E-01    0.808E-02
DAV:   2    -0.192173285415E+03   -0.13899E-02   -0.29087E-03 11760   0.408E-01    0.356E-01
DAV:   3    -0.192171862256E+03    0.14232E-02   -0.16507E-03 10160   0.353E-01    0.279E-02
DAV:   4    -0.192171876157E+03   -0.13901E-04   -0.49600E-05  5960   0.414E-02
  23 F= -.19217188E+03 E0= -.19208627E+03  d E =0.192695E-02
       N       E                     dE             d eps       ncg     rms          rms(c)
DAV:   1    -0.192178510490E+03   -0.66482E-02   -0.28217E-01  8160   0.116E+00    0.188E-01
DAV:   2    -0.192180026234E+03   -0.15157E-02   -0.12455E-02 11440   0.612E-01    0.369E-01
DAV:   3    -0.192178392347E+03    0.16339E-02   -0.35691E-03 12200   0.495E-01    0.110E-01
DAV:   4    -0.192178333361E+03    0.58987E-04   -0.72043E-04  8880   0.168E-01
  24 F= -.19217833E+03 E0= -.19209346E+03  d E =-.645720E-02
       N       E                     dE             d eps       ncg     rms          rms(c)
DAV:   1    -0.192171762253E+03    0.66301E-02   -0.13297E+00  8160   0.260E+00    0.482E-01
DAV:   2    -0.192181877787E+03   -0.10116E-01   -0.73536E-02 12360   0.153E+00    0.107E+00
DAV:   3    -0.192170196446E+03    0.11681E-01   -0.25191E-02 11920   0.135E+00    0.365E-01
DAV:   4    -0.192171322120E+03   -0.11257E-02   -0.86810E-03 12280   0.758E-01    0.532E-01
DAV:   5    -0.192168122862E+03    0.31993E-02   -0.64128E-03 11480   0.638E-01    0.170E-01
DAV:   6    -0.192167845288E+03    0.27757E-03   -0.19194E-03 11080   0.231E-01    0.122E-01
DAV:   7    -0.192167823487E+03    0.21802E-04   -0.75875E-04 10640   0.218E-01
  25 F= -.19216782E+03 E0= -.19208119E+03  d E =0.105099E-01
       N       E                     dE             d eps       ncg     rms          rms(c)
DAV:   1    -0.192169134480E+03   -0.12892E-02   -0.12920E-02 10320   0.274E-01    0.454E-02
DAV:   2    -0.192169245927E+03   -0.11145E-03   -0.66580E-04 10320   0.146E-01    0.103E-01
DAV:   3    -0.192169129344E+03    0.11658E-03   -0.23628E-04  7800   0.135E-01    0.425E-02
DAV:   4    -0.192169122666E+03    0.66789E-05   -0.63713E-05  5880   0.657E-02
  26 F= -.19216912E+03 E0= -.19208258E+03  d E =-.129918E-02
       N       E                     dE             d eps       ncg     rms          rms(c)
DAV:   1    -0.192183217896E+03   -0.14089E-01   -0.10487E+00  8160   0.221E+00    0.294E-01
DAV:   2    -0.192188489093E+03   -0.52712E-02   -0.38541E-02 10760   0.102E+00    0.608E-01
DAV:   3    -0.192184384754E+03    0.41043E-02   -0.93015E-03 12360   0.809E-01    0.226E-01
DAV:   4    -0.192184697988E+03   -0.31323E-03   -0.24141E-03 11240   0.409E-01    0.306E-01
DAV:   5    -0.192183779895E+03    0.91809E-03   -0.19065E-03 10040   0.360E-01    0.111E-01
DAV:   6    -0.192183692816E+03    0.87079E-04   -0.66534E-04 10200   0.131E-01
  27 F= -.19218369E+03 E0= -.19209751E+03  d E =-.145702E-01
       N       E                     dE             d eps       ncg     rms          rms(c)
DAV:   1    -0.192191873554E+03   -0.80937E-02   -0.33230E-01  8160   0.125E+00    0.160E-01
DAV:   2    -0.192193319288E+03   -0.14457E-02   -0.10789E-02 11120   0.441E-01    0.313E-01
DAV:   3    -0.192192375132E+03    0.94416E-03   -0.24910E-03 12480   0.432E-01    0.146E-01
DAV:   4    -0.192192365598E+03    0.95338E-05   -0.71201E-04  9560   0.211E-01
  28 F= -.19219237E+03 E0= -.19210609E+03  d E =-.867278E-02
       N       E                     dE             d eps       ncg     rms          rms(c)
DAV:   1    -0.192188513556E+03    0.38616E-02   -0.83005E-02  8160   0.666E-01    0.994E-02
DAV:   2    -0.192189894722E+03   -0.13812E-02   -0.45104E-03 12040   0.432E-01    0.333E-01
DAV:   3    -0.192188557846E+03    0.13369E-02   -0.19767E-03 10000   0.371E-01    0.636E-02
DAV:   4    -0.192188589521E+03   -0.31675E-04   -0.20256E-04  7600   0.119E-01
  29 F= -.19218859E+03 E0= -.19210292E+03  d E =0.377608E-02
       N       E                     dE             d eps       ncg     rms          rms(c)
DAV:   1    -0.192199612149E+03   -0.11054E-01   -0.66877E-01  8160   0.176E+00    0.236E-01
DAV:   2    -0.192202856643E+03   -0.32445E-02   -0.24279E-02 11080   0.802E-01    0.486E-01
DAV:   3    -0.192200155817E+03    0.27008E-02   -0.63540E-03 12320   0.640E-01    0.172E-01
DAV:   4    -0.192200292256E+03   -0.13644E-03   -0.14197E-03 10120   0.310E-01    0.221E-01
DAV:   5    -0.192199822679E+03    0.46958E-03   -0.10236E-03  9960   0.293E-01    0.969E-02
DAV:   6    -0.192199741088E+03    0.81590E-04   -0.37873E-04  8800   0.113E-01
  30 F= -.19219974E+03 E0= -.19211401E+03  d E =-.111516E-01
       N       E                     dE             d eps       ncg     rms          rms(c)
DAV:   1    -0.192203540648E+03   -0.37180E-02   -0.65812E-02  8160   0.577E-01    0.104E-01
DAV:   2    -0.192203907735E+03   -0.36709E-03   -0.28930E-03 11280   0.270E-01    0.214E-01
DAV:   3    -0.192203486208E+03    0.42153E-03   -0.12940E-03 10360   0.287E-01    0.105E-01
DAV:   4    -0.192203378636E+03    0.10757E-03   -0.24888E-04  8160   0.109E-01    0.496E-02
DAV:   5    -0.192203376669E+03    0.19670E-05   -0.17301E-04  8200   0.112E-01
  31 F= -.19220338E+03 E0= -.19211750E+03  d E =-.363558E-02
       N       E                     dE             d eps       ncg     rms          rms(c)
DAV:   1    -0.192217706953E+03   -0.14328E-01   -0.10427E+00  8160   0.220E+00    0.267E-01
DAV:   2    -0.192220680079E+03   -0.29731E-02   -0.30213E-02 11240   0.642E-01    0.423E-01
DAV:   3    -0.192219214755E+03    0.14653E-02   -0.75073E-03 12480   0.665E-01    0.274E-01
DAV:   4    -0.192218938849E+03    0.27591E-03   -0.21480E-03 11240   0.374E-01    0.237E-01
DAV:   5    -0.192218360902E+03    0.57795E-03   -0.12016E-03 10000   0.319E-01    0.101E-01
DAV:   6    -0.192218312978E+03    0.47924E-04   -0.42200E-04  9760   0.120E-01
  32 F= -.19221831E+03 E0= -.19213162E+03  d E =-.149363E-01
       N       E                     dE             d eps       ncg     rms          rms(c)
DAV:   1    -0.192222324237E+03   -0.39633E-02   -0.80875E-02  8160   0.616E-01    0.887E-02
DAV:   2    -0.192223001531E+03   -0.67729E-03   -0.31313E-03 10760   0.307E-01    0.235E-01
DAV:   3    -0.192222388294E+03    0.61324E-03   -0.10874E-03 11000   0.273E-01    0.641E-02
DAV:   4    -0.192222424696E+03   -0.36402E-04   -0.19347E-04  8080   0.115E-01
  33 F= -.19222242E+03 E0= -.19213555E+03  d E =-.411172E-02
       N       E                     dE             d eps       ncg     rms          rms(c)
DAV:   1    -0.192224675978E+03   -0.22877E-02   -0.38672E-02  8160   0.444E-01    0.680E-02
DAV:   2    -0.192224867793E+03   -0.19181E-03   -0.17535E-03 11360   0.174E-01    0.124E-01
DAV:   3    -0.192224740746E+03    0.12705E-03   -0.41091E-04  9640   0.171E-01    0.665E-02
DAV:   4    -0.192224701895E+03    0.38851E-04   -0.82445E-05  5680   0.764E-02
  34 F= -.19222470E+03 E0= -.19213792E+03  d E =-.227720E-02
       N       E                     dE             d eps       ncg     rms          rms(c)
DAV:   1    -0.192238932232E+03   -0.14191E-01   -0.11520E+00  8160   0.230E+00    0.281E-01
DAV:   2    -0.192242953012E+03   -0.40208E-02   -0.35122E-02 11280   0.799E-01    0.519E-01
DAV:   3    -0.192240402506E+03    0.25505E-02   -0.94045E-03 12520   0.733E-01    0.265E-01
DAV:   4    -0.192240240501E+03    0.16200E-03   -0.21458E-03 10880   0.383E-01    0.236E-01
DAV:   5    -0.192239652334E+03    0.58817E-03   -0.13058E-03 10120   0.337E-01    0.113E-01
DAV:   6    -0.192239584515E+03    0.67819E-04   -0.57769E-04 10400   0.147E-01
  35 F= -.19223958E+03 E0= -.19215196E+03  d E =-.148826E-01
       N       E                     dE             d eps       ncg     rms          rms(c)
DAV:   1    -0.192250817500E+03   -0.11165E-01   -0.77930E-01  8160   0.190E+00    0.236E-01
DAV:   2    -0.192253011701E+03   -0.21942E-02   -0.23942E-02 11240   0.558E-01    0.364E-01
DAV:   3    -0.192252016532E+03    0.99517E-03   -0.65446E-03 12400   0.594E-01    0.260E-01
DAV:   4    -0.192251637222E+03    0.37931E-03   -0.17092E-03 10880   0.331E-01    0.188E-01
DAV:   5    -0.192251275281E+03    0.36194E-03   -0.85997E-04 10120   0.272E-01    0.979E-02
DAV:   6    -0.192251224537E+03    0.50745E-04   -0.41834E-04  9240   0.129E-01
  36 F= -.19225122E+03 E0= -.19216267E+03  d E =-.116400E-01
       N       E                     dE             d eps       ncg     rms          rms(c)
DAV:   1    -0.192260737982E+03   -0.94627E-02   -0.59761E-01  8160   0.165E+00    0.216E-01
DAV:   2    -0.192263836165E+03   -0.30982E-02   -0.21733E-02 10840   0.716E-01    0.462E-01
DAV:   3    -0.192261452929E+03    0.23832E-02   -0.64321E-03 12400   0.604E-01    0.176E-01
DAV:   4    -0.192261515932E+03   -0.63003E-04   -0.12153E-03  9880   0.292E-01    0.190E-01
DAV:   5    -0.192261144203E+03    0.37173E-03   -0.76552E-04  9760   0.257E-01    0.850E-02
DAV:   6    -0.192261098942E+03    0.45261E-04   -0.33745E-04  8800   0.106E-01
  37 F= -.19226110E+03 E0= -.19217200E+03  d E =-.987441E-02
       N       E                     dE             d eps       ncg     rms          rms(c)
DAV:   1    -0.192271760986E+03   -0.10617E-01   -0.89745E-01  8160   0.202E+00    0.249E-01
DAV:   2    -0.192275396649E+03   -0.36357E-02   -0.29832E-02 11120   0.716E-01    0.482E-01
DAV:   3    -0.192273049434E+03    0.23472E-02   -0.88163E-03 12480   0.683E-01    0.232E-01
DAV:   4    -0.192272924927E+03    0.12451E-03   -0.16930E-03 10680   0.331E-01    0.203E-01
DAV:   5    -0.192272470615E+03    0.45431E-03   -0.91607E-04 10120   0.282E-01    0.932E-02
DAV:   6    -0.192272443985E+03    0.26630E-04   -0.46018E-04  9400   0.131E-01
  38 F= -.19227244E+03 E0= -.19218252E+03  d E =-.113450E-01
       N       E                     dE             d eps       ncg     rms          rms(c)
DAV:   1    -0.192285997538E+03   -0.13527E-01   -0.29893E+01  8160   0.118E+01    0.133E+00
DAV:   2    -0.192374702468E+03   -0.88705E-01   -0.93107E-01 11280   0.336E+00    0.197E+00
DAV:   3    -0.192340728016E+03    0.33974E-01   -0.20022E-01 11760   0.317E+00    0.136E+00
DAV:   4    -0.192329915812E+03    0.10812E-01   -0.55291E-02 12320   0.184E+00    0.105E+00
DAV:   5    -0.192319087762E+03    0.10828E-01   -0.29128E-02 11480   0.153E+00    0.545E-01
DAV:   6    -0.192317347472E+03    0.17403E-02   -0.14293E-02 11880   0.730E-01    0.341E-01
DAV:   7    -0.192315426679E+03    0.19208E-02   -0.52644E-03 11720   0.429E-01    0.219E-01
DAV:   8    -0.192314993893E+03    0.43279E-03   -0.14322E-03 10800   0.308E-01    0.951E-02
DAV:   9    -0.192314892652E+03    0.10124E-03   -0.30239E-04  8960   0.112E-01    0.425E-02
DAV:  10    -0.192314850122E+03    0.42530E-04   -0.16323E-04  7640   0.449E-02
  39 F= -.19231485E+03 E0= -.19222555E+03  d E =-.424061E-01
       N       E                     dE             d eps       ncg     rms          rms(c)
DAV:   1    -0.192307648936E+03    0.72437E-02   -0.31753E+00  8160   0.380E+00    0.485E-01
DAV:   2    -0.192322339230E+03   -0.14690E-01   -0.10268E-01 11040   0.150E+00    0.103E+00
DAV:   3    -0.192310890501E+03    0.11449E-01   -0.35362E-02 12240   0.143E+00    0.396E-01
DAV:   4    -0.192310999354E+03   -0.10885E-03   -0.63448E-03 11760   0.645E-01    0.415E-01
DAV:   5    -0.192308921453E+03    0.20779E-02   -0.35001E-03 10200   0.549E-01    0.159E-01
DAV:   6    -0.192308855693E+03    0.65760E-04   -0.16293E-03 10920   0.228E-01    0.130E-01
DAV:   7    -0.192308771447E+03    0.84247E-04   -0.92438E-04 11560   0.231E-01
  40 F= -.19230877E+03 E0= -.19221885E+03  d E =0.607868E-02
       N       E                     dE             d eps       ncg     rms          rms(c)
DAV:   1    -0.192316125371E+03   -0.72697E-02   -0.30540E+00  8160   0.371E+00    0.412E-01
DAV:   2    -0.192324398904E+03   -0.82735E-02   -0.93838E-02 11440   0.102E+00    0.565E-01
DAV:   3    -0.192322208724E+03    0.21902E-02   -0.19789E-02 12320   0.101E+00    0.446E-01
DAV:   4    -0.192320679911E+03    0.15288E-02   -0.56977E-03 12440   0.570E-01    0.291E-01
DAV:   5    -0.192319953441E+03    0.72647E-03   -0.26099E-03 10400   0.449E-01    0.189E-01
DAV:   6    -0.192319721919E+03    0.23152E-03   -0.14504E-03 10720   0.252E-01    0.102E-01
DAV:   7    -0.192319549020E+03    0.17290E-03   -0.52217E-04 10360   0.119E-01    0.486E-02
DAV:   8    -0.192319532438E+03    0.16581E-04   -0.81845E-05  7360   0.837E-02
  41 F= -.19231953E+03 E0= -.19223128E+03  d E =-.107610E-01
       N       E                     dE             d eps       ncg     rms          rms(c)
DAV:   1    -0.192321012476E+03   -0.14635E-02   -0.85018E-02  8160   0.627E-01    0.748E-02
DAV:   2    -0.192321304255E+03   -0.29178E-03   -0.32679E-03 11880   0.200E-01    0.111E-01
DAV:   3    -0.192321237492E+03    0.66763E-04   -0.47216E-04 10120   0.192E-01
  42 F= -.19232124E+03 E0= -.19223364E+03  d E =-.170505E-02
       N       E                     dE             d eps       ncg     rms          rms(c)
DAV:   1    -0.192322670902E+03   -0.13666E-02   -0.73011E-02  8160   0.580E-01    0.831E-02
DAV:   2    -0.192322919739E+03   -0.24884E-03   -0.25222E-03 13320   0.220E-01    0.125E-01
DAV:   3    -0.192322768789E+03    0.15095E-03   -0.56914E-04 10320   0.202E-01    0.819E-02
DAV:   4    -0.192322730410E+03    0.38379E-04   -0.18201E-04  7680   0.115E-01
  43 F= -.19232273E+03 E0= -.19223554E+03  d E =-.149292E-02
       N       E                     dE             d eps       ncg     rms          rms(c)
DAV:   1    -0.192325042525E+03   -0.22737E-02   -0.19526E-01  8160   0.942E-01    0.114E-01
DAV:   2    -0.192325585889E+03   -0.54336E-03   -0.61089E-03 12440   0.268E-01    0.155E-01
DAV:   3    -0.192325445766E+03    0.14012E-03   -0.12223E-03 11400   0.282E-01    0.133E-01
DAV:   4    -0.192325302701E+03    0.14307E-03   -0.35546E-04  9040   0.161E-01    0.677E-02
DAV:   5    -0.192325271806E+03    0.30895E-04   -0.19225E-04  7520   0.107E-01
  44 F= -.19232527E+03 E0= -.19223889E+03  d E =-.254140E-02
       N       E                     dE             d eps       ncg     rms          rms(c)
DAV:   1    -0.192328287169E+03   -0.29845E-02   -0.51164E-01  8160   0.152E+00    0.172E-01
DAV:   2    -0.192329404790E+03   -0.11176E-02   -0.15736E-02 12280   0.411E-01    0.192E-01
DAV:   3    -0.192329556319E+03   -0.15153E-03   -0.22972E-03 12200   0.407E-01    0.229E-01
DAV:   4    -0.192328952779E+03    0.60354E-03   -0.76656E-04 10520   0.251E-01    0.660E-02
DAV:   5    -0.192329007672E+03   -0.54893E-04   -0.33113E-04  8680   0.136E-01
  45 F= -.19232901E+03 E0= -.19224374E+03  d E =-.373587E-02
       N       E                     dE             d eps       ncg     rms          rms(c)
DAV:   1    -0.192331692820E+03   -0.27400E-02   -0.31867E+00  8160   0.380E+00    0.403E-01
DAV:   2    -0.192338423481E+03   -0.67307E-02   -0.94866E-02 11920   0.911E-01    0.374E-01
DAV:   3    -0.192340108694E+03   -0.16852E-02   -0.11400E-02 12400   0.900E-01    0.557E-01
DAV:   4    -0.192336640035E+03    0.34687E-02   -0.44211E-03 12480   0.628E-01    0.170E-01
DAV:   5    -0.192336564222E+03    0.75813E-04   -0.18242E-03 11480   0.280E-01    0.163E-01
DAV:   6    -0.192336585436E+03   -0.21214E-04   -0.14020E-03 10800   0.319E-01    0.159E-01
DAV:   7    -0.192336237329E+03    0.34811E-03   -0.60429E-04  9640   0.191E-01    0.523E-02
DAV:   8    -0.192336224852E+03    0.12477E-04   -0.11480E-04  6320   0.854E-02
  46 F= -.19233622E+03 E0= -.19225453E+03  d E =-.721718E-02
       N       E                     dE             d eps       ncg     rms          rms(c)
DAV:   1    -0.192330551145E+03    0.56862E-02   -0.12766E+00  8160   0.241E+00    0.263E-01
DAV:   2    -0.192333796939E+03   -0.32458E-02   -0.40004E-02 12120   0.667E-01    0.339E-01
DAV:   3    -0.192333618067E+03    0.17887E-03   -0.68064E-03 12200   0.646E-01    0.341E-01
DAV:   4    -0.192332367491E+03    0.12506E-02   -0.20580E-03 12280   0.366E-01    0.118E-01
DAV:   5    -0.192332288043E+03    0.79447E-04   -0.83055E-04 10320   0.195E-01
  47 F= -.19233229E+03 E0= -.19224850E+03  d E =0.393681E-02
       N       E                     dE             d eps       ncg     rms          rms(c)
DAV:   1    -0.192333758328E+03   -0.13908E-02   -0.17227E-01  8160   0.905E-01    0.122E-01
DAV:   2    -0.192335339152E+03   -0.15808E-02   -0.77703E-03 12880   0.433E-01    0.312E-01
DAV:   3    -0.192334082462E+03    0.12567E-02   -0.23613E-03 11600   0.413E-01    0.110E-01
DAV:   4    -0.192333976716E+03    0.10575E-03   -0.39427E-04  8760   0.137E-01    0.502E-02
DAV:   5    -0.192333961642E+03    0.15073E-04   -0.12223E-04  7360   0.881E-02
  48 F= -.19233396E+03 E0= -.19225113E+03  d E =-.167360E-02
       N       E                     dE             d eps       ncg     rms          rms(c)
DAV:   1    -0.192334482612E+03   -0.50590E-03   -0.17011E-02  8280   0.286E-01    0.381E-02
DAV:   2    -0.192334517994E+03   -0.35382E-04   -0.48418E-04 12120   0.773E-02
  49 F= -.19233452E+03 E0= -.19225201E+03  d E =-.556351E-03
       N       E                     dE             d eps       ncg     rms          rms(c)
DAV:   1    -0.192335374480E+03   -0.89187E-03   -0.52238E-02  8160   0.498E-01    0.751E-02
DAV:   2    -0.192335577686E+03   -0.20321E-03   -0.14943E-03 13560   0.187E-01    0.141E-01
DAV:   3    -0.192335377595E+03    0.20009E-03   -0.54746E-04  9840   0.189E-01    0.651E-02
DAV:   4    -0.192335365811E+03    0.11784E-04   -0.14297E-04  5960   0.867E-02
  50 F= -.19233537E+03 E0= -.19225350E+03  d E =-.847818E-03
       N       E                     dE             d eps       ncg     rms          rms(c)
DAV:   1    -0.192336452622E+03   -0.10750E-02   -0.95448E-02  8160   0.663E-01    0.876E-02
DAV:   2    -0.192336830777E+03   -0.37815E-03   -0.33138E-03 12640   0.240E-01    0.145E-01
DAV:   3    -0.192336580167E+03    0.25061E-03   -0.70386E-04 11000   0.225E-01    0.672E-02
DAV:   4    -0.192336551761E+03    0.28406E-04   -0.10681E-04  6040   0.875E-02
  51 F= -.19233655E+03 E0= -.19225536E+03  d E =-.118595E-02
       N       E                     dE             d eps       ncg     rms          rms(c)
DAV:   1    -0.192336967480E+03   -0.38731E-03   -0.16858E-02  8240   0.290E-01    0.524E-02
DAV:   2    -0.192337215936E+03   -0.24846E-03   -0.10844E-03 11600   0.186E-01    0.139E-01
DAV:   3    -0.192336986369E+03    0.22957E-03   -0.37610E-04  8920   0.172E-01    0.350E-02
DAV:   4    -0.192336984747E+03    0.16225E-05   -0.40834E-05  6040   0.500E-02
  52 F= -.19233698E+03 E0= -.19225592E+03  d E =-.432986E-03
