unknown system                          
           1
     8.858788    5.104831    0.000000
    -8.857560    5.102718    0.000000
     0.000000    0.000000   30.000000
   V    Mo   W    S 
   3   3   3  18
Direct configuration=     1
   0.33333334  0.00000000  0.00000000
   0.00000000  0.00000000  0.00000000
   0.33333334  0.33333334  0.00000000
   0.66666669  0.33333334  0.00000000
   0.33333334  0.66666669  0.00000000
   0.66666669  0.00000000  0.00000000
   1.00000000  0.33333334  0.00000000
   0.00000000  0.66666669  0.00000000
   0.66666669  0.66666669  0.00000000
   0.11068511  0.22244981  0.95539999
   0.22244981  0.11068511  0.04460000
   0.11068511  0.55578315  0.95539999
   0.22244981  0.44401845  0.04460000
   0.11068511  0.88911647  0.95539999
   0.22244981  0.77735180  0.04460000
   0.44401845  0.22244981  0.95539999
   0.55578315  0.11068511  0.04460000
   0.44401845  0.55578315  0.95539999
   0.55578315  0.44401845  0.04460000
   0.44401845  0.88911647  0.95539999
   0.55578315  0.77735180  0.04460000
   0.77735180  0.22244981  0.95539999
   0.88911647  0.11068511  0.04460000
   0.77735180  0.55578315  0.95539999
   0.88911647  0.44401845  0.04460000
   0.77735180  0.88911647  0.95539999
   0.88911647  0.77735180  0.04460000
unknown system                          
           1
     8.669697    4.998289    0.000000
    -8.668568    4.996346    0.000000
     0.000000    0.000000   30.000000
   V    Mo   W    S 
   3   3   3  18
Direct configuration=     2
   0.33517680  0.00051712  0.00003406
  -0.00020665  0.00039761  0.00005049
   0.33408736  0.33346447  0.00006317
   0.66656150  0.33183922  0.00010166
   0.33456950  0.66799559 -0.00015088
   0.66514733  0.00003450 -0.00018694
   0.99874688  0.33299974  0.00019843
   0.00049941  0.66583348  0.00012181
   0.66489565  0.66664962 -0.00023329
   0.11281116  0.22035488  0.95305625
   0.22224927  0.11091072  0.04582541
   0.11045763  0.55511210  0.95072617
   0.22348435  0.44141678  0.04792380
   0.11251123  0.89229279  0.95315181
   0.22326102  0.78167559  0.04804832
   0.43989148  0.22012898  0.95312473
   0.55098463  0.10892090  0.04809199
   0.44324547  0.55158358  0.95188514
   0.55152175  0.44302911  0.04804699
   0.44202480  0.89118179  0.95194288
   0.55597200  0.77730012  0.04924877
   0.77858388  0.22241117  0.95075097
   0.89180227  0.10972489  0.04795676
   0.77806795  0.55636558  0.95081773
   0.88964909  0.44481804  0.04940416
   0.78157498  0.88994316  0.95194203
   0.89064367  0.78131293  0.04805749
unknown system                          
           1
     8.486637    4.898637    0.000000
    -8.485896    4.897365    0.000000
     0.000000    0.000000   30.000000
   V    Mo   W    S 
   3   3   3  18
Direct configuration=     3
   0.33575732  0.00061343  0.00003053
  -0.00034773  0.00044297  0.00005268
   0.33437703  0.33365961  0.00010798
   0.66719997  0.33166196  0.00008149
   0.33517720  0.66849661 -0.00012744
   0.66463577 -0.00008716 -0.00020312
   0.99806260  0.33323711  0.00023207
   0.00038755  0.66501440  0.00009475
   0.66428755  0.66674316 -0.00025295
   0.11273442  0.22044465  0.95316202
   0.22225368  0.11093450  0.04571029
   0.11024060  0.55501054  0.95073317
   0.22328456  0.44125781  0.04785511
   0.11247856  0.89214616  0.95328164
   0.22310462  0.78168730  0.04803031
   0.43977542  0.22002286  0.95316776
   0.55081504  0.10882270  0.04817501
   0.44340147  0.55158645  0.95182977
   0.55153677  0.44318084  0.04801345
   0.44195993  0.89127317  0.95182647
   0.55612118  0.77719014  0.04929595
   0.77882429  0.22252082  0.95067263
   0.89194178  0.10992545  0.04793934
   0.77818139  0.55661449  0.95088131
   0.88989094  0.44489602  0.04950512
   0.78154570  0.88978443  0.95194572
   0.89058685  0.78113404  0.04795885
unknown system                          
           1
     8.285009    4.778175    0.000000
    -8.281231    4.771643    0.000000
     0.000000    0.000000   30.000000
   V    Mo   W    S 
   3   3   3  18
Direct configuration=     4
   0.33793125  0.00058539 -0.00000114
  -0.00135065  0.00027365  0.00003278
   0.33568873  0.33502467  0.00024071
   0.67086912  0.33169758 -0.00000786
   0.33770109  0.67032135 -0.00000001
   0.66280503 -0.00079316 -0.00018208
   0.99495486  0.33472855  0.00025955
  -0.00072099  0.66087255 -0.00004510
   0.66202919  0.66727959 -0.00021270
   0.11321583  0.22012296  0.95225320
   0.22230532  0.11097835  0.04649487
   0.11030656  0.55490558  0.94913728
   0.22365909  0.44070355  0.04900614
   0.11316441  0.89312324  0.95246692
   0.22370041  0.78294078  0.04941845
   0.43867039  0.21929777  0.95204112
   0.54944319  0.10810800  0.04993301
   0.44262171  0.55030575  0.95009501
   0.55060868  0.44261246  0.04929595
   0.44128314  0.89205231  0.94990099
   0.55638013  0.77730833  0.05110057
   0.77899064  0.22245271  0.94874935
   0.89227051  0.10944256  0.04931789
   0.77818695  0.55681264  0.94953844
   0.88993789  0.44481290  0.05165681
   0.78257848  0.89043794  0.95048541
   0.89098349  0.78180645  0.04902433
unknown system                          
           1
     8.298158    4.784941    0.000000
    -8.290192    4.771149    0.000000
     0.000000    0.000000   30.000000
   V    Mo   W    S 
   3   3   3  18
Direct configuration=     5
   0.34148418  0.00046372 -0.00009129
  -0.00294492  0.00017502 -0.00005285
   0.33788445  0.33753655  0.00033435
   0.67945932  0.33248092 -0.00009965
   0.34360980  0.67410925  0.00012757
   0.65944486 -0.00294488 -0.00005880
   0.98820566  0.33759628  0.00014420
  -0.00363487  0.65188500 -0.00020021
   0.65734022  0.66930002 -0.00006806
   0.11346486  0.22023487  0.95122524
   0.22260996  0.11102093  0.04774388
   0.11140027  0.55476981  0.94709896
   0.22367324  0.44045986  0.05029352
   0.11390070  0.89350353  0.95160898
   0.22432986  0.78412428  0.05106096
   0.43855480  0.21885663  0.95061526
   0.54838345  0.10774877  0.05223698
   0.44151536  0.54907759  0.94769312
   0.55021550  0.44183632  0.05075316
   0.44071685  0.89285117  0.94721007
   0.55656571  0.77807214  0.05368148
   0.77875716  0.22155553  0.94606275
   0.89201053  0.10919477  0.05100573
   0.77766368  0.55662979  0.94793431
   0.88940886  0.44451599  0.05512371
   0.78307468  0.89116460  0.94847995
   0.89112029  0.78199597  0.05013656
unknown system                          
           1
     8.295632    4.784005    0.000000
    -8.284710    4.765084    0.000000
     0.000000    0.000000   30.000000
   V    Mo   W    S 
   3   3   3  18
Direct configuration=     6
   0.34219985  0.00077874 -0.00008751
  -0.00281319  0.00072976 -0.00002037
   0.33808349  0.33774360  0.00038625
   0.68137396  0.33270549 -0.00006953
   0.34564338  0.67520122  0.00006279
   0.65885784 -0.00415749 -0.00005683
   0.98665650  0.33763304  0.00007854
  -0.00465129  0.64954618 -0.00012399
   0.65610104  0.67084211 -0.00002826
   0.11295415  0.22091414  0.95135266
   0.22281584  0.11106514  0.04774094
   0.11220942  0.55476126  0.94703029
   0.22294918  0.44073313  0.05003140
   0.11348963  0.89226501  0.95183147
   0.22407907  0.78358872  0.05091387
   0.43987290  0.21943684  0.95069672
   0.54896440  0.10821611  0.05228171
   0.44152569  0.54951663  0.94751221
   0.55108894  0.44199184  0.05051727
   0.44089419  0.89272748  0.94702646
   0.55654320  0.77857501  0.05412286
   0.77835836  0.22069631  0.94578202
   0.89169528  0.10972366  0.05094893
   0.77707404  0.55644760  0.94808093
   0.88915241  0.44436517  0.05574821
   0.78237118  0.89094546  0.94836174
   0.89072500  0.78122232  0.04987909
unknown system                          
           1
     8.309691    4.791078    0.000000
    -8.297283    4.769587    0.000000
     0.000000    0.000000   30.000000
   V    Mo   W    S 
   3   3   3  18
Direct configuration=     7
   0.34363250  0.00159821 -0.00012135
  -0.00245299  0.00195939 -0.00002667
   0.33841010  0.33794747  0.00049572
   0.68473232  0.33256362 -0.00006368
   0.34930459  0.67732431  0.00003372
   0.65764235 -0.00631478 -0.00004170
   0.98358437  0.33790109  0.00001081
  -0.00612738  0.64530606 -0.00013540
   0.65390399  0.67353762  0.00004757
   0.11243107  0.22158953  0.95147356
   0.22304627  0.11113014  0.04772615
   0.11303837  0.55473334  0.94699549
   0.22215063  0.44104084  0.04963742
   0.11295722  0.89080871  0.95223648
   0.22380407  0.78301000  0.05072148
   0.44131276  0.22009721  0.95079785
   0.54949644  0.10856674  0.05241722
   0.44152847  0.54996878  0.94717699
   0.55208924  0.44232801  0.05016208
   0.44106183  0.89273681  0.94667457
   0.55644540  0.77919581  0.05487652
   0.77782832  0.21959421  0.94536052
   0.89131579  0.11014283  0.05098075
   0.77627522  0.55638593  0.94834516
   0.88887596  0.44390288  0.05660252
   0.78174395  0.89081310  0.94808433
   0.89018359  0.78034658  0.04953179
unknown system                          
           1
     8.316497    4.794361    0.000000
    -8.301564    4.768492    0.000000
     0.000000    0.000000   30.000000
   V    Mo   W    S 
   3   3   3  18
Direct configuration=     8
   0.34394278  0.00193279 -0.00013322
  -0.00231682  0.00243846 -0.00002846
   0.33838649  0.33786018  0.00052788
   0.68470774  0.33222154 -0.00005327
   0.34971148  0.67764430  0.00002809
   0.65754659 -0.00665659 -0.00003567
   0.98337750  0.33759052 -0.00000249
  -0.00615667  0.64497386 -0.00010774
   0.65376013  0.67406307  0.00004292
   0.11236812  0.22164293  0.95150108
   0.22306412  0.11115215  0.04768918
   0.11318019  0.55467143  0.94702908
   0.22204683  0.44109423  0.04951197
   0.11283379  0.89056817  0.95236863
   0.22374197  0.78293818  0.05063770
   0.44147927  0.22018614  0.95083773
   0.54954246  0.10856900  0.05240827
   0.44153605  0.55004874  0.94717788
   0.55227955  0.44247564  0.05003625
   0.44106323  0.89273742  0.94666100
   0.55639857  0.77932591  0.05500524
   0.77771496  0.21934002  0.94531935
   0.89130521  0.11014260  0.05097201
   0.77605641  0.55640008  0.94846630
   0.88881601  0.44377653  0.05666980
   0.78172625  0.89081817  0.94805657
   0.89010224  0.78025901  0.04941384
unknown system                          
           1
     8.326063    4.799103    0.000000
    -8.310299    4.771796    0.000000
     0.000000    0.000000   30.000000
   V    Mo   W    S 
   3   3   3  18
Direct configuration=     9
   0.34500854  0.00289270 -0.00017597
  -0.00202898  0.00382652 -0.00004369
   0.33842564  0.33769345  0.00062616
   0.68590842  0.33153418 -0.00004142
   0.35164122  0.67893976  0.00000782
   0.65705888 -0.00791787 -0.00003025
   0.98181728  0.33714060 -0.00003615
  -0.00668213  0.64282092 -0.00008602
   0.65278262  0.67595169  0.00006200
   0.11213242  0.22189266  0.95158179
   0.22314221  0.11120776  0.04760709
   0.11358288  0.55453176  0.94712922
   0.22164721  0.44128450  0.04914955
   0.11244174  0.88974498  0.95277145
   0.22354674  0.78264993  0.05041942
   0.44214434  0.22051979  0.95093393
   0.54976696  0.10861684  0.05243235
   0.44157178  0.55037006  0.94711820
   0.55291569  0.44285926  0.04968183
   0.44114278  0.89274793  0.94655895
   0.55627781  0.77968251  0.05540448
   0.77737320  0.21861749  0.94516707
   0.89115798  0.11019983  0.05096479
   0.77547327  0.55639285  0.94881710
   0.88863009  0.44333105  0.05696906
   0.78151247  0.89081304  0.94794706
   0.88982343  0.77987024  0.04906409
unknown system                          
           1
     8.339557    4.804689    0.000000
    -8.322286    4.774780    0.000000
     0.000000    0.000000   30.000000
   V    Mo   W    S 
   3   3   3  18
Direct configuration=    10
   0.34562265  0.00343879 -0.00020159
  -0.00191285  0.00463040 -0.00005702
   0.33846267  0.33759736  0.00068085
   0.68620254  0.33105681 -0.00003106
   0.35239345  0.67953037  0.00000212
   0.65684351 -0.00841539 -0.00002397
   0.98120958  0.33677790 -0.00005579
  -0.00681062  0.64194894 -0.00006553
   0.65241078  0.67675485  0.00006388
   0.11206689  0.22201954  0.95158062
   0.22319718  0.11123921  0.04758694
   0.11377703  0.55442573  0.94715504
   0.22147399  0.44136548  0.04898543
   0.11227252  0.88937408  0.95297091
   0.22346382  0.78256324  0.05032814
   0.44241265  0.22065901  0.95095254
   0.54983471  0.10859579  0.05246842
   0.44156545  0.55049909  0.94708254
   0.55322581  0.44305358  0.04952349
   0.44116754  0.89278224  0.94649705
   0.55620736  0.77986462  0.05561361
   0.77719708  0.21824575  0.94506818
   0.89108219  0.11018699  0.05100405
   0.77516755  0.55639211  0.94898521
   0.88852087  0.44307634  0.05711840
   0.78144947  0.89085029  0.94786540
   0.88971063  0.77970135  0.04890205
unknown system                          
           1
     8.348748    4.809705    0.000000
    -8.330790    4.778606    0.000000
     0.000000    0.000000   30.000000
   V    Mo   W    S 
   3   3   3  18
Direct configuration=    11
   0.34761739  0.00519224 -0.00029033
  -0.00156477  0.00723017 -0.00010948
   0.33864829  0.33730633  0.00085854
   0.68686599  0.32955998 -0.00001077
   0.35429141  0.68115358 -0.00001042
   0.65617428 -0.00963574 -0.00001568
   0.97948405  0.33569072 -0.00009577
  -0.00706108  0.63944025 -0.00000842
   0.65134657  0.67886032  0.00005498
   0.11198109  0.22238153  0.95158234
   0.22341833  0.11138829  0.04747912
   0.11417291  0.55403029  0.94731464
   0.22105589  0.44160588  0.04844715
   0.11181704  0.88833210  0.95363535
   0.22323647  0.78237044  0.05000997
   0.44306567  0.22099096  0.95103711
   0.54997229  0.10846453  0.05253477
   0.44158232  0.55094124  0.94709624
   0.55409984  0.44364707  0.04901922
   0.44123845  0.89286331  0.94640948
   0.55597668  0.78027082  0.05605622
   0.77673285  0.21730012  0.94489257
   0.89085955  0.11011228  0.05110044
   0.77436330  0.55634894  0.94957737
   0.88822137  0.44224984  0.05736403
   0.78120726  0.89091030  0.94770793
   0.88941100  0.77920866  0.04836330
unknown system                          
           1
     8.356313    4.812712    0.000000
    -8.337660    4.780415    0.000000
     0.000000    0.000000   30.000000
   V    Mo   W    S 
   3   3   3  18
Direct configuration=    12
   0.34832372  0.00586070 -0.00032833
  -0.00165872  0.00827463 -0.00014036
   0.33865634  0.33711533  0.00092280
   0.68674978  0.32891596 -0.00000217
   0.35466095  0.68162940 -0.00000916
   0.65623050 -0.00983603 -0.00000921
   0.97905959  0.33500613 -0.00011290
  -0.00696553  0.63885273  0.00002175
   0.65128350  0.67956831  0.00004398
   0.11199523  0.22244427  0.95153558
   0.22343161  0.11140581  0.04745742
   0.11426939  0.55382453  0.94732549
   0.22093052  0.44166232  0.04829986
   0.11163307  0.88807404  0.95388065
   0.22316978  0.78237601  0.04994859
   0.44321104  0.22109772  0.95100160
   0.55000646  0.10837691  0.05261442
   0.44152373  0.55102457  0.94708334
   0.55440990  0.44385044  0.04889745
   0.44124623  0.89292158  0.94635139
   0.55590974  0.78042046  0.05619718
   0.77656004  0.21695915  0.94480655
   0.89078857  0.10999268  0.05117340
   0.77408084  0.55632018  0.94975704
   0.88809449  0.44191121  0.05745585
   0.78120822  0.89100909  0.94765164
   0.88940546  0.77915630  0.04817605
unknown system                          
           1
     8.359714    4.814062    0.000000
    -8.341541    4.782601    0.000000
     0.000000    0.000000   30.000000
   V    Mo   W    S 
   3   3   3  18
Direct configuration=    13
   0.35012469  0.00751269 -0.00041720
  -0.00185162  0.01082646 -0.00021515
   0.33878894  0.33670902  0.00109813
   0.68677273  0.32745874  0.00002677
   0.35569217  0.68283012 -0.00001716
   0.65618016 -0.01036885 -0.00000437
   0.97781703  0.33360219 -0.00014009
  -0.00682505  0.63708257  0.00007951
   0.65083051  0.68118110  0.00001699
   0.11203716  0.22262512  0.95145343
   0.22350067  0.11150206  0.04735463
   0.11440331  0.55330018  0.94744256
   0.22064643  0.44181959  0.04787245
   0.11119162  0.88739200  0.95452645
   0.22299763  0.78234995  0.04974010
   0.44358155  0.22134081  0.95097689
   0.55009018  0.10816945  0.05273638
   0.44149293  0.55135971  0.94714592
   0.55513247  0.44436233  0.04852510
   0.44131825  0.89303371  0.94629191
   0.55572792  0.78071299  0.05645224
   0.77617171  0.21621905  0.94466987
   0.89060701  0.10975032  0.05133528
   0.77347355  0.55623208  0.95027143
   0.88782774  0.44107003  0.05756323
   0.78112534  0.89118317  0.94753649
   0.88935945  0.77895785  0.04767811
unknown system                          
           1
     8.368969    4.817181    0.000000
    -8.352242    4.788247    0.000000
     0.000000    0.000000   30.000000
   V    Mo   W    S 
   3   3   3  18
Direct configuration=    14
   0.35059764  0.00787947 -0.00043739
  -0.00203905  0.01131299 -0.00023948
   0.33886887  0.33660950  0.00114023
   0.68658972  0.32708547  0.00003499
   0.35573039  0.68306263 -0.00001528
   0.65618343 -0.01031863 -0.00000250
   0.97763932  0.33322213 -0.00014645
  -0.00670312  0.63685543  0.00009712
   0.65082696  0.68139891  0.00000472
   0.11209464  0.22268481  0.95140028
   0.22350538  0.11150429  0.04733429
   0.11439471  0.55312293  0.94744549
   0.22060920  0.44184233  0.04779529
   0.11112285  0.88731614  0.95467473
   0.22298453  0.78240440  0.04971790
   0.44361603  0.22136617  0.95094878
   0.55007965  0.10810373  0.05277834
   0.44146895  0.55140640  0.94716488
   0.55528213  0.44446286  0.04847481
   0.44133102  0.89308579  0.94627913
   0.55568681  0.78075673  0.05648229
   0.77609078  0.21608672  0.94463268
   0.89056253  0.10969141  0.05141046
   0.77337900  0.55620921  0.95037329
   0.88777017  0.44085697  0.05757728
   0.78114053  0.89125176  0.94749579
   0.88940136  0.77895390  0.04757822
unknown system                          
           1
     8.379038    4.818267    0.000000
    -8.363467    4.791369    0.000000
     0.000000    0.000000   30.000000
   V    Mo   W    S 
   3   3   3  18
Direct configuration=    15
   0.35251509  0.00947490 -0.00052832
  -0.00284342  0.01371686 -0.00035419
   0.33915976  0.33616498  0.00133162
   0.68621269  0.32556071  0.00006205
   0.35622062  0.68410186 -0.00001290
   0.65638325 -0.01034480  0.00000805
   0.97655942  0.33153487 -0.00016300
  -0.00625989  0.63544450  0.00017268
   0.65058392  0.68270316 -0.00004955
   0.11224897  0.22286152  0.95124471
   0.22348652  0.11155512  0.04721035
   0.11437195  0.55237688  0.94750862
   0.22039794  0.44195937  0.04739178
   0.11071650  0.88689893  0.95536815
   0.22290548  0.78255295  0.04959497
   0.44386329  0.22156142  0.95084417
   0.55016332  0.10787853  0.05296371
   0.44140011  0.55169932  0.94727061
   0.55601658  0.44497184  0.04819667
   0.44142561  0.89325624  0.94621650
   0.55550841  0.78096498  0.05660732
   0.77571885  0.21548271  0.94450342
   0.89037652  0.10944094  0.05167236
   0.77289650  0.55607724  0.95087372
   0.88751109  0.43988841  0.05762365
   0.78112220  0.89150521  0.94736338
   0.88955316  0.77892580  0.04707936
unknown system                          
           1
     8.386326    4.821620    0.000000
    -8.372639    4.798005    0.000000
     0.000000    0.000000   30.000000
   V    Mo   W    S 
   3   3   3  18
Direct configuration=    16
   0.35642914  0.01252103 -0.00069960
  -0.00493973  0.01778386 -0.00060523
   0.33997760  0.33516880  0.00172812
   0.68511855  0.32250025  0.00014167
   0.35685653  0.68624316 -0.00002971
   0.65683721 -0.01003581  0.00003179
   0.97453882  0.32811040 -0.00020941
  -0.00513540  0.63299044  0.00032516
   0.65038074  0.68516106 -0.00018276
   0.11262829  0.22327529  0.95092396
   0.22339266  0.11160304  0.04690031
   0.11419896  0.55076920  0.94761608
   0.22007046  0.44216277  0.04659671
   0.10999267  0.88628777  0.95676778
   0.22280047  0.78291909  0.04939324
   0.44424783  0.22189067  0.95063155
   0.55029569  0.10748103  0.05332832
   0.44118715  0.55217699  0.94748900
   0.55744573  0.44600856  0.04769250
   0.44156507  0.89360394  0.94611430
   0.55517898  0.78139225  0.05683030
   0.77496048  0.21432135  0.94421136
   0.88999201  0.10902181  0.05225689
   0.77212504  0.55586633  0.95186575
   0.88704336  0.43801601  0.05771150
   0.78109381  0.89202916  0.94706801
   0.88993234  0.77894601  0.04610230
unknown system                          
           1
     8.384203    4.819167    0.000000
    -8.371248    4.796829    0.000000
     0.000000    0.000000   30.000000
   V    Mo   W    S 
   3   3   3  18
Direct configuration=    17
   0.35664427  0.01246544 -0.00069531
  -0.00541145  0.01732011 -0.00065128
   0.34024968  0.33502103  0.00175824
   0.68483178  0.32226610  0.00015439
   0.35666271  0.68640124 -0.00001372
   0.65692179 -0.00965542  0.00004730
   0.97442074  0.32777028 -0.00019375
  -0.00496020  0.63307876  0.00036650
   0.65047822  0.68525392 -0.00021584
   0.11269130  0.22340048  0.95088080
   0.22333268  0.11150667  0.04685855
   0.11423022  0.55056557  0.94756544
   0.22009083  0.44215844  0.04651943
   0.11009548  0.88652435  0.95687294
   0.22291043  0.78306696  0.04944430
   0.44427614  0.22193103  0.95056834
   0.55029128  0.10746271  0.05340375
   0.44111523  0.55217240  0.94750320
   0.55761695  0.44612722  0.04771933
   0.44157499  0.89372837  0.94605870
   0.55511941  0.78142848  0.05683192
   0.77486307  0.21425841  0.94415103
   0.88991348  0.10906946  0.05235021
   0.77214844  0.55591442  0.95193819
   0.88699344  0.43778490  0.05772690
   0.78111330  0.89217674  0.94697942
   0.89000023  0.77901636  0.04607093
unknown system                          
           1
     8.387292    4.819663    0.000000
    -8.375263    4.798943    0.000000
     0.000000    0.000000   30.000000
   V    Mo   W    S 
   3   3   3  18
Direct configuration=    18
   0.35756333  0.01298084 -0.00072802
  -0.00624076  0.01782418 -0.00074852
   0.34065884  0.33463861  0.00185583
   0.68449043  0.32154031  0.00017429
   0.35670498  0.68698601 -0.00002521
   0.65711285 -0.00937339  0.00005924
   0.97384949  0.32689236 -0.00020383
  -0.00454004  0.63254023  0.00041524
   0.65043803  0.68589398 -0.00027682
   0.11275179  0.22347394  0.95084196
   0.22326908  0.11145707  0.04674230
   0.11411775  0.55011718  0.94760519
   0.22004340  0.44219179  0.04627820
   0.11001487  0.88654902  0.95723319
   0.22294760  0.78321329  0.04943570
   0.44435543  0.22199590  0.95049959
   0.55033833  0.10740293  0.05351049
   0.44106775  0.55233171  0.94759653
   0.55804320  0.44647819  0.04762992
   0.44162130  0.89386616  0.94602910
   0.55504752  0.78154006  0.05682214
   0.77466677  0.21405159  0.94409492
   0.88979739  0.10900923  0.05249133
   0.77206556  0.55592338  0.95221416
   0.88689498  0.43729854  0.05771242
   0.78104047  0.89234622  0.94689552
   0.89009412  0.77904512  0.04584506
unknown system                          
           1
     8.398588    4.820629    0.000000
    -8.391267    4.808125    0.000000
     0.000000    0.000000   30.000000
   V    Mo   W    S 
   3   3   3  18
Direct configuration=    19
   0.35823833  0.01325886 -0.00074149
  -0.00701405  0.01798859 -0.00083534
   0.34113338  0.33422006  0.00193690
   0.68408937  0.32100341  0.00019860
   0.35659732  0.68743969 -0.00003451
   0.65729945 -0.00903165  0.00007286
   0.97344794  0.32618739 -0.00020677
  -0.00413147  0.63224241  0.00047656
   0.65044644  0.68633682 -0.00033263
   0.11280077  0.22353369  0.95081921
   0.22320464  0.11137822  0.04664795
   0.11405464  0.54975015  0.94760882
   0.22002460  0.44219446  0.04607348
   0.11000809  0.88664513  0.95749576
   0.22301199  0.78336548  0.04946713
   0.44440224  0.22203755  0.95042361
   0.55036808  0.10738065  0.05361731
   0.44099595  0.55243671  0.94765899
   0.55840769  0.44680843  0.04759238
   0.44165133  0.89401587  0.94597532
   0.55498099  0.78164344  0.05682241
   0.77449126  0.21390624  0.94402332
   0.88970621  0.10897077  0.05261264
   0.77204788  0.55599054  0.95242439
   0.88681628  0.43691668  0.05771946
   0.78096876  0.89252195  0.94679096
   0.89016633  0.77907293  0.04569259
unknown system                          
           1
     8.390833    4.817443    0.000000
    -8.382896    4.803864    0.000000
     0.000000    0.000000   30.000000
   V    Mo   W    S 
   3   3   3  18
Direct configuration=    20
   0.36095101  0.01408621 -0.00077394
  -0.01056276  0.01833827 -0.00122608
   0.34360612  0.33196491  0.00227964
   0.68230879  0.31872030  0.00028305
   0.35617849  0.68964361 -0.00007426
   0.65819772 -0.00744342  0.00010970
   0.97148575  0.32314011 -0.00020753
  -0.00226840  0.63122221  0.00075582
   0.65052109  0.68841827 -0.00059306
   0.11295259  0.22370406  0.95081291
   0.22288051  0.11091865  0.04621916
   0.11371969  0.54821857  0.94763356
   0.22000584  0.44205858  0.04507174
   0.11001806  0.88713788  0.95861066
   0.22334847  0.78400443  0.04965845
   0.44455570  0.22215458  0.95009416
   0.55055307  0.10736154  0.05404507
   0.44065920  0.55287672  0.94797455
   0.56002319  0.44837309  0.04748532
   0.44187014  0.89475675  0.94576830
   0.55468610  0.78213513  0.05672934
   0.77370199  0.21347874  0.94379178
   0.88928951  0.10876706  0.05306739
   0.77217764  0.55641508  0.95337747
   0.88648368  0.43530548  0.05771112
   0.78048154  0.89329086  0.94636257
   0.89038973  0.77916679  0.04503300
unknown system                          
           1
     8.390733    4.816417    0.000000
    -8.383792    4.804575    0.000000
     0.000000    0.000000   30.000000
   V    Mo   W    S 
   3   3   3  18
Direct configuration=    21
   0.36038815  0.01371679 -0.00074569
  -0.01014724  0.01809728 -0.00118071
   0.34360277  0.33191447  0.00223918
   0.68247504  0.31919957  0.00029639
   0.35609685  0.68945893 -0.00008057
   0.65816265 -0.00754157  0.00011040
   0.97182163  0.32366518 -0.00019286
  -0.00247310  0.63143183  0.00073827
   0.65050005  0.68812427 -0.00058084
   0.11289962  0.22365232  0.95085376
   0.22286178  0.11085498  0.04629186
   0.11372923  0.54844359  0.94763991
   0.22007293  0.44199143  0.04511433
   0.11004424  0.88711140  0.95842662
   0.22334692  0.78391786  0.04968634
   0.44451668  0.22209387  0.95010755
   0.55057691  0.10740462  0.05399225
   0.44067825  0.55280506  0.94795759
   0.55985062  0.44826272  0.04754455
   0.44188418  0.89471273  0.94576387
   0.55472370  0.78214522  0.05673484
   0.77376190  0.21360040  0.94380282
   0.88929754  0.10877270  0.05298958
   0.77226717  0.55646558  0.95326011
   0.88653128  0.43555559  0.05770912
   0.78044392  0.89321693  0.94638333
   0.89030079  0.77914071  0.04513790
unknown system                          
           1
     8.390129    4.816291    0.000000
    -8.382945    4.804024    0.000000
     0.000000    0.000000   30.000000
   V    Mo   W    S 
   3   3   3  18
Direct configuration=    22
   0.36078591  0.01361470 -0.00072910
  -0.01099540  0.01791227 -0.00127243
   0.34447473  0.33110842  0.00228448
   0.68204140  0.31883787  0.00031696
   0.35590307  0.69006959 -0.00009680
   0.65841998 -0.00709647  0.00010887
   0.97138204  0.32312215 -0.00019462
  -0.00199328  0.63132633  0.00082554
   0.65051739  0.68860805 -0.00064872
   0.11295556  0.22370788  0.95087272
   0.22274087  0.11061179  0.04624467
   0.11364114  0.54815476  0.94762569
   0.22012752  0.44187618  0.04484023
   0.11005314  0.88721649  0.95860672
   0.22343139  0.78405439  0.04979493
   0.44452577  0.22206961  0.94999378
   0.55065033  0.10743976  0.05409846
   0.44054972  0.55283963  0.94802816
   0.56026091  0.44870244  0.04759886
   0.44198068  0.89493907  0.94568163
   0.55466356  0.78230351  0.05670883
   0.77356495  0.21361706  0.94375064
   0.88916722  0.10871686  0.05309341
   0.77236284  0.55666569  0.95344562
   0.88646569  0.43526526  0.05773185
   0.78024344  0.89339967  0.94625514
   0.89029386  0.77913149  0.04503438
unknown system                          
           1
     8.386691    4.813556    0.000000
    -8.378823    4.800100    0.000000
     0.000000    0.000000   30.000000
   V    Mo   W    S 
   3   3   3  18
Direct configuration=    23
   0.36067307  0.01356098 -0.00072683
  -0.01087190  0.01786853 -0.00125790
   0.34440070  0.33118447  0.00226433
   0.68212091  0.31893017  0.00031104
   0.35591898  0.68999793 -0.00009545
   0.65838934 -0.00714670  0.00010507
   0.97143846  0.32324683 -0.00019714
  -0.00205932  0.63136958  0.00081843
   0.65051820  0.68854274 -0.00063785
   0.11296019  0.22371336  0.95086951
   0.22275007  0.11061660  0.04626914
   0.11365543  0.54821375  0.94761936
   0.22012726  0.44187630  0.04487980
   0.11005048  0.88719140  0.95855731
   0.22341501  0.78402948  0.04979378
   0.44451991  0.22206622  0.95000134
   0.55064816  0.10744279  0.05408552
   0.44055456  0.55281217  0.94801204
   0.56021037  0.44865092  0.04761193
   0.44197858  0.89491588  0.94568575
   0.55467752  0.78228768  0.05671354
   0.77359310  0.21364196  0.94376106
   0.88917638  0.10872395  0.05308152
   0.77235482  0.55665429  0.95340442
   0.88647832  0.43533067  0.05773758
   0.78025367  0.89336971  0.94626786
   0.89028219  0.77912277  0.04506474
unknown system                          
           1
     8.399609    4.823726    0.000000
    -8.392074    4.810843    0.000000
     0.000000    0.000000   30.000000
   V    Mo   W    S 
   3   3   3  18
Direct configuration=    24
   0.36058885  0.01324088 -0.00069281
  -0.01121285  0.01765236 -0.00127392
   0.34492269  0.33068803  0.00224394
   0.68192567  0.31897545  0.00033974
   0.35573122  0.69026666 -0.00010840
   0.65865604 -0.00684709  0.00011177
   0.97131084  0.32309617 -0.00017007
  -0.00181741  0.63148610  0.00084806
   0.65054793  0.68873228 -0.00067420
   0.11297802  0.22371710  0.95091074
   0.22268814  0.11041738  0.04628947
   0.11360350  0.54819918  0.94759250
   0.22019894  0.44172564  0.04474592
   0.11005046  0.88721412  0.95854263
   0.22347652  0.78410046  0.04990216
   0.44449985  0.22194066  0.94992875
   0.55068519  0.10747338  0.05410337
   0.44044710  0.55274134  0.94803594
   0.56030226  0.44878109  0.04769893
   0.44207799  0.89506923  0.94563191