       N       E                     dE             d eps       ncg     rms          rms(c)
DAV:   1     0.112607507549E+04    0.11261E+04   -0.35983E+04  8160   0.577E+02
DAV:   2     0.164324203796E+01   -0.11244E+04   -0.10788E+04 10960   0.173E+02
DAV:   3    -0.199528985118E+03   -0.20117E+03   -0.19270E+03 10920   0.826E+01
DAV:   4    -0.208982874898E+03   -0.94539E+01   -0.91517E+01 12160   0.264E+01
DAV:   5    -0.209320969662E+03   -0.33809E+00   -0.33710E+00 11600   0.364E+00    0.275E+01
DAV:   6    -0.237933827939E+03   -0.28613E+02   -0.10713E+02 12360   0.601E+01    0.595E+01
DAV:   7    -0.196573240603E+03    0.41361E+02   -0.17576E+02 13440   0.153E+02    0.200E+01
DAV:   8    -0.189485815519E+03    0.70874E+01   -0.17846E+01 11880   0.127E+01    0.125E+01
DAV:   9    -0.188163025542E+03    0.13228E+01   -0.31196E+00 13600   0.625E+00    0.923E+00
DAV:  10    -0.186957862797E+03    0.12052E+01   -0.17341E+00 13280   0.769E+00    0.215E+00
DAV:  11    -0.187053844942E+03   -0.95982E-01   -0.58443E-01 13480   0.290E+00    0.373E+00
DAV:  12    -0.186995233808E+03    0.58611E-01   -0.75610E-01 12560   0.431E+00    0.362E+00
DAV:  13    -0.186888510886E+03    0.10672E+00   -0.30602E-01 12880   0.301E+00    0.188E+00
DAV:  14    -0.186851010106E+03    0.37501E-01   -0.10325E-01 13000   0.172E+00    0.850E-01
DAV:  15    -0.186849577227E+03    0.14329E-02   -0.28670E-02 12480   0.907E-01    0.852E-01
DAV:  16    -0.186843631504E+03    0.59457E-02   -0.12029E-02 13120   0.560E-01    0.291E-01
DAV:  17    -0.186842316384E+03    0.13151E-02   -0.46499E-03 12800   0.300E-01    0.184E-01
DAV:  18    -0.186842082608E+03    0.23378E-03   -0.18136E-03 12120   0.150E-01    0.129E-01
DAV:  19    -0.186841889411E+03    0.19320E-03   -0.81645E-04 11160   0.888E-02    0.602E-02
DAV:  20    -0.186842626994E+03   -0.73758E-03   -0.68345E-04  9200   0.759E-02    0.559E-02
DAV:  21    -0.186843407685E+03   -0.78069E-03   -0.23375E-04  8240   0.467E-02    0.337E-02
DAV:  22    -0.186844405642E+03   -0.99796E-03   -0.16944E-04  7440   0.413E-02    0.314E-02
DAV:  23    -0.186845568037E+03   -0.11624E-02   -0.10807E-04  7440   0.375E-02    0.122E-02
DAV:  24    -0.186846124554E+03   -0.55652E-03   -0.24546E-05  6800   0.143E-02    0.475E-03
DAV:  25    -0.186846517497E+03   -0.39294E-03   -0.15793E-05  5440   0.938E-03    0.313E-03
DAV:  26    -0.186846761560E+03   -0.24406E-03   -0.91906E-06  6800   0.689E-03    0.159E-03
DAV:  27    -0.186846848196E+03   -0.86637E-04   -0.32207E-06  7560   0.403E-03
   1 F= -.18684685E+03 E0= -.18667584E+03  d E =-.186847E+03
       N       E                     dE             d eps       ncg     rms          rms(c)
DAV:   1    -0.187498994190E+03   -0.65223E+00   -0.27189E+02  8160   0.350E+01    0.460E+00
DAV:   2    -0.189379844897E+03   -0.18809E+01   -0.19912E+01 12240   0.151E+01    0.911E+00
DAV:   3    -0.189353605066E+03    0.26240E-01   -0.46955E+00 12320   0.124E+01    0.635E+00
DAV:   4    -0.188753806878E+03    0.59980E+00   -0.56594E-01 11880   0.452E+00    0.192E+00
DAV:   5    -0.188868329898E+03   -0.11452E+00   -0.44246E-01 11760   0.374E+00    0.527E+00
DAV:   6    -0.188737508707E+03    0.13082E+00   -0.75588E-01 12600   0.434E+00    0.236E+00
DAV:   7    -0.188686068324E+03    0.51440E-01   -0.18441E-01 11920   0.194E+00    0.175E+00
DAV:   8    -0.188683942530E+03    0.21258E-02   -0.11998E-01 12360   0.196E+00    0.187E+00
DAV:   9    -0.188655747976E+03    0.28195E-01   -0.55952E-02 11760   0.120E+00    0.453E-01
DAV:  10    -0.188654814373E+03    0.93360E-03   -0.58211E-03 12840   0.317E-01    0.208E-01
DAV:  11    -0.188654377010E+03    0.43736E-03   -0.21867E-03 12520   0.157E-01    0.154E-01
DAV:  12    -0.188654391764E+03   -0.14754E-04   -0.86723E-04 11200   0.877E-02
   2 F= -.18865439E+03 E0= -.18851552E+03  d E =-.180754E+01
       N       E                     dE             d eps       ncg     rms          rms(c)
DAV:   1    -0.190575899359E+03   -0.19215E+01   -0.31010E+01  9200   0.142E+01    0.445E+00
DAV:   2    -0.190525227130E+03    0.50672E-01   -0.27682E+00 11520   0.944E+00    0.718E+00
DAV:   3    -0.190059492091E+03    0.46574E+00   -0.12890E+00 12320   0.860E+00    0.423E+00
DAV:   4    -0.189848319291E+03    0.21117E+00   -0.67389E-01 13000   0.429E+00    0.251E+00
DAV:   5    -0.189810862437E+03    0.37457E-01   -0.35541E-01 12240   0.299E+00    0.262E+00
DAV:   6    -0.189747230500E+03    0.63632E-01   -0.13455E-01 12720   0.235E+00    0.676E-01
DAV:   7    -0.189742420144E+03    0.48104E-02   -0.13204E-02 11640   0.548E-01    0.344E-01
DAV:   8    -0.189742702579E+03   -0.28243E-03   -0.55948E-03 12600   0.451E-01    0.368E-01
DAV:   9    -0.189741665631E+03    0.10369E-02   -0.22777E-03 11360   0.268E-01    0.113E-01
DAV:  10    -0.189741922236E+03   -0.25660E-03   -0.63407E-04  9960   0.929E-02    0.741E-02
DAV:  11    -0.189741840585E+03    0.81650E-04   -0.21718E-04  7960   0.511E-02
   3 F= -.18974184E+03 E0= -.18962548E+03  d E =-.108745E+01
       N       E                     dE             d eps       ncg     rms          rms(c)
DAV:   1    -0.191317154856E+03   -0.15752E+01   -0.75022E+01  8160   0.198E+01    0.461E+00
DAV:   2    -0.191117901608E+03    0.19925E+00   -0.53267E+00 13400   0.758E+00    0.444E+00
DAV:   3    -0.191311783930E+03   -0.19388E+00   -0.15050E+00 12240   0.911E+00    0.729E+00
DAV:   4    -0.190900351190E+03    0.41143E+00   -0.16847E+00 11880   0.852E+00    0.342E+00
DAV:   5    -0.190902617974E+03   -0.22668E-02   -0.65000E-01 11120   0.534E+00    0.354E+00
DAV:   6    -0.190732468154E+03    0.17015E+00   -0.20943E-01 12120   0.321E+00    0.652E-01
DAV:   7    -0.190732567701E+03   -0.99547E-04   -0.31369E-02 12480   0.760E-01    0.552E-01
DAV:   8    -0.190730278778E+03    0.22889E-02   -0.12127E-02 11640   0.692E-01    0.492E-01
DAV:   9    -0.190728138668E+03    0.21401E-02   -0.42804E-03 11520   0.448E-01    0.168E-01
DAV:  10    -0.190728405205E+03   -0.26654E-03   -0.13830E-03 10960   0.153E-01    0.113E-01
DAV:  11    -0.190728218323E+03    0.18688E-03   -0.63133E-04 10160   0.945E-02    0.429E-02
DAV:  12    -0.190728221556E+03   -0.32335E-05   -0.10128E-04  7120   0.356E-02
   4 F= -.19072822E+03 E0= -.19063063E+03  d E =-.986381E+00
       N       E                     dE             d eps       ncg     rms          rms(c)
DAV:   1    -0.192166246991E+03   -0.14380E+01   -0.17300E+02  8160   0.293E+01    0.580E+00
DAV:   2    -0.191885377936E+03    0.28087E+00   -0.97279E+00 10960   0.804E+00    0.402E+00
DAV:   3    -0.192364073939E+03   -0.47870E+00   -0.27968E+00 12160   0.109E+01    0.858E+00
DAV:   4    -0.191680937265E+03    0.68314E+00   -0.22615E+00 11600   0.108E+01    0.349E+00
DAV:   5    -0.191627314360E+03    0.53623E-01   -0.57403E-01 12160   0.565E+00    0.435E+00
DAV:   6    -0.191473523648E+03    0.15379E+00   -0.61845E-01 12320   0.519E+00    0.166E+00
DAV:   7    -0.191464750680E+03    0.87730E-02   -0.10939E-01 12600   0.199E+00    0.130E+00
DAV:   8    -0.191445843557E+03    0.18907E-01   -0.35478E-02 12320   0.144E+00    0.439E-01
DAV:   9    -0.191443277932E+03    0.25656E-02   -0.68020E-03 11280   0.450E-01    0.192E-01
DAV:  10    -0.191443442329E+03   -0.16440E-03   -0.27766E-03 11560   0.205E-01    0.102E-01
DAV:  11    -0.191443367809E+03    0.74520E-04   -0.58053E-04 10320   0.914E-02
   5 F= -.19144337E+03 E0= -.19135028E+03  d E =-.715146E+00
       N       E                     dE             d eps       ncg     rms          rms(c)
DAV:   1    -0.191522926554E+03   -0.79484E-01   -0.76941E+00  8160   0.582E+00    0.765E-01
DAV:   2    -0.191604173333E+03   -0.81247E-01   -0.34243E-01 13600   0.357E+00    0.249E+00
DAV:   3    -0.191534293180E+03    0.69880E-01   -0.12375E-01 12600   0.271E+00    0.384E-01
DAV:   4    -0.191537861528E+03   -0.35683E-02   -0.15237E-02 11600   0.836E-01    0.759E-01
DAV:   5    -0.191532439016E+03    0.54225E-02   -0.11160E-02 11520   0.748E-01    0.218E-01
DAV:   6    -0.191533272887E+03   -0.83387E-03   -0.39920E-03 11360   0.361E-01    0.332E-01
DAV:   7    -0.191532547977E+03    0.72491E-03   -0.39893E-03 11280   0.440E-01    0.222E-01
DAV:   8    -0.191531989138E+03    0.55884E-03   -0.10514E-03 10440   0.205E-01    0.367E-02
DAV:   9    -0.191532003706E+03   -0.14569E-04   -0.10562E-04  6560   0.400E-02
   6 F= -.19153200E+03 E0= -.19143714E+03  d E =-.886359E-01
       N       E                     dE             d eps       ncg     rms          rms(c)
DAV:   1    -0.191637898782E+03   -0.10591E+00   -0.19598E+01  8160   0.924E+00    0.108E+00
DAV:   2    -0.191776963145E+03   -0.13906E+00   -0.61307E-01 13120   0.455E+00    0.329E+00
DAV:   3    -0.191657827193E+03    0.11914E+00   -0.24061E-01 12400   0.373E+00    0.658E-01
DAV:   4    -0.191666681130E+03   -0.88539E-02   -0.38489E-02 12120   0.135E+00    0.121E+00
DAV:   5    -0.191652658387E+03    0.14023E-01   -0.28078E-02 11680   0.118E+00    0.331E-01
DAV:   6    -0.191655291067E+03   -0.26327E-02   -0.10851E-02 11560   0.642E-01    0.592E-01
DAV:   7    -0.191652637215E+03    0.26539E-02   -0.10229E-02 11600   0.708E-01    0.295E-01
DAV:   8    -0.191651532810E+03    0.11044E-02   -0.21078E-03 10800   0.271E-01    0.525E-02
DAV:   9    -0.191651529068E+03    0.37419E-05   -0.26166E-04  8160   0.571E-02
   7 F= -.19165153E+03 E0= -.19155584E+03  d E =-.119525E+00
       N       E                     dE             d eps       ncg     rms          rms(c)
DAV:   1    -0.191712910123E+03   -0.61377E-01   -0.65092E+00  8160   0.541E+00    0.713E-01
DAV:   2    -0.191763623334E+03   -0.50713E-01   -0.25412E-01 13560   0.290E+00    0.201E+00
DAV:   3    -0.191718480045E+03    0.45143E-01   -0.87812E-02 12440   0.227E+00    0.377E-01
DAV:   4    -0.191721474634E+03   -0.29946E-02   -0.14615E-02 12360   0.824E-01    0.737E-01
DAV:   5    -0.191716235644E+03    0.52390E-02   -0.11471E-02 10960   0.795E-01    0.255E-01
DAV:   6    -0.191715940237E+03    0.29541E-03   -0.32933E-03 10840   0.275E-01    0.147E-01
DAV:   7    -0.191715567837E+03    0.37240E-03   -0.12056E-03 10800   0.155E-01    0.975E-02
DAV:   8    -0.191715545430E+03    0.22407E-04   -0.49788E-04  8840   0.145E-01
   8 F= -.19171555E+03 E0= -.19161960E+03  d E =-.640164E-01
       N       E                     dE             d eps       ncg     rms          rms(c)
DAV:   1    -0.191781226036E+03   -0.65658E-01   -0.10654E+01  8160   0.692E+00    0.746E-01
DAV:   2    -0.191825515820E+03   -0.44290E-01   -0.34351E-01 12360   0.261E+00    0.166E+00
DAV:   3    -0.191799934950E+03    0.25581E-01   -0.89310E-02 12400   0.208E+00    0.670E-01
DAV:   4    -0.191802217504E+03   -0.22826E-02   -0.27162E-02 12400   0.111E+00    0.894E-01
DAV:   5    -0.191794161964E+03    0.80555E-02   -0.16368E-02 12040   0.940E-01    0.271E-01
DAV:   6    -0.191794589881E+03   -0.42792E-03   -0.57258E-03 10360   0.402E-01    0.298E-01
DAV:   7    -0.191794510073E+03    0.79807E-04   -0.50097E-03 11600   0.501E-01    0.340E-01
DAV:   8    -0.191793322968E+03    0.11871E-02   -0.19627E-03 10120   0.303E-01    0.480E-02
DAV:   9    -0.191793312311E+03    0.10656E-04   -0.13037E-04  6120   0.462E-02
   9 F= -.19179331E+03 E0= -.19169810E+03  d E =-.777669E-01
       N       E                     dE             d eps       ncg     rms          rms(c)
DAV:   1    -0.191791532555E+03    0.17904E-02   -0.20258E-01  8160   0.978E-01    0.143E-01
DAV:   2    -0.191791401175E+03    0.13138E-03   -0.55179E-03 10320   0.217E-01    0.106E-01
DAV:   3    -0.191791521819E+03   -0.12064E-03   -0.13629E-03 11000   0.238E-01    0.186E-01
DAV:   4    -0.191791165452E+03    0.35637E-03   -0.79820E-04  8800   0.217E-01    0.801E-02
DAV:   5    -0.191791287185E+03   -0.12173E-03   -0.63242E-04  8680   0.173E-01    0.142E-01
DAV:   6    -0.191791070375E+03    0.21681E-03   -0.42275E-04  8440   0.145E-01    0.267E-02
DAV:   7    -0.191791074058E+03   -0.36831E-05   -0.56365E-05  6240   0.420E-02
  10 F= -.19179107E+03 E0= -.19169566E+03  d E =0.223825E-02
       N       E                     dE             d eps       ncg     rms          rms(c)
DAV:   1    -0.191832523995E+03   -0.41454E-01   -0.31659E+00  8160   0.380E+00    0.411E-01
DAV:   2    -0.191843861755E+03   -0.11338E-01   -0.10114E-01 12040   0.127E+00    0.877E-01
DAV:   3    -0.191838277936E+03    0.55838E-02   -0.27423E-02 12200   0.107E+00    0.447E-01
DAV:   4    -0.191837526936E+03    0.75100E-03   -0.72829E-03 12320   0.575E-01    0.379E-01
DAV:   5    -0.191836000427E+03    0.15265E-02   -0.36641E-03 11280   0.486E-01    0.182E-01
DAV:   6    -0.191836046547E+03   -0.46120E-04   -0.21649E-03 10360   0.278E-01    0.180E-01
DAV:   7    -0.191836008551E+03    0.37996E-04   -0.16333E-03 10240   0.293E-01    0.194E-01
DAV:   8    -0.191835604599E+03    0.40395E-03   -0.61084E-04  8280   0.175E-01    0.252E-02
DAV:   9    -0.191835607777E+03   -0.31778E-05   -0.47802E-05  5800   0.272E-02
  11 F= -.19183561E+03 E0= -.19174093E+03  d E =-.445337E-01
       N       E                     dE             d eps       ncg     rms          rms(c)
DAV:   1    -0.191850525768E+03   -0.14921E-01   -0.34659E-01  8160   0.127E+00    0.162E-01
DAV:   2    -0.191852058113E+03   -0.15323E-02   -0.13437E-02 11800   0.479E-01    0.357E-01
DAV:   3    -0.191851071137E+03    0.98698E-03   -0.41430E-03 11520   0.423E-01    0.172E-01
DAV:   4    -0.191850920252E+03    0.15089E-03   -0.10243E-03  9680   0.214E-01    0.131E-01
DAV:   5    -0.191850765995E+03    0.15426E-03   -0.53815E-04  8760   0.190E-01    0.819E-02
DAV:   6    -0.191850726934E+03    0.39061E-04   -0.32593E-04  7440   0.116E-01
  12 F= -.19185073E+03 E0= -.19175630E+03  d E =-.151192E-01
       N       E                     dE             d eps       ncg     rms          rms(c)
DAV:   1    -0.191903251479E+03   -0.52485E-01   -0.50135E+00  8160   0.482E+00    0.562E-01
DAV:   2    -0.191924652736E+03   -0.21401E-01   -0.17847E-01 11240   0.167E+00    0.130E+00
DAV:   3    -0.191912460474E+03    0.12192E-01   -0.52444E-02 12440   0.149E+00    0.572E-01
DAV:   4    -0.191909395432E+03    0.30650E-02   -0.90199E-03 12240   0.567E-01    0.311E-01
DAV:   5    -0.191908895654E+03    0.49978E-03   -0.46905E-03 11800   0.525E-01    0.313E-01
DAV:   6    -0.191908692544E+03    0.20311E-03   -0.44316E-03 10920   0.473E-01    0.265E-01
DAV:   7    -0.191908235734E+03    0.45681E-03   -0.23087E-03 11200   0.353E-01    0.202E-01
DAV:   8    -0.191907782047E+03    0.45369E-03   -0.76329E-04  8800   0.205E-01    0.335E-02
DAV:   9    -0.191907775198E+03    0.68489E-05   -0.65679E-05  6560   0.362E-02
  13 F= -.19190778E+03 E0= -.19181420E+03  d E =-.570483E-01
       N       E                     dE             d eps       ncg     rms          rms(c)
DAV:   1    -0.191987313618E+03   -0.79532E-01   -0.16044E+01  8160   0.865E+00    0.102E+00
DAV:   2    -0.192073023075E+03   -0.85709E-01   -0.58981E-01 10960   0.319E+00    0.269E+00
DAV:   3    -0.192017196564E+03    0.55827E-01   -0.19713E-01 12320   0.292E+00    0.947E-01
DAV:   4    -0.192011013193E+03    0.61834E-02   -0.31408E-02 12200   0.110E+00    0.743E-01
DAV:   5    -0.192005887471E+03    0.51257E-02   -0.21512E-02 12040   0.113E+00    0.524E-01
DAV:   6    -0.192005565900E+03    0.32157E-03   -0.11925E-02 12480   0.778E-01    0.495E-01
DAV:   7    -0.192004377541E+03    0.11884E-02   -0.85664E-03 11680   0.717E-01    0.377E-01
DAV:   8    -0.192002589961E+03    0.17876E-02   -0.27260E-03 10800   0.391E-01    0.611E-02
DAV:   9    -0.192002563171E+03    0.26790E-04   -0.27919E-04  8640   0.642E-02
  14 F= -.19200256E+03 E0= -.19191042E+03  d E =-.947880E-01
       N       E                     dE             d eps       ncg     rms          rms(c)
DAV:   1    -0.192060413437E+03   -0.57823E-01   -0.19144E+01  8160   0.942E+00    0.115E+00
DAV:   2    -0.192182751279E+03   -0.12234E+00   -0.77914E-01 11320   0.379E+00    0.315E+00
DAV:   3    -0.192102857175E+03    0.79894E-01   -0.25864E-01 12240   0.346E+00    0.107E+00
DAV:   4    -0.192097704138E+03    0.51530E-02   -0.44206E-02 12200   0.148E+00    0.963E-01
DAV:   5    -0.192086516450E+03    0.11188E-01   -0.26347E-02 12400   0.131E+00    0.404E-01
DAV:   6    -0.192086755936E+03   -0.23949E-03   -0.10447E-02 12560   0.630E-01    0.435E-01
DAV:   7    -0.192086586882E+03    0.16905E-03   -0.92402E-03 12440   0.748E-01    0.470E-01
DAV:   8    -0.192084148904E+03    0.24380E-02   -0.36429E-03 11400   0.463E-01    0.684E-02
DAV:   9    -0.192084106886E+03    0.42018E-04   -0.33932E-04  9000   0.710E-02
  15 F= -.19208411E+03 E0= -.19199327E+03  d E =-.815437E-01
       N       E                     dE             d eps       ncg     rms          rms(c)
DAV:   1    -0.192091870581E+03   -0.77217E-02   -0.17663E+00  8160   0.288E+00    0.357E-01
DAV:   2    -0.192096618147E+03   -0.47476E-02   -0.57146E-02 11320   0.946E-01    0.552E-01
DAV:   3    -0.192094805559E+03    0.18126E-02   -0.11754E-02 12040   0.846E-01    0.411E-01
DAV:   4    -0.192093650222E+03    0.11553E-02   -0.41834E-03 11440   0.513E-01    0.290E-01
DAV:   5    -0.192093051785E+03    0.59844E-03   -0.31344E-03 10760   0.448E-01    0.204E-01
DAV:   6    -0.192092831149E+03    0.22064E-03   -0.17168E-03 12520   0.269E-01    0.151E-01
DAV:   7    -0.192092711684E+03    0.11946E-03   -0.90234E-04  9440   0.229E-01    0.119E-01
DAV:   8    -0.192092552660E+03    0.15902E-03   -0.24153E-04  6800   0.116E-01    0.210E-02
DAV:   9    -0.192092557643E+03   -0.49826E-05   -0.39113E-05  6520   0.246E-02
  16 F= -.19209256E+03 E0= -.19200361E+03  d E =-.845076E-02
       N       E                     dE             d eps       ncg     rms          rms(c)
DAV:   1    -0.192124369460E+03   -0.31817E-01   -0.17206E+01  8160   0.895E+00    0.108E+00
DAV:   2    -0.192217853958E+03   -0.93484E-01   -0.64271E-01 11440   0.341E+00    0.267E+00
DAV:   3    -0.192158612259E+03    0.59242E-01   -0.19283E-01 12240   0.316E+00    0.104E+00
DAV:   4    -0.192153080215E+03    0.55320E-02   -0.37465E-02 12120   0.138E+00    0.888E-01
DAV:   5    -0.192143486684E+03    0.95935E-02   -0.22520E-02 12360   0.124E+00    0.378E-01
DAV:   6    -0.192142982457E+03    0.50423E-03   -0.86657E-03 12200   0.538E-01    0.307E-01
DAV:   7    -0.192142570411E+03    0.41205E-03   -0.52656E-03 12040   0.528E-01    0.343E-01
DAV:   8    -0.192141339454E+03    0.12310E-02   -0.20810E-03 10720   0.370E-01    0.743E-02
DAV:   9    -0.192141272484E+03    0.66969E-04   -0.23633E-04  6800   0.735E-02
  17 F= -.19214127E+03 E0= -.19205296E+03  d E =-.487148E-01
       N       E                     dE             d eps       ncg     rms          rms(c)
DAV:   1    -0.192147413078E+03   -0.60736E-02   -0.47022E-01  8160   0.150E+00    0.187E-01
DAV:   2    -0.192148038571E+03   -0.62549E-03   -0.13435E-02 11440   0.384E-01    0.213E-01
DAV:   3    -0.192148221617E+03   -0.18305E-03   -0.29145E-03 12480   0.418E-01    0.261E-01
DAV:   4    -0.192147548822E+03    0.67280E-03   -0.14979E-03 10120   0.294E-01    0.121E-01
DAV:   5    -0.192147505994E+03    0.42828E-04   -0.66538E-04  9520   0.215E-01
  18 F= -.19214751E+03 E0= -.19206005E+03  d E =-.623351E-02
       N       E                     dE             d eps       ncg     rms          rms(c)
DAV:   1    -0.192149717351E+03   -0.21685E-02   -0.30577E-02  8160   0.403E-01    0.874E-02
DAV:   2    -0.192150985640E+03   -0.12683E-02   -0.28224E-03 12760   0.389E-01    0.345E-01
DAV:   3    -0.192149694034E+03    0.12916E-02   -0.15775E-03 10200   0.345E-01    0.497E-02
DAV:   4    -0.192149704074E+03   -0.10040E-04   -0.11920E-04  6560   0.730E-02
  19 F= -.19214970E+03 E0= -.19206221E+03  d E =-.219808E-02
       N       E                     dE             d eps       ncg     rms          rms(c)
DAV:   1    -0.192156472446E+03   -0.67784E-02   -0.33117E-01  8160   0.123E+00    0.159E-01
DAV:   2    -0.192158462443E+03   -0.19900E-02   -0.12325E-02 11240   0.509E-01    0.386E-01
DAV:   3    -0.192157057387E+03    0.14051E-02   -0.36386E-03 12360   0.472E-01    0.146E-01
DAV:   4    -0.192156991735E+03    0.65652E-04   -0.70993E-04  9360   0.190E-01
  20 F= -.19215699E+03 E0= -.19206957E+03  d E =-.728766E-02
       N       E                     dE             d eps       ncg     rms          rms(c)
DAV:   1    -0.192151306472E+03    0.57509E-02   -0.29210E-01  8160   0.119E+00    0.158E-01
DAV:   2    -0.192153461179E+03   -0.21547E-02   -0.12948E-02 12160   0.532E-01    0.368E-01
DAV:   3    -0.192151864832E+03    0.15963E-02   -0.36251E-03 12200   0.496E-01    0.123E-01
DAV:   4    -0.192151955861E+03   -0.91030E-04   -0.80765E-04  8920   0.211E-01
  21 F= -.19215196E+03 E0= -.19206558E+03  d E =0.503587E-02
       N       E                     dE             d eps       ncg     rms          rms(c)
DAV:   1    -0.192162261085E+03   -0.10396E-01   -0.71069E-01  8160   0.182E+00    0.215E-01
DAV:   2    -0.192164929185E+03   -0.26681E-02   -0.23722E-02 12000   0.636E-01    0.386E-01
DAV:   3    -0.192163510911E+03    0.14183E-02   -0.48040E-03 12360   0.569E-01    0.200E-01
DAV:   4    -0.192163525460E+03   -0.14549E-04   -0.14593E-03 10120   0.309E-01    0.220E-01
DAV:   5    -0.192163054577E+03    0.47088E-03   -0.96802E-04 10000   0.252E-01    0.765E-02
DAV:   6    -0.192163034136E+03    0.20441E-04   -0.32148E-04  9040   0.902E-02
  22 F= -.19216303E+03 E0= -.19207656E+03  d E =-.110783E-01
       N       E                     dE             d eps       ncg     rms          rms(c)
DAV:   1    -0.192163708676E+03   -0.65410E-03   -0.25767E-03  8600   0.117E-01    0.233E-02
DAV:   2    -0.192163736153E+03   -0.27477E-04   -0.12632E-04  7400   0.678E-02
  23 F= -.19216374E+03 E0= -.19207748E+03  d E =-.702017E-03
       N       E                     dE             d eps       ncg     rms          rms(c)
DAV:   1    -0.192172665507E+03   -0.89568E-02   -0.58687E-01  8160   0.166E+00    0.195E-01
DAV:   2    -0.192173454442E+03   -0.78894E-03   -0.11677E-02 11520   0.407E-01    0.265E-01
DAV:   3    -0.192173201465E+03    0.25298E-03   -0.29823E-03 11880   0.451E-01    0.240E-01
DAV:   4    -0.192172793944E+03    0.40752E-03   -0.13837E-03 10120   0.285E-01    0.147E-01
DAV:   5    -0.192172636760E+03    0.15718E-03   -0.87072E-04 10040   0.239E-01    0.108E-01
DAV:   6    -0.192172533315E+03    0.10344E-03   -0.36605E-04  8920   0.145E-01    0.526E-02
DAV:   7    -0.192172529207E+03    0.41079E-05   -0.13593E-04  7160   0.950E-02
  24 F= -.19217253E+03 E0= -.19208657E+03  d E =-.879305E-02
       N       E                     dE             d eps       ncg     rms          rms(c)
DAV:   1    -0.192192238361E+03   -0.19705E-01   -0.23506E+00  8160   0.333E+00    0.391E-01
DAV:   2    -0.192196089346E+03   -0.38510E-02   -0.54122E-02 11120   0.838E-01    0.481E-01
DAV:   3    -0.192194675279E+03    0.14141E-02   -0.11358E-02 12600   0.878E-01    0.386E-01
DAV:   4    -0.192193322775E+03    0.13525E-02   -0.36111E-03 12280   0.490E-01    0.239E-01
DAV:   5    -0.192193277947E+03    0.44829E-04   -0.27620E-03 10720   0.427E-01    0.264E-01
DAV:   6    -0.192192693246E+03    0.58470E-03   -0.16939E-03 10280   0.312E-01    0.998E-02
DAV:   7    -0.192192519527E+03    0.17372E-03   -0.35066E-04  8760   0.959E-02    0.199E-02
DAV:   8    -0.192192521154E+03   -0.16270E-05   -0.46873E-05  7480   0.347E-02
  25 F= -.19219252E+03 E0= -.19210649E+03  d E =-.199919E-01
       N       E                     dE             d eps       ncg     rms          rms(c)
DAV:   1    -0.192172048206E+03    0.20471E-01   -0.31660E+00  8160   0.386E+00    0.478E-01
DAV:   2    -0.192182806396E+03   -0.10758E-01   -0.76849E-02 11640   0.142E+00    0.952E-01
DAV:   3    -0.192173944661E+03    0.88617E-02   -0.21984E-02 12240   0.130E+00    0.409E-01
DAV:   4    -0.192174122272E+03   -0.17761E-03   -0.73885E-03 11840   0.671E-01    0.449E-01
DAV:   5    -0.192172046107E+03    0.20762E-02   -0.49576E-03 10760   0.583E-01    0.208E-01
DAV:   6    -0.192171594993E+03    0.45111E-03   -0.17234E-03 10760   0.262E-01    0.101E-01
DAV:   7    -0.192171434510E+03    0.16048E-03   -0.47005E-04 10800   0.121E-01    0.666E-02
DAV:   8    -0.192171405218E+03    0.29291E-04   -0.14703E-04  7360   0.983E-02
  26 F= -.19217141E+03 E0= -.19208501E+03  d E =0.211159E-01
       N       E                     dE             d eps       ncg     rms          rms(c)
DAV:   1    -0.192180693864E+03   -0.92594E-02   -0.44001E-01  8160   0.143E+00    0.192E-01
DAV:   2    -0.192182847137E+03   -0.21533E-02   -0.16015E-02 10680   0.658E-01    0.391E-01
DAV:   3    -0.192181114800E+03    0.17323E-02   -0.40203E-03 12400   0.514E-01    0.137E-01
DAV:   4    -0.192181203445E+03   -0.88645E-04   -0.91904E-04 10160   0.247E-01
  27 F= -.19218120E+03 E0= -.19209519E+03  d E =-.979823E-02
       N       E                     dE             d eps       ncg     rms          rms(c)
DAV:   1    -0.192188854220E+03   -0.77394E-02   -0.30174E-01  8160   0.121E+00    0.174E-01
DAV:   2    -0.192190004766E+03   -0.11505E-02   -0.89858E-03 11480   0.404E-01    0.327E-01
DAV:   3    -0.192189093094E+03    0.91167E-03   -0.30608E-03 12200   0.450E-01    0.175E-01
DAV:   4    -0.192188855009E+03    0.23808E-03   -0.71186E-04  9640   0.173E-01    0.793E-02
DAV:   5    -0.192188791354E+03    0.63655E-04   -0.39887E-04  9480   0.116E-01
  28 F= -.19218879E+03 E0= -.19210257E+03  d E =-.758791E-02
       N       E                     dE             d eps       ncg     rms          rms(c)
DAV:   1    -0.192194629129E+03   -0.57741E-02   -0.19642E-01  8160   0.959E-01    0.138E-01
DAV:   2    -0.192196301642E+03   -0.16725E-02   -0.76274E-03 12520   0.453E-01    0.384E-01
DAV:   3    -0.192194827813E+03    0.14738E-02   -0.25655E-03 12200   0.428E-01    0.980E-02
DAV:   4    -0.192194789383E+03    0.38430E-04   -0.31163E-04  8400   0.115E-01
  29 F= -.19219479E+03 E0= -.19210849E+03  d E =-.599803E-02
       N       E                     dE             d eps       ncg     rms          rms(c)
DAV:   1    -0.192195964867E+03   -0.11371E-02   -0.76692E-03  8160   0.227E-01    0.560E-02
DAV:   2    -0.192196227492E+03   -0.26263E-03   -0.70748E-04 10200   0.209E-01    0.149E-01
DAV:   3    -0.192195931300E+03    0.29619E-03   -0.39731E-04  8800   0.178E-01    0.289E-02
DAV:   4    -0.192195977548E+03   -0.46248E-04   -0.80753E-05  6160   0.780E-02
  30 F= -.19219598E+03 E0= -.19210982E+03  d E =-.118817E-02
       N       E                     dE             d eps       ncg     rms          rms(c)
DAV:   1    -0.192191682887E+03    0.42484E-02   -0.25784E-01  8160   0.111E+00    0.189E-01
DAV:   2    -0.192194176344E+03   -0.24935E-02   -0.11847E-02 12560   0.626E-01    0.501E-01
DAV:   3    -0.192191598247E+03    0.25781E-02   -0.47473E-03 11880   0.586E-01    0.142E-01
DAV:   4    -0.192191575182E+03    0.23065E-04   -0.10436E-03  9600   0.216E-01    0.150E-01
DAV:   5    -0.192191313150E+03    0.26203E-03   -0.62110E-04  8280   0.214E-01    0.677E-02
DAV:   6    -0.192191274569E+03    0.38581E-04   -0.22288E-04  7520   0.962E-02
  31 F= -.19219127E+03 E0= -.19210549E+03  d E =0.470298E-02
       N       E                     dE             d eps       ncg     rms          rms(c)
DAV:   1    -0.192208211112E+03   -0.16898E-01   -0.14742E+00  8160   0.264E+00    0.324E-01
DAV:   2    -0.192211333209E+03   -0.31221E-02   -0.42780E-02 11080   0.687E-01    0.405E-01
DAV:   3    -0.192210276792E+03    0.10564E-02   -0.86888E-03 12360   0.761E-01    0.329E-01
DAV:   4    -0.192208843762E+03    0.14330E-02   -0.22429E-03 11560   0.374E-01    0.116E-01
DAV:   5    -0.192209292486E+03   -0.44872E-03   -0.15090E-03 10640   0.311E-01    0.243E-01
DAV:   6    -0.192208706208E+03    0.58628E-03   -0.10551E-03 10200   0.281E-01    0.696E-02
DAV:   7    -0.192208635603E+03    0.70604E-04   -0.11884E-04  6160   0.702E-02
  32 F= -.19220864E+03 E0= -.19212222E+03  d E =-.173610E-01
       N       E                     dE             d eps       ncg     rms          rms(c)
DAV:   1    -0.192220165501E+03   -0.11459E-01   -0.66953E-01  8160   0.176E+00    0.217E-01
DAV:   2    -0.192222353193E+03   -0.21877E-02   -0.20703E-02 11040   0.586E-01    0.363E-01
DAV:   3    -0.192221086282E+03    0.12669E-02   -0.50319E-03 12400   0.548E-01    0.198E-01
DAV:   4    -0.192221037707E+03    0.48576E-04   -0.13254E-03 10280   0.293E-01    0.197E-01
DAV:   5    -0.192220659878E+03    0.37783E-03   -0.82532E-04  9920   0.263E-01    0.878E-02
DAV:   6    -0.192220627108E+03    0.32770E-04   -0.30841E-04  8080   0.104E-01
  33 F= -.19222063E+03 E0= -.19213361E+03  d E =-.119915E-01
       N       E                     dE             d eps       ncg     rms          rms(c)
DAV:   1    -0.192226103875E+03   -0.54440E-02   -0.14979E-01  8160   0.834E-01    0.111E-01
DAV:   2    -0.192226934665E+03   -0.83079E-03   -0.52064E-03 10680   0.349E-01    0.251E-01
DAV:   3    -0.192226263064E+03    0.67160E-03   -0.16185E-03 11440   0.316E-01    0.907E-02
DAV:   4    -0.192226302137E+03   -0.39073E-04   -0.32002E-04  8520   0.151E-01
  34 F= -.19222630E+03 E0= -.19213902E+03  d E =-.567503E-02
       N       E                     dE             d eps       ncg     rms          rms(c)
DAV:   1    -0.192227523176E+03   -0.12601E-02   -0.22741E-02  8280   0.384E-01    0.782E-02
DAV:   2    -0.192228032743E+03   -0.50957E-03   -0.19592E-03 12520   0.279E-01    0.224E-01
DAV:   3    -0.192227490206E+03    0.54254E-03   -0.82462E-04  9560   0.251E-01    0.498E-02
DAV:   4    -0.192227491247E+03   -0.10417E-05   -0.11035E-04  5720   0.697E-02
  35 F= -.19222749E+03 E0= -.19214053E+03  d E =-.118911E-02
       N       E                     dE             d eps       ncg     rms          rms(c)
DAV:   1    -0.192240371543E+03   -0.12881E-01   -0.90371E-01  8160   0.204E+00    0.284E-01
DAV:   2    -0.192245604280E+03   -0.52327E-02   -0.34172E-02 11080   0.951E-01    0.626E-01
DAV:   3    -0.192241030426E+03    0.45739E-02   -0.10925E-02 12320   0.805E-01    0.213E-01
DAV:   4    -0.192241321012E+03   -0.29059E-03   -0.22703E-03 10760   0.391E-01    0.273E-01
DAV:   5    -0.192240557406E+03    0.76361E-03   -0.14925E-03  9920   0.352E-01    0.110E-01
DAV:   6    -0.192240452809E+03    0.10460E-03   -0.56755E-04 10240   0.131E-01    0.552E-02
DAV:   7    -0.192240400444E+03    0.52365E-04   -0.13648E-04  7320   0.558E-02
  36 F= -.19224040E+03 E0= -.19215281E+03  d E =-.129092E-01
       N       E                     dE             d eps       ncg     rms          rms(c)
DAV:   1    -0.192241404609E+03   -0.95180E-03   -0.18945E-02  8320   0.343E-01    0.987E-02
DAV:   2    -0.192241591855E+03   -0.18725E-03   -0.16223E-03 11280   0.255E-01    0.206E-01
DAV:   3    -0.192241187345E+03    0.40451E-03   -0.91346E-04 10200   0.266E-01    0.858E-02
DAV:   4    -0.192241089806E+03    0.97539E-04   -0.23267E-04  7360   0.104E-01
  37 F= -.19224109E+03 E0= -.19215316E+03  d E =-.689362E-03
       N       E                     dE             d eps       ncg     rms          rms(c)
DAV:   1    -0.192253707711E+03   -0.12520E-01   -0.89629E-01  8160   0.207E+00    0.292E-01
DAV:   2    -0.192255480786E+03   -0.17731E-02   -0.28886E-02 11000   0.598E-01    0.385E-01
DAV:   3    -0.192254634537E+03    0.84625E-03   -0.91905E-03 12480   0.702E-01    0.342E-01
DAV:   4    -0.192253752131E+03    0.88241E-03   -0.30089E-03 11360   0.425E-01    0.230E-01
DAV:   5    -0.192253299150E+03    0.45298E-03   -0.15195E-03  9960   0.357E-01    0.146E-01
DAV:   6    -0.192253071765E+03    0.22739E-03   -0.68298E-04  9880   0.170E-01    0.523E-02
DAV:   7    -0.192253025250E+03    0.46515E-04   -0.16630E-04  6720   0.570E-02
  38 F= -.19225303E+03 E0= -.19216367E+03  d E =-.119354E-01
       N       E                     dE             d eps       ncg     rms          rms(c)
DAV:   1    -0.192258739740E+03   -0.56680E-02   -0.17842E-01  8160   0.920E-01    0.166E-01
DAV:   2    -0.192260018004E+03   -0.12783E-02   -0.99737E-03 11080   0.543E-01    0.345E-01
DAV:   3    -0.192258655234E+03    0.13628E-02   -0.33051E-03 11480   0.448E-01    0.112E-01
DAV:   4    -0.192258771997E+03   -0.11676E-03   -0.87775E-04  9560   0.232E-01    0.167E-01
DAV:   5    -0.192258485916E+03    0.28608E-03   -0.57632E-04  9240   0.217E-01    0.666E-02
DAV:   6    -0.192258439820E+03    0.46096E-04   -0.17361E-04  6240   0.795E-02
  39 F= -.19225844E+03 E0= -.19216907E+03  d E =-.541457E-02
       N       E                     dE             d eps       ncg     rms          rms(c)
DAV:   1    -0.192268819365E+03   -0.10333E-01   -0.76815E-01  8160   0.187E+00    0.236E-01
DAV:   2    -0.192272396140E+03   -0.35768E-02   -0.26887E-02 11160   0.706E-01    0.482E-01
DAV:   3    -0.192269880257E+03    0.25159E-02   -0.78173E-03 12400   0.654E-01    0.206E-01
DAV:   4    -0.192269915028E+03   -0.34771E-04   -0.14945E-03  9960   0.323E-01    0.209E-01
DAV:   5    -0.192269430066E+03    0.48496E-03   -0.89097E-04  9840   0.279E-01    0.842E-02
DAV:   6    -0.192269406403E+03    0.23663E-04   -0.38098E-04  9040   0.108E-01
  40 F= -.19226941E+03 E0= -.19217951E+03  d E =-.109666E-01
       N       E                     dE             d eps       ncg     rms          rms(c)
DAV:   1    -0.192292354507E+03   -0.22924E-01   -0.16278E+01  8160   0.865E+00    0.998E-01
DAV:   2    -0.192343772258E+03   -0.51418E-01   -0.51830E-01 11000   0.260E+00    0.158E+00
DAV:   3    -0.192321349849E+03    0.22422E-01   -0.12630E-01 12320   0.248E+00    0.994E-01
DAV:   4    -0.192316444442E+03    0.49054E-02   -0.30979E-02 12560   0.137E+00    0.819E-01
DAV:   5    -0.192309542417E+03    0.69020E-02   -0.16168E-02 11080   0.115E+00    0.388E-01
DAV:   6    -0.192308749837E+03    0.79258E-03   -0.77277E-03 12120   0.507E-01    0.239E-01
DAV:   7    -0.192307521219E+03    0.12286E-02   -0.27109E-03 10640   0.234E-01    0.808E-02
DAV:   8    -0.192307534262E+03   -0.13043E-04   -0.43604E-04 10360   0.157E-01
  41 F= -.19230753E+03 E0= -.19221704E+03  d E =-.381279E-01
       N       E                     dE             d eps       ncg     rms          rms(c)
DAV:   1    -0.192313638122E+03   -0.61169E-02   -0.30617E+00  8160   0.371E+00    0.445E-01
DAV:   2    -0.192324590176E+03   -0.10952E-01   -0.10517E-01 11080   0.131E+00    0.732E-01
DAV:   3    -0.192319036117E+03    0.55541E-02   -0.23783E-02 12400   0.114E+00    0.386E-01
DAV:   4    -0.192318494979E+03    0.54114E-03   -0.58357E-03 12080   0.571E-01    0.352E-01
DAV:   5    -0.192317374128E+03    0.11209E-02   -0.33103E-03 10560   0.506E-01    0.192E-01
DAV:   6    -0.192317111464E+03    0.26266E-03   -0.15338E-03 11320   0.237E-01    0.958E-02
DAV:   7    -0.192316937364E+03    0.17410E-03   -0.48817E-04 10720   0.877E-02    0.278E-02
DAV:   8    -0.192316928384E+03    0.89790E-05   -0.55032E-05  7600   0.348E-02
  42 F= -.19231693E+03 E0= -.19222805E+03  d E =-.939412E-02
       N       E                     dE             d eps       ncg     rms          rms(c)
DAV:   1    -0.192314794182E+03    0.21432E-02   -0.99848E-01  8160   0.214E+00    0.290E-01
DAV:   2    -0.192321851558E+03   -0.70574E-02   -0.35877E-02 11080   0.108E+00    0.746E-01
DAV:   3    -0.192315355971E+03    0.64956E-02   -0.14040E-02 12280   0.929E-01    0.191E-01
DAV:   4    -0.192315723020E+03   -0.36705E-03   -0.21174E-03 11640   0.392E-01    0.261E-01
DAV:   5    -0.192314873750E+03    0.84927E-03   -0.12649E-03 10200   0.326E-01    0.797E-02
DAV:   6    -0.192314898399E+03   -0.24650E-04   -0.49688E-04  9200   0.129E-01
  43 F= -.19231490E+03 E0= -.19222593E+03  d E =0.202999E-02
       N       E                     dE             d eps       ncg     rms          rms(c)
DAV:   1    -0.192319482570E+03   -0.46088E-02   -0.87034E-01  8160   0.198E+00    0.216E-01
DAV:   2    -0.192321701658E+03   -0.22191E-02   -0.26889E-02 11440   0.533E-01    0.264E-01
DAV:   3    -0.192321246127E+03    0.45553E-03   -0.48756E-03 12160   0.494E-01    0.240E-01
DAV:   4    -0.192320774587E+03    0.47154E-03   -0.17242E-03 10800   0.322E-01    0.133E-01
DAV:   5    -0.192320615171E+03    0.15942E-03   -0.60007E-04  9520   0.201E-01    0.983E-02
DAV:   6    -0.192320582003E+03    0.33168E-04   -0.41062E-04  9120   0.167E-01
  44 F= -.19232058E+03 E0= -.19223233E+03  d E =-.568360E-02
       N       E                     dE             d eps       ncg     rms          rms(c)
DAV:   1    -0.192322393454E+03   -0.17783E-02   -0.11955E-01  8160   0.739E-01    0.903E-02
DAV:   2    -0.192322826361E+03   -0.43291E-03   -0.45215E-03 13240   0.236E-01    0.131E-01
DAV:   3    -0.192322696620E+03    0.12974E-03   -0.73807E-04 11120   0.222E-01    0.968E-02
DAV:   4    -0.192322624983E+03    0.71638E-04   -0.19620E-04  7760   0.119E-01
  45 F= -.19232262E+03 E0= -.19223509E+03  d E =-.204298E-02
       N       E                     dE             d eps       ncg     rms          rms(c)
DAV:   1    -0.192324769599E+03   -0.20730E-02   -0.16024E-01  8160   0.858E-01    0.108E-01
DAV:   2    -0.192325239765E+03   -0.47017E-03   -0.51358E-03 12480   0.244E-01    0.157E-01
DAV:   3    -0.192325094040E+03    0.14573E-03   -0.11723E-03 11240   0.270E-01    0.131E-01
DAV:   4    -0.192324951895E+03    0.14214E-03   -0.34418E-04  8720   0.143E-01    0.553E-02
DAV:   5    -0.192324911718E+03    0.40177E-04   -0.13316E-04  6600   0.711E-02
  46 F= -.19232491E+03 E0= -.19223816E+03  d E =-.228674E-02
       N       E                     dE             d eps       ncg     rms          rms(c)
DAV:   1    -0.192328665151E+03   -0.37133E-02   -0.97753E-01  8160   0.210E+00    0.234E-01
DAV:   2    -0.192331374503E+03   -0.27094E-02   -0.30848E-02 11920   0.593E-01    0.315E-01
DAV:   3    -0.192331061460E+03    0.31304E-03   -0.47898E-03 12400   0.589E-01    0.286E-01
DAV:   4    -0.192330180972E+03    0.88049E-03   -0.12050E-03 11120   0.298E-01    0.885E-02
DAV:   5    -0.192330139734E+03    0.41238E-04   -0.51749E-04 10400   0.123E-01
  47 F= -.19233014E+03 E0= -.19224538E+03  d E =-.522802E-02
       N       E                     dE             d eps       ncg     rms          rms(c)
DAV:   1    -0.192333044428E+03   -0.28635E-02   -0.55481E-01  8160   0.160E+00    0.223E-01
DAV:   2    -0.192337499734E+03   -0.44553E-02   -0.21779E-02 12280   0.794E-01    0.571E-01
DAV:   3    -0.192333633631E+03    0.38661E-02   -0.62716E-03 11640   0.686E-01    0.144E-01
DAV:   4    -0.192333799176E+03   -0.16555E-03   -0.12713E-03  9880   0.275E-01    0.178E-01
DAV:   5    -0.192333408896E+03    0.39028E-03   -0.77385E-04 11000   0.233E-01    0.598E-02
DAV:   6    -0.192333454304E+03   -0.45408E-04   -0.26121E-04  8120   0.102E-01
  48 F= -.19233345E+03 E0= -.19225054E+03  d E =-.331457E-02
       N       E                     dE             d eps       ncg     rms          rms(c)
DAV:   1    -0.192333431061E+03   -0.22165E-04   -0.84416E-03  8400   0.249E-01    0.675E-02
DAV:   2    -0.192333679424E+03   -0.24836E-03   -0.10459E-03 10600   0.235E-01    0.169E-01
DAV:   3    -0.192333342755E+03    0.33667E-03   -0.52352E-04  9040   0.213E-01    0.518E-02
DAV:   4    -0.192333313611E+03    0.29144E-04   -0.81395E-05  6160   0.636E-02
  49 F= -.19233331E+03 E0= -.19225011E+03  d E =0.140692E-03
       N       E                     dE             d eps       ncg     rms          rms(c)
DAV:   1    -0.192334447339E+03   -0.11046E-02   -0.81319E-02  8160   0.622E-01    0.964E-02
DAV:   2    -0.192335006983E+03   -0.55964E-03   -0.36184E-03 12600   0.308E-01    0.219E-01
DAV:   3    -0.192334483020E+03    0.52396E-03   -0.12793E-03 10360   0.288E-01    0.797E-02
DAV:   4    -0.192334428952E+03    0.54068E-04   -0.25268E-04  8080   0.954E-02
  50 F= -.19233443E+03 E0= -.19225178E+03  d E =-.111534E-02
       N       E                     dE             d eps       ncg     rms          rms(c)
DAV:   1    -0.192335019843E+03   -0.53682E-03   -0.21958E-02  8280   0.323E-01    0.534E-02
DAV:   2    -0.192335311098E+03   -0.29125E-03   -0.10413E-03 13000   0.206E-01    0.153E-01
DAV:   3    -0.192335025825E+03    0.28527E-03   -0.38178E-04  8760   0.180E-01    0.310E-02
DAV:   4    -0.192335045165E+03   -0.19340E-04   -0.65322E-05  5920   0.665E-02
  51 F= -.19233505E+03 E0= -.19225270E+03  d E =-.616213E-03
       N       E                     dE             d eps       ncg     rms          rms(c)
DAV:   1    -0.192335754740E+03   -0.72892E-03   -0.33410E-02  8200   0.398E-01    0.545E-02
DAV:   2    -0.192335874373E+03   -0.11963E-03   -0.11949E-03 12720   0.144E-01    0.861E-02
DAV:   3    -0.192335806525E+03    0.67848E-04   -0.25901E-04  8280   0.135E-01
  52 F= -.19233581E+03 E0= -.19225381E+03  d E =-.761360E-03
       N       E                     dE             d eps       ncg     rms          rms(c)
DAV:   1    -0.192336358725E+03   -0.48435E-03   -0.22327E-02  8160   0.326E-01    0.567E-02
DAV:   2    -0.192336430742E+03   -0.72017E-04   -0.89877E-04 11520   0.118E-01
  53 F= -.19233643E+03 E0= -.19225478E+03  d E =-.624217E-03
       N       E                     dE             d eps       ncg     rms          rms(c)
DAV:   1    -0.192336669052E+03   -0.31033E-03   -0.79296E-03  8320   0.214E-01    0.677E-02
DAV:   2    -0.192337144919E+03   -0.47587E-03   -0.11736E-03 10560   0.291E-01    0.197E-01
DAV:   3    -0.192336601257E+03    0.54366E-03   -0.57334E-04  9120   0.231E-01    0.249E-02
DAV:   4    -0.192336649057E+03   -0.47800E-04   -0.92051E-05  5920   0.779E-02
  54 F= -.19233665E+03 E0= -.19225544E+03  d E =-.218316E-03
       N       E                     dE             d eps       ncg     rms          rms(c)
DAV:   1    -0.192337436784E+03   -0.83553E-03   -0.71019E-02  8160   0.571E-01    0.646E-02
DAV:   2    -0.192337651153E+03   -0.21437E-03   -0.23958E-03 13400   0.176E-01    0.904E-02
DAV:   3    -0.192337607872E+03    0.43280E-04   -0.42905E-04  9720   0.160E-01
  55 F= -.19233761E+03 E0= -.19225700E+03  d E =-.958815E-03
