unknown system                          
           1
     8.854717    5.107537    0.000000
    -8.853256    5.105023    0.000000
     0.000000    0.000000   30.000000
   V    Mo   W    S 
   3   3   3  18
Direct configuration=     1
   1.00000000  0.33333334  0.00000000
   0.00000000  0.00000000  0.00000000
   0.66666669  0.00000000  0.00000000
   0.33333334  0.00000000  0.00000000
   0.33333334  0.66666669  0.00000000
   0.66666669  0.66666669  0.00000000
   0.00000000  0.66666669  0.00000000
   0.33333334  0.33333334  0.00000000
   0.66666669  0.33333334  0.00000000
   0.11068511  0.22244981  0.95539999
   0.22244981  0.11068511  0.04460000
   0.11068511  0.55578315  0.95539999
   0.22244981  0.44401845  0.04460000
   0.11068511  0.88911647  0.95539999
   0.22244981  0.77735180  0.04460000
   0.44401845  0.22244981  0.95539999
   0.55578315  0.11068511  0.04460000
   0.44401845  0.55578315  0.95539999
   0.55578315  0.44401845  0.04460000
   0.44401845  0.88911647  0.95539999
   0.55578315  0.77735180  0.04460000
   0.77735180  0.22244981  0.95539999
   0.88911647  0.11068511  0.04460000
   0.77735180  0.55578315  0.95539999
   0.88911647  0.44401845  0.04460000
   0.77735180  0.88911647  0.95539999
   0.88911647  0.77735180  0.04460000
unknown system                          
           1
     8.666739    5.001402    0.000000
    -8.665192    4.998740    0.000000
     0.000000    0.000000   30.000000
   V    Mo   W    S 
   3   3   3  18
Direct configuration=     2
   1.00059878  0.33349496  0.00004556
  -0.00056410 -0.00063420  0.00007929
   0.66539422 -0.00186581  0.00002266
   0.33342619 -0.00138361 -0.00014865
   0.33486119  0.66822078 -0.00019083
   0.66520868  0.66678010  0.00010605
   0.00164455  0.66831317 -0.00023673
   0.33419625  0.33454720  0.00021839
   0.66540816  0.33287638  0.00010373
   0.10745606  0.22055681  0.95313255
   0.21816096  0.10988378  0.04797631
   0.10837816  0.55152578  0.95193778
   0.21813383  0.44159424  0.04802852
   0.10812545  0.89011678  0.95194633
   0.22114073  0.77716280  0.04923892
   0.44469866  0.22270355  0.95073005
   0.55844171  0.10967843  0.04798531
   0.44375844  0.55457171  0.95074694
   0.55498965  0.44349986  0.04939861
   0.44869349  0.89091929  0.95187969
   0.55775267  0.78213107  0.04809994
   0.77942846  0.22038253  0.95307907
   0.88898329  0.11086798  0.04582640
   0.77830906  0.55511486  0.95083241
   0.89064066  0.44226353  0.04798440
   0.77965932  0.89324903  0.95311683
   0.89128993  0.78164344  0.04806036
unknown system                          
           1
     8.484317    4.900453    0.000000
    -8.483661    4.899330    0.000000
     0.000000    0.000000   30.000000
   V    Mo   W    S 
   3   3   3  18
Direct configuration=     3
   1.00079260  0.33362657  0.00004745
  -0.00065852 -0.00091896  0.00012708
   0.66489744 -0.00245865  0.00001618
   0.33331059 -0.00198742 -0.00012661
   0.33526693  0.66873761 -0.00020779
   0.66439195  0.66614078  0.00008742
   0.00233890  0.66893620 -0.00025673
   0.33512578  0.33523258  0.00025166
   0.66469387  0.33297441  0.00007712
   0.10760451  0.22058990  0.95322225
   0.21817454  0.11005076  0.04790014
   0.10820474  0.55156270  0.95194266
   0.21817410  0.44141899  0.04800134
   0.10796628  0.88993387  0.95188363
   0.22090941  0.77702110  0.04929020
   0.44476442  0.22291901  0.95073788
   0.55861820  0.10986618  0.04797575
   0.44360636  0.55432502  0.95066945
   0.55487012  0.44326419  0.04950058
   0.44887546  0.89101526  0.95176969
   0.55786042  0.78230915  0.04818483
   0.77933181  0.22044709  0.95321603
   0.88895768  0.11085579  0.04571593
   0.77841198  0.55500572  0.95088897
   0.89053312  0.44235459  0.04790219
   0.77972961  0.89336934  0.95315984
   0.89146213  0.78162266  0.04802274
unknown system                          
           1
     8.272441    4.784752    0.000000
    -8.268333    4.777652    0.000000
     0.000000    0.000000   30.000000
   V    Mo   W    S 
   3   3   3  18
Direct configuration=     4
   1.00165143  0.33464910  0.00003055
  -0.00063720 -0.00221804  0.00026460
   0.66263447 -0.00468555 -0.00002086
   0.33258219 -0.00458290 -0.00000229
   0.33636933  0.67053855 -0.00018435
   0.66073927  0.66244467 -0.00000088
   0.00511963  0.67114539 -0.00021758
   0.33970570  0.33835436  0.00027271
   0.66171853  0.33404461 -0.00005731
   0.10676263  0.22000152  0.95226982
   0.21717454  0.10957063  0.04902253
   0.10770614  0.55055799  0.95049430
   0.21725732  0.44099579  0.04933751
   0.10746864  0.89061887  0.95013156
   0.22084809  0.77678143  0.05110079
   0.44447008  0.22286185  0.94916196
   0.55929800  0.10941744  0.04937942
   0.44330411  0.55416752  0.94875268
   0.55488860  0.44321130  0.05164823
   0.45044397  0.89179670  0.94987062
   0.55859616  0.78371887  0.04994018
   0.77970997  0.21990368  0.95244510
   0.88878554  0.11082949  0.04650171
   0.77851281  0.55501042  0.94953239
   0.89082991  0.44206107  0.04900384
   0.78033035  0.89449396  0.95203450
   0.89194425  0.78252577  0.04928814
unknown system                          
           1
     8.271279    4.791572    0.000000
    -8.266123    4.782648    0.000000
     0.000000    0.000000   30.000000
   V    Mo   W    S 
   3   3   3  18
Direct configuration=     5
   1.00314766  0.33622425 -0.00005207
  -0.00032902 -0.00445807  0.00036129
   0.65879786 -0.00840110 -0.00011248
   0.33035681 -0.01073909  0.00013189
   0.33761528  0.67396223 -0.00004937
   0.65274119  0.65358950 -0.00010075
   0.01191071  0.67585031 -0.00006606
   0.34947018  0.34520510  0.00015857
   0.65559413  0.33703682 -0.00023149
   0.10667834  0.21968577  0.95118059
   0.21677146  0.10949258  0.05031365
   0.10794207  0.55005158  0.94843777
   0.21708140  0.44120002  0.05103748
   0.10742543  0.89166514  0.94765826
   0.22142567  0.77659473  0.05374411
   0.44323325  0.22177148  0.94710022
   0.55980061  0.10887790  0.05108061
   0.44265142  0.55444479  0.94600990
   0.55514626  0.44378467  0.05518170
   0.45205971  0.89247187  0.94713337
   0.55930424  0.78485443  0.05228910
   0.77955870  0.21926920  0.95159471
   0.88828363  0.11057795  0.04777820
   0.77884154  0.55556713  0.94788336
   0.89085381  0.44202910  0.05018279
   0.78028157  0.89464987  0.95058328
   0.89157054  0.78295630  0.05077127
unknown system                          
           1
     8.270634    4.793483    0.000000
    -8.266387    4.786125    0.000000
     0.000000    0.000000   30.000000
   V    Mo   W    S 
   3   3   3  18
Direct configuration=     6
   1.00360591  0.33608179 -0.00002286
  -0.00030459 -0.00471470  0.00041189
   0.65830277 -0.00923394 -0.00010267
   0.32933609 -0.01296997  0.00006161
   0.33697128  0.67461180 -0.00005452
   0.65087335  0.65144766 -0.00006916
   0.01493168  0.67721459 -0.00002307
   0.35124359  0.34691102  0.00008249
   0.65410782  0.33819410 -0.00013730
   0.10793872  0.22024680  0.95131015
   0.21783333  0.11026862  0.05005762
   0.10847800  0.55080268  0.94829002
   0.21799272  0.44154505  0.05100926
   0.10788803  0.89167323  0.94744466
   0.22197084  0.77660011  0.05424323
   0.44236301  0.22090205  0.94700419
   0.55948854  0.10911356  0.05093650
   0.44216068  0.55486737  0.94568112
   0.55524241  0.44405880  0.05588006
   0.45176332  0.89229442  0.94690204
   0.55920083  0.78425510  0.05236779
   0.77867897  0.21968924  0.95181259
   0.88812246  0.11035669  0.04778730
   0.77929061  0.55622043  0.94801048
   0.89045765  0.44244786  0.04992179
   0.77948410  0.89327137  0.95065516
   0.89079232  0.78205875  0.05053955
unknown system                          
           1
     8.280930    4.804766    0.000000
    -8.275473    4.795312    0.000000
     0.000000    0.000000   30.000000
   V    Mo   W    S 
   3   3   3  18
Direct configuration=     7
   1.00452585  0.33559202 -0.00002780
  -0.00042676 -0.00499140  0.00053290
   0.65774496 -0.01072807 -0.00013613
   0.32774018 -0.01672105  0.00002753
   0.33587533  0.67575883 -0.00004159
   0.64740598  0.64821583 -0.00006340
   0.01999155  0.67939072  0.00006002
   0.35439688  0.34995613  0.00001885
   0.65135727  0.33969430 -0.00015464
   0.10928016  0.22085408  0.95149401
   0.21906779  0.11115529  0.04955647
   0.10903501  0.55151879  0.94807371
   0.21886964  0.44195795  0.05097306
   0.10840847  0.89162350  0.94718748
   0.22272362  0.77670532  0.05494937
   0.44151529  0.22004367  0.94707427
   0.55910728  0.10944139  0.05063662
   0.44157646  0.55544673  0.94534181
   0.55495856  0.44434788  0.05666103
   0.45155115  0.89208871  0.94663520
   0.55896281  0.78361635  0.05241101
   0.77767695  0.22032242  0.95231396
   0.88796276  0.11012621  0.04770167
   0.78012424  0.55709698  0.94838054
   0.89008015  0.44305894  0.04948198
   0.77863791  0.89168395  0.95084074
   0.89006499  0.78095898  0.05007125
unknown system                          
           1
     8.286541    4.814607    0.000000
    -8.279757    4.802852    0.000000
     0.000000    0.000000   30.000000
   V    Mo   W    S 
   3   3   3  18
Direct configuration=     8
   1.00540418  0.33523720 -0.00003630
  -0.00055855 -0.00509620  0.00062291
   0.65752129 -0.01179562 -0.00016821
   0.32697270 -0.01882233  0.00000621
   0.33513081  0.67637305 -0.00002826
   0.64547782  0.64682940 -0.00004586
   0.02295347  0.68049552  0.00008271
   0.35565569  0.35155506 -0.00002889
   0.64976540  0.34038974 -0.00011428
   0.10992108  0.22115305  0.95157694
   0.21974278  0.11162104  0.04921790
   0.10927582  0.55179624  0.94791679
   0.21919732  0.44213491  0.05098341
   0.10870107  0.89161422  0.94704834
   0.22327220  0.77680952  0.05545009
   0.44087242  0.21949961  0.94710965
   0.55896622  0.10964008  0.05043505
   0.44114697  0.55582301  0.94510597
   0.55476961  0.44455505  0.05710447
   0.45149301  0.89201884  0.94646877
   0.55882325  0.78333855  0.05246038
   0.77713876  0.22071637  0.95267488
   0.88790567  0.11001187  0.04764442
   0.78077847  0.55775587  0.94865901
   0.88993625  0.44339384  0.04917173
   0.77821906  0.89087607  0.95093672
   0.88973169  0.78029048  0.04974533
unknown system                          
           1
     8.292477    4.817292    0.000000
    -8.285329    4.804915    0.000000
     0.000000    0.000000   30.000000
   V    Mo   W    S 
   3   3   3  18
Direct configuration=     9
   1.00739767  0.33484011 -0.00007148
  -0.00088506 -0.00508972  0.00079165
   0.65734458 -0.01360884 -0.00024968
   0.32641998 -0.02120816 -0.00001866
   0.33409641  0.67694634 -0.00001281
   0.64308338  0.64582592 -0.00002741
   0.02659478  0.68149269  0.00008421
   0.35647763  0.35344843 -0.00008489
   0.64755005  0.34089476 -0.00005979
   0.11050958  0.22146883  0.95167024
   0.22056935  0.11215015  0.04864325
   0.10956099  0.55202313  0.94776581
   0.21931712  0.44231139  0.05098882
   0.10913519  0.89154841  0.94700545
   0.22402714  0.77699169  0.05603087
   0.44006341  0.21897923  0.94729969
   0.55890991  0.10994385  0.05006912
   0.44055739  0.55633506  0.94489935
   0.55429867  0.44484571  0.05744914
   0.45145436  0.89191716  0.94635466
   0.55853314  0.78309913  0.05249205
   0.77655049  0.22132070  0.95335996
   0.88788360  0.10992104  0.04750888
   0.78172608  0.55867841  0.94925371
   0.88981247  0.44378420  0.04860063
   0.77778534  0.89003046  0.95107561
   0.88944078  0.77932437  0.04918152
unknown system                          
           1
     8.298303    4.822354    0.000000
    -8.290327    4.808545    0.000000
     0.000000    0.000000   30.000000
   V    Mo   W    S 
   3   3   3  18
Direct configuration=    10
   1.00756710  0.33491443 -0.00007926
  -0.00091304 -0.00509998  0.00079385
   0.65738523 -0.01363198 -0.00025451
   0.32661209 -0.02084692 -0.00001160
   0.33422790  0.67682711 -0.00001299
   0.64336138  0.64622778 -0.00002167
   0.02616931  0.68132490  0.00007632
   0.35607474  0.35320917 -0.00007927
   0.64770009  0.34070499 -0.00004733
   0.11036846  0.22136047  0.95161738
   0.22045865  0.11206795  0.04867551
   0.10953447  0.55193548  0.94775478
   0.21922271  0.44229585  0.05103592
   0.10910754  0.89157508  0.94702877
   0.22398526  0.77700563  0.05598110
   0.44007140  0.21903439  0.94727829
   0.55897213  0.10991190  0.05010103
   0.44059158  0.55631179  0.94490578
   0.55426996  0.44485460  0.05738974
   0.45149716  0.89193369  0.94636154
   0.55853649  0.78316934  0.05251806
   0.77662966  0.22126998  0.95334762
   0.88789205  0.10991978  0.04752569
   0.78169063  0.55865249  0.94923908
   0.88982756  0.44371242  0.04862544
   0.77788719  0.89017987  0.95103561
   0.88948677  0.77939423  0.04921501
unknown system                          
           1
     8.301993    4.825118    0.000000
    -8.293566    4.810533    0.000000
     0.000000    0.000000   30.000000
   V    Mo   W    S 
   3   3   3  18
Direct configuration=    11
   1.00937288  0.33487236 -0.00012633
  -0.00123341 -0.00514879  0.00091105
   0.65731509 -0.01494471 -0.00031936
   0.32658795 -0.02180401 -0.00001745
   0.33381932  0.67696727 -0.00001134
   0.64214386  0.64612106 -0.00000844
   0.02792878  0.68177642  0.00006698
   0.35610044  0.35419040 -0.00010268
   0.64631353  0.34070999 -0.00000865
   0.11049147  0.22133899  0.95157830
   0.22079847  0.11227516  0.04834559
   0.10970470  0.55199062  0.94766701
   0.21917157  0.44241774  0.05113074
   0.10936259  0.89156867  0.94707568
   0.22433873  0.77714132  0.05619710
   0.43960331  0.21888039  0.94739360
   0.55905182  0.11004830  0.04991484
   0.44031509  0.55659341  0.94481840
   0.55385827  0.44505252  0.05746815
   0.45151830  0.89187436  0.94632810
   0.55832647  0.78312729  0.05258186
   0.77638753  0.22157315  0.95380496
   0.88789664  0.10983639  0.04745369
   0.78214689  0.55915127  0.94962742
   0.88973789  0.44381384  0.04827484
   0.77779749  0.88990780  0.95105225
   0.88935876  0.77888325  0.04890358
unknown system                          
           1
     8.312023    4.832525    0.000000
    -8.301903    4.815020    0.000000
     0.000000    0.000000   30.000000
   V    Mo   W    S 
   3   3   3  18
Direct configuration=    12
   1.01005768  0.33490849 -0.00014469
  -0.00135807 -0.00517572  0.00095518
   0.65727156 -0.01541933 -0.00034245
   0.32663921 -0.02205922 -0.00001757
   0.33371195  0.67699724 -0.00000862
   0.64178736  0.64615994 -0.00000135
   0.02843651  0.68188120  0.00006042
   0.35601367  0.35447950 -0.00011108
   0.64586134  0.34067696  0.00000836
   0.11052853  0.22132208  0.95155023
   0.22091229  0.11234632  0.04824197
   0.10976342  0.55199983  0.94762851
   0.21915482  0.44246125  0.05117890
   0.10945098  0.89158057  0.94708316
   0.22446771  0.77719004  0.05627404
   0.43942129  0.21882893  0.94741642
   0.55909265  0.11008911  0.04986214
   0.44022098  0.55669427  0.94477442
   0.55371533  0.44512838  0.05750625
   0.45153848  0.89185890  0.94630837
   0.55825642  0.78311304  0.05261588
   0.77631735  0.22167570  0.95396462
   0.88789580  0.10981369  0.04743227
   0.78229042  0.55931701  0.94975274
   0.88969928  0.44382794  0.04815613
   0.77776651  0.88981821  0.95104452
   0.88930099  0.77870013  0.04881113
unknown system                          
           1
     8.326584    4.843424    0.000000
    -8.313773    4.821282    0.000000
     0.000000    0.000000   30.000000
   V    Mo   W    S 
   3   3   3  18
Direct configuration=    13
   1.01281436  0.33514275 -0.00022566
  -0.00190692 -0.00534500  0.00113386
   0.65701671 -0.01736469 -0.00043505
   0.32696991 -0.02288621 -0.00001934
   0.33347756  0.67716335 -0.00000295
   0.64045063  0.64636737  0.00002323
   0.03027429  0.68228098  0.00002740
   0.35568657  0.35557223 -0.00013782
   0.64404593  0.34047350  0.00007051
   0.11062395  0.22121890  0.95142736
   0.22132243  0.11259262  0.04782882
   0.11000393  0.55206242  0.94750107
   0.21907976  0.44262710  0.05138105
   0.10981807  0.89161009  0.94715523
   0.22491186  0.77738151  0.05649414
   0.43873776  0.21872450  0.94752444
   0.55928974  0.11022442  0.04965454
   0.43990637  0.55706358  0.94464103
   0.55310122  0.44540907  0.05759099
   0.45161601  0.89179455  0.94626312
   0.55798787  0.78309484  0.05274416
   0.77606411  0.22203823  0.95462094
   0.88788956  0.10970747  0.04732930
   0.78276613  0.55989605  0.95026533
   0.88953075  0.44384105  0.04767433
   0.77764929  0.88953401  0.95101116
   0.88908661  0.77798977  0.04845871
unknown system                          
           1
     8.344952    4.855075    0.000000
    -8.327332    4.824662    0.000000
     0.000000    0.000000   30.000000
   V    Mo   W    S 
   3   3   3  18
Direct configuration=    14
   1.01834232  0.33617600 -0.00040316
  -0.00308100 -0.00573192  0.00147025
   0.65649267 -0.02095867 -0.00060586
   0.32788943 -0.02392890 -0.00001484
   0.33308250  0.67700227  0.00001551
   0.63829220  0.64711193  0.00006889
   0.03317046  0.68269003 -0.00005667
   0.35458853  0.35746781 -0.00017937
   0.64078939  0.33981749  0.00019854
   0.11067177  0.22090285  0.95115233
   0.22192428  0.11295350  0.04711884
   0.11044186  0.55210567  0.94728665
   0.21893696  0.44294803  0.05180421
   0.11045083  0.89176951  0.94730961
   0.22564433  0.77770487  0.05680079
   0.43747469  0.21868593  0.94765073
   0.55971424  0.11042224  0.04937634
   0.43941056  0.55772904  0.94439314
   0.55193312  0.44590786  0.05771097
   0.45181322  0.89171143  0.94614751
   0.55746425  0.78301259  0.05305931
   0.77586306  0.22271518  0.95584239
   0.88793922  0.10962400  0.04712351
   0.78345805  0.56083266  0.95115751
   0.88921996  0.44367189  0.04679931
   0.77758568  0.88913150  0.95085974
   0.88870185  0.77673967  0.04791374
unknown system                          
           1
     8.339070    4.850344    0.000000
    -8.321145    4.819416    0.000000
     0.000000    0.000000   30.000000
   V    Mo   W    S 
   3   3   3  18
Direct configuration=    15
   1.02421765  0.33817390 -0.00065299
  -0.00479496 -0.00654583  0.00189466
   0.65562887 -0.02494236 -0.00079099
   0.32945226 -0.02445882 -0.00001609
   0.33319667  0.67663277  0.00003856
   0.63633533  0.64834816  0.00016787
   0.03571106  0.68287411 -0.00019443
   0.35304398  0.35944001 -0.00021159
   0.63731756  0.33874078  0.00034487
   0.11073985  0.22043925  0.95076835
   0.22247770  0.11327008  0.04630582
   0.11101990  0.55202893  0.94697328
   0.21894116  0.44336328  0.05242473
   0.11119344  0.89200663  0.94754411
   0.22646347  0.77809284  0.05702793
   0.43590215  0.21882036  0.94774034
   0.56024770  0.11046666  0.04917090
   0.43893693  0.55849654  0.94407714
   0.55039718  0.44649418  0.05778194
   0.45209224  0.89157718  0.94602343
   0.55687781  0.78288525  0.05347675
   0.77599265  0.22332014  0.95730003
   0.88803991  0.10969175  0.04681440
   0.78404778  0.56167454  0.95218921
   0.88891478  0.44329137  0.04581365
   0.77755956  0.88872730  0.95059922
   0.88826183  0.77530543  0.04738879
unknown system                          
           1
     8.357339    4.863263    0.000000
    -8.334987    4.824708    0.000000
     0.000000    0.000000   30.000000
   V    Mo   W    S 
   3   3   3  18
Direct configuration=    16
   1.02339496  0.33966178 -0.00079630
  -0.00584371 -0.00721631  0.00191896
   0.65509498 -0.02457868 -0.00075645
   0.33039390 -0.02362176 -0.00001289
   0.33384445  0.67607049  0.00008930
   0.63688969  0.64880394  0.00016270
   0.03528172  0.68243966 -0.00031193
   0.35270221  0.35954696 -0.00020098
   0.63732504  0.33826398  0.00044904
   0.11078104  0.22039273  0.95079735
   0.22227204  0.11312054  0.04617633
   0.11132892  0.55207005  0.94689550
   0.21931666  0.44350503  0.05253845
   0.11131850  0.89209888  0.94766815
   0.22648617  0.77809926  0.05678412
   0.43563655  0.21908341  0.94768815
   0.56028469  0.11019788  0.04935134
   0.43923510  0.55860951  0.94407747
   0.55002239  0.44641998  0.05766481
   0.45227871  0.89154341  0.94597905
   0.55687570  0.78277307  0.05358796
   0.77653673  0.22292633  0.95744568
   0.88811013  0.10991806  0.04664575
   0.78378469  0.56130502  0.95232910
   0.88899003  0.44308448  0.04581044
   0.77765771  0.88872102  0.95047740
   0.88821545  0.77497575  0.04754141
unknown system                          
           1
     8.355124    4.860731    0.000000
    -8.332389    4.821530    0.000000
     0.000000    0.000000   30.000000
   V    Mo   W    S 
   3   3   3  18
Direct configuration=    17
   1.02895918  0.34189478 -0.00106169
  -0.00801859 -0.00824138  0.00227609
   0.65405893 -0.02826843 -0.00089714
   0.33207861 -0.02399472 -0.00004554
   0.33395799  0.67554241  0.00012122
   0.63517879  0.65009178  0.00026229
   0.03783695  0.68268955 -0.00045804
   0.35131400  0.36150006 -0.00024337
   0.63378936  0.33694169  0.00061472
   0.11075224  0.22003962  0.95052789
   0.22271455  0.11340398  0.04539131
   0.11202917  0.55213289  0.94655124
   0.21925158  0.44385969  0.05308719
   0.11204358  0.89232879  0.94788587
   0.22723352  0.77841399  0.05696034
   0.43428229  0.21927386  0.94777071
   0.56079121  0.11021460  0.04924654
   0.43893475  0.55935585  0.94377155
   0.54863246  0.44690452  0.05774941
   0.45259317  0.89140673  0.94583318
   0.55643120  0.78267335  0.05398668
   0.77665085  0.22342425  0.95874924
   0.88816802  0.11000714  0.04634818
   0.78435307  0.56197196  0.95326758
   0.88868930  0.44273700  0.04496141
   0.77764476  0.88838907  0.95022388
   0.88786350  0.77352143  0.04711917
unknown system                          
           1
     8.354677    4.860459    0.000000
    -8.331802    4.821016    0.000000
     0.000000    0.000000   30.000000
   V    Mo   W    S 
   3   3   3  18
Direct configuration=    18
   1.02835476  0.34240905 -0.00109787
  -0.00898206 -0.00875598  0.00227813
   0.65381238 -0.02779842 -0.00085088
   0.33247913 -0.02364133 -0.00005119
   0.33413848  0.67530236  0.00012566
   0.63568059  0.65026262  0.00027802
   0.03763744  0.68259192 -0.00050138
   0.35132018  0.36143075 -0.00022807
   0.63399172  0.33674238  0.00066048
   0.11072440  0.22013377  0.95062116
   0.22250591  0.11331652  0.04530920
   0.11229136  0.55229686  0.94648414
   0.21931819  0.44390908  0.05305611
   0.11209148  0.89234308  0.94791521
   0.22728376  0.77842252  0.05686955
   0.43432222  0.21934510  0.94774443
   0.56072949  0.11009855  0.04937984
   0.43917276  0.55940541  0.94376111
   0.54860824  0.44684942  0.05772989
   0.45268591  0.89134049  0.94580382
   0.55651823  0.78263881  0.05400777
   0.77677967  0.22321204  0.95866756
   0.88814257  0.11011272  0.04630662
   0.78421771  0.56160813  0.95327963
   0.88875087  0.44278597  0.04503824
   0.77766046  0.88842581  0.95019269
   0.88797858  0.77342687  0.04722005
unknown system                          
           1
     8.356091    4.861140    0.000000
    -8.332687    4.820788    0.000000
     0.000000    0.000000   30.000000
   V    Mo   W    S 
   3   3   3  18
Direct configuration=    19
   1.02840405  0.34258588 -0.00111575
  -0.00931531 -0.00893252  0.00228179
   0.65372534 -0.02780480 -0.00084299
   0.33262220 -0.02357758 -0.00005716
   0.33417018  0.67523903  0.00012529
   0.63572755  0.65032878  0.00028194
   0.03769912  0.68259827 -0.00051664
   0.35132521  0.36149416 -0.00022863
   0.63389054  0.33662992  0.00067784
   0.11071202  0.22013537  0.95063544
   0.22246443  0.11330329  0.04526447
   0.11237483  0.55234816  0.94645874
   0.21932686  0.44393038  0.05306802
   0.11212304  0.89235911  0.94792704
   0.22731637  0.77842854  0.05685630
   0.43430823  0.21937156  0.94774273
   0.56073155  0.11007986  0.04941033
   0.43923144  0.55943585  0.94375479
   0.54857080  0.44684505  0.05773080
   0.45271030  0.89131998  0.94579100
   0.55652601  0.78262452  0.05402411
   0.77679997  0.22319872  0.95868152
   0.88812917  0.11013638  0.04629728
   0.78422262  0.56155808  0.95330423
   0.88874922  0.44278793  0.04503353
   0.77766840  0.88843282  0.95017596
   0.88800030  0.77335770  0.04723790
unknown system                          
           1
     8.351838    4.859250    0.000000
    -8.329164    4.820150    0.000000
     0.000000    0.000000   30.000000
   V    Mo   W    S 
   3   3   3  18
Direct configuration=    20
   1.02888037  0.34310375 -0.00117173
  -0.01015752 -0.00936215  0.00232338
   0.65347669 -0.02808873 -0.00083831
   0.33305215 -0.02346901 -0.00006573
   0.33426262  0.67507517  0.00012693
   0.63572627  0.65059451  0.00029589
   0.03797848  0.68259150 -0.00056080
   0.35118780  0.36174572 -0.00022990
   0.63348894  0.33633897  0.00072766
   0.11069573  0.22011736  0.95064395
   0.22240286  0.11328933  0.04510839
   0.11258859  0.55244270  0.94638696
   0.21934666  0.44399955  0.05312965
   0.11224077  0.89241332  0.94797091
   0.22744711  0.77847393  0.05684111
   0.43415884  0.21942892  0.94774250
   0.56076873  0.11003452  0.04945967
   0.43932355  0.55955515  0.94371897
   0.54838537  0.44687516  0.05773536
   0.45279527  0.89127157  0.94575580
   0.55650543  0.78259344  0.05408439
   0.77686485  0.22319443  0.95881496
   0.88810745  0.11019620  0.04625047
   0.78426364  0.56149681  0.95343262
   0.88873430  0.44276721  0.04495346
   0.77767221  0.88841801  0.95012519
   0.88801729  0.77311713  0.04723815
unknown system                          
           1
     8.351639    4.858991    0.000000
    -8.327890    4.818044    0.000000
     0.000000    0.000000   30.000000
   V    Mo   W    S 
   3   3   3  18
Direct configuration=    21
   1.02825782  0.34280757 -0.00113108
  -0.00967362 -0.00913918  0.00225647
   0.65357394 -0.02772491 -0.00082448
   0.33277610 -0.02346226 -0.00007059
   0.33425046  0.67521183  0.00011906
   0.63584950  0.65040706  0.00028292
   0.03770314  0.68259823 -0.00053505
   0.35141935  0.36151256 -0.00023361
   0.63382942  0.33645306  0.00069907
   0.11068345  0.22015012  0.95066555
   0.22241724  0.11327662  0.04524447
   0.11246582  0.55243930  0.94642812
   0.21931434  0.44392247  0.05307551
   0.11215199  0.89237542  0.94792823
   0.22731711  0.77842252  0.05683360
   0.43434941  0.21940198  0.94773397
   0.56072219  0.11006411  0.04946480
   0.43933192  0.55944388  0.94375222
   0.54857907  0.44679575  0.05773595
   0.45272744  0.89130598  0.94577511
   0.55657725  0.78262049  0.05403658
   0.77679805  0.22316384  0.95864309
   0.88810244  0.11016478  0.04630169
   0.78422604  0.56145646  0.95329416
   0.88874163  0.44279790  0.04507175
   0.77767567  0.88846279  0.95016223
   0.88804729  0.77328609  0.04729017
unknown system                          
           1
     8.351978    4.859147    0.000000
    -8.328177    4.818111    0.000000
     0.000000    0.000000   30.000000
   V    Mo   W    S 
   3   3   3  18
Direct configuration=    22
   1.02884603  0.34371363 -0.00120550
  -0.01114165 -0.00987654  0.00228309
   0.65312000 -0.02789535 -0.00079350
   0.33347207 -0.02319591 -0.00008044
   0.33429394  0.67484474  0.00012526
   0.63604879  0.65074604  0.00030998
   0.03804698  0.68255278 -0.00059992
   0.35124203  0.36181157 -0.00021789
   0.63338303  0.33596954  0.00077917
   0.11062857  0.22021164  0.95071843
   0.22226257  0.11323055  0.04503118
   0.11282148  0.55260953  0.94630810
   0.21929280  0.44397937  0.05312268
   0.11231916  0.89246192  0.94797197
   0.22751067  0.77848345  0.05678792
   0.43422502  0.21947859  0.94770588
   0.56074183  0.10995931  0.04959501
   0.43957770  0.55961311  0.94370047
   0.54839831  0.44682134  0.05774970
   0.45286628  0.89122253  0.94570158
   0.55659671  0.78256979  0.05411827
   0.77692651  0.22314930  0.95875669
   0.88801049  0.11033916  0.04625658
   0.78426631  0.56126148  0.95343592
   0.88874433  0.44279079  0.04500977
   0.77761575  0.88845551  0.95006627
   0.88809875  0.77290658  0.04736325
unknown system                          
           1
     8.355170    4.862264    0.000000
    -8.328938    4.817038    0.000000
     0.000000    0.000000   30.000000
   V    Mo   W    S 
   3   3   3  18
Direct configuration=    23
   1.02886717  0.34375547 -0.00121005
  -0.01124373 -0.00992957  0.00228549
   0.65309819 -0.02790268 -0.00079139
   0.33351440 -0.02317751 -0.00008189
   0.33430329  0.67483071  0.00012464
   0.63606839  0.65077520  0.00031154
   0.03805947  0.68255433 -0.00060374
   0.35123748  0.36182361 -0.00021797
   0.63335988  0.33593913  0.00078330
   0.11062587  0.22021224  0.95072192
   0.22224642  0.11322448  0.04501770
   0.11284152  0.55262048  0.94630053
   0.21929360  0.44398343  0.05312674
   0.11232696  0.89246759  0.94797509
   0.22752125  0.77848714  0.05678604
   0.43422166  0.21948386  0.94770458
   0.56074211  0.10995296  0.04960368
   0.43959428  0.55962065  0.94369803
   0.54839043  0.44682151  0.05775112
   0.45287437  0.89121789  0.94569744
   0.55659988  0.78256794  0.05412225
   0.77693225  0.22314783  0.95876080
   0.88800367  0.11034577  0.04625435
   0.78427030  0.56124906  0.95344264
   0.88874545  0.44279257  0.04500780
   0.77761298  0.88845863  0.95006129
   0.88810690  0.77289174  0.04736797
unknown system                          
           1
     8.358731    4.864414    0.000000
    -8.329906    4.814734    0.000000
     0.000000    0.000000   30.000000
   V    Mo   W    S 
   3   3   3  18
Direct configuration=    24
   1.02956492  0.34461197 -0.00128425
  -0.01274654 -0.01071723  0.00232847
   0.65267095 -0.02790852 -0.00076701
   0.33422289 -0.02293712 -0.00010571
   0.33419795  0.67439854  0.00011086
   0.63619443  0.65084632  0.00032702
   0.03846332  0.68257701 -0.00065881
   0.35120266  0.36218768 -0.00019907
   0.63293170  0.33548643  0.00084844
   0.11058574  0.22020943  0.95076749
   0.22207916  0.11313857  0.04486083
   0.11307502  0.55270905  0.94628297
   0.21930960  0.44401556  0.05311455
   0.11240199  0.89255898  0.94801942
   0.22771053  0.77854057  0.05673471
   0.43425102  0.21954314  0.94770948
   0.56069506  0.10993206  0.04967978
   0.43971083  0.55968933  0.94371476
   0.54833628  0.44679823  0.05772893
   0.45274818  0.89109588  0.94569924