       N       E                     dE             d eps       ncg     rms          rms(c)
DAV:   1     0.112469877636E+04    0.11247E+04   -0.35855E+04  8160   0.577E+02
DAV:   2    -0.131012617068E+01   -0.11260E+04   -0.10831E+04 11120   0.173E+02
DAV:   3    -0.199646215500E+03   -0.19834E+03   -0.19028E+03 10920   0.822E+01
DAV:   4    -0.208921979157E+03   -0.92758E+01   -0.89633E+01 12000   0.261E+01
DAV:   5    -0.209273122575E+03   -0.35114E+00   -0.35018E+00 11760   0.373E+00    0.275E+01
DAV:   6    -0.237429859550E+03   -0.28157E+02   -0.10898E+02 12600   0.604E+01    0.593E+01
DAV:   7    -0.196709030224E+03    0.40721E+02   -0.17849E+02 13240   0.151E+02    0.206E+01
DAV:   8    -0.190359442806E+03    0.63496E+01   -0.21158E+01 11560   0.134E+01    0.140E+01
DAV:   9    -0.188344887749E+03    0.20146E+01   -0.40742E+00 12160   0.633E+00    0.934E+00
DAV:  10    -0.187127601325E+03    0.12173E+01   -0.16161E+00 13160   0.759E+00    0.286E+00
DAV:  11    -0.187114004260E+03    0.13597E-01   -0.63108E-01 12240   0.229E+00    0.299E+00
DAV:  12    -0.187145499976E+03   -0.31496E-01   -0.76683E-01 11920   0.393E+00    0.413E+00
DAV:  13    -0.186990545584E+03    0.15495E+00   -0.36731E-01 13040   0.350E+00    0.175E+00
DAV:  14    -0.186957858774E+03    0.32687E-01   -0.76004E-02 12840   0.162E+00    0.590E-01
DAV:  15    -0.186956433166E+03    0.14256E-02   -0.15613E-02 12840   0.627E-01    0.700E-01
DAV:  16    -0.186953658271E+03    0.27749E-02   -0.10738E-02 13280   0.587E-01    0.413E-01
DAV:  17    -0.186951517555E+03    0.21407E-02   -0.59320E-03 12640   0.376E-01    0.195E-01
DAV:  18    -0.186951255569E+03    0.26199E-03   -0.12374E-03 11720   0.144E-01    0.879E-02
DAV:  19    -0.186951306580E+03   -0.51010E-04   -0.51158E-04  8800   0.675E-02
   1 F= -.18695131E+03 E0= -.18678041E+03  d E =-.186951E+03
       N       E                     dE             d eps       ncg     rms          rms(c)
DAV:   1    -0.187578268220E+03   -0.62701E+00   -0.26882E+02  8160   0.348E+01    0.474E+00
DAV:   2    -0.189801302475E+03   -0.22230E+01   -0.20545E+01 12040   0.164E+01    0.113E+01
DAV:   3    -0.189320059284E+03    0.48124E+00   -0.47572E+00 12240   0.131E+01    0.598E+00
DAV:   4    -0.188829836343E+03    0.49022E+00   -0.58420E-01 12600   0.399E+00    0.201E+00
DAV:   5    -0.188913463452E+03   -0.83627E-01   -0.42253E-01 11800   0.334E+00    0.470E+00
DAV:   6    -0.188840388188E+03    0.73075E-01   -0.72002E-01 12160   0.433E+00    0.308E+00
DAV:   7    -0.188742059197E+03    0.98329E-01   -0.22794E-01 12360   0.197E+00    0.101E+00
DAV:   8    -0.188740835356E+03    0.12238E-02   -0.73728E-02 11600   0.135E+00    0.142E+00
DAV:   9    -0.188727042982E+03    0.13792E-01   -0.38003E-02 11400   0.108E+00    0.597E-01
DAV:  10    -0.188724076576E+03    0.29664E-02   -0.72398E-03 11160   0.361E-01    0.244E-01
DAV:  11    -0.188723836242E+03    0.24033E-03   -0.26029E-03 12040   0.189E-01    0.122E-01
DAV:  12    -0.188723802743E+03    0.33499E-04   -0.11706E-03 10800   0.105E-01    0.769E-02
DAV:  13    -0.188723960999E+03   -0.15826E-03   -0.24219E-04  6120   0.588E-02    0.221E-02
DAV:  14    -0.188724127724E+03   -0.16673E-03   -0.83091E-05  6920   0.292E-02    0.343E-02
DAV:  15    -0.188724225470E+03   -0.97746E-04   -0.38271E-05  6200   0.210E-02
   2 F= -.18872423E+03 E0= -.18858587E+03  d E =-.177292E+01
       N       E                     dE             d eps       ncg     rms          rms(c)
DAV:   1    -0.190668183940E+03   -0.19441E+01   -0.31527E+01  9040   0.143E+01    0.445E+00
DAV:   2    -0.190596186746E+03    0.71997E-01   -0.27577E+00 11880   0.933E+00    0.714E+00
DAV:   3    -0.190154454373E+03    0.44173E+00   -0.13493E+00 12160   0.860E+00    0.435E+00
DAV:   4    -0.189933684643E+03    0.22077E+00   -0.73672E-01 12960   0.432E+00    0.251E+00
DAV:   5    -0.189894073014E+03    0.39612E-01   -0.37045E-01 12240   0.278E+00    0.252E+00
DAV:   6    -0.189835575892E+03    0.58497E-01   -0.12924E-01 12360   0.219E+00    0.774E-01
DAV:   7    -0.189828809455E+03    0.67664E-02   -0.14027E-02 11600   0.551E-01    0.209E-01
DAV:   8    -0.189828758805E+03    0.50649E-04   -0.26402E-03 11200   0.157E-01    0.146E-01
DAV:   9    -0.189828995527E+03   -0.23672E-03   -0.11232E-03 10760   0.163E-01    0.175E-01
DAV:  10    -0.189829419527E+03   -0.42400E-03   -0.16954E-03 10240   0.276E-01    0.259E-01
DAV:  11    -0.189828797863E+03    0.62166E-03   -0.91658E-04  8960   0.190E-01    0.214E-02
DAV:  12    -0.189828842581E+03   -0.44718E-04   -0.75663E-05  6000   0.299E-02
   3 F= -.18982884E+03 E0= -.18971177E+03  d E =-.110462E+01
       N       E                     dE             d eps       ncg     rms          rms(c)
DAV:   1    -0.191435887314E+03   -0.16071E+01   -0.78465E+01  8160   0.202E+01    0.465E+00
DAV:   2    -0.191219436912E+03    0.21645E+00   -0.54058E+00 13320   0.747E+00    0.441E+00
DAV:   3    -0.191440003572E+03   -0.22057E+00   -0.16256E+00 12040   0.911E+00    0.755E+00
DAV:   4    -0.191041986287E+03    0.39802E+00   -0.18849E+00 11680   0.860E+00    0.410E+00
DAV:   5    -0.191029194017E+03    0.12792E-01   -0.85902E-01 11600   0.578E+00    0.367E+00
DAV:   6    -0.190840107782E+03    0.18909E+00   -0.22129E-01 11240   0.310E+00    0.679E-01
DAV:   7    -0.190836812903E+03    0.32949E-02   -0.37325E-02 11560   0.696E-01    0.464E-01
DAV:   8    -0.190834047202E+03    0.27657E-02   -0.72662E-03 10640   0.424E-01    0.276E-01
DAV:   9    -0.190833851329E+03    0.19587E-03   -0.24076E-03 11720   0.326E-01    0.206E-01
DAV:  10    -0.190833936602E+03   -0.85272E-04   -0.14033E-03 11840   0.183E-01    0.103E-01
DAV:  11    -0.190833801278E+03    0.13532E-03   -0.51633E-04  9680   0.907E-02    0.425E-02
DAV:  12    -0.190833806270E+03   -0.49923E-05   -0.10436E-04  6600   0.403E-02
   4 F= -.19083381E+03 E0= -.19073194E+03  d E =-.100496E+01
       N       E                     dE             d eps       ncg     rms          rms(c)
DAV:   1    -0.192161332217E+03   -0.13275E+01   -0.15805E+02  8160   0.280E+01    0.555E+00
DAV:   2    -0.191900598574E+03    0.26073E+00   -0.89630E+00 10840   0.759E+00    0.366E+00
DAV:   3    -0.192185827564E+03   -0.28523E+00   -0.23542E+00 12240   0.922E+00    0.712E+00
DAV:   4    -0.191719673387E+03    0.46615E+00   -0.15518E+00 12280   0.917E+00    0.371E+00
DAV:   5    -0.191537722796E+03    0.18195E+00   -0.43032E-01 11560   0.388E+00    0.157E+00
DAV:   6    -0.191532478844E+03    0.52440E-02   -0.18797E-01 12680   0.300E+00    0.166E+00
DAV:   7    -0.191503990918E+03    0.28488E-01   -0.62110E-02 12560   0.172E+00    0.411E-01
DAV:   8    -0.191500787058E+03    0.32039E-02   -0.72636E-03 11200   0.417E-01    0.225E-01
DAV:   9    -0.191501445022E+03   -0.65796E-03   -0.40650E-03 11720   0.411E-01    0.323E-01
DAV:  10    -0.191500737417E+03    0.70761E-03   -0.29518E-03 11400   0.291E-01    0.718E-02
DAV:  11    -0.191500710798E+03    0.26618E-04   -0.38658E-04  9760   0.756E-02
   5 F= -.19150071E+03 E0= -.19139898E+03  d E =-.666905E+00
       N       E                     dE             d eps       ncg     rms          rms(c)
DAV:   1    -0.191565575747E+03   -0.64838E-01   -0.61739E+00  8160   0.522E+00    0.676E-01
DAV:   2    -0.191630700011E+03   -0.65124E-01   -0.28313E-01 12840   0.293E+00    0.219E+00
DAV:   3    -0.191577701873E+03    0.52998E-01   -0.98780E-02 12600   0.235E+00    0.381E-01
DAV:   4    -0.191578911464E+03   -0.12096E-02   -0.12257E-02 11520   0.616E-01    0.592E-01
DAV:   5    -0.191576115762E+03    0.27957E-02   -0.91867E-03 11600   0.596E-01    0.243E-01
DAV:   6    -0.191575796869E+03    0.31889E-03   -0.22813E-03 10400   0.230E-01    0.128E-01
DAV:   7    -0.191575767657E+03    0.29211E-04   -0.13458E-03 10960   0.191E-01    0.157E-01
DAV:   8    -0.191575549709E+03    0.21795E-03   -0.66383E-04  8880   0.165E-01    0.451E-02
DAV:   9    -0.191575562187E+03   -0.12478E-04   -0.75325E-05  6160   0.461E-02
   6 F= -.19157556E+03 E0= -.19147096E+03  d E =-.748514E-01
       N       E                     dE             d eps       ncg     rms          rms(c)
DAV:   1    -0.191652130367E+03   -0.76581E-01   -0.95477E+00  8160   0.648E+00    0.848E-01
DAV:   2    -0.191760479409E+03   -0.10835E+00   -0.39042E-01 13360   0.382E+00    0.302E+00
DAV:   3    -0.191664302864E+03    0.96177E-01   -0.18899E-01 12320   0.311E+00    0.551E-01
DAV:   4    -0.191669089402E+03   -0.47865E-02   -0.31761E-02 11480   0.103E+00    0.980E-01
DAV:   5    -0.191660827193E+03    0.82622E-02   -0.19914E-02 11600   0.840E-01    0.229E-01
DAV:   6    -0.191660497994E+03    0.32920E-03   -0.28330E-03 10080   0.215E-01    0.131E-01
DAV:   7    -0.191660194504E+03    0.30349E-03   -0.10790E-03 10440   0.111E-01    0.397E-02
DAV:   8    -0.191660206336E+03   -0.11832E-04   -0.17128E-04  7240   0.646E-02
   7 F= -.19166021E+03 E0= -.19155328E+03  d E =-.846441E-01
       N       E                     dE             d eps       ncg     rms          rms(c)
DAV:   1    -0.191694505893E+03   -0.34311E-01   -0.17236E+00  8160   0.276E+00    0.359E-01
DAV:   2    -0.191712398974E+03   -0.17893E-01   -0.69249E-02 13480   0.154E+00    0.121E+00
DAV:   3    -0.191696659965E+03    0.15739E-01   -0.30285E-02 11920   0.125E+00    0.254E-01
DAV:   4    -0.191697721717E+03   -0.10618E-02   -0.66131E-03 10960   0.473E-01    0.432E-01
DAV:   5    -0.191696048450E+03    0.16733E-02   -0.38077E-03 10280   0.377E-01    0.104E-01
DAV:   6    -0.191696232217E+03   -0.18377E-03   -0.10800E-03 10080   0.188E-01    0.169E-01
DAV:   7    -0.191696093450E+03    0.13877E-03   -0.11747E-03  8520   0.222E-01    0.112E-01
DAV:   8    -0.191695953583E+03    0.13987E-03   -0.24594E-04  6000   0.967E-02    0.120E-02
DAV:   9    -0.191695967112E+03   -0.13529E-04   -0.54254E-05  6760   0.244E-02
   8 F= -.19169597E+03 E0= -.19158863E+03  d E =-.357608E-01
       N       E                     dE             d eps       ncg     rms          rms(c)
DAV:   1    -0.191803520791E+03   -0.10757E+00   -0.26165E+01  8160   0.108E+01    0.129E+00
DAV:   2    -0.192022171688E+03   -0.21865E+00   -0.93230E-01 13200   0.543E+00    0.436E+00
DAV:   3    -0.191847798779E+03    0.17437E+00   -0.49069E-01 12280   0.455E+00    0.120E+00
DAV:   4    -0.191852730327E+03   -0.49315E-02   -0.10137E-01 12080   0.191E+00    0.156E+00
DAV:   5    -0.191830304279E+03    0.22426E-01   -0.50774E-02 12240   0.135E+00    0.367E-01
DAV:   6    -0.191829385862E+03    0.91842E-03   -0.91506E-03 11000   0.394E-01    0.264E-01
DAV:   7    -0.191831227321E+03   -0.18415E-02   -0.96725E-03 11480   0.631E-01    0.551E-01
DAV:   8    -0.191828229725E+03    0.29976E-02   -0.55246E-03 10880   0.497E-01    0.650E-02
DAV:   9    -0.191828234928E+03   -0.52026E-05   -0.31188E-04  7680   0.657E-02
   9 F= -.19182823E+03 E0= -.19172173E+03  d E =-.132268E+00
       N       E                     dE             d eps       ncg     rms          rms(c)
DAV:   1    -0.191896921320E+03   -0.68692E-01   -0.11584E+01  8160   0.727E+00    0.930E-01
DAV:   2    -0.191992273616E+03   -0.95352E-01   -0.48050E-01 13280   0.365E+00    0.293E+00
DAV:   3    -0.191920186720E+03    0.72087E-01   -0.22577E-01 12200   0.297E+00    0.959E-01
DAV:   4    -0.191922945266E+03   -0.27585E-02   -0.59719E-02 11160   0.153E+00    0.118E+00
DAV:   5    -0.191908949758E+03    0.13996E-01   -0.27365E-02 12240   0.105E+00    0.262E-01
DAV:   6    -0.191908817684E+03    0.13207E-03   -0.66460E-03 10200   0.352E-01    0.258E-01
DAV:   7    -0.191909678573E+03   -0.86089E-03   -0.66343E-03 11160   0.550E-01    0.421E-01
DAV:   8    -0.191907857309E+03    0.18213E-02   -0.30775E-03  9920   0.373E-01    0.454E-02
DAV:   9    -0.191907866317E+03   -0.90077E-05   -0.18176E-04  5920   0.486E-02
  10 F= -.19190787E+03 E0= -.19180235E+03  d E =-.796314E-01
       N       E                     dE             d eps       ncg     rms          rms(c)
DAV:   1    -0.191960540261E+03   -0.52683E-01   -0.17493E+01  8160   0.891E+00    0.994E-01
DAV:   2    -0.192053718747E+03   -0.93178E-01   -0.63549E-01 13000   0.349E+00    0.264E+00
DAV:   3    -0.192002538420E+03    0.51180E-01   -0.22858E-01 12080   0.289E+00    0.113E+00
DAV:   4    -0.192003840081E+03   -0.13017E-02   -0.63890E-02 11360   0.168E+00    0.124E+00
DAV:   5    -0.191987100330E+03    0.16740E-01   -0.27954E-02 11880   0.120E+00    0.295E-01
DAV:   6    -0.191986888433E+03    0.21190E-03   -0.76438E-03 11720   0.330E-01    0.197E-01
DAV:   7    -0.191986023328E+03    0.86511E-03   -0.24534E-03 10800   0.203E-01    0.989E-02
DAV:   8    -0.191986100418E+03   -0.77091E-04   -0.83398E-04 10320   0.184E-01
  11 F= -.19198610E+03 E0= -.19188276E+03  d E =-.782341E-01
       N       E                     dE             d eps       ncg     rms          rms(c)
DAV:   1    -0.191974891108E+03    0.11132E-01   -0.12225E+00  8160   0.233E+00    0.231E-01
DAV:   2    -0.191978449937E+03   -0.35588E-02   -0.31204E-02 11400   0.606E-01    0.495E-01
DAV:   3    -0.191976733645E+03    0.17163E-02   -0.96580E-03 11560   0.612E-01    0.348E-01
DAV:   4    -0.191975885626E+03    0.84802E-03   -0.30232E-03 10920   0.308E-01    0.171E-01
DAV:   5    -0.191975721441E+03    0.16419E-03   -0.10930E-03 10160   0.258E-01    0.134E-01
DAV:   6    -0.191975535121E+03    0.18632E-03   -0.68025E-04  9760   0.172E-01    0.665E-02
DAV:   7    -0.191975501007E+03    0.34114E-04   -0.24715E-04  7440   0.933E-02
  12 F= -.19197550E+03 E0= -.19187145E+03  d E =0.105994E-01
       N       E                     dE             d eps       ncg     rms          rms(c)
DAV:   1    -0.191997841071E+03   -0.22306E-01   -0.16917E+00  8160   0.278E+00    0.303E-01
DAV:   2    -0.192003334009E+03   -0.54929E-02   -0.57406E-02 12640   0.857E-01    0.503E-01
DAV:   3    -0.192001900510E+03    0.14335E-02   -0.10369E-02 11960   0.747E-01    0.371E-01
DAV:   4    -0.192001573957E+03    0.32655E-03   -0.52027E-03 10320   0.470E-01    0.364E-01
DAV:   5    -0.192000318589E+03    0.12554E-02   -0.27896E-03  9720   0.369E-01    0.117E-01
DAV:   6    -0.192000720660E+03   -0.40207E-03   -0.15302E-03 10080   0.241E-01    0.225E-01
DAV:   7    -0.192000251859E+03    0.46880E-03   -0.12116E-03  9120   0.244E-01    0.708E-02
DAV:   8    -0.192000193014E+03    0.58845E-04   -0.11806E-04  5640   0.652E-02
  13 F= -.19200019E+03 E0= -.19189735E+03  d E =-.246920E-01
       N       E                     dE             d eps       ncg     rms          rms(c)
DAV:   1    -0.192016548663E+03   -0.16297E-01   -0.78906E-01  8160   0.192E+00    0.233E-01
DAV:   2    -0.192018471977E+03   -0.19233E-02   -0.30274E-02 11400   0.539E-01    0.245E-01
DAV:   3    -0.192018814628E+03   -0.34265E-03   -0.41197E-03 12120   0.513E-01    0.306E-01
DAV:   4    -0.192017755688E+03    0.10589E-02   -0.20710E-03 10240   0.344E-01    0.142E-01
DAV:   5    -0.192017828221E+03   -0.72534E-04   -0.12563E-03  9600   0.249E-01    0.167E-01
DAV:   6    -0.192017570484E+03    0.25774E-03   -0.76791E-04  9680   0.174E-01    0.513E-02
DAV:   7    -0.192017593363E+03   -0.22879E-04   -0.22955E-04  6160   0.984E-02
  14 F= -.19201759E+03 E0= -.19191603E+03  d E =-.174003E-01
       N       E                     dE             d eps       ncg     rms          rms(c)
DAV:   1    -0.192044616317E+03   -0.27046E-01   -0.26427E+00  8160   0.350E+00    0.387E-01
DAV:   2    -0.192049709999E+03   -0.50937E-02   -0.88997E-02 12120   0.763E-01    0.235E-01
DAV:   3    -0.192052219814E+03   -0.25098E-02   -0.88230E-03 12280   0.629E-01    0.611E-01
DAV:   4    -0.192048832574E+03    0.33872E-02   -0.72476E-03 10800   0.582E-01    0.184E-01
DAV:   5    -0.192049524772E+03   -0.69220E-03   -0.23752E-03 10560   0.380E-01    0.297E-01
DAV:   6    -0.192048596634E+03    0.92814E-03   -0.19039E-03 11240   0.341E-01    0.861E-02
DAV:   7    -0.192048562389E+03    0.34246E-04   -0.42799E-04  8480   0.135E-01
  15 F= -.19204856E+03 E0= -.19194913E+03  d E =-.309690E-01
       N       E                     dE             d eps       ncg     rms          rms(c)
DAV:   1    -0.192049317248E+03   -0.72061E-03   -0.13627E-02  8160   0.284E-01    0.559E-02
DAV:   2    -0.192049600620E+03   -0.28337E-03   -0.12469E-03 10800   0.201E-01    0.184E-01
DAV:   3    -0.192049291213E+03    0.30941E-03   -0.69882E-04  8280   0.181E-01    0.484E-02
DAV:   4    -0.192049277488E+03    0.13725E-04   -0.77968E-05  5560   0.565E-02
  16 F= -.19204928E+03 E0= -.19194980E+03  d E =-.715099E-03
       N       E                     dE             d eps       ncg     rms          rms(c)
DAV:   1    -0.192059046472E+03   -0.97553E-02   -0.26837E-01  8160   0.113E+00    0.149E-01
DAV:   2    -0.192060585593E+03   -0.15391E-02   -0.10855E-02 11320   0.413E-01    0.362E-01
DAV:   3    -0.192059499060E+03    0.10865E-02   -0.36133E-03 11960   0.406E-01    0.156E-01
DAV:   4    -0.192059376831E+03    0.12223E-03   -0.73541E-04  8480   0.173E-01    0.117E-01
DAV:   5    -0.192059248409E+03    0.12842E-03   -0.40124E-04  8960   0.165E-01    0.618E-02
DAV:   6    -0.192059254185E+03   -0.57761E-05   -0.22031E-04  6520   0.945E-02
  17 F= -.19205925E+03 E0= -.19196056E+03  d E =-.997670E-02
       N       E                     dE             d eps       ncg     rms          rms(c)
DAV:   1    -0.192074921046E+03   -0.15673E-01   -0.72077E-01  8160   0.184E+00    0.233E-01
DAV:   2    -0.192078844321E+03   -0.39233E-02   -0.29070E-02 11360   0.661E-01    0.542E-01
DAV:   3    -0.192076428295E+03    0.24160E-02   -0.83680E-03 12080   0.634E-01    0.241E-01
DAV:   4    -0.192076111196E+03    0.31710E-03   -0.16060E-03  9640   0.270E-01    0.176E-01
DAV:   5    -0.192075836675E+03    0.27452E-03   -0.87600E-04 10000   0.245E-01    0.926E-02
DAV:   6    -0.192075985003E+03   -0.14833E-03   -0.65474E-04  9480   0.176E-01    0.151E-01
DAV:   7    -0.192075738990E+03    0.24601E-03   -0.41614E-04  8280   0.155E-01    0.186E-02
DAV:   8    -0.192075747745E+03   -0.87552E-05   -0.29855E-05  5560   0.226E-02
  18 F= -.19207575E+03 E0= -.19197824E+03  d E =-.164936E-01
       N       E                     dE             d eps       ncg     rms          rms(c)
DAV:   1    -0.192108706419E+03   -0.32967E-01   -0.39212E+00  8160   0.427E+00    0.543E-01
DAV:   2    -0.192133200113E+03   -0.24494E-01   -0.15847E-01 11160   0.168E+00    0.131E+00
DAV:   3    -0.192116474050E+03    0.16726E-01   -0.38506E-02 12000   0.150E+00    0.494E-01
DAV:   4    -0.192115918197E+03    0.55585E-03   -0.85215E-03 11600   0.674E-01    0.453E-01
DAV:   5    -0.192113657184E+03    0.22610E-02   -0.46076E-03 11720   0.589E-01    0.177E-01
DAV:   6    -0.192113491077E+03    0.16611E-03   -0.15884E-03 11840   0.206E-01    0.883E-02
DAV:   7    -0.192113281880E+03    0.20920E-03   -0.48119E-04 10960   0.869E-02    0.286E-02
DAV:   8    -0.192113297002E+03   -0.15121E-04   -0.99681E-05  6680   0.642E-02
  19 F= -.19211330E+03 E0= -.19201878E+03  d E =-.375493E-01
       N       E                     dE             d eps       ncg     rms          rms(c)
DAV:   1    -0.192154082025E+03   -0.40800E-01   -0.10257E+01  8160   0.695E+00    0.898E-01
DAV:   2    -0.192220523552E+03   -0.66442E-01   -0.42359E-01 11720   0.280E+00    0.207E+00
DAV:   3    -0.192174851644E+03    0.45672E-01   -0.90246E-02 11920   0.245E+00    0.771E-01
DAV:   4    -0.192172940065E+03    0.19116E-02   -0.19239E-02 12400   0.107E+00    0.699E-01
DAV:   5    -0.192167538887E+03    0.54012E-02   -0.11013E-02 12240   0.941E-01    0.289E-01
DAV:   6    -0.192167072563E+03    0.46632E-03   -0.43452E-03 11880   0.363E-01    0.168E-01
DAV:   7    -0.192166611276E+03    0.46129E-03   -0.18240E-03 12880   0.246E-01    0.143E-01
DAV:   8    -0.192166430786E+03    0.18049E-03   -0.60769E-04  9040   0.180E-01    0.599E-02
DAV:   9    -0.192166386414E+03    0.44372E-04   -0.10962E-04  6160   0.626E-02
  20 F= -.19216639E+03 E0= -.19207565E+03  d E =-.530894E-01
       N       E                     dE             d eps       ncg     rms          rms(c)
DAV:   1    -0.192188775840E+03   -0.22345E-01   -0.57324E+00  8160   0.514E+00    0.684E-01
DAV:   2    -0.192232737011E+03   -0.43961E-01   -0.25816E-01 10960   0.236E+00    0.166E+00
DAV:   3    -0.192201250851E+03    0.31486E-01   -0.55622E-02 11880   0.197E+00    0.519E-01
DAV:   4    -0.192202570197E+03   -0.13193E-02   -0.11888E-02 11880   0.925E-01    0.649E-01
DAV:   5    -0.192197767828E+03    0.48024E-02   -0.69558E-03 11480   0.768E-01    0.181E-01
DAV:   6    -0.192197705490E+03    0.62338E-04   -0.23164E-03 11760   0.219E-01    0.115E-01
DAV:   7    -0.192197474465E+03    0.23102E-03   -0.76941E-04 12080   0.159E-01    0.863E-02
DAV:   8    -0.192197415511E+03    0.58954E-04   -0.23945E-04  7880   0.115E-01
  21 F= -.19219742E+03 E0= -.19210981E+03  d E =-.310291E-01
       N       E                     dE             d eps       ncg     rms          rms(c)
DAV:   1    -0.192203572038E+03   -0.60976E-02   -0.38964E-01  8160   0.135E+00    0.179E-01
DAV:   2    -0.192204914202E+03   -0.13422E-02   -0.16736E-02 10200   0.396E-01    0.243E-01
DAV:   3    -0.192204880778E+03    0.33424E-04   -0.31747E-03 12840   0.443E-01    0.260E-01
DAV:   4    -0.192204230885E+03    0.64989E-03   -0.10362E-03  9560   0.259E-01    0.102E-01
DAV:   5    -0.192204191235E+03    0.39649E-04   -0.40205E-04  8920   0.183E-01
  22 F= -.19220419E+03 E0= -.19211707E+03  d E =-.677572E-02
       N       E                     dE             d eps       ncg     rms          rms(c)
DAV:   1    -0.192208069914E+03   -0.38390E-02   -0.14957E-01  8160   0.834E-01    0.124E-01
DAV:   2    -0.192209020865E+03   -0.95095E-03   -0.72272E-03 10680   0.410E-01    0.251E-01
DAV:   3    -0.192208397662E+03    0.62320E-03   -0.17119E-03 12240   0.348E-01    0.111E-01
DAV:   4    -0.192208360703E+03    0.36959E-04   -0.47532E-04  8560   0.169E-01
  23 F= -.19220836E+03 E0= -.19212140E+03  d E =-.416947E-02
       N       E                     dE             d eps       ncg     rms          rms(c)
DAV:   1    -0.192214187620E+03   -0.57900E-02   -0.43350E-01  8160   0.141E+00    0.178E-01
DAV:   2    -0.192215359690E+03   -0.11721E-02   -0.15861E-02 11520   0.395E-01    0.199E-01
DAV:   3    -0.192215494262E+03   -0.13457E-03   -0.23098E-03 12000   0.405E-01    0.237E-01
DAV:   4    -0.192214972395E+03    0.52187E-03   -0.10894E-03  9840   0.270E-01    0.122E-01
DAV:   5    -0.192214918132E+03    0.54263E-04   -0.49025E-04  9120   0.204E-01
  24 F= -.19221492E+03 E0= -.19212892E+03  d E =-.655743E-02
       N       E                     dE             d eps       ncg     rms          rms(c)
DAV:   1    -0.192223743960E+03   -0.87716E-02   -0.25341E+00  8160   0.342E+00    0.416E-01
DAV:   2    -0.192233788693E+03   -0.10045E-01   -0.10367E-01 11520   0.111E+00    0.615E-01
DAV:   3    -0.192231597963E+03    0.21907E-02   -0.16170E-02 12000   0.104E+00    0.485E-01
DAV:   4    -0.192229930569E+03    0.16674E-02   -0.50722E-03 10760   0.592E-01    0.329E-01
DAV:   5    -0.192228921145E+03    0.10094E-02   -0.21814E-03 10760   0.438E-01    0.154E-01
DAV:   6    -0.192228993950E+03   -0.72806E-04   -0.13186E-03 11960   0.223E-01    0.141E-01
DAV:   7    -0.192228803557E+03    0.19039E-03   -0.79440E-04  9920   0.216E-01    0.100E-01
DAV:   8    -0.192228689981E+03    0.11358E-03   -0.18768E-04  7000   0.106E-01    0.172E-02
DAV:   9    -0.192228691191E+03   -0.12096E-05   -0.40948E-05  6640   0.217E-02
  25 F= -.19222869E+03 E0= -.19214400E+03  d E =-.137731E-01
       N       E                     dE             d eps       ncg     rms          rms(c)
DAV:   1    -0.192232992044E+03   -0.43021E-02   -0.38652E+00  8160   0.421E+00    0.487E-01
DAV:   2    -0.192245624138E+03   -0.12632E-01   -0.15027E-01 11440   0.114E+00    0.566E-01
DAV:   3    -0.192246077133E+03   -0.45300E-03   -0.19073E-02 11960   0.115E+00    0.653E-01
DAV:   4    -0.192242168270E+03    0.39089E-02   -0.75695E-03 10960   0.720E-01    0.347E-01
DAV:   5    -0.192241265719E+03    0.90255E-03   -0.28819E-03 10840   0.500E-01    0.203E-01
DAV:   6    -0.192240889170E+03    0.37655E-03   -0.13428E-03 11920   0.202E-01    0.531E-02
DAV:   7    -0.192240852331E+03    0.36838E-04   -0.18072E-04  7400   0.754E-02
  26 F= -.19224085E+03 E0= -.19215769E+03  d E =-.121611E-01
       N       E                     dE             d eps       ncg     rms          rms(c)
DAV:   1    -0.192242153420E+03   -0.12642E-02   -0.10050E-01  8160   0.681E-01    0.971E-02
DAV:   2    -0.192242852671E+03   -0.69925E-03   -0.57844E-03 10440   0.315E-01    0.193E-01
DAV:   3    -0.192242491580E+03    0.36109E-03   -0.97344E-04 10160   0.267E-01    0.870E-02
DAV:   4    -0.192242474222E+03    0.17358E-04   -0.25942E-04  8160   0.132E-01
  27 F= -.19224247E+03 E0= -.19215934E+03  d E =-.162189E-02
       N       E                     dE             d eps       ncg     rms          rms(c)
DAV:   1    -0.192243138427E+03   -0.64685E-03   -0.22831E-02  8160   0.333E-01    0.614E-02
DAV:   2    -0.192243396346E+03   -0.25792E-03   -0.12404E-03 11480   0.205E-01    0.147E-01
DAV:   3    -0.192243141433E+03    0.25491E-03   -0.39630E-04  8960   0.173E-01    0.436E-02
DAV:   4    -0.192243178719E+03   -0.37287E-04   -0.96209E-05  6200   0.930E-02
  28 F= -.19224318E+03 E0= -.19216024E+03  d E =-.704497E-03
       N       E                     dE             d eps       ncg     rms          rms(c)
DAV:   1    -0.192244462679E+03   -0.13212E-02   -0.12375E-01  8160   0.759E-01    0.970E-02
DAV:   2    -0.192244815484E+03   -0.35281E-03   -0.51538E-03 10200   0.224E-01    0.107E-01
DAV:   3    -0.192244873919E+03   -0.58435E-04   -0.85412E-04 11680   0.228E-01
  29 F= -.19224487E+03 E0= -.19216200E+03  d E =-.169520E-02
       N       E                     dE             d eps       ncg     rms          rms(c)
DAV:   1    -0.192245602801E+03   -0.78732E-03   -0.59425E-02  8160   0.540E-01    0.826E-02
DAV:   2    -0.192245725041E+03   -0.12224E-03   -0.23019E-03 11920   0.168E-01    0.886E-02
DAV:   3    -0.192245721053E+03    0.39877E-05   -0.46509E-04  9840   0.176E-01
  30 F= -.19224572E+03 E0= -.19216297E+03  d E =-.847134E-03
       N       E                     dE             d eps       ncg     rms          rms(c)
DAV:   1    -0.192246175520E+03   -0.45048E-03   -0.20739E-02  8160   0.333E-01    0.763E-02
DAV:   2    -0.192246795250E+03   -0.61973E-03   -0.18948E-03 12360   0.297E-01    0.239E-01
DAV:   3    -0.192246140153E+03    0.65510E-03   -0.10252E-03  9680   0.269E-01    0.463E-02
DAV:   4    -0.192246153129E+03   -0.12977E-04   -0.79599E-05  5680   0.719E-02
  31 F= -.19224615E+03 E0= -.19216323E+03  d E =-.432076E-03
