unknown system                          
           1
     8.861613    5.108002    0.000000
    -8.859399    5.104194    0.000000
     0.000000    0.000000   30.000000
   V    Mo   W    S 
   3   3   3  18
Direct configuration=     1
   0.33333334  0.66666669  0.00000000
   1.00000000  0.33333334  0.00000000
   0.33333334  0.00000000  0.00000000
   0.00000000  0.00000000  0.00000000
   0.66666669  0.33333334  0.00000000
   0.66666669  0.66666669  0.00000000
   0.00000000  0.66666669  0.00000000
   0.33333334  0.33333334  0.00000000
   0.66666669  0.00000000  0.00000000
   0.11068511  0.22244981  0.95539999
   0.22244981  0.11068511  0.04460000
   0.11068511  0.55578315  0.95539999
   0.22244981  0.44401845  0.04460000
   0.11068511  0.88911647  0.95539999
   0.22244981  0.77735180  0.04460000
   0.44401845  0.22244981  0.95539999
   0.55578315  0.11068511  0.04460000
   0.44401845  0.55578315  0.95539999
   0.55578315  0.44401845  0.04460000
   0.44401845  0.88911647  0.95539999
   0.55578315  0.77735180  0.04460000
   0.77735180  0.22244981  0.95539999
   0.88911647  0.11068511  0.04460000
   0.77735180  0.55578315  0.95539999
   0.88911647  0.44401845  0.04460000
   0.77735180  0.88911647  0.95539999
   0.88911647  0.77735180  0.04460000
unknown system                          
           1
     8.672512    5.001410    0.000000
    -8.670448    4.997861    0.000000
     0.000000    0.000000   30.000000
   V    Mo   W    S 
   3   3   3  18
Direct configuration=     2
   0.33417376  0.66670539  0.00000237
   0.99914122  0.33247039  0.00012017
   0.33324648  0.00075930 -0.00012323
  -0.00138994 -0.00140013  0.00011985
   0.66669350  0.33482763 -0.00012549
   0.66806878  0.66656257  0.00000608
  -0.00220899  0.66671481 -0.00001153
   0.33446240  0.33335423  0.00000392
   0.66779589 -0.00007410  0.00000758
   0.10958811  0.22501431  0.95208899
   0.22490130  0.10955337  0.04797297
   0.11276390  0.55367608  0.95310030
   0.22023483  0.44602588  0.04696911
   0.11521831  0.89010149  0.95194060
   0.22567605  0.77922082  0.04682741
   0.44166167  0.21796227  0.95185404
   0.55141251  0.10834313  0.04798419
   0.44154429  0.55694698  0.95203238
   0.55447534  0.44401665  0.04923668
   0.44076184  0.88732983  0.95311346
   0.55148756  0.77643222  0.04802738
   0.78159906  0.22338430  0.95195767
   0.89014436  0.11512964  0.04813702
   0.77856898  0.55584969  0.95067373
   0.89183124  0.44283782  0.04799546
   0.77710430  0.88913345  0.95075258
   0.88925769  0.77733642  0.04933619
unknown system                          
           1
     8.487814    4.900451    0.000000
    -8.485879    4.897118    0.000000
     0.000000    0.000000   30.000000
   V    Mo   W    S 
   3   3   3  18
Direct configuration=     3
   0.33441234  0.66670193  0.00000309
   0.99886010  0.33212146  0.00008812
   0.33331556  0.00111353 -0.00009190
  -0.00219636 -0.00213540  0.00009476
   0.66661714  0.33555181 -0.00009923
   0.66888943  0.66656012  0.00000525
  -0.00329893  0.66670897 -0.00000894
   0.33504999  0.33339531 -0.00000547
   0.66835029 -0.00010032  0.00001435
   0.10979799  0.22517627  0.95217344
   0.22504652  0.10974510  0.04795151
   0.11265918  0.55378300  0.95325037
   0.22032851  0.44591210  0.04688485
   0.11520741  0.88992121  0.95195555
   0.22548171  0.77914874  0.04668993
   0.44146340  0.21797585  0.95180870
   0.55143769  0.10815363  0.04788446
   0.44139941  0.55674094  0.95205231
   0.55423489  0.44390068  0.04931247
   0.44094320  0.88740162  0.95318500
   0.55151825  0.77660159  0.04799883
   0.78157574  0.22322021  0.95199093
   0.88998479  0.11512991  0.04818837
   0.77879937  0.55598276  0.95052393
   0.89200100  0.44305760  0.04798535
   0.77694894  0.88925003  0.95068295
   0.88938688  0.77719578  0.04948091
unknown system                          
           1
     8.292348    4.786929    0.000000
    -8.285084    4.774368    0.000000
     0.000000    0.000000   30.000000
   V    Mo   W    S 
   3   3   3  18
Direct configuration=     4
   0.33536739  0.66668504  0.00000601
   0.99761105  0.33045561 -0.00008254
   0.33371815  0.00275599  0.00007684
  -0.00574473 -0.00524948 -0.00002709
   0.66617136  0.33861885  0.00002672
   0.67248640  0.66654586  0.00000223
  -0.00791564  0.66666445 -0.00000182
   0.33755582  0.33355268 -0.00005085
   0.67072152 -0.00022188  0.00005237
   0.10950802  0.22568299  0.95110286
   0.22540326  0.10928907  0.04928462
   0.11293873  0.55352585  0.95251750
   0.21992143  0.44619520  0.04791136
   0.11620410  0.89031292  0.95055965
   0.22605941  0.77951820  0.04746999
   0.44087316  0.21691953  0.95012216
   0.55056980  0.10756314  0.04890642
   0.44107130  0.55718191  0.95069284
   0.55413339  0.44398737  0.05122831
   0.44020707  0.88699318  0.95211277
   0.55064845  0.77605624  0.04932643
   0.78249121  0.22377961  0.95069782
   0.89061433  0.11624322  0.04989074
   0.77887019  0.55609615  0.94826933
   0.89261690  0.44281154  0.04939740
   0.77666624  0.88917157  0.94878889
   0.88944613  0.77707965  0.05171894
unknown system                          
           1
     8.296728    4.790232    0.000000
    -8.282699    4.765950    0.000000
     0.000000    0.000000   30.000000
   V    Mo   W    S 
   3   3   3  18
Direct configuration=     5
   0.33677048  0.66667294  0.00000883
   0.99561437  0.32720553 -0.00039958
   0.33488623  0.00589476  0.00039278
  -0.01302570 -0.01125354 -0.00015733
   0.66489262  0.34461987  0.00015078
   0.67917626  0.66648528  0.00000952
  -0.01599725  0.66662562 -0.00002017
   0.34273402  0.33433280 -0.00014341
   0.67512098 -0.00098971  0.00016121
   0.10934631  0.22540339  0.94995561
   0.22497034  0.10872577  0.05079423
   0.11265232  0.55353962  0.95170144
   0.21962366  0.44625554  0.04927697
   0.11647343  0.89032606  0.94882928
   0.22571429  0.77963049  0.04832013
   0.44097004  0.21607554  0.94774852
   0.55053066  0.10778155  0.05001351
   0.44176991  0.55777249  0.94900959
   0.55449680  0.44491325  0.05389673
   0.43992121  0.88686058  0.95071685
   0.55060463  0.77539747  0.05097615
   0.78279565  0.22446494  0.94921335
   0.89156276  0.11711637  0.05227124
   0.77851681  0.55598016  0.94498823
   0.89278736  0.44291066  0.05115992
   0.77612352  0.88825012  0.94612560
   0.88918277  0.77721689  0.05499992
unknown system                          
           1
     8.301586    4.792788    0.000000
    -8.286423    4.766543    0.000000
     0.000000    0.000000   30.000000
   V    Mo   W    S 
   3   3   3  18
Direct configuration=     6
   0.33691553  0.66667994  0.00000283
   0.99527112  0.32591992 -0.00040003
   0.33577497  0.00711510  0.00039780
  -0.01518324 -0.01241219 -0.00003458
   0.66391255  0.34578043  0.00003265
   0.67964711  0.66648443  0.00000415
  -0.01729536  0.66663880 -0.00000370
   0.34504319  0.33541626 -0.00012310
   0.67633677 -0.00209044  0.00012685
   0.10970256  0.22449333  0.95013825
   0.22421763  0.10880487  0.05063766
   0.11191624  0.55383272  0.95188174
   0.21977382  0.44586551  0.04924488
   0.11557404  0.88991897  0.94883798
   0.22467489  0.77932818  0.04813417
   0.44149979  0.21641247  0.94745740
   0.55181851  0.10871702  0.04983628
   0.44274128  0.55781240  0.94896171
   0.55494134  0.44590385  0.05427710
   0.44048645  0.88727264  0.95075534
   0.55154118  0.77536473  0.05103531
   0.78197358  0.22439095  0.94936762
   0.89174994  0.11679443  0.05256368
   0.77821122  0.55576687  0.94450282
   0.89229742  0.44332128  0.05113790
   0.77557910  0.88725670  0.94575117
   0.88909283  0.77742529  0.05547601
unknown system                          
           1
     8.306393    4.795714    0.000000
    -8.288617    4.764943    0.000000
     0.000000    0.000000   30.000000
   V    Mo   W    S 
   3   3   3  18
Direct configuration=     7
   0.33692304  0.66669433  0.00000106
   0.99496071  0.32427728 -0.00043837
   0.33704351  0.00870639  0.00043898
  -0.01807916 -0.01381134  0.00001915
   0.66239925  0.34717577 -0.00002477
   0.68025824  0.66648519  0.00000727
  -0.01907525  0.66665559 -0.00001534
   0.34824680  0.33701716 -0.00006425
   0.67791300 -0.00372158  0.00007703
   0.11021436  0.22373437  0.95045783
   0.22359712  0.10894141  0.05033932
   0.11130565  0.55393508  0.95217533
   0.21993119  0.44552973  0.04913139
   0.11484199  0.88979657  0.94897433
   0.22395229  0.77922719  0.04784326
   0.44187455  0.21670716  0.94715219
   0.55308417  0.10948363  0.04951452
   0.44344509  0.55788496  0.94888815
   0.55538769  0.44679124  0.05463323
   0.44100282  0.88764134  0.95086856
   0.55217533  0.77530874  0.05110984
   0.78122219  0.22425644  0.94966219
   0.89179712  0.11649240  0.05287287
   0.77801160  0.55568569  0.94416583
   0.89168491  0.44343310  0.05100085
   0.77515618  0.88636502  0.94538786
   0.88894006  0.77752158  0.05582160
unknown system                          
           1
     8.324537    4.806118    0.000000
    -8.298363    4.760801    0.000000
     0.000000    0.000000   30.000000
   V    Mo   W    S 
   3   3   3  18
Direct configuration=     8
   0.33689914  0.66669241 -0.00000046
   0.99484855  0.32349730 -0.00046070
   0.33767410  0.00943595  0.00046193
  -0.01928904 -0.01428564  0.00005522
   0.66169562  0.34766770 -0.00005946
   0.68040502  0.66648579  0.00000643
  -0.01978113  0.66665479 -0.00001145
   0.34962315  0.33779012 -0.00005823
   0.67854655 -0.00447642  0.00006804
   0.11046597  0.22350182  0.95058982
   0.22339414  0.10903917  0.05020067
   0.11109885  0.55390621  0.95230215
   0.21999741  0.44543309  0.04909190
   0.11462132  0.88979372  0.94903468
   0.22376788  0.77924763  0.04772023
   0.44197728  0.21680927  0.94701226
   0.55357663  0.10972270  0.04938264
   0.44360841  0.55789611  0.94883309
   0.55559853  0.44718681  0.05483481
   0.44117495  0.88774153  0.95090634
   0.55232179  0.77529594  0.05116667
   0.78093729  0.22416408  0.94980497
   0.89180083  0.11639967  0.05301284
   0.77790774  0.55562222  0.94401903
   0.89147082  0.44343901  0.05093358
   0.77497305  0.88597004  0.94518716
   0.88889960  0.77758343  0.05596576
unknown system                          
           1
     8.348625    4.820105    0.000000
    -8.314206    4.760507    0.000000
     0.000000    0.000000   30.000000
   V    Mo   W    S 
   3   3   3  18
Direct configuration=     9
   0.33682514  0.66676944 -0.00000460
   0.99460379  0.32038075 -0.00052628
   0.34047273  0.01253561  0.00053768
  -0.02382568 -0.01587467  0.00015324
   0.65863298  0.34918315 -0.00016094
   0.68059226  0.66649287  0.00000779
  -0.02234157  0.66672709 -0.00001638
   0.35505016  0.34099702  0.00001772
   0.68064445 -0.00779550 -0.00000305
   0.11164954  0.22267466  0.95115924
   0.22268382  0.10952341  0.04950831
   0.11032011  0.55374662  0.95286340
   0.22034904  0.44505276  0.04888158
   0.11384431  0.88990242  0.94941537
   0.22314894  0.77941600  0.04716161
   0.44231256  0.21725522  0.94653262
   0.55553162  0.11052372  0.04879046
   0.44407599  0.55795766  0.94862479
   0.55643252  0.44869731  0.05552182
   0.44192817  0.88816681  0.95112040
   0.55272844  0.77525106  0.05137775
   0.77972464  0.22367608  0.95048985
   0.89166400  0.11592433  0.05351549
   0.77754722  0.55541559  0.94361317
   0.89058488  0.44334585  0.05054993
   0.77430889  0.88445802  0.94449439
   0.88872549  0.77781115  0.05637456
unknown system                          
           1
     8.367360    4.830799    0.000000
    -8.324134    4.755947    0.000000
     0.000000    0.000000   30.000000
   V    Mo   W    S 
   3   3   3  18
Direct configuration=    10
   0.33695160  0.66680569 -0.00001010
   0.99457521  0.31784887 -0.00054689
   0.34287845  0.01498856  0.00056135
  -0.02645115 -0.01640984  0.00023380
   0.65657836  0.34972980 -0.00024200
   0.68028072  0.66651266  0.00000208
  -0.02411261  0.66673365 -0.00000949
   0.35831872  0.34329976  0.00005378
   0.68168627 -0.01007054 -0.00004295
   0.11263631  0.22221713  0.95155100
   0.22214785  0.10989691  0.04892053
   0.10977968  0.55351463  0.95331645
   0.22067935  0.44479681  0.04873231
   0.11349178  0.89016549  0.94976646
   0.22282850  0.77963357  0.04672414
   0.44248630  0.21768083  0.94620022
   0.55700285  0.11098519  0.04840273
   0.44416961  0.55798197  0.94843881
   0.55714509  0.44987786  0.05602619
   0.44253532  0.88843899  0.95125792
   0.55277040  0.77519281  0.05157829
   0.77885707  0.22331182  0.95110154
   0.89140331  0.11548882  0.05382130
   0.77716604  0.55516325  0.94343487
   0.88997293  0.44309707  0.05017038
   0.77385028  0.88328371  0.94399916
   0.88858621  0.77804896  0.05655805
unknown system                          
           1
     8.370097    4.832471    0.000000
    -8.328417    4.760295    0.000000
     0.000000    0.000000   30.000000
   V    Mo   W    S 
   3   3   3  18
Direct configuration=    11
   0.33760344  0.66688800 -0.00001618
   0.99489219  0.31445178 -0.00053444
   0.34649160  0.01837930  0.00055459
  -0.02948582 -0.01710034  0.00022524
   0.65413657  0.35039322 -0.00024005
   0.67983893  0.66650710  0.00001568
  -0.02663966  0.66678275 -0.00001939
   0.36185997  0.34603211  0.00015914
   0.68243934 -0.01286168 -0.00013429
   0.11395460  0.22167949  0.95199813
   0.22155309  0.11035876  0.04803432
   0.10900591  0.55320736  0.95402139
   0.22121620  0.44446141  0.04853561
   0.11316808  0.89055122  0.95036412
   0.22236739  0.77995961  0.04602912
   0.44263276  0.21837508  0.94585455
   0.55880835  0.11148328  0.04793414
   0.44415605  0.55803781  0.94819279
   0.55800761  0.45121587  0.05645813
   0.44342822  0.88881477  0.95145547
   0.55269295  0.77514090  0.05182100
   0.77778319  0.22284165  0.95199408
   0.89084543  0.11475695  0.05418793
   0.77655382  0.55484761  0.94333983
   0.88925542  0.44270204  0.04956443
   0.77338883  0.88194050  0.94354693
   0.88825997  0.77836791  0.05665760
unknown system                          
           1
     8.375539    4.835571    0.000000
    -8.331937    4.760067    0.000000
     0.000000    0.000000   30.000000
   V    Mo   W    S 
   3   3   3  18
Direct configuration=    12
   0.33780206  0.66689309 -0.00001530
   0.99500999  0.31508626 -0.00050875
   0.34604353  0.01783681  0.00053087
  -0.02853838 -0.01686163  0.00022988
   0.65482399  0.35009432 -0.00024499
   0.67975007  0.66652236  0.00000675
  -0.02615902  0.66678130 -0.00001287
   0.36064271  0.34527075  0.00011794
   0.68196516 -0.01213864 -0.00010124
   0.11368896  0.22176751  0.95184102
   0.22166751  0.11018898  0.04817878
   0.10912837  0.55326815  0.95392298
   0.22114321  0.44454655  0.04861302
   0.11335606  0.89052836  0.95025911
   0.22243653  0.77991271  0.04611947
   0.44257943  0.21829621  0.94592826
   0.55843221  0.11138726  0.04808915
   0.44409148  0.55804085  0.94821343
   0.55782978  0.45095645  0.05637585
   0.44326177  0.88873612  0.95138157
   0.55262439  0.77513175  0.05180602
   0.77804544  0.22299982  0.95184776
   0.89086640  0.11481650  0.05411017
   0.77654110  0.55485534  0.94335884
   0.88946226  0.44273873  0.04967131
   0.77346747  0.88219832  0.94364259
   0.88825198  0.77836021  0.05663828
unknown system                          
           1
     8.381266    4.838862    0.000000
    -8.336480    4.761307    0.000000
     0.000000    0.000000   30.000000
   V    Mo   W    S 
   3   3   3  18
Direct configuration=    13
   0.33855318  0.66693169 -0.00001715
   0.99539905  0.31395993 -0.00047142
   0.34754667  0.01902308  0.00049612
  -0.02936720 -0.01704598  0.00021718
   0.65413540  0.35024634 -0.00023283
   0.67942352  0.66653370  0.00000699
  -0.02707271  0.66679081 -0.00001335
   0.36138023  0.34599153  0.00015079
   0.68196960 -0.01289089 -0.00013035
   0.11400669  0.22155404  0.95189796
   0.22149906  0.11023434  0.04787322
   0.10885008  0.55318217  0.95421492
   0.22131893  0.44446287  0.04859027
   0.11337613  0.89066422  0.95046099
   0.22224771  0.78001115  0.04582830
   0.44263170  0.21861013  0.94584043
   0.55895290  0.11158206  0.04802846
   0.44399172  0.55804654  0.94812030
   0.55799299  0.45126822  0.05645456
   0.44353101  0.88883721  0.95140270
   0.55250905  0.77511070  0.05190458
   0.77783087  0.22294807  0.95216202
   0.89059802  0.11447337  0.05418896
   0.77621099  0.55472991  0.94334479
   0.88933949  0.44260137  0.04946207
   0.77332248  0.88187899  0.94356231
   0.88803689  0.77847886  0.05665709
unknown system                          
           1
     8.385604    4.841353    0.000000
    -8.339327    4.761217    0.000000
     0.000000    0.000000   30.000000
   V    Mo   W    S 
   3   3   3  18
Direct configuration=    14
   0.33930765  0.66694324 -0.00001910
   0.99577444  0.31315686 -0.00044261
   0.34865494  0.01978904  0.00046600
  -0.02979223 -0.01708923  0.00021194
   0.65377530  0.35032624 -0.00022925
   0.67906531  0.66653427  0.00000837
  -0.02768348  0.66678906 -0.00001419
   0.36165515  0.34638761  0.00016695
   0.68189723 -0.01325371 -0.00014591
   0.11414772  0.22137609  0.95190050
   0.22138406  0.11021099  0.04766282
   0.10864563  0.55312963  0.95444817
   0.22142402  0.44441467  0.04859619
   0.11340092  0.89072671  0.95059458
   0.22209038  0.78005421  0.04560127
   0.44267919  0.21886467  0.94576785
   0.55930213  0.11176438  0.04802974
   0.44388401  0.55803986  0.94803044
   0.55807002  0.45147503  0.05652129
   0.44370090  0.88888306  0.95139243
   0.55239461  0.77510052  0.05199685
   0.77776642  0.22298211  0.95238652
   0.89040292  0.11422725  0.05425212
   0.77593648  0.55464516  0.94332262
   0.88929637  0.44251987  0.04931849
   0.77319491  0.88166828  0.94349397
   0.88783949  0.77854862  0.05668181
unknown system                          
           1
     8.387087    4.842235    0.000000
    -8.341017    4.762458    0.000000
     0.000000    0.000000   30.000000
   V    Mo   W    S 
   3   3   3  18
Direct configuration=    15
   0.34093172  0.66698077 -0.00002240
   0.99652855  0.31172988 -0.00036990
   0.35078312  0.02124985  0.00039969
  -0.03060134 -0.01725991  0.00019412
   0.65309146  0.35047499 -0.00021422
   0.67836790  0.66653384  0.00001072
  -0.02882678  0.66680066 -0.00001344
   0.36208499  0.34691218  0.00020417
   0.68180747 -0.01379540 -0.00017976
   0.11433373  0.22100475  0.95186590
   0.22121175  0.11010272  0.04727998
   0.10824758  0.55302144  0.95487752
   0.22158370  0.44430097  0.04862481
   0.11346410  0.89083370  0.95083901
   0.22180163  0.78015818  0.04517617
   0.44275041  0.21930795  0.94566766
   0.55985145  0.11212716  0.04805283
   0.44367296  0.55798347  0.94786231
   0.55811645  0.45176946  0.05659802
   0.44399688  0.88900331  0.95136324
   0.55223077  0.77515151  0.05216491
   0.77771139  0.22310179  0.95278500
   0.89004357  0.11377811  0.05435615
   0.77541845  0.55454347  0.94329921
   0.88924173  0.44239448  0.04905987
   0.77295417  0.88136359  0.94341417
   0.88741663  0.77864152  0.05670416
unknown system                          
           1
     8.388862    4.843231    0.000000
    -8.343031    4.763866    0.000000
     0.000000    0.000000   30.000000
   V    Mo   W    S 
   3   3   3  18
Direct configuration=    16
   0.34105365  0.66698237 -0.00002227
   0.99658541  0.31179477 -0.00036529
   0.35079520  0.02121627  0.00039518
  -0.03055633 -0.01726521  0.00019379
   0.65313210  0.35046385 -0.00021455
   0.67828241  0.66653851  0.00000948
  -0.02880150  0.66679960 -0.00001400
   0.36201736  0.34690721  0.00020255
   0.68173490 -0.01380401 -0.00017899
   0.11432410  0.22097644  0.95184580
   0.22120334  0.11007069  0.04728489
   0.10828102  0.55304395  0.95488630
   0.22160103  0.44432805  0.04863249
   0.11347410  0.89084081  0.95083196
   0.22181542  0.78014438  0.04516475
   0.44274795  0.21930566  0.94565523
   0.55985733  0.11214829  0.04807161
   0.44364200  0.55798031  0.94785398
   0.55809918  0.45176728  0.05660838
   0.44398369  0.88898287  0.95135777
   0.55220372  0.77515431  0.05217470
   0.77772528  0.22312709  0.95277781
   0.89003763  0.11376793  0.05436837
   0.77539836  0.55454621  0.94328951
   0.88924302  0.44239094  0.04906950
   0.77294035  0.88136583  0.94340561
   0.88739372  0.77864007  0.05671535
unknown system                          
           1
     8.390944    4.844440    0.000000
    -8.345076    4.765010    0.000000
     0.000000    0.000000   30.000000
   V    Mo   W    S 
   3   3   3  18
Direct configuration=    17
   0.34175653  0.66697825 -0.00002386
   0.99687382  0.31139050 -0.00033897
   0.35139404  0.02152975  0.00036786
  -0.03076273 -0.01727712  0.00018730
   0.65299088  0.35054999 -0.00020840
   0.67793978  0.66653228  0.00001055
  -0.02912147  0.66679738 -0.00001552
   0.36204946  0.34705264  0.00021321
   0.68169801 -0.01388912 -0.00018880
   0.11432317  0.22084556  0.95181915
   0.22115118  0.11001127  0.04718263
   0.10820627  0.55302938  0.95502768
   0.22164530  0.44431491  0.04864522
   0.11348548  0.89086071  0.95089141
   0.22174450  0.78013744  0.04502989
   0.44277427  0.21945720  0.94562679
   0.56003049  0.11229141  0.04810415
   0.44353699  0.55793336  0.94779858
   0.55806422  0.45181177  0.05661921
   0.44405661  0.88898290  0.95134133
   0.55213524  0.77519178  0.05223011
   0.77776572  0.22320165  0.95289178
   0.88992901  0.11363716  0.05438830
   0.77522483  0.55453380  0.94328662
   0.88923152  0.44234777  0.04900160
   0.77286078  0.88132002  0.94339389
   0.88723054  0.77864184  0.05671821
unknown system                          
           1
     8.392232    4.845135    0.000000
    -8.346936    4.766697    0.000000
     0.000000    0.000000   30.000000
   V    Mo   W    S 
   3   3   3  18
Direct configuration=    18
   0.34289970  0.66699329 -0.00002573
   0.99737586  0.31080758 -0.00029350
   0.35245754  0.02214274  0.00032754
  -0.03108771 -0.01737133  0.00017683
   0.65273352  0.35062868 -0.00020023
   0.67740816  0.66652964  0.00001132
  -0.02964167  0.66680209 -0.00001584
   0.36209094  0.34723822  0.00023145
   0.68155541 -0.01408635 -0.00020569
   0.11434570  0.22060319  0.95176217
   0.22107081  0.10988853  0.04700040
   0.10808647  0.55301956  0.95526509
   0.22174426  0.44430887  0.04867400
   0.11352352  0.89090739  0.95099878
   0.22163354  0.78014628  0.04479262
   0.44280784  0.21968129  0.94557608
   0.56028295  0.11252600  0.04815284
   0.44335774  0.55787506  0.94769822
   0.55801541  0.45191021  0.05665130
   0.44417211  0.88899451  0.95131508
   0.55201153  0.77525134  0.05233035
   0.77780862  0.22332870  0.95307893
   0.88974474  0.11340504  0.05444289
   0.77492808  0.55451526  0.94327357
   0.88921717  0.44229082  0.04888920
   0.77272007  0.88121876  0.94336158
   0.88695215  0.77865908  0.05673068
unknown system                          
           1
     8.394972    4.846636    0.000000
    -8.352354    4.772840    0.000000
     0.000000    0.000000   30.000000
   V    Mo   W    S 
   3   3   3  18
Direct configuration=    19
   0.34573517  0.66700285 -0.00003117
   0.99860409  0.30952959 -0.00017845
   0.35483345  0.02336725  0.00022134
  -0.03176664 -0.01751607  0.00015221
   0.65222719  0.35083708 -0.00018196
   0.67597436  0.66651356  0.00001182
  -0.03069429  0.66680017 -0.00001897
   0.36201139  0.34758622  0.00026565
   0.68122647 -0.01437910 -0.00023867
   0.11430892  0.22001994  0.95159824
   0.22089249  0.10954266  0.04661096
   0.10787999  0.55299566  0.95582169
   0.22194367  0.44433223  0.04875561
   0.11360402  0.89098516  0.95121721
   0.22143541  0.78013596  0.04424742
   0.44287892  0.22018715  0.94545537
   0.56085155  0.11311198  0.04830651
   0.44290385  0.55769313  0.94744385
   0.55783887  0.45208969  0.05672035
   0.44438679  0.88896329  0.95123461
   0.55172745  0.77543337  0.05258258
   0.77801784  0.22370552  0.95349352
   0.88934109  0.11290860  0.05456416
   0.77422450  0.55452475  0.94324740
   0.88921034  0.44216760  0.04864991
   0.77237737  0.88103525  0.94329408
   0.88624018  0.77864098  0.05675462
unknown system                          
           1
     8.386835    4.842221    0.000000
    -8.348099    4.775145    0.000000
     0.000000    0.000000   30.000000
   V    Mo   W    S 
   3   3   3  18
Direct configuration=    20
   0.35039687  0.66700773 -0.00003859
   1.00083264  0.30776850  0.00006440
   0.35860658  0.02502116  0.00000883
  -0.03277855 -0.01789682  0.00012617
   0.65159762  0.35128884 -0.00016298
   0.67356017  0.66650407  0.00001842
  -0.03220603  0.66683805 -0.00002229
   0.36152385  0.34782015  0.00031126
   0.68065704 -0.01455825 -0.00027677
   0.11405910  0.21898243  0.95122552
   0.22061640  0.10878835  0.04603354
   0.10774616  0.55290953  0.95669696
   0.22224831  0.44447680  0.04895573
   0.11376498  0.89110758  0.95151322
   0.22135659  0.78014438  0.04338969
   0.44297157  0.22095809  0.94526597
   0.56165694  0.11416308  0.04865008
   0.44211135  0.55729738  0.94696678
   0.55733982  0.45221707  0.05680248
   0.44460890  0.88880724  0.95104319
   0.55131601  0.77585060  0.05304571
   0.77855883  0.22452658  0.95409595
   0.88873076  0.11217085  0.05477549
   0.77301511  0.55467165  0.94322912
   0.88924310  0.44196134  0.04832120
   0.77177737  0.88089297  0.94320649
   0.88490294  0.77849509  0.05675433
unknown system                          
           1
     8.389243    4.843979    0.000000
    -8.351456    4.778540    0.000000
     0.000000    0.000000   30.000000
   V    Mo   W    S 
   3   3   3  18
Direct configuration=    21
   0.35333160  0.66699670 -0.00004359
   1.00298767  0.30720584  0.00031933
   0.36146643  0.02584935 -0.00020546
  -0.03348684 -0.01842555  0.00011979
   0.65121759  0.35161989 -0.00017165
   0.67172566  0.66653171  0.00001203
  -0.03298562  0.66688034 -0.00002906
   0.36072419  0.34752126  0.00028125
   0.68005531 -0.01441241 -0.00025140
   0.11360075  0.21799825  0.95084944
   0.22050860  0.10794108  0.04560267
   0.10802234  0.55277635  0.95732472
   0.22260565  0.44479114  0.04917329
   0.11388872  0.89115245  0.95170197
   0.22177472  0.78027885  0.04275340
   0.44301751  0.22144633  0.94518022
   0.56202438  0.11511114  0.04897253
   0.44145049  0.55673988  0.94661045
   0.55664365  0.45209489  0.05679604
   0.44465439  0.88855495  0.95086117
   0.55122709  0.77646201  0.05339558
   0.77923654  0.22537131  0.95450669
   0.88828602  0.11159356  0.05492460
   0.77202471  0.55498693  0.94327151
   0.88933122  0.44191899  0.04812562
   0.77124376  0.88099939  0.94321399
   0.88363791  0.77822983  0.05670475
unknown system                          
           1
     8.386361    4.842308    0.000000
    -8.349822    4.779031    0.000000
     0.000000    0.000000   30.000000
   V    Mo   W    S 
   3   3   3  18
Direct configuration=    22
   0.35355194  0.66694459 -0.00003952
   1.00369666  0.30723048  0.00039007
   0.36216973  0.02586642 -0.00029410
  -0.03366954 -0.01840445  0.00012784
   0.65111064  0.35166929 -0.00016976
   0.67125290  0.66656021  0.00000675
  -0.03318273  0.66682989 -0.00003125
   0.36044736  0.34752047  0.00024248
   0.67983528 -0.01435809 -0.00021844
   0.11339369  0.21770516  0.95079359
   0.22048090  0.10763760  0.04547590
   0.10815877  0.55272864  0.95743942
   0.22280532  0.44489877  0.04924974
   0.11394349  0.89114113  0.95174080
   0.22196837  0.78035345  0.04262882
   0.44306697  0.22150673  0.94511499
   0.56217726  0.11541883  0.04906944
   0.44125878  0.55652536  0.94656291
   0.55641253  0.45206056  0.05679209
   0.44472196  0.88847440  0.95078849
   0.55123990  0.77665021  0.05345410
   0.77951942  0.22562309  0.95464591
   0.88824079  0.11146593  0.05494206
   0.77184511  0.55509419  0.94325937
   0.88938664  0.44194467  0.04808048
   0.77104257  0.88103335  0.94321682
   0.88333973  0.77809360  0.05673089
unknown system                          
           1
     8.384683    4.841429    0.000000
    -8.349715    4.780871    0.000000
     0.000000    0.000000   30.000000
   V    Mo   W    S 
   3   3   3  18
Direct configuration=    23
   0.35372923  0.66691945 -0.00003536
   1.00414258  0.30726024  0.00044965
   0.36261989  0.02586723 -0.00035496
  -0.03385233 -0.01851180  0.00013493
   0.65104107  0.35177300 -0.00017703
   0.67101916  0.66656935  0.00000991
  -0.03334393  0.66682374 -0.00003057
   0.36033701  0.34751462  0.00023024
   0.67973233 -0.01434472 -0.00020469
   0.11328783  0.21751630  0.95075144
   0.22046792  0.10746399  0.04538145
   0.10822617  0.55271787  0.95751360
   0.22293918  0.44495165  0.04929477
   0.11394900  0.89111524  0.95178086
   0.22204449  0.78037007  0.04254768
   0.44311058  0.22157716  0.94509517
   0.56227232  0.11561395  0.04912218
   0.44112855  0.55641205  0.94653335
   0.55624065  0.45201844  0.05676734
   0.44479019  0.88841944  0.95074624
   0.55122045  0.77676062  0.05348139
   0.77968926  0.22578929  0.95474146
   0.88820873  0.11139603  0.05495362
   0.77172453  0.55515654  0.94327143
   0.88941634  0.44196545  0.04804280
   0.77091733  0.88108037  0.94323666
   0.88315594  0.77801888  0.05671631
unknown system                          
           1
     8.380925    4.839356    0.000000
    -8.349429    4.784810    0.000000
     0.000000    0.000000   30.000000
   V    Mo   W    S 
   3   3   3  18
Direct configuration=    24
   0.35390846  0.66687113 -0.00002974
   1.00495785  0.30728792  0.00055045
   0.36355252  0.02598775 -0.00045480
  -0.03407243 -0.01858828  0.00015164
   0.65085728  0.35177592 -0.00019594
   0.67066043  0.66658321  0.00000870
  -0.03358670  0.66680221 -0.00002998
   0.36001516  0.34732847  0.00019328
   0.67952441 -0.01419375 -0.00017170
   0.11306651  0.21721518  0.95068881
   0.22047181  0.10711783  0.04521306
   0.10829119  0.55265682  0.95762253
   0.22310416  0.44500676  0.04938621
   0.11402741  0.89110509  0.95184945
   0.22217871  0.78046110  0.04242176
   0.44316573  0.22161209  0.94506483
   0.56232259  0.11591281  0.04919265
   0.44092151  0.55625417  0.94647448
   0.55599487  0.45199259  0.05675600
   0.44486550  0.88837221  0.95066697