   27   27  100    1
  0.9710400E+02  0.1002848E-08  0.1002848E-08  0.3000000E-08  0.5000000E-15
  1.000000000000000E-004
  CAR 
 unknown system                          
    159     34    120
 
  0.0000000E+00  0.0000000E+00  0.0000000E+00  0.1562500E-01
    1      -17.823797   1.000000
    2      -16.777630   1.000000
    3      -16.689067   1.000000
    4      -16.597966   1.000000
    5      -16.553017   1.000000
    6      -16.466789   1.000000
    7      -16.453699   1.000000
    8      -16.232985   1.000000
    9      -16.134514   1.000000
   10      -16.108112   1.000000
   11      -16.087453   1.000000
   12      -15.960612   1.000000
   13      -15.874520   1.000000
   14      -15.776056   1.000000
   15      -15.592206   1.000000
   16      -15.404035   1.000000
   17      -15.378793   1.000000
   18      -15.202279   1.000000
   19       -9.348132   1.000000
   20       -9.019915   1.000000
   21       -9.010223   1.000000
   22       -8.927950   1.000000
   23       -8.760453   1.000000
   24       -8.654311   1.000000
   25       -8.612642   1.000000
   26       -8.609387   1.000000
   27       -8.546574   1.000000
   28       -8.511200   1.000000
   29       -8.436888   1.000000
   30       -8.425783   1.000000
   31       -8.315412   1.000000
   32       -8.113662   1.000000
   33       -8.091568   1.000000
   34       -8.011676   1.000000
   35       -7.795611   1.000000
   36       -7.771729   1.000000
   37       -7.666415   1.000000
   38       -7.563139   1.000000
   39       -7.454238   1.000000
   40       -7.411460   1.000000
   41       -7.350190   1.000000
   42       -7.238506   1.000000
   43       -7.111404   1.000000
   44       -6.875536   1.000000
   45       -6.809167   1.000000
   46       -6.805387   1.000000
   47       -6.772445   1.000000
   48       -6.650598   1.000000
   49       -6.549321   1.000000
   50       -6.470612   1.000000
   51       -6.429004   1.000000
   52       -6.332242   1.000000
   53       -6.278525   1.000000
   54       -6.266336   1.000000
   55       -6.240754   1.000000
   56       -6.151429   1.000000
   57       -6.028255   1.000000
   58       -5.979546   1.000000
   59       -5.854759   1.000000
   60       -5.531552   1.000000
   61       -5.401704   1.000000
   62       -5.313359   1.000000
   63       -5.269676   1.000000
   64       -5.219788   1.000000
   65       -5.075360   1.000000
   66       -5.000341   1.000000
   67       -4.961167   1.000000
   68       -4.835846   1.000000
   69       -4.835738   1.000000
   70       -4.681381   1.000000
   71       -4.668117   1.000000
   72       -4.601029   1.000000
   73       -4.541431   1.000000
   74       -4.419818   1.000000
   75       -4.080589   1.000000
   76       -3.982137   0.999996
   77       -3.860719   0.999838
   78       -3.589776   0.953418
   79       -3.491965   0.838256
   80       -3.447009   0.748390
   81       -3.170806   0.099638
   82       -2.979286   0.004171
   83       -2.836260   0.000132
   84       -2.715754   0.000003
   85       -2.539873   0.000000
   86       -2.432721   0.000000
   87       -2.388161   0.000000
   88       -2.334115   0.000000
   89       -2.243922   0.000000
   90       -2.178876   0.000000
   91       -1.756929   0.000000
   92       -1.643043   0.000000
   93       -1.431994   0.000000
   94       -1.233493   0.000000
   95       -1.084757   0.000000
   96       -0.921033   0.000000
   97       -0.916718   0.000000
   98       -0.827368   0.000000
   99       -0.781838   0.000000
  100       -0.659106   0.000000
  101       -0.599555   0.000000
  102       -0.520190   0.000000
  103       -0.506345   0.000000
  104       -0.306956   0.000000
  105       -0.228108   0.000000
  106       -0.190304   0.000000
  107       -0.141078   0.000000
  108       -0.052298   0.000000
  109       -0.007139   0.000000
  110        0.256936   0.000000
  111        0.258616   0.000000
  112        0.716025   0.000000
  113        0.790662   0.000000
  114        0.851570   0.000000
  115        0.886704   0.000000
  116        0.953137   0.000000
  117        1.286430   0.000000
  118        1.648207   0.000000
  119        1.837693   0.000000
  120        2.157920   0.000000
 
  0.1250000E+00  0.2775558E-16  0.0000000E+00  0.3125000E-01
    1      -17.799830   1.000000
    2      -16.810657   1.000000
    3      -16.745705   1.000000
    4      -16.658287   1.000000
    5      -16.548775   1.000000
    6      -16.471066   1.000000
    7      -16.396089   1.000000
    8      -16.258264   1.000000
    9      -16.127482   1.000000
   10      -16.077007   1.000000
   11      -16.015376   1.000000
   12      -15.956721   1.000000
   13      -15.859931   1.000000
   14      -15.767934   1.000000
   15      -15.600645   1.000000
   16      -15.414649   1.000000
   17      -15.388812   1.000000
   18      -15.205503   1.000000
   19       -9.343652   1.000000
   20       -9.176689   1.000000
   21       -9.065757   1.000000
   22       -9.020460   1.000000
   23       -8.788595   1.000000
   24       -8.714607   1.000000
   25       -8.649765   1.000000
   26       -8.586291   1.000000
   27       -8.538900   1.000000
   28       -8.504196   1.000000
   29       -8.389544   1.000000
   30       -8.271397   1.000000
   31       -8.232162   1.000000
   32       -8.073904   1.000000
   33       -8.011127   1.000000
   34       -7.925743   1.000000
   35       -7.805699   1.000000
   36       -7.740683   1.000000
   37       -7.604524   1.000000
   38       -7.578556   1.000000
   39       -7.491334   1.000000
   40       -7.448573   1.000000
   41       -7.309307   1.000000
   42       -7.208558   1.000000
   43       -7.155493   1.000000
   44       -6.943888   1.000000
   45       -6.856368   1.000000
   46       -6.783713   1.000000
   47       -6.724258   1.000000
   48       -6.675382   1.000000
   49       -6.509116   1.000000
   50       -6.442327   1.000000
   51       -6.436317   1.000000
   52       -6.385508   1.000000
   53       -6.303126   1.000000
   54       -6.264974   1.000000
   55       -6.237620   1.000000
   56       -6.113588   1.000000
   57       -6.033922   1.000000
   58       -5.961055   1.000000
   59       -5.808719   1.000000
   60       -5.506944   1.000000
   61       -5.433116   1.000000
   62       -5.410831   1.000000
   63       -5.326616   1.000000
   64       -5.246056   1.000000
   65       -5.090201   1.000000
   66       -5.023352   1.000000
   67       -4.947416   1.000000
   68       -4.885122   1.000000
   69       -4.812672   1.000000
   70       -4.719609   1.000000
   71       -4.671724   1.000000
   72       -4.581476   1.000000
   73       -4.478025   1.000000
   74       -4.305367   1.000000
   75       -4.077083   1.000000
   76       -3.942979   0.999985
   77       -3.875119   0.999891
   78       -3.695661   0.992402
   79       -3.607119   0.964194
   80       -3.425777   0.698224
   81       -3.073945   0.024504
   82       -2.967160   0.003229
   83       -2.803462   0.000052
   84       -2.705306   0.000002
   85       -2.545392   0.000000
   86       -2.411208   0.000000
   87       -2.363076   0.000000
   88       -2.332412   0.000000
   89       -2.238808   0.000000
   90       -2.151602   0.000000
   91       -1.760915   0.000000
   92       -1.640020   0.000000
   93       -1.424489   0.000000
   94       -1.236529   0.000000
   95       -1.068960   0.000000
   96       -0.962489   0.000000
   97       -0.905585   0.000000
   98       -0.853003   0.000000
   99       -0.795328   0.000000
  100       -0.747696   0.000000
  101       -0.652612   0.000000
  102       -0.585590   0.000000
  103       -0.545278   0.000000
  104       -0.389564   0.000000
  105       -0.347667   0.000000
  106       -0.153284   0.000000
  107       -0.128319   0.000000
  108       -0.016127   0.000000
  109        0.072451   0.000000
  110        0.207594   0.000000
  111        0.304770   0.000000
  112        0.677018   0.000000
  113        0.742680   0.000000
  114        0.853816   0.000000
  115        0.901437   0.000000
  116        1.027598   0.000000
  117        1.322868   0.000000
  118        1.691263   0.000000
  119        1.877959   0.000000
  120        2.192904   0.000000
 
  0.2500000E+00  0.5551115E-16  0.0000000E+00  0.3125000E-01
    1      -17.730089   1.000000
    2      -16.990246   1.000000
    3      -16.753214   1.000000
    4      -16.712705   1.000000
    5      -16.600338   1.000000
    6      -16.454216   1.000000
    7      -16.360020   1.000000
    8      -16.208628   1.000000
    9      -16.129338   1.000000
   10      -16.026996   1.000000
   11      -15.972817   1.000000
   12      -15.904085   1.000000
   13      -15.792141   1.000000
   14      -15.757080   1.000000
   15      -15.616007   1.000000
   16      -15.446487   1.000000
   17      -15.406286   1.000000
   18      -15.215695   1.000000
   19       -9.516001   1.000000
   20       -9.252236   1.000000
   21       -9.198512   1.000000
   22       -9.121958   1.000000
   23       -8.888062   1.000000
   24       -8.779359   1.000000
   25       -8.603289   1.000000
   26       -8.573488   1.000000
   27       -8.515949   1.000000
   28       -8.410983   1.000000
   29       -8.308449   1.000000
   30       -8.221687   1.000000
   31       -8.109179   1.000000
   32       -8.062024   1.000000
   33       -7.911838   1.000000
   34       -7.864940   1.000000
   35       -7.708807   1.000000
   36       -7.659286   1.000000
   37       -7.592262   1.000000
   38       -7.559272   1.000000
   39       -7.447044   1.000000
   40       -7.373230   1.000000
   41       -7.326859   1.000000
   42       -7.212426   1.000000
   43       -7.102534   1.000000
   44       -7.004571   1.000000
   45       -6.873319   1.000000
   46       -6.784418   1.000000
   47       -6.706739   1.000000
   48       -6.670928   1.000000
   49       -6.550942   1.000000
   50       -6.473268   1.000000
   51       -6.412088   1.000000
   52       -6.368899   1.000000
   53       -6.327414   1.000000
   54       -6.246145   1.000000
   55       -6.175086   1.000000
   56       -6.107230   1.000000
   57       -5.973403   1.000000
   58       -5.929500   1.000000
   59       -5.763734   1.000000
   60       -5.660468   1.000000
   61       -5.624836   1.000000
   62       -5.472825   1.000000
   63       -5.417443   1.000000
   64       -5.313623   1.000000
   65       -5.188614   1.000000
   66       -5.005294   1.000000
   67       -4.933320   1.000000
   68       -4.891237   1.000000
   69       -4.775055   1.000000
   70       -4.742336   1.000000
   71       -4.622430   1.000000
   72       -4.512217   1.000000
   73       -4.341994   1.000000
   74       -4.280228   1.000000
   75       -4.127146   1.000000
   76       -3.965893   0.999993
   77       -3.881121   0.999908
   78       -3.802699   0.999275
   79       -3.661060   0.985482
   80       -3.410649   0.659950
   81       -2.974987   0.003812
   82       -2.935905   0.001617
   83       -2.753061   0.000011
   84       -2.654197   0.000000
   85       -2.543375   0.000000
   86       -2.399223   0.000000
   87       -2.337144   0.000000
   88       -2.282770   0.000000
   89       -2.209029   0.000000
   90       -2.069598   0.000000
   91       -1.761854   0.000000
   92       -1.636469   0.000000
   93       -1.411764   0.000000
   94       -1.244893   0.000000
   95       -1.084126   0.000000
   96       -1.043545   0.000000
   97       -0.986588   0.000000
   98       -0.936246   0.000000
   99       -0.875497   0.000000
  100       -0.811752   0.000000
  101       -0.744720   0.000000
  102       -0.688322   0.000000
  103       -0.622656   0.000000
  104       -0.473106   0.000000
  105       -0.447098   0.000000
  106       -0.229656   0.000000
  107       -0.106229   0.000000
  108       -0.041079   0.000000
  109        0.034286   0.000000
  110        0.247211   0.000000
  111        0.358666   0.000000
  112        0.614510   0.000000
  113        0.692100   0.000000
  114        0.861507   0.000000
  115        0.958931   0.000000
  116        1.144181   0.000000
  117        1.416177   0.000000
  118        1.811835   0.000000
  119        1.993183   0.000000
  120        2.296584   0.000000
 
  0.3750000E+00  0.0000000E+00  0.0000000E+00  0.3125000E-01
    1      -17.625143   1.000000
    2      -17.185694   1.000000
    3      -16.764439   1.000000
    4      -16.730326   1.000000
    5      -16.642396   1.000000
    6      -16.459661   1.000000
    7      -16.342055   1.000000
    8      -16.162301   1.000000
    9      -16.096895   1.000000
   10      -16.003533   1.000000
   11      -15.915755   1.000000
   12      -15.896356   1.000000
   13      -15.771843   1.000000
   14      -15.700096   1.000000
   15      -15.633824   1.000000
   16      -15.470003   1.000000
   17      -15.418857   1.000000
   18      -15.230205   1.000000
   19       -9.721656   1.000000
   20       -9.337337   1.000000
   21       -9.201746   1.000000
   22       -9.174851   1.000000
   23       -8.949471   1.000000
   24       -8.818043   1.000000
   25       -8.573222   1.000000
   26       -8.517531   1.000000
   27       -8.442272   1.000000
   28       -8.311916   1.000000
   29       -8.298276   1.000000
   30       -8.232492   1.000000
   31       -8.121125   1.000000
   32       -8.048608   1.000000
   33       -7.940082   1.000000
   34       -7.823115   1.000000
   35       -7.771434   1.000000
   36       -7.661000   1.000000
   37       -7.583777   1.000000
   38       -7.462840   1.000000
   39       -7.367243   1.000000
   40       -7.268508   1.000000
   41       -7.227729   1.000000
   42       -7.131586   1.000000
   43       -7.060050   1.000000
   44       -6.922051   1.000000
   45       -6.857055   1.000000
   46       -6.828333   1.000000
   47       -6.698442   1.000000
   48       -6.654622   1.000000
   49       -6.528758   1.000000
   50       -6.479428   1.000000
   51       -6.409346   1.000000
   52       -6.385621   1.000000
   53       -6.311518   1.000000
   54       -6.189262   1.000000
   55       -6.113686   1.000000
   56       -6.060695   1.000000
   57       -5.980897   1.000000
   58       -5.939385   1.000000
   59       -5.869498   1.000000
   60       -5.796188   1.000000
   61       -5.749250   1.000000
   62       -5.586592   1.000000
   63       -5.540165   1.000000
   64       -5.340309   1.000000
   65       -5.197826   1.000000
   66       -5.009508   1.000000
   67       -4.910701   1.000000
   68       -4.855470   1.000000
   69       -4.790788   1.000000
   70       -4.741165   1.000000
   71       -4.618423   1.000000
   72       -4.552223   1.000000
   73       -4.423591   1.000000
   74       -4.198745   1.000000
   75       -4.089460   1.000000
   76       -4.034743   0.999999
   77       -3.876517   0.999895
   78       -3.775806   0.998625
   79       -3.587668   0.951948
   80       -3.436362   0.723793
   81       -2.929461   0.001394
   82       -2.903667   0.000755
   83       -2.722172   0.000004
   84       -2.606861   0.000000
   85       -2.516799   0.000000
   86       -2.406068   0.000000
   87       -2.309315   0.000000
   88       -2.216920   0.000000
   89       -2.172494   0.000000
   90       -1.960939   0.000000
   91       -1.750551   0.000000
   92       -1.629844   0.000000
   93       -1.420073   0.000000
   94       -1.299182   0.000000
   95       -1.205834   0.000000
   96       -1.146073   0.000000
   97       -1.068744   0.000000
   98       -0.997000   0.000000
   99       -0.927931   0.000000
  100       -0.854747   0.000000
  101       -0.792459   0.000000
  102       -0.726196   0.000000
  103       -0.677553   0.000000
  104       -0.547467   0.000000
  105       -0.442302   0.000000
  106       -0.352680   0.000000
  107       -0.142454   0.000000
  108       -0.093396   0.000000
  109       -0.052732   0.000000
  110        0.281532   0.000000
  111        0.372772   0.000000
  112        0.580933   0.000000
  113        0.682090   0.000000
  114        0.892293   0.000000
  115        1.018195   0.000000
  116        1.235116   0.000000
  117        1.508655   0.000000
  118        1.992424   0.000000
  119        2.171274   0.000000
  120        2.461038   0.000000
 
  0.5000000E+00  0.1110223E-15  0.0000000E+00  0.1562500E-01
    1      -17.547444   1.000000
    2      -17.295944   1.000000
    3      -16.775831   1.000000
    4      -16.726648   1.000000
    5      -16.658906   1.000000
    6      -16.464265   1.000000
    7      -16.335076   1.000000
    8      -16.164680   1.000000
    9      -16.048717   1.000000
   10      -15.998801   1.000000
   11      -15.915985   1.000000
   12      -15.880437   1.000000
   13      -15.737231   1.000000
   14      -15.728105   1.000000
   15      -15.627053   1.000000
   16      -15.477154   1.000000
   17      -15.417511   1.000000
   18      -15.238233   1.000000
   19       -9.797198   1.000000
   20       -9.377051   1.000000
   21       -9.225527   1.000000
   22       -9.167237   1.000000
   23       -8.948636   1.000000
   24       -8.829307   1.000000
   25       -8.565657   1.000000
   26       -8.501666   1.000000
   27       -8.411573   1.000000
   28       -8.329088   1.000000
   29       -8.267246   1.000000
   30       -8.163878   1.000000
   31       -8.133534   1.000000
   32       -8.046493   1.000000
   33       -7.960359   1.000000
   34       -7.912947   1.000000
   35       -7.765273   1.000000
   36       -7.730012   1.000000
   37       -7.562962   1.000000
   38       -7.411413   1.000000
   39       -7.331708   1.000000
   40       -7.265183   1.000000
   41       -7.116805   1.000000
   42       -7.065165   1.000000
   43       -7.035831   1.000000
   44       -6.902371   1.000000
   45       -6.870115   1.000000
   46       -6.736161   1.000000
   47       -6.670312   1.000000
   48       -6.617122   1.000000
   49       -6.576866   1.000000
   50       -6.518731   1.000000
   51       -6.418390   1.000000
   52       -6.348672   1.000000
   53       -6.331331   1.000000
   54       -6.235054   1.000000
   55       -6.151420   1.000000
   56       -6.062974   1.000000
   57       -5.976080   1.000000
   58       -5.913996   1.000000
   59       -5.860310   1.000000
   60       -5.838166   1.000000
   61       -5.762219   1.000000
   62       -5.572489   1.000000
   63       -5.544490   1.000000
   64       -5.340826   1.000000
   65       -5.309233   1.000000
   66       -5.106610   1.000000
   67       -4.903960   1.000000
   68       -4.877816   1.000000
   69       -4.812829   1.000000
   70       -4.725896   1.000000
   71       -4.606075   1.000000
   72       -4.545598   1.000000
   73       -4.406022   1.000000
   74       -4.204473   1.000000
   75       -4.110116   1.000000
   76       -4.016330   0.999999
   77       -3.833193   0.999663
   78       -3.764035   0.998199
   79       -3.548303   0.917079
   80       -3.462110   0.781188
   81       -2.905486   0.000790
   82       -2.901528   0.000717
   83       -2.712520   0.000003
   84       -2.593434   0.000000
   85       -2.506447   0.000000
   86       -2.395817   0.000000
   87       -2.296915   0.000000
   88       -2.189129   0.000000
   89       -2.155985   0.000000
   90       -1.907946   0.000000
   91       -1.743988   0.000000
   92       -1.617761   0.000000
   93       -1.454236   0.000000
   94       -1.332872   0.000000
   95       -1.233360   0.000000
   96       -1.217135   0.000000
   97       -1.090883   0.000000
   98       -1.041565   0.000000
   99       -0.949375   0.000000
  100       -0.860182   0.000000
  101       -0.807610   0.000000
  102       -0.728184   0.000000
  103       -0.663102   0.000000
  104       -0.600878   0.000000
  105       -0.437304   0.000000
  106       -0.401815   0.000000
  107       -0.178253   0.000000
  108       -0.103825   0.000000
  109       -0.094029   0.000000
  110        0.279010   0.000000
  111        0.381200   0.000000
  112        0.571690   0.000000
  113        0.684192   0.000000
  114        0.906916   0.000000
  115        1.040539   0.000000
  116        1.271038   0.000000
  117        1.545563   0.000000
  118        2.190002   0.000000
  119        2.258838   0.000000
  120        2.398078   0.000000
 
  0.0000000E+00  0.1250000E+00  0.0000000E+00  0.3125000E-01
    1      -17.799831   1.000000
    2      -16.810494   1.000000
    3      -16.745545   1.000000
    4      -16.658969   1.000000
    5      -16.548675   1.000000
    6      -16.470639   1.000000
    7      -16.396198   1.000000
    8      -16.258258   1.000000
    9      -16.127668   1.000000
   10      -16.076921   1.000000
   11      -16.015461   1.000000
   12      -15.956548   1.000000
   13      -15.859968   1.000000
   14      -15.767929   1.000000
   15      -15.600690   1.000000
   16      -15.414430   1.000000
   17      -15.389021   1.000000
   18      -15.205487   1.000000
   19       -9.343624   1.000000
   20       -9.176738   1.000000
   21       -9.065667   1.000000
   22       -9.020615   1.000000
   23       -8.788658   1.000000
   24       -8.714463   1.000000
   25       -8.649616   1.000000
   26       -8.586100   1.000000
   27       -8.539333   1.000000
   28       -8.504299   1.000000
   29       -8.389265   1.000000
   30       -8.271390   1.000000
   31       -8.232174   1.000000
   32       -8.074112   1.000000
   33       -8.011040   1.000000
   34       -7.925698   1.000000
   35       -7.805571   1.000000
   36       -7.740884   1.000000
   37       -7.604284   1.000000
   38       -7.578705   1.000000
   39       -7.491486   1.000000
   40       -7.448535   1.000000
   41       -7.309166   1.000000
   42       -7.208393   1.000000
   43       -7.155562   1.000000
   44       -6.943950   1.000000
   45       -6.856358   1.000000
   46       -6.783632   1.000000
   47       -6.724376   1.000000
   48       -6.675381   1.000000
   49       -6.509287   1.000000
   50       -6.442507   1.000000
   51       -6.436126   1.000000
   52       -6.385527   1.000000
   53       -6.303052   1.000000
   54       -6.264822   1.000000
   55       -6.237647   1.000000
   56       -6.113744   1.000000
   57       -6.033871   1.000000
   58       -5.961063   1.000000
   59       -5.808703   1.000000
   60       -5.506989   1.000000
   61       -5.433091   1.000000
   62       -5.410925   1.000000
   63       -5.326233   1.000000
   64       -5.246051   1.000000
   65       -5.090083   1.000000
   66       -5.023665   1.000000
   67       -4.947643   1.000000
   68       -4.885530   1.000000
   69       -4.812543   1.000000
   70       -4.719641   1.000000
   71       -4.671409   1.000000
   72       -4.581300   1.000000
   73       -4.478093   1.000000
   74       -4.305343   1.000000
   75       -4.076962   1.000000
   76       -3.942799   0.999985
   77       -3.875275   0.999891
   78       -3.695537   0.992384
   79       -3.606814   0.964024
   80       -3.426418   0.699802
   81       -3.073852   0.024466
   82       -2.967246   0.003235
   83       -2.803389   0.000052
   84       -2.705159   0.000002
   85       -2.545404   0.000000
   86       -2.411453   0.000000
   87       -2.362697   0.000000
   88       -2.332644   0.000000
   89       -2.239088   0.000000
   90       -2.151334   0.000000
   91       -1.760816   0.000000
   92       -1.640167   0.000000
   93       -1.424421   0.000000
   94       -1.236543   0.000000
   95       -1.068958   0.000000
   96       -0.962590   0.000000
   97       -0.905504   0.000000
   98       -0.853292   0.000000
   99       -0.795223   0.000000
  100       -0.747806   0.000000
  101       -0.652075   0.000000
  102       -0.585047   0.000000
  103       -0.546058   0.000000
  104       -0.389541   0.000000
  105       -0.347729   0.000000
  106       -0.153323   0.000000
  107       -0.128211   0.000000
  108       -0.016514   0.000000
  109        0.072599   0.000000
  110        0.207678   0.000000
  111        0.304944   0.000000
  112        0.677149   0.000000
  113        0.742446   0.000000
  114        0.853839   0.000000
  115        0.901377   0.000000
  116        1.027582   0.000000
  117        1.322966   0.000000
  118        1.691269   0.000000
  119        1.877958   0.000000
  120        2.192904   0.000000
 
  0.1250000E+00  0.1250000E+00  0.0000000E+00  0.3125000E-01
    1      -17.754172   1.000000
    2      -16.871347   1.000000
    3      -16.840292   1.000000
    4      -16.738488   1.000000
    5      -16.492482   1.000000
    6      -16.452610   1.000000
    7      -16.383818   1.000000
    8      -16.266205   1.000000
    9      -16.087563   1.000000
   10      -16.045920   1.000000
   11      -15.970729   1.000000
   12      -15.934519   1.000000
   13      -15.820865   1.000000
   14      -15.765263   1.000000
   15      -15.615285   1.000000
   16      -15.423307   1.000000
   17      -15.415378   1.000000
   18      -15.206498   1.000000
   19       -9.392533   1.000000
   20       -9.321109   1.000000
   21       -9.192493   1.000000
   22       -9.129343   1.000000
   23       -8.810579   1.000000
   24       -8.695413   1.000000
   25       -8.629320   1.000000
   26       -8.558032   1.000000
   27       -8.521935   1.000000
   28       -8.471203   1.000000
   29       -8.294879   1.000000
   30       -8.244308   1.000000
   31       -8.129597   1.000000
   32       -8.037424   1.000000
   33       -8.024387   1.000000
   34       -7.844177   1.000000
   35       -7.766191   1.000000
   36       -7.716193   1.000000
   37       -7.582502   1.000000
   38       -7.550163   1.000000
   39       -7.462551   1.000000
   40       -7.353288   1.000000
   41       -7.314134   1.000000
   42       -7.268325   1.000000
   43       -7.090030   1.000000
   44       -6.989412   1.000000
   45       -6.857327   1.000000
   46       -6.828053   1.000000
   47       -6.680972   1.000000
   48       -6.672867   1.000000
   49       -6.512777   1.000000
   50       -6.503489   1.000000
   51       -6.384527   1.000000
   52       -6.369480   1.000000
   53       -6.318994   1.000000
   54       -6.258987   1.000000
   55       -6.246791   1.000000
   56       -6.074036   1.000000
   57       -6.054879   1.000000
   58       -5.928881   1.000000
   59       -5.797889   1.000000
   60       -5.582808   1.000000
   61       -5.574339   1.000000
   62       -5.432977   1.000000
   63       -5.337655   1.000000
   64       -5.314366   1.000000
   65       -5.106433   1.000000
   66       -5.047568   1.000000
   67       -4.986207   1.000000
   68       -4.934537   1.000000
   69       -4.776843   1.000000
   70       -4.675470   1.000000
   71       -4.657689   1.000000
   72       -4.553289   1.000000
   73       -4.391891   1.000000
   74       -4.194695   1.000000
   75       -4.121838   1.000000
   76       -4.009555   0.999998
   77       -3.860043   0.999835
   78       -3.747623   0.997406
   79       -3.670643   0.987800
   80       -3.464461   0.786063
   81       -2.973318   0.003680
   82       -2.905563   0.000791
   83       -2.787614   0.000033
   84       -2.659222   0.000000
   85       -2.542091   0.000000
   86       -2.394266   0.000000
   87       -2.327060   0.000000
   88       -2.321828   0.000000
   89       -2.213704   0.000000
   90       -2.117946   0.000000
   91       -1.750549   0.000000
   92       -1.642880   0.000000
   93       -1.401203   0.000000
   94       -1.258869   0.000000
   95       -1.051372   0.000000
   96       -1.020138   0.000000
   97       -0.979443   0.000000
   98       -0.895135   0.000000
   99       -0.864104   0.000000
  100       -0.837407   0.000000
  101       -0.720236   0.000000
  102       -0.650898   0.000000
  103       -0.649450   0.000000
  104       -0.414977   0.000000
  105       -0.412322   0.000000
  106       -0.165559   0.000000
  107       -0.120108   0.000000
  108        0.020433   0.000000
  109        0.026899   0.000000
  110        0.163102   0.000000
  111        0.366648   0.000000
  112        0.665464   0.000000
  113        0.686685   0.000000
  114        0.854371   0.000000
  115        0.933768   0.000000
  116        1.141443   0.000000
  117        1.351282   0.000000
  118        1.772309   0.000000
  119        1.956285   0.000000
  120        2.262015   0.000000
 
  0.2500000E+00  0.1250000E+00  0.0000000E+00  0.3125000E-01
    1      -17.666638   1.000000
    2      -17.064273   1.000000
    3      -16.906987   1.000000
    4      -16.733945   1.000000
    5      -16.495574   1.000000
    6      -16.445229   1.000000
    7      -16.352852   1.000000
    8      -16.213809   1.000000
    9      -16.093832   1.000000
   10      -16.031788   1.000000
   11      -15.935251   1.000000
   12      -15.880751   1.000000
   13      -15.774892   1.000000
   14      -15.727994   1.000000
   15      -15.642501   1.000000
   16      -15.448112   1.000000
   17      -15.428147   1.000000
   18      -15.215153   1.000000
   19       -9.604797   1.000000
   20       -9.426026   1.000000
   21       -9.282434   1.000000
   22       -9.154428   1.000000
   23       -8.844247   1.000000
   24       -8.675729   1.000000
   25       -8.571516   1.000000
   26       -8.505000   1.000000
   27       -8.449442   1.000000
   28       -8.399706   1.000000
   29       -8.268786   1.000000
   30       -8.239617   1.000000
   31       -8.141900   1.000000
   32       -8.064447   1.000000
   33       -7.947792   1.000000
   34       -7.917220   1.000000
   35       -7.800557   1.000000
   36       -7.641718   1.000000
   37       -7.582220   1.000000
   38       -7.445614   1.000000
   39       -7.422525   1.000000
   40       -7.317688   1.000000
   41       -7.200888   1.000000
   42       -7.165939   1.000000
   43       -7.032078   1.000000
   44       -6.952082   1.000000
   45       -6.872521   1.000000
   46       -6.818479   1.000000
   47       -6.705735   1.000000