       N       E                     dE             d eps       ncg     rms          rms(c)
DAV:   1     0.112387381111E+04    0.11239E+04   -0.35865E+04  8160   0.577E+02
DAV:   2     0.163314842081E+01   -0.11222E+04   -0.10760E+04 10960   0.173E+02
DAV:   3    -0.199679615245E+03   -0.20131E+03   -0.19271E+03 10960   0.824E+01
DAV:   4    -0.208926736193E+03   -0.92471E+01   -0.89554E+01 11760   0.261E+01
DAV:   5    -0.209302194001E+03   -0.37546E+00   -0.37455E+00 11520   0.401E+00    0.275E+01
DAV:   6    -0.236708592010E+03   -0.27406E+02   -0.10829E+02 13000   0.604E+01    0.593E+01
DAV:   7    -0.196698340221E+03    0.40010E+02   -0.17802E+02 12840   0.151E+02    0.202E+01
DAV:   8    -0.189933074061E+03    0.67653E+01   -0.20011E+01 11720   0.133E+01    0.134E+01
DAV:   9    -0.188236409311E+03    0.16967E+01   -0.28890E+00 11960   0.622E+00    0.920E+00
DAV:  10    -0.187049799422E+03    0.11866E+01   -0.18643E+00 13240   0.772E+00    0.291E+00
DAV:  11    -0.187026705446E+03    0.23094E-01   -0.62212E-01 13520   0.305E+00    0.308E+00
DAV:  12    -0.187173333041E+03   -0.14663E+00   -0.82013E-01 13080   0.525E+00    0.577E+00
DAV:  13    -0.186921937957E+03    0.25140E+00   -0.77692E-01 12760   0.415E+00    0.213E+00
DAV:  14    -0.186875616387E+03    0.46322E-01   -0.11881E-01 13200   0.203E+00    0.792E-01
DAV:  15    -0.186869143441E+03    0.64729E-02   -0.11713E-02 12920   0.423E-01    0.240E-01
DAV:  16    -0.186869506345E+03   -0.36290E-03   -0.60874E-03 13360   0.401E-01    0.412E-01
DAV:  17    -0.186868415160E+03    0.10912E-02   -0.47593E-03 12160   0.410E-01    0.263E-01
DAV:  18    -0.186867689388E+03    0.72577E-03   -0.13589E-03 11640   0.182E-01    0.582E-02
DAV:  19    -0.186868322307E+03   -0.63292E-03   -0.74024E-04  9520   0.553E-02    0.577E-02
DAV:  20    -0.186868923605E+03   -0.60130E-03   -0.30602E-04  8120   0.536E-02    0.567E-02
DAV:  21    -0.186869807484E+03   -0.88388E-03   -0.25723E-04  7680   0.486E-02    0.372E-02
DAV:  22    -0.186871213341E+03   -0.14059E-02   -0.18584E-04  7680   0.477E-02    0.181E-02
DAV:  23    -0.186871902977E+03   -0.68964E-03   -0.38108E-05  6800   0.192E-02    0.554E-03
DAV:  24    -0.186872335540E+03   -0.43256E-03   -0.21744E-05  5640   0.109E-02    0.442E-03
DAV:  25    -0.186872578209E+03   -0.24267E-03   -0.95227E-06  6840   0.799E-03    0.364E-03
DAV:  26    -0.186872689841E+03   -0.11163E-03   -0.50100E-06  6840   0.566E-03    0.184E-03
DAV:  27    -0.186872781833E+03   -0.91993E-04   -0.28309E-06  6720   0.396E-03
   1 F= -.18687278E+03 E0= -.18670122E+03  d E =-.186873E+03
       N       E                     dE             d eps       ncg     rms          rms(c)
DAV:   1    -0.187493576165E+03   -0.62089E+00   -0.27000E+02  8160   0.349E+01    0.459E+00
DAV:   2    -0.189302159213E+03   -0.18086E+01   -0.19993E+01 12240   0.149E+01    0.831E+00
DAV:   3    -0.189413608513E+03   -0.11145E+00   -0.42244E+00 12400   0.120E+01    0.696E+00
DAV:   4    -0.188762033547E+03    0.65157E+00   -0.62532E-01 12200   0.491E+00    0.201E+00
DAV:   5    -0.188876355130E+03   -0.11432E+00   -0.43404E-01 11240   0.361E+00    0.538E+00
DAV:   6    -0.188744623285E+03    0.13173E+00   -0.79123E-01 12720   0.434E+00    0.236E+00
DAV:   7    -0.188681529975E+03    0.63093E-01   -0.18468E-01 11360   0.139E+00    0.107E+00
DAV:   8    -0.188665695818E+03    0.15834E-01   -0.48891E-02 11440   0.685E-01    0.653E-01
DAV:   9    -0.188660872077E+03    0.48237E-02   -0.91315E-03 12240   0.309E-01    0.343E-01
DAV:  10    -0.188660185410E+03    0.68667E-03   -0.32934E-03 12920   0.247E-01    0.151E-01
DAV:  11    -0.188660094675E+03    0.90735E-04   -0.17262E-03 12960   0.179E-01    0.176E-01
DAV:  12    -0.188660159484E+03   -0.64809E-04   -0.11105E-03 11320   0.195E-01    0.173E-01
DAV:  13    -0.188659988119E+03    0.17137E-03   -0.42239E-04  8880   0.115E-01    0.202E-02
DAV:  14    -0.188660111472E+03   -0.12335E-03   -0.54336E-05  7400   0.240E-02    0.120E-02
DAV:  15    -0.188660203344E+03   -0.91872E-04   -0.22725E-05  7400   0.172E-02
   2 F= -.18866020E+03 E0= -.18851915E+03  d E =-.178742E+01
       N       E                     dE             d eps       ncg     rms          rms(c)
DAV:   1    -0.190573072217E+03   -0.19130E+01   -0.30753E+01  9200   0.141E+01    0.445E+00
DAV:   2    -0.190569638811E+03    0.34334E-02   -0.28167E+00 11520   0.972E+00    0.750E+00
DAV:   3    -0.190050090097E+03    0.51955E+00   -0.13638E+00 12320   0.864E+00    0.417E+00
DAV:   4    -0.189853196953E+03    0.19689E+00   -0.73088E-01 12720   0.411E+00    0.268E+00
DAV:   5    -0.189899848356E+03   -0.46651E-01   -0.48309E-01 12360   0.421E+00    0.383E+00
DAV:   6    -0.189746119612E+03    0.15373E+00   -0.21910E-01 12240   0.322E+00    0.617E-01
DAV:   7    -0.189740241413E+03    0.58782E-02   -0.14948E-02 11760   0.459E-01    0.211E-01
DAV:   8    -0.189740245770E+03   -0.43565E-05   -0.28123E-03 10120   0.153E-01    0.145E-01
DAV:   9    -0.189740336948E+03   -0.91178E-04   -0.89107E-04 10720   0.991E-02
   3 F= -.18974034E+03 E0= -.18962129E+03  d E =-.108013E+01
       N       E                     dE             d eps       ncg     rms          rms(c)
DAV:   1    -0.191314901486E+03   -0.15747E+01   -0.71023E+01  8160   0.193E+01    0.467E+00
DAV:   2    -0.191178762209E+03    0.13614E+00   -0.54546E+00 13440   0.837E+00    0.524E+00
DAV:   3    -0.191218468194E+03   -0.39706E-01   -0.15983E+00 12200   0.934E+00    0.634E+00
DAV:   4    -0.190819895369E+03    0.39857E+00   -0.11696E+00 12960   0.691E+00    0.258E+00
DAV:   5    -0.190720669036E+03    0.99226E-01   -0.29139E-01 11280   0.220E+00    0.114E+00
DAV:   6    -0.190718583599E+03    0.20854E-02   -0.10036E-01 12720   0.199E+00    0.144E+00
DAV:   7    -0.190704654019E+03    0.13930E-01   -0.52175E-02 12000   0.154E+00    0.609E-01
DAV:   8    -0.190699468786E+03    0.51852E-02   -0.72482E-03 10080   0.443E-01    0.155E-01
DAV:   9    -0.190699850265E+03   -0.38148E-03   -0.18505E-03 11880   0.189E-01    0.197E-01
DAV:  10    -0.190700144827E+03   -0.29456E-03   -0.24202E-03 11760   0.318E-01    0.245E-01
DAV:  11    -0.190699566421E+03    0.57841E-03   -0.11150E-03 10640   0.205E-01    0.445E-02
DAV:  12    -0.190699571425E+03   -0.50038E-05   -0.10481E-04  6240   0.417E-02
   4 F= -.19069957E+03 E0= -.19059841E+03  d E =-.959234E+00
       N       E                     dE             d eps       ncg     rms          rms(c)
DAV:   1    -0.192048464898E+03   -0.13489E+01   -0.14247E+02  8160   0.268E+01    0.558E+00
DAV:   2    -0.191773587442E+03    0.27488E+00   -0.90396E+00 12200   0.794E+00    0.374E+00
DAV:   3    -0.191830222181E+03   -0.56635E-01   -0.16457E+00 12240   0.850E+00    0.593E+00
DAV:   4    -0.191601137021E+03    0.22909E+00   -0.14737E+00 12360   0.932E+00    0.382E+00
DAV:   5    -0.191368101273E+03    0.23304E+00   -0.40136E-01 12440   0.359E+00    0.774E-01
DAV:   6    -0.191361157645E+03    0.69436E-02   -0.86015E-02 11360   0.110E+00    0.642E-01
DAV:   7    -0.191363963292E+03   -0.28056E-02   -0.41639E-02 11600   0.127E+00    0.929E-01
DAV:   8    -0.191354764175E+03    0.91991E-02   -0.16363E-02 11480   0.856E-01    0.165E-01
DAV:   9    -0.191355569719E+03   -0.80554E-03   -0.32419E-03 11920   0.282E-01    0.264E-01
DAV:  10    -0.191355085980E+03    0.48374E-03   -0.21022E-03 12160   0.331E-01    0.131E-01
DAV:  11    -0.191354978300E+03    0.10768E-03   -0.48220E-04  9240   0.131E-01    0.538E-02
DAV:  12    -0.191354925287E+03    0.53013E-04   -0.12312E-04  7120   0.483E-02
   5 F= -.19135493E+03 E0= -.19125898E+03  d E =-.655354E+00
       N       E                     dE             d eps       ncg     rms          rms(c)
DAV:   1    -0.191459065821E+03   -0.10409E+00   -0.10941E+01  8160   0.699E+00    0.872E-01
DAV:   2    -0.191532549350E+03   -0.73484E-01   -0.38320E-01 12360   0.289E+00    0.230E+00
DAV:   3    -0.191474855904E+03    0.57693E-01   -0.13700E-01 12440   0.278E+00    0.675E-01
DAV:   4    -0.191470389087E+03    0.44668E-02   -0.14616E-02 11120   0.626E-01    0.361E-01
DAV:   5    -0.191470334435E+03    0.54652E-04   -0.78868E-03 12120   0.610E-01    0.483E-01
DAV:   6    -0.191468975896E+03    0.13585E-02   -0.71270E-03 11760   0.628E-01    0.284E-01
DAV:   7    -0.191468068128E+03    0.90777E-03   -0.22743E-03 11520   0.274E-01    0.733E-02
DAV:   8    -0.191467994544E+03    0.73584E-04   -0.34454E-04  8360   0.720E-02
   6 F= -.19146799E+03 E0= -.19136926E+03  d E =-.113069E+00
       N       E                     dE             d eps       ncg     rms          rms(c)
DAV:   1    -0.191509183688E+03   -0.41116E-01   -0.14196E+00  8160   0.253E+00    0.346E-01
DAV:   2    -0.191524276271E+03   -0.15093E-01   -0.64028E-02 12720   0.148E+00    0.109E+00
DAV:   3    -0.191510936192E+03    0.13340E-01   -0.23471E-02 12520   0.117E+00    0.189E-01
DAV:   4    -0.191511178787E+03   -0.24260E-03   -0.26685E-03 11520   0.299E-01    0.261E-01
DAV:   5    -0.191510634017E+03    0.54477E-03   -0.22818E-03 10200   0.335E-01    0.162E-01
DAV:   6    -0.191510437396E+03    0.19662E-03   -0.91183E-04  9960   0.172E-01    0.736E-02
DAV:   7    -0.191510429408E+03    0.79874E-05   -0.36301E-04  7840   0.104E-01
   7 F= -.19151043E+03 E0= -.19141110E+03  d E =-.424349E-01
       N       E                     dE             d eps       ncg     rms          rms(c)
DAV:   1    -0.191490106390E+03    0.20331E-01   -0.40892E-01  8160   0.135E+00    0.165E-01
DAV:   2    -0.191492422462E+03   -0.23161E-02   -0.20789E-02 12160   0.518E-01    0.339E-01
DAV:   3    -0.191491458331E+03    0.96413E-03   -0.45489E-03 11760   0.460E-01    0.182E-01
DAV:   4    -0.191491271564E+03    0.18677E-03   -0.11941E-03  9680   0.218E-01    0.140E-01
DAV:   5    -0.191491074852E+03    0.19671E-03   -0.49548E-04  8440   0.163E-01    0.592E-02
DAV:   6    -0.191491077334E+03   -0.24816E-05   -0.20071E-04  6280   0.752E-02
   8 F= -.19149108E+03 E0= -.19139172E+03  d E =0.193521E-01
       N       E                     dE             d eps       ncg     rms          rms(c)
DAV:   1    -0.191583671169E+03   -0.92596E-01   -0.81001E+00  8160   0.601E+00    0.676E-01
DAV:   2    -0.191632631218E+03   -0.48960E-01   -0.25962E-01 12880   0.246E+00    0.182E+00
DAV:   3    -0.191596193737E+03    0.36437E-01   -0.79324E-02 12440   0.218E+00    0.502E-01
DAV:   4    -0.191593910600E+03    0.22831E-02   -0.78153E-03 11080   0.446E-01    0.304E-01
DAV:   5    -0.191593941857E+03   -0.31257E-04   -0.53102E-03 12120   0.514E-01    0.393E-01
DAV:   6    -0.191593023804E+03    0.91805E-03   -0.45715E-03 11600   0.484E-01    0.216E-01
DAV:   7    -0.191592465131E+03    0.55867E-03   -0.14471E-03 11560   0.199E-01    0.554E-02
DAV:   8    -0.191592463122E+03    0.20091E-05   -0.28570E-04  7960   0.951E-02
   9 F= -.19159246E+03 E0= -.19149369E+03  d E =-.101386E+00
       N       E                     dE             d eps       ncg     rms          rms(c)
DAV:   1    -0.191613056028E+03   -0.20591E-01   -0.30965E-01  8160   0.120E+00    0.169E-01
DAV:   2    -0.191616122741E+03   -0.30667E-02   -0.14215E-02 12840   0.676E-01    0.497E-01
DAV:   3    -0.191613392421E+03    0.27303E-02   -0.48560E-03 11600   0.541E-01    0.102E-01
DAV:   4    -0.191613544822E+03   -0.15240E-03   -0.89144E-04  8680   0.194E-01    0.166E-01
DAV:   5    -0.191613280840E+03    0.26398E-03   -0.70305E-04  8320   0.191E-01    0.655E-02
DAV:   6    -0.191613254864E+03    0.25977E-04   -0.15378E-04  5560   0.679E-02
  10 F= -.19161325E+03 E0= -.19151479E+03  d E =-.207917E-01
       N       E                     dE             d eps       ncg     rms          rms(c)
DAV:   1    -0.191733276969E+03   -0.12000E+00   -0.12686E+01  8160   0.762E+00    0.947E-01
DAV:   2    -0.191828865160E+03   -0.95588E-01   -0.49073E-01 13240   0.377E+00    0.271E+00
DAV:   3    -0.191752611308E+03    0.76254E-01   -0.15028E-01 12320   0.307E+00    0.606E-01
DAV:   4    -0.191752751030E+03   -0.13972E-03   -0.19736E-02 12320   0.918E-01    0.762E-01
DAV:   5    -0.191747715234E+03    0.50358E-02   -0.15789E-02 11440   0.973E-01    0.441E-01
DAV:   6    -0.191746384698E+03    0.13305E-02   -0.71355E-03 12360   0.490E-01    0.236E-01
DAV:   7    -0.191745824394E+03    0.56030E-03   -0.32477E-03 11880   0.309E-01    0.220E-01
DAV:   8    -0.191745380632E+03    0.44376E-03   -0.12223E-03  9680   0.243E-01    0.688E-02
DAV:   9    -0.191745336394E+03    0.44237E-04   -0.14257E-04  5920   0.676E-02
  11 F= -.19174534E+03 E0= -.19165076E+03  d E =-.132082E+00
       N       E                     dE             d eps       ncg     rms          rms(c)
DAV:   1    -0.191865128406E+03   -0.11975E+00   -0.17602E+01  8160   0.896E+00    0.947E-01
DAV:   2    -0.191938187810E+03   -0.73059E-01   -0.57088E-01 12440   0.321E+00    0.203E+00
DAV:   3    -0.191900317464E+03    0.37870E-01   -0.11594E-01 12080   0.272E+00    0.862E-01
DAV:   4    -0.191896057442E+03    0.42600E-02   -0.22195E-02 12400   0.108E+00    0.738E-01
DAV:   5    -0.191890934559E+03    0.51229E-02   -0.13124E-02 11160   0.960E-01    0.416E-01
DAV:   6    -0.191890278986E+03    0.65557E-03   -0.73170E-03 12600   0.483E-01    0.262E-01
DAV:   7    -0.191888843811E+03    0.14352E-02   -0.26729E-03 10480   0.211E-01    0.566E-02
DAV:   8    -0.191888925233E+03   -0.81422E-04   -0.47027E-04  9520   0.122E-01
  12 F= -.19188893E+03 E0= -.19180004E+03  d E =-.143589E+00
       N       E                     dE             d eps       ncg     rms          rms(c)
DAV:   1    -0.191947131913E+03   -0.58288E-01   -0.33997E+00  8160   0.404E+00    0.575E-01
DAV:   2    -0.191964296209E+03   -0.17164E-01   -0.16675E-01 13160   0.175E+00    0.109E+00
DAV:   3    -0.191953675680E+03    0.10621E-01   -0.32138E-02 12200   0.148E+00    0.488E-01
DAV:   4    -0.191952073804E+03    0.16019E-02   -0.87226E-03 12400   0.701E-01    0.463E-01
DAV:   5    -0.191950516092E+03    0.15577E-02   -0.63524E-03 11040   0.665E-01    0.314E-01
DAV:   6    -0.191949538664E+03    0.97743E-03   -0.30938E-03 11320   0.339E-01    0.118E-01
DAV:   7    -0.191949276417E+03    0.26225E-03   -0.73091E-04 10400   0.110E-01    0.454E-02
DAV:   8    -0.191949268492E+03    0.79257E-05   -0.14837E-04  8120   0.835E-02
  13 F= -.19194927E+03 E0= -.19186196E+03  d E =-.603433E-01
       N       E                     dE             d eps       ncg     rms          rms(c)
DAV:   1    -0.191996648117E+03   -0.47372E-01   -0.36172E+00  8160   0.405E+00    0.420E-01
DAV:   2    -0.192005652844E+03   -0.90047E-02   -0.12384E-01 11800   0.105E+00    0.440E-01
DAV:   3    -0.192008399438E+03   -0.27466E-02   -0.15362E-02 12560   0.100E+00    0.693E-01
DAV:   4    -0.192003113022E+03    0.52864E-02   -0.64088E-03 11680   0.675E-01    0.139E-01
DAV:   5    -0.192003548018E+03   -0.43500E-03   -0.19950E-03 11560   0.300E-01    0.222E-01
DAV:   6    -0.192003025754E+03    0.52226E-03   -0.15688E-03 13280   0.336E-01    0.118E-01
DAV:   7    -0.192002866551E+03    0.15920E-03   -0.38306E-04  8800   0.134E-01    0.392E-02
DAV:   8    -0.192002861696E+03    0.48551E-05   -0.94403E-05  6720   0.624E-02
  14 F= -.19200286E+03 E0= -.19191796E+03  d E =-.535932E-01
       N       E                     dE             d eps       ncg     rms          rms(c)
DAV:   1    -0.192030686970E+03   -0.27820E-01   -0.10761E+00  8160   0.228E+00    0.334E-01
DAV:   2    -0.192034397058E+03   -0.37101E-02   -0.51967E-02 12240   0.873E-01    0.501E-01
DAV:   3    -0.192032757865E+03    0.16392E-02   -0.86984E-03 11960   0.792E-01    0.335E-01
DAV:   4    -0.192031670795E+03    0.10871E-02   -0.31947E-03 11520   0.449E-01    0.244E-01
DAV:   5    -0.192031393173E+03    0.27762E-03   -0.21693E-03 10160   0.394E-01    0.203E-01
DAV:   6    -0.192030930917E+03    0.46226E-03   -0.10665E-03 10440   0.224E-01    0.595E-02
DAV:   7    -0.192030870416E+03    0.60501E-04   -0.18398E-04  6320   0.603E-02
  15 F= -.19203087E+03 E0= -.19194646E+03  d E =-.280087E-01
       N       E                     dE             d eps       ncg     rms          rms(c)
DAV:   1    -0.192066078315E+03   -0.35147E-01   -0.31788E+00  8160   0.379E+00    0.396E-01
DAV:   2    -0.192074619940E+03   -0.85416E-02   -0.11716E-01 12120   0.968E-01    0.366E-01
DAV:   3    -0.192077640173E+03   -0.30202E-02   -0.12399E-02 12400   0.921E-01    0.661E-01
DAV:   4    -0.192072752506E+03    0.48877E-02   -0.57057E-03 11280   0.658E-01    0.122E-01
DAV:   5    -0.192072925556E+03   -0.17305E-03   -0.17494E-03 11520   0.185E-01    0.139E-01
DAV:   6    -0.192072696284E+03    0.22927E-03   -0.10288E-03 11520   0.230E-01    0.114E-01
DAV:   7    -0.192072567460E+03    0.12882E-03   -0.30372E-04  8840   0.140E-01    0.401E-02
DAV:   8    -0.192072567516E+03   -0.56268E-07   -0.77368E-05  6000   0.698E-02
  16 F= -.19207257E+03 E0= -.19198957E+03  d E =-.416971E-01
       N       E                     dE             d eps       ncg     rms          rms(c)
DAV:   1    -0.192091380397E+03   -0.18813E-01   -0.78556E-01  8160   0.195E+00    0.305E-01
DAV:   2    -0.192093451754E+03   -0.20714E-02   -0.39834E-02 11680   0.725E-01    0.387E-01
DAV:   3    -0.192092875348E+03    0.57641E-03   -0.63850E-03 12040   0.693E-01    0.326E-01
DAV:   4    -0.192091678065E+03    0.11973E-02   -0.27220E-03 11400   0.429E-01    0.201E-01
DAV:   5    -0.192091646614E+03    0.31452E-04   -0.18521E-03 10160   0.358E-01    0.208E-01
DAV:   6    -0.192091150161E+03    0.49645E-03   -0.94947E-04 10240   0.232E-01    0.516E-02
DAV:   7    -0.192091110417E+03    0.39743E-04   -0.14027E-04  6120   0.537E-02
  17 F= -.19209111E+03 E0= -.19200817E+03  d E =-.185429E-01
       N       E                     dE             d eps       ncg     rms          rms(c)
DAV:   1    -0.192109622738E+03   -0.18473E-01   -0.13119E+00  8160   0.242E+00    0.267E-01
DAV:   2    -0.192113720432E+03   -0.40977E-02   -0.52365E-02 11320   0.737E-01    0.296E-01
DAV:   3    -0.192114158474E+03   -0.43804E-03   -0.53911E-03 12480   0.621E-01    0.359E-01
DAV:   4    -0.192112696612E+03    0.14619E-02   -0.22606E-03 10960   0.410E-01    0.138E-01
DAV:   5    -0.192112800644E+03   -0.10403E-03   -0.95494E-04 10160   0.265E-01    0.164E-01
DAV:   6    -0.192112515434E+03    0.28521E-03   -0.64056E-04 11240   0.186E-01    0.371E-02
DAV:   7    -0.192112499147E+03    0.16287E-04   -0.10135E-04  6320   0.462E-02
  18 F= -.19211250E+03 E0= -.19203037E+03  d E =-.213887E-01
       N       E                     dE             d eps       ncg     rms          rms(c)
DAV:   1    -0.192123604220E+03   -0.11089E-01   -0.42742E-01  8160   0.142E+00    0.201E-01
DAV:   2    -0.192124708038E+03   -0.11038E-02   -0.20360E-02 10720   0.447E-01    0.216E-01
DAV:   3    -0.192124974755E+03   -0.26672E-03   -0.29686E-03 12320   0.462E-01    0.275E-01
DAV:   4    -0.192124118853E+03    0.85590E-03   -0.14085E-03 10160   0.321E-01    0.107E-01
DAV:   5    -0.192124159769E+03   -0.40916E-04   -0.65713E-04  9760   0.215E-01
  19 F= -.19212416E+03 E0= -.19204170E+03  d E =-.116606E-01
       N       E                     dE             d eps       ncg     rms          rms(c)
DAV:   1    -0.192149133933E+03   -0.25015E-01   -0.41886E+00  8160   0.440E+00    0.579E-01
DAV:   2    -0.192157784914E+03   -0.86510E-02   -0.16603E-01 11520   0.116E+00    0.554E-01
DAV:   3    -0.192162945790E+03   -0.51609E-02   -0.25017E-02 12280   0.134E+00    0.921E-01
DAV:   4    -0.192152965450E+03    0.99803E-02   -0.12215E-02 11640   0.958E-01    0.196E-01
DAV:   5    -0.192153937164E+03   -0.97171E-03   -0.40508E-03 11360   0.509E-01    0.354E-01
DAV:   6    -0.192152515020E+03    0.14221E-02   -0.28155E-03 12040   0.472E-01    0.105E-01
DAV:   7    -0.192152450331E+03    0.64689E-04   -0.48888E-04  9240   0.163E-01
  20 F= -.19215245E+03 E0= -.19207024E+03  d E =-.282906E-01
       N       E                     dE             d eps       ncg     rms          rms(c)
DAV:   1    -0.192156840333E+03   -0.43253E-02   -0.10939E-01  8160   0.789E-01    0.210E-01
DAV:   2    -0.192156596796E+03    0.24354E-03   -0.78634E-03 11000   0.432E-01    0.283E-01
DAV:   3    -0.192156143650E+03    0.45315E-03   -0.30016E-03 11360   0.486E-01    0.222E-01
DAV:   4    -0.192155679754E+03    0.46390E-03   -0.14866E-03 10040   0.315E-01    0.153E-01
DAV:   5    -0.192155631643E+03    0.48111E-04   -0.96333E-04  9960   0.268E-01
  21 F= -.19215563E+03 E0= -.19207422E+03  d E =-.318131E-02
       N       E                     dE             d eps       ncg     rms          rms(c)
DAV:   1    -0.192162850938E+03   -0.71712E-02   -0.62802E-01  8160   0.168E+00    0.210E-01
DAV:   2    -0.192165788464E+03   -0.29375E-02   -0.29754E-02 10840   0.643E-01    0.355E-01
DAV:   3    -0.192165003394E+03    0.78507E-03   -0.48137E-03 11760   0.560E-01    0.243E-01
DAV:   4    -0.192164341403E+03    0.66199E-03   -0.98674E-04  9920   0.256E-01    0.752E-02
DAV:   5    -0.192164325533E+03    0.15870E-04   -0.39278E-04  9120   0.999E-02
  22 F= -.19216433E+03 E0= -.19208335E+03  d E =-.869389E-02
       N       E                     dE             d eps       ncg     rms          rms(c)
DAV:   1    -0.192168379019E+03   -0.40376E-02   -0.13037E-01  8160   0.814E-01    0.145E-01
DAV:   2    -0.192170141182E+03   -0.17622E-02   -0.75718E-03 12560   0.506E-01    0.357E-01
DAV:   3    -0.192168479641E+03    0.16615E-02   -0.25408E-03 12280   0.462E-01    0.977E-02
DAV:   4    -0.192168515169E+03   -0.35528E-04   -0.41996E-04  8720   0.164E-01
  23 F= -.19216852E+03 E0= -.19208720E+03  d E =-.418964E-02
       N       E                     dE             d eps       ncg     rms          rms(c)
DAV:   1    -0.192169264060E+03   -0.78442E-03   -0.27556E-02  9600   0.417E-01    0.870E-02
DAV:   2    -0.192170133590E+03   -0.86953E-03   -0.25888E-03 12480   0.354E-01    0.286E-01
DAV:   3    -0.192169197848E+03    0.93574E-03   -0.11221E-03 10160   0.304E-01    0.462E-02
DAV:   4    -0.192169202158E+03   -0.43100E-05   -0.10551E-04  5720   0.553E-02
  24 F= -.19216920E+03 E0= -.19208828E+03  d E =-.686989E-03
       N       E                     dE             d eps       ncg     rms          rms(c)
DAV:   1    -0.192174634519E+03   -0.54367E-02   -0.57330E-01  8160   0.161E+00    0.214E-01
DAV:   2    -0.192177440525E+03   -0.28060E-02   -0.27256E-02 11040   0.724E-01    0.371E-01
DAV:   3    -0.192176141697E+03    0.12988E-02   -0.38705E-03 12280   0.545E-01    0.185E-01
DAV:   4    -0.192175880462E+03    0.26124E-03   -0.10270E-03 10160   0.265E-01    0.155E-01
DAV:   5    -0.192175727823E+03    0.15264E-03   -0.67397E-04  9560   0.237E-01    0.104E-01
DAV:   6    -0.192175615915E+03    0.11191E-03   -0.34154E-04  8680   0.120E-01    0.280E-02
DAV:   7    -0.192175611028E+03    0.48872E-05   -0.82541E-05  6640   0.353E-02
  25 F= -.19217561E+03 E0= -.19209527E+03  d E =-.640887E-02
       N       E                     dE             d eps       ncg     rms          rms(c)
DAV:   1    -0.192173728873E+03    0.18870E-02   -0.25400E-01  8160   0.112E+00    0.213E-01
DAV:   2    -0.192174892016E+03   -0.11631E-02   -0.15294E-02 11640   0.578E-01    0.375E-01
DAV:   3    -0.192173661436E+03    0.12306E-02   -0.39532E-03 11800   0.540E-01    0.196E-01
DAV:   4    -0.192173320392E+03    0.34104E-03   -0.13054E-03 10320   0.293E-01    0.158E-01
DAV:   5    -0.192173166261E+03    0.15413E-03   -0.85162E-04  9800   0.265E-01    0.120E-01
DAV:   6    -0.192172964162E+03    0.20210E-03   -0.38087E-04  8200   0.143E-01    0.256E-02
DAV:   7    -0.192172959354E+03    0.48083E-05   -0.80017E-05  6520   0.344E-02
  26 F= -.19217296E+03 E0= -.19209196E+03  d E =0.265167E-02
       N       E                     dE             d eps       ncg     rms          rms(c)
DAV:   1    -0.192177058052E+03   -0.40939E-02   -0.19506E-01  8160   0.946E-01    0.120E-01
DAV:   2    -0.192177491492E+03   -0.43344E-03   -0.82552E-03 10160   0.252E-01    0.925E-02
DAV:   3    -0.192177683075E+03   -0.19158E-03   -0.94335E-04 11200   0.237E-01    0.172E-01
DAV:   4    -0.192177351507E+03    0.33157E-03   -0.51845E-04  9160   0.205E-01    0.594E-02
DAV:   5    -0.192177336001E+03    0.15506E-04   -0.15427E-04  6120   0.909E-02
  27 F= -.19217734E+03 E0= -.19209614E+03  d E =-.437665E-02
       N       E                     dE             d eps       ncg     rms          rms(c)
DAV:   1    -0.192179764474E+03   -0.24130E-02   -0.82311E-02  8160   0.615E-01    0.971E-02
DAV:   2    -0.192180401018E+03   -0.63654E-03   -0.45755E-03 11560   0.341E-01    0.207E-01
DAV:   3    -0.192179896185E+03    0.50483E-03   -0.84525E-04 10240   0.266E-01    0.618E-02
DAV:   4    -0.192179903070E+03   -0.68856E-05   -0.16790E-04  7120   0.112E-01
  28 F= -.19217990E+03 E0= -.19209876E+03  d E =-.256707E-02
       N       E                     dE             d eps       ncg     rms          rms(c)
DAV:   1    -0.192185518973E+03   -0.56228E-02   -0.68778E-01  8160   0.176E+00    0.213E-01
DAV:   2    -0.192187783235E+03   -0.22643E-02   -0.28372E-02 10680   0.503E-01    0.229E-01
DAV:   3    -0.192187804469E+03   -0.21235E-04   -0.29136E-03 12880   0.481E-01    0.244E-01
DAV:   4    -0.192187015636E+03    0.78883E-03   -0.91539E-04 10240   0.275E-01    0.743E-02
DAV:   5    -0.192187309337E+03   -0.29370E-03   -0.64229E-04 10400   0.216E-01    0.173E-01
DAV:   6    -0.192187000316E+03    0.30902E-03   -0.51111E-04  8880   0.188E-01    0.355E-02
DAV:   7    -0.192186985656E+03    0.14660E-04   -0.67917E-05  6640   0.391E-02
  29 F= -.19218699E+03 E0= -.19210603E+03  d E =-.708259E-02
       N       E                     dE             d eps       ncg     rms          rms(c)
DAV:   1    -0.192191852053E+03   -0.48517E-02   -0.14454E+00  8160   0.254E+00    0.283E-01
DAV:   2    -0.192196462516E+03   -0.46105E-02   -0.59461E-02 10360   0.707E-01    0.258E-01
DAV:   3    -0.192197438807E+03   -0.97629E-03   -0.52091E-03 12880   0.625E-01    0.402E-01
DAV:   4    -0.192195582217E+03    0.18566E-02   -0.24299E-03 10360   0.440E-01    0.127E-01
DAV:   5    -0.192195780950E+03   -0.19873E-03   -0.97317E-04 10240   0.275E-01    0.174E-01
DAV:   6    -0.192195481173E+03    0.29978E-03   -0.70104E-04 10280   0.202E-01    0.444E-02
DAV:   7    -0.192195452255E+03    0.28918E-04   -0.11771E-04  6760   0.618E-02
  30 F= -.19219545E+03 E0= -.19211474E+03  d E =-.846660E-02
       N       E                     dE             d eps       ncg     rms          rms(c)
DAV:   1    -0.192198239555E+03   -0.27584E-02   -0.17776E+00  8160   0.283E+00    0.322E-01
DAV:   2    -0.192203212525E+03   -0.49730E-02   -0.73535E-02 10680   0.710E-01    0.195E-01
DAV:   3    -0.192204056878E+03   -0.84435E-03   -0.42255E-03 13080   0.483E-01    0.358E-01
DAV:   4    -0.192202564870E+03    0.14920E-02   -0.25418E-03 11560   0.444E-01    0.125E-01
DAV:   5    -0.192202898912E+03   -0.33404E-03   -0.14226E-03 10880   0.273E-01    0.197E-01
DAV:   6    -0.192202500876E+03    0.39804E-03   -0.10007E-03 10520   0.271E-01    0.809E-02
DAV:   7    -0.192202402866E+03    0.98009E-04   -0.22934E-04  8440   0.968E-02
  31 F= -.19220240E+03 E0= -.19212184E+03  d E =-.695061E-02
       N       E                     dE             d eps       ncg     rms          rms(c)
DAV:   1    -0.192203692258E+03   -0.11914E-02   -0.91569E-01  8160   0.203E+00    0.234E-01
DAV:   2    -0.192206654528E+03   -0.29623E-02   -0.38794E-02 10280   0.604E-01    0.223E-01
DAV:   3    -0.192206954409E+03   -0.29988E-03   -0.32510E-03 13240   0.510E-01    0.275E-01
DAV:   4    -0.192205958105E+03    0.99630E-03   -0.11890E-03 10160   0.327E-01    0.874E-02
DAV:   5    -0.192206246213E+03   -0.28811E-03   -0.82792E-04 10320   0.234E-01    0.178E-01
DAV:   6    -0.192205926803E+03    0.31941E-03   -0.58647E-04  8560   0.204E-01    0.413E-02
DAV:   7    -0.192205911711E+03    0.15093E-04   -0.81174E-05  6680   0.520E-02
  32 F= -.19220591E+03 E0= -.19212571E+03  d E =-.350884E-02
       N       E                     dE             d eps       ncg     rms          rms(c)
DAV:   1    -0.192205852422E+03    0.74382E-04   -0.23031E-02  8160   0.325E-01    0.457E-02
DAV:   2    -0.192206019788E+03   -0.16737E-03   -0.11439E-03 10840   0.179E-01    0.106E-01
DAV:   3    -0.192205887663E+03    0.13212E-03   -0.23703E-04  8560   0.136E-01    0.315E-02
DAV:   4    -0.192205882611E+03    0.50516E-05   -0.47392E-05  6240   0.564E-02
  33 F= -.19220588E+03 E0= -.19212559E+03  d E =0.290991E-04
