<?xml version="1.0" encoding="ISO-8859-1"?>
<modeling>
 <generator>
  <i name="program" type="string">vasp </i>
  <i name="version" type="string">5.4.1  </i>
  <i name="subversion" type="string">05Feb16 (build Jul 05 2020 17:13:04) complex                          parallel </i>
  <i name="platform" type="string">IFC91_ompi </i>
  <i name="date" type="string">2024 05 15 </i>
  <i name="time" type="string">10:26:49 </i>
 </generator>
 <incar>
  <i type="int" name="ISTART">     0</i>
  <i type="string" name="PREC">normal</i>
  <i type="string" name="ALGO"> Normal</i>
  <i type="int" name="ISPIN">     1</i>
  <i type="int" name="ICHARG">     2</i>
  <i type="int" name="IBRION">     1</i>
  <i type="int" name="NSW">   100</i>
  <i type="int" name="ISIF">     3</i>
  <i type="int" name="ISYM">     0</i>
  <i name="SYMPREC">      0.00000001</i>
  <i name="POTIM">      0.50000000</i>
  <i type="logical" name="LREAL"> F  </i>
  <i type="logical" name="LPLANE"> F  </i>
  <i type="int" name="ISMEAR">     0</i>
  <i type="logical" name="LWAVE"> F  </i>
  <i type="logical" name="LCHARG"> F  </i>
  <v type="int" name="KPOINT_BSE">    -1     0     0     0</v>
 </incar>
 <kpoints>
  <generation param="Gamma">
   <v type="int" name="divisions">       8        8        1 </v>
   <v name="usershift">      0.00000000       0.00000000       0.00000000 </v>
   <v name="genvec1">      0.12500000       0.00000000       0.00000000 </v>
   <v name="genvec2">     -0.00000000       0.12500000       0.00000000 </v>
   <v name="genvec3">      0.00000000       0.00000000       1.00000000 </v>
   <v name="shift">      0.00000000       0.00000000       0.00000000 </v>
  </generation>
  <varray name="kpointlist" >
   <v>       0.00000000       0.00000000       0.00000000 </v>
   <v>       0.12500000       0.00000000       0.00000000 </v>
   <v>       0.25000000       0.00000000       0.00000000 </v>
   <v>       0.37500000       0.00000000       0.00000000 </v>
   <v>       0.50000000       0.00000000       0.00000000 </v>
   <v>       0.00000000       0.12500000       0.00000000 </v>
   <v>       0.12500000       0.12500000       0.00000000 </v>
   <v>       0.25000000       0.12500000       0.00000000 </v>
   <v>       0.37500000       0.12500000       0.00000000 </v>
   <v>       0.50000000       0.12500000       0.00000000 </v>
   <v>      -0.37500000       0.12500000       0.00000000 </v>
   <v>      -0.25000000       0.12500000       0.00000000 </v>
   <v>      -0.12500000       0.12500000       0.00000000 </v>
   <v>       0.00000000       0.25000000       0.00000000 </v>
   <v>       0.12500000       0.25000000       0.00000000 </v>
   <v>       0.25000000       0.25000000       0.00000000 </v>
   <v>       0.37500000       0.25000000       0.00000000 </v>
   <v>       0.50000000       0.25000000       0.00000000 </v>
   <v>      -0.37500000       0.25000000       0.00000000 </v>
   <v>      -0.25000000       0.25000000       0.00000000 </v>
   <v>      -0.12500000       0.25000000       0.00000000 </v>
   <v>      -0.00000000       0.37500000       0.00000000 </v>
   <v>       0.12500000       0.37500000       0.00000000 </v>
   <v>       0.25000000       0.37500000       0.00000000 </v>
   <v>       0.37500000       0.37500000       0.00000000 </v>
   <v>       0.50000000       0.37500000       0.00000000 </v>
   <v>      -0.37500000       0.37500000       0.00000000 </v>
   <v>      -0.25000000       0.37500000       0.00000000 </v>
   <v>      -0.12500000       0.37500000       0.00000000 </v>
   <v>       0.00000000       0.50000000       0.00000000 </v>
   <v>       0.12500000       0.50000000       0.00000000 </v>
   <v>       0.25000000       0.50000000       0.00000000 </v>
   <v>       0.37500000       0.50000000       0.00000000 </v>
   <v>       0.50000000       0.50000000       0.00000000 </v>
  </varray>
  <varray name="weights" >
   <v>       0.01562500 </v>
   <v>       0.03125000 </v>
   <v>       0.03125000 </v>
   <v>       0.03125000 </v>
   <v>       0.01562500 </v>
   <v>       0.03125000 </v>
   <v>       0.03125000 </v>
   <v>       0.03125000 </v>
   <v>       0.03125000 </v>
   <v>       0.03125000 </v>
   <v>       0.03125000 </v>
   <v>       0.03125000 </v>
   <v>       0.03125000 </v>
   <v>       0.03125000 </v>
   <v>       0.03125000 </v>
   <v>       0.03125000 </v>
   <v>       0.03125000 </v>
   <v>       0.03125000 </v>
   <v>       0.03125000 </v>
   <v>       0.03125000 </v>
   <v>       0.03125000 </v>
   <v>       0.03125000 </v>
   <v>       0.03125000 </v>
   <v>       0.03125000 </v>
   <v>       0.03125000 </v>
   <v>       0.03125000 </v>
   <v>       0.03125000 </v>
   <v>       0.03125000 </v>
   <v>       0.03125000 </v>
   <v>       0.01562500 </v>
   <v>       0.03125000 </v>
   <v>       0.03125000 </v>
   <v>       0.03125000 </v>
   <v>       0.01562500 </v>
  </varray>
 </kpoints>
 <parameters>
  <separator name="general" >
   <i type="string" name="SYSTEM">unknown system</i>
   <i type="logical" name="LCOMPAT"> F  </i>
  </separator>
  <separator name="electronic" >
   <i type="string" name="PREC">normal</i>
   <i name="ENMAX">    280.00000000</i>
   <i name="ENAUG">    373.43800000</i>
   <i name="EDIFF">      0.00010000</i>
   <i type="int" name="IALGO">    38</i>
   <i type="int" name="IWAVPR">    11</i>
   <i type="int" name="NBANDS">   120</i>
   <i name="NELECT">    159.00000000</i>
   <i type="int" name="TURBO">     0</i>
   <i type="int" name="IRESTART">     0</i>
   <i type="int" name="NREBOOT">     0</i>
   <i type="int" name="NMIN">     0</i>
   <i name="EREF">      0.00000000</i>
   <separator name="electronic smearing" >
    <i type="int" name="ISMEAR">     0</i>
    <i name="SIGMA">      0.20000000</i>
    <i name="KSPACING">      0.50000000</i>
    <i type="logical" name="KGAMMA"> T  </i>
   </separator>
   <separator name="electronic projectors" >
    <i type="logical" name="LREAL"> F  </i>
    <v name="ROPT">      0.00000000      0.00000000      0.00000000      0.00000000</v>
    <i type="int" name="LMAXPAW">  -100</i>
    <i type="int" name="LMAXMIX">     2</i>
    <i type="logical" name="NLSPLINE"> F  </i>
   </separator>
   <separator name="electronic startup" >
    <i type="int" name="ISTART">     0</i>
    <i type="int" name="ICHARG">     2</i>
    <i type="int" name="INIWAV">     1</i>
   </separator>
   <separator name="electronic spin" >
    <i type="int" name="ISPIN">     1</i>
    <i type="logical" name="LNONCOLLINEAR"> F  </i>
    <v name="MAGMOM">      1.00000000      1.00000000      1.00000000      1.00000000      1.00000000      1.00000000      1.00000000      1.00000000      1.00000000      1.00000000      1.00000000      1.00000000      1.00000000      1.00000000      1.00000000      1.00000000      1.00000000      1.00000000      1.00000000      1.00000000
      1.00000000      1.00000000      1.00000000      1.00000000      1.00000000      1.00000000      1.00000000</v>
    <i name="NUPDOWN">     -1.00000000</i>
    <i type="logical" name="LSORBIT"> F  </i>
    <v name="SAXIS">      0.00000000      0.00000000      1.00000000</v>
    <i type="logical" name="LSPIRAL"> F  </i>
    <v name="QSPIRAL">      0.00000000      0.00000000      0.00000000</v>
    <i type="logical" name="LZEROZ"> F  </i>
   </separator>
   <separator name="electronic exchange-correlation" >
    <i type="logical" name="LASPH"> F  </i>
    <i type="logical" name="LMETAGGA"> F  </i>
   </separator>
   <separator name="electronic convergence" >
    <i type="int" name="NELM">    60</i>
    <i type="int" name="NELMDL">    -5</i>
    <i type="int" name="NELMIN">     2</i>
    <i name="ENINI">    280.00000000</i>
    <separator name="electronic convergence detail" >
     <i type="logical" name="LDIAG"> T  </i>
     <i type="logical" name="LSUBROT"> F  </i>
     <i name="WEIMIN">      0.00100000</i>
     <i name="EBREAK">      0.00000021</i>
     <i name="DEPER">      0.30000000</i>
     <i type="int" name="NRMM">     4</i>
     <i name="TIME">      0.40000000</i>
    </separator>
   </separator>
   <separator name="electronic mixer" >
    <i name="AMIX">      0.40000000</i>
    <i name="BMIX">      1.00000000</i>
    <i name="AMIN">      0.10000000</i>
    <i name="AMIX_MAG">      1.60000000</i>
    <i name="BMIX_MAG">      1.00000000</i>
    <separator name="electronic mixer details" >
     <i type="int" name="IMIX">     4</i>
     <i type="logical" name="MIXFIRST"> F  </i>
     <i type="int" name="MAXMIX">   -45</i>
     <i name="WC">    100.00000000</i>
     <i type="int" name="INIMIX">     1</i>
     <i type="int" name="MIXPRE">     1</i>
     <i type="int" name="MREMOVE">     5</i>
    </separator>
   </separator>
   <separator name="electronic dipolcorrection" >
    <i type="logical" name="LDIPOL"> F  </i>
    <i type="logical" name="LMONO"> F  </i>
    <i type="int" name="IDIPOL">     0</i>
    <i name="EPSILON">      1.00000000</i>
    <v name="DIPOL">   -100.00000000   -100.00000000   -100.00000000</v>
    <i name="EFIELD">      0.00000000</i>
   </separator>
  </separator>
  <separator name="grids" >
   <i type="int" name="NGX">    42</i>
   <i type="int" name="NGY">    42</i>
   <i type="int" name="NGZ">   126</i>
   <i type="int" name="NGXF">    84</i>
   <i type="int" name="NGYF">    84</i>
   <i type="int" name="NGZF">   252</i>
   <i type="logical" name="ADDGRID"> F  </i>
  </separator>
  <separator name="ionic" >
   <i type="int" name="NSW">   100</i>
   <i type="int" name="IBRION">     1</i>
   <i type="int" name="ISIF">     3</i>
   <i name="PSTRESS">      0.00000000</i>
   <i name="EDIFFG">      0.00100000</i>
   <i type="int" name="NFREE">     0</i>
   <i name="POTIM">      0.50000000</i>
   <i name="SMASS">     -3.00000000</i>
   <i name="SCALEE">      1.00000000</i>
  </separator>
  <separator name="ionic md" >
   <i name="TEBEG">      0.00010000</i>
   <i name="TEEND">      0.00010000</i>
   <i type="int" name="NBLOCK">     1</i>
   <i type="int" name="KBLOCK">   100</i>
   <i type="int" name="NPACO">   256</i>
   <i name="APACO">     16.00000000</i>
  </separator>
  <separator name="symmetry" >
   <i type="int" name="ISYM">     0</i>
   <i name="SYMPREC">      0.00000001</i>
  </separator>
  <separator name="dos" >
   <i type="logical" name="LORBIT"> F  </i>
   <v name="RWIGS">     -1.00000000     -1.00000000     -1.00000000     -1.00000000</v>
   <i type="int" name="NEDOS">   301</i>
   <i name="EMIN">     10.00000000</i>
   <i name="EMAX">    -10.00000000</i>
   <i name="EFERMI">      0.00000000</i>
  </separator>
  <separator name="writing" >
   <i type="int" name="NWRITE">     2</i>
   <i type="logical" name="LWAVE"> F  </i>
   <i type="logical" name="LCHARG"> F  </i>
   <i type="logical" name="LPARD"> F  </i>
   <i type="logical" name="LVTOT"> F  </i>
   <i type="logical" name="LVHAR"> F  </i>
   <i type="logical" name="LELF"> F  </i>
   <i type="logical" name="LOPTICS"> F  </i>
   <v name="STM">      0.00000000      0.00000000      0.00000000      0.00000000      0.00000000      0.00000000      0.00000000</v>
  </separator>
  <separator name="performance" >
   <i type="int" name="NPAR">    40</i>
   <i type="int" name="NSIM">     4</i>
   <i type="int" name="NBLK">    -1</i>
   <i type="logical" name="LPLANE"> F  </i>
   <i type="logical" name="LSCALAPACK"> T  </i>
   <i type="logical" name="LSCAAWARE"> F  </i>
   <i type="logical" name="LSCALU"> F  </i>
   <i type="logical" name="LASYNC"> F  </i>
   <i type="logical" name="LORBITALREAL"> F  </i>
  </separator>
  <separator name="miscellaneous" >
   <i type="int" name="IDIOT">     3</i>
   <i type="logical" name="LMUSIC"> F  </i>
   <v name="POMASS">     50.94100000     95.94000000    183.85000000     32.06600000</v>
   <v name="DARWINR">      0.00000000      0.00000000      0.00000000      0.00000000</v>
   <v name="DARWINV">      1.00000000      1.00000000      1.00000000      1.00000000</v>
   <i type="logical" name="LCORR"> T  </i>
  </separator>
  <i type="logical" name="GGA_COMPAT"> T  </i>
  <i type="logical" name="LBERRY"> F  </i>
  <i type="int" name="ICORELEVEL">     0</i>
  <i type="logical" name="LDAU"> F  </i>
  <i type="int" name="I_CONSTRAINED_M">     0</i>
  <separator name="electronic exchange-correlation" >
   <i type="string" name="GGA">--</i>
   <i type="int" name="VOSKOWN">     0</i>
   <i type="logical" name="LHFCALC"> F  </i>
   <i type="string" name="PRECFOCK"></i>
   <i type="logical" name="LSYMGRAD"> F  </i>
   <i type="logical" name="LHFONE"> F  </i>
   <i type="logical" name="LRHFCALC"> F  </i>
   <i type="logical" name="LTHOMAS"> F  </i>
   <i type="logical" name="LMODELHF"> F  </i>
   <i name="ENCUT4O">     -1.00000000</i>
   <i type="int" name="EXXOEP">     0</i>
   <i type="int" name="FOURORBIT">     0</i>
   <i name="AEXX">      0.00000000</i>
   <i name="HFALPHA">      0.00000000</i>
   <i name="MCALPHA">      0.00000000</i>
   <i name="ALDAX">      1.00000000</i>
   <i name="AGGAX">      1.00000000</i>
   <i name="ALDAC">      1.00000000</i>
   <i name="AGGAC">      1.00000000</i>
   <i type="int" name="NKREDX">     1</i>
   <i type="int" name="NKREDY">     1</i>
   <i type="int" name="NKREDZ">     1</i>
   <i type="logical" name="SHIFTRED"> F  </i>
   <i type="logical" name="ODDONLY"> F  </i>
   <i type="logical" name="EVENONLY"> F  </i>
   <i type="int" name="LMAXFOCK">     0</i>
   <i type="int" name="NMAXFOCKAE">     0</i>
   <i type="logical" name="LFOCKAEDFT"> F  </i>
   <i name="HFSCREEN">      0.00000000</i>
   <i name="HFSCREENC">      0.00000000</i>
   <i type="int" name="NBANDSGWLOW">     0</i>
  </separator>
  <separator name="vdW DFT" >
   <i type="logical" name="LUSE_VDW"> F  </i>
   <i name="Zab_VDW">     -0.84910000</i>
   <i name="PARAM1">      0.12340000</i>
   <i name="PARAM2">      1.00000000</i>
   <i name="PARAM3">      0.00000000</i>
  </separator>
  <separator name="model GW" >
   <i type="int" name="MODEL_GW">     0</i>
   <i name="MODEL_EPS0">     58.26239943</i>
   <i name="MODEL_ALPHA">      1.00000000</i>
  </separator>
  <separator name="linear response parameters" >
   <i type="logical" name="LEPSILON"> F  </i>
   <i type="logical" name="LRPA"> F  </i>
   <i type="logical" name="LNABLA"> F  </i>
   <i type="logical" name="LVEL"> F  </i>
   <i type="int" name="KINTER">     0</i>
   <i name="CSHIFT">      0.10000000</i>
   <i name="OMEGAMAX">     -1.00000000</i>
   <i name="DEG_THRESHOLD">      0.00200000</i>
  </separator>
  <separator name="orbital magnetization" >
   <i type="logical" name="NUCIND"> F  </i>
   <v name="MAGPOS">      0.00000000      0.00000000      0.00000000</v>
   <i type="logical" name="LNICSALL"> T  </i>
   <i type="logical" name="ORBITALMAG"> F  </i>
   <i type="logical" name="LMAGBLOCH"> F  </i>
   <i type="logical" name="LCHIMAG"> F  </i>
   <i type="logical" name="LGAUGE"> T  </i>
   <i type="int" name="MAGATOM">     0</i>
   <v name="MAGDIPOL">      0.00000000      0.00000000      0.00000000</v>
   <v name="AVECCONST">      0.00000000      0.00000000      0.00000000</v>
  </separator>
  <separator name="response functions" >
   <i type="logical" name="LADDER"> F  </i>
   <i type="logical" name="LFXC"> F  </i>
   <i type="logical" name="LHARTREE"> T  </i>
   <i type="int" name="IBSE">     0</i>
   <v type="int" name="KPOINT">    -1     0     0     0</v>
   <i type="logical" name="LTCTE"> F  </i>
   <i type="logical" name="LTETE"> F  </i>
   <i type="logical" name="LTRIPLET"> F  </i>
   <i type="logical" name="LFXCEPS"> F  </i>
   <i type="logical" name="LFXHEG"> F  </i>
   <i type="int" name="NATURALO">     0</i>
   <i type="logical" name="L2ORDER"> F  </i>
   <i type="logical" name="LUSEW"> F  </i>
   <i name="ENCUTGW">     -2.00000000</i>
   <i name="ENCUTGWSOFT">     -2.00000000</i>
   <i name="ENCUTLF">     -1.00000000</i>
   <i type="int" name="LMAXMP2">    -1</i>
   <i name="SCISSOR">      0.00000000</i>
   <i type="int" name="NOMEGA">     0</i>
   <i type="int" name="NOMEGAR">     0</i>
   <i type="int" name="NBANDSGW">    -1</i>
   <i type="int" name="NBANDSO">    -1</i>
   <i type="int" name="NBANDSV">    -1</i>
   <i type="int" name="NELM">     1</i>
   <i type="int" name="NELMHF">     1</i>
   <i type="int" name="DIM">     3</i>
   <i type="int" name="ANTIRES">     0</i>
   <i name="OMEGAMAX">    -30.00000000</i>
   <i name="OMEGAMIN">    -30.00000000</i>
   <i name="OMEGATL">   -200.00000000</i>
   <i type="int" name="OMEGAGRID">     0</i>
   <i name="CSHIFT">     -0.10000000</i>
   <i type="logical" name="SELFENERGY"> F  </i>
   <i type="logical" name="LSPECTRAL"> F  </i>
   <i type="logical" name="LSPECTRALGW"> F  </i>
   <i type="logical" name="LSINGLES"> F  </i>
   <i type="logical" name="LFERMIGW"> F  </i>
   <i type="logical" name="ODDONLYGW"> F  </i>
   <i type="logical" name="EVENONLYGW"> F  </i>
   <i type="int" name="NKREDLFX">     1</i>
   <i type="int" name="NKREDLFY">     1</i>
   <i type="int" name="NKREDLFZ">     1</i>
   <i type="int" name="MAXMEM">  1800</i>
   <i type="int" name="TELESCOPE">     0</i>
   <i type="int" name="TAUPAR">     1</i>
   <i type="int" name="OMEGAPAR">    -1</i>
   <i name="LAMBDA">      1.00000000</i>
  </separator>
  <separator name="External order field" >
   <i name="OFIELD_KAPPA">      0.00000000</i>
   <v name="OFIELD_K">      0.00000000      0.00000000      0.00000000</v>
   <i name="OFIELD_Q6_NEAR">      0.00000000</i>
   <i name="OFIELD_Q6_FAR">      0.00000000</i>
   <i name="OFIELD_A">      0.00000000</i>
  </separator>
 </parameters>
 <atominfo>
  <atoms>      27 </atoms>
  <types>       4 </types>
  <array name="atoms" >
   <dimension dim="1">ion</dimension>
   <field type="string">element</field>
   <field type="int">atomtype</field>
   <set>
    <rc><c>V </c><c>   1</c></rc>
    <rc><c>V </c><c>   1</c></rc>
    <rc><c>V </c><c>   1</c></rc>
    <rc><c>Mo</c><c>   2</c></rc>
    <rc><c>Mo</c><c>   2</c></rc>
    <rc><c>Mo</c><c>   2</c></rc>
    <rc><c>W </c><c>   3</c></rc>
    <rc><c>W </c><c>   3</c></rc>
    <rc><c>W </c><c>   3</c></rc>
    <rc><c>S </c><c>   4</c></rc>
    <rc><c>S </c><c>   4</c></rc>
    <rc><c>S </c><c>   4</c></rc>
    <rc><c>S </c><c>   4</c></rc>
    <rc><c>S </c><c>   4</c></rc>
    <rc><c>S </c><c>   4</c></rc>
    <rc><c>S </c><c>   4</c></rc>
    <rc><c>S </c><c>   4</c></rc>
    <rc><c>S </c><c>   4</c></rc>
    <rc><c>S </c><c>   4</c></rc>
    <rc><c>S </c><c>   4</c></rc>
    <rc><c>S </c><c>   4</c></rc>
    <rc><c>S </c><c>   4</c></rc>
    <rc><c>S </c><c>   4</c></rc>
    <rc><c>S </c><c>   4</c></rc>
    <rc><c>S </c><c>   4</c></rc>
    <rc><c>S </c><c>   4</c></rc>
    <rc><c>S </c><c>   4</c></rc>
   </set>
  </array>
  <array name="atomtypes" >
   <dimension dim="1">type</dimension>
   <field type="int">atomspertype</field>
   <field type="string">element</field>
   <field>mass</field>
   <field>valence</field>
   <field type="string">pseudopotential</field>
   <set>
    <rc><c>   3</c><c>V </c><c>     50.94100000</c><c>      5.00000000</c><c> PAW_PBE V 08Apr2002                    </c></rc>
    <rc><c>   3</c><c>Mo</c><c>     95.94000000</c><c>      6.00000000</c><c> PAW_PBE Mo 08Apr2002                   </c></rc>
    <rc><c>   3</c><c>W </c><c>    183.85000000</c><c>      6.00000000</c><c> PAW_PBE W 08Apr2002                    </c></rc>
    <rc><c>  18</c><c>S </c><c>     32.06600000</c><c>      6.00000000</c><c>  PAW_PBE S 17Jan2003                   </c></rc>
   </set>
  </array>
 </atominfo>
 <structure name="initialpos" >
  <crystal>
   <varray name="basis" >
    <v>       8.66999996       5.03999989       0.00000000 </v>
    <v>      -8.66999982       5.04000013       0.00000000 </v>
    <v>       0.00000000       0.00000000      30.00000000 </v>
   </varray>
   <i name="volume">   2621.80797419 </i>
   <varray name="rec_basis" >
    <v>       0.05767013       0.09920635       0.00000000 </v>
    <v>      -0.05767013       0.09920635       0.00000000 </v>
    <v>       0.00000000       0.00000000       0.03333333 </v>
   </varray>
  </crystal>
  <varray name="positions" >
   <v>       0.33333334       0.00000000       0.00000000 </v>
   <v>       1.00000000       0.33333334       0.00000000 </v>
   <v>       0.33333334       0.33333334       0.00000000 </v>
   <v>       0.66666669       0.33333334       0.00000000 </v>
   <v>       0.66666669       0.66666669       0.00000000 </v>
   <v>       0.33333334       0.66666669       0.00000000 </v>
   <v>       0.00000000       0.00000000       0.00000000 </v>
   <v>       0.00000000       0.66666669       0.00000000 </v>
   <v>       0.66666669       0.00000000       0.00000000 </v>
   <v>       0.11068511       0.22244981       0.95539999 </v>
   <v>       0.22244981       0.11068511       0.04460000 </v>
   <v>       0.11068511       0.55578315       0.95539999 </v>
   <v>       0.22244981       0.44401845       0.04460000 </v>
   <v>       0.11068511       0.88911647       0.95539999 </v>
   <v>       0.22244981       0.77735180       0.04460000 </v>
   <v>       0.44401845       0.22244981       0.95539999 </v>
   <v>       0.55578315       0.11068511       0.04460000 </v>
   <v>       0.44401845       0.55578315       0.95539999 </v>
   <v>       0.55578315       0.44401845       0.04460000 </v>
   <v>       0.44401845       0.88911647       0.95539999 </v>
   <v>       0.55578315       0.77735180       0.04460000 </v>
   <v>       0.77735180       0.22244981       0.95539999 </v>
   <v>       0.88911647       0.11068511       0.04460000 </v>
   <v>       0.77735180       0.55578315       0.95539999 </v>
   <v>       0.88911647       0.44401845       0.04460000 </v>
   <v>       0.77735180       0.88911647       0.95539999 </v>
   <v>       0.88911647       0.77735180       0.04460000 </v>
  </varray>
 </structure>
 <calculation>
  <scstep>
   <time name="dav">   32.42   32.50</time>
   <time name="total">   32.48   32.56</time>
   <energy>
    <i name="alphaZ">     81.65567618 </i>
    <i name="ewald">  41890.25211673 </i>
    <i name="hartreedc"> -47722.88707201 </i>
    <i name="XCdc">   -242.92852144 </i>
    <i name="pawpsdc">   3467.42045192 </i>
    <i name="pawaedc">  -2871.19716117 </i>
    <i name="eentropy">     -0.52528258 </i>
    <i name="bandstr">   -239.35892078 </i>
    <i name="atom">   6761.44252427 </i>
    <i name="e_fr_energy">   1123.87381111 </i>
    <i name="e_wo_entrp">   1124.39909369 </i>
    <i name="e_0_energy">   1124.13645240 </i>
   </energy>
  </scstep>
  <scstep>
   <time name="dav">   41.12   41.22</time>
   <time name="total">   41.12   41.23</time>
   <energy>
    <i name="e_fr_energy">      1.63314842 </i>
    <i name="e_wo_entrp">      1.82234379 </i>
    <i name="e_0_energy">      1.72774610 </i>
   </energy>
  </scstep>
  <scstep>
   <time name="dav">   40.79   40.89</time>
   <time name="total">   40.79   40.90</time>
   <energy>
    <i name="e_fr_energy">   -199.67961525 </i>
    <i name="e_wo_entrp">   -199.40973168 </i>
    <i name="e_0_energy">   -199.54467346 </i>
   </energy>
  </scstep>
  <scstep>
   <time name="dav">   43.13   43.24</time>
   <time name="total">   43.13   43.25</time>
   <energy>
    <i name="e_fr_energy">   -208.92673619 </i>
    <i name="e_wo_entrp">   -208.61717351 </i>
    <i name="e_0_energy">   -208.77195485 </i>
   </energy>
  </scstep>
  <scstep>
   <time name="dav">   42.46   42.57</time>
   <time name="total">   43.09   43.20</time>
   <energy>
    <i name="e_fr_energy">   -209.30219400 </i>
    <i name="e_wo_entrp">   -208.99587244 </i>
    <i name="e_0_energy">   -209.14903322 </i>
   </energy>
  </scstep>
  <scstep>
   <time name="dav">   46.94   47.06</time>
   <time name="total">   47.61   47.73</time>
   <energy>
    <i name="e_fr_energy">   -236.70859201 </i>
    <i name="e_wo_entrp">   -236.42599848 </i>
    <i name="e_0_energy">   -236.56729525 </i>
   </energy>
  </scstep>
  <scstep>
   <time name="dav">   46.48   46.59</time>
   <time name="total">   47.15   47.28</time>
   <energy>
    <i name="e_fr_energy">   -196.69834022 </i>
    <i name="e_wo_entrp">   -196.37672185 </i>
    <i name="e_0_energy">   -196.53753104 </i>
   </energy>
  </scstep>
  <scstep>
   <time name="dav">   43.06   43.17</time>
   <time name="total">   43.74   43.86</time>
   <energy>
    <i name="e_fr_energy">   -189.93307406 </i>
    <i name="e_wo_entrp">   -189.65654674 </i>
    <i name="e_0_energy">   -189.79481040 </i>
   </energy>
  </scstep>
  <scstep>
   <time name="dav">   43.71   43.81</time>
   <time name="total">   44.40   44.51</time>
   <energy>
    <i name="e_fr_energy">   -188.23640931 </i>
    <i name="e_wo_entrp">   -187.90574204 </i>
    <i name="e_0_energy">   -188.07107568 </i>
   </energy>
  </scstep>
  <scstep>
   <time name="dav">   47.64   47.76</time>
   <time name="total">   48.34   48.46</time>
   <energy>
    <i name="e_fr_energy">   -187.04979942 </i>
    <i name="e_wo_entrp">   -186.70754892 </i>
    <i name="e_0_energy">   -186.87867417 </i>
   </energy>
  </scstep>
  <scstep>
   <time name="dav">   48.53   48.64</time>
   <time name="total">   49.23   49.37</time>
   <energy>
    <i name="e_fr_energy">   -187.02670545 </i>
    <i name="e_wo_entrp">   -186.67458121 </i>
    <i name="e_0_energy">   -186.85064333 </i>
   </energy>
  </scstep>
  <scstep>
   <time name="dav">   47.07   47.19</time>
   <time name="total">   47.77   47.89</time>
   <energy>
    <i name="e_fr_energy">   -187.17333304 </i>
    <i name="e_wo_entrp">   -186.83932968 </i>
    <i name="e_0_energy">   -187.00633136 </i>
   </energy>
  </scstep>
  <scstep>
   <time name="dav">   46.25   46.36</time>
   <time name="total">   46.95   47.07</time>
   <energy>
    <i name="e_fr_energy">   -186.92193796 </i>
    <i name="e_wo_entrp">   -186.58850516 </i>
    <i name="e_0_energy">   -186.75522156 </i>
   </energy>
  </scstep>
  <scstep>
   <time name="dav">   47.93   48.05</time>
   <time name="total">   48.63   48.75</time>
   <energy>
    <i name="e_fr_energy">   -186.87561639 </i>
    <i name="e_wo_entrp">   -186.52957333 </i>
    <i name="e_0_energy">   -186.70259486 </i>
   </energy>
  </scstep>
  <scstep>
   <time name="dav">   47.24   47.35</time>
   <time name="total">   47.94   48.06</time>
   <energy>
    <i name="e_fr_energy">   -186.86914344 </i>
    <i name="e_wo_entrp">   -186.52492505 </i>
    <i name="e_0_energy">   -186.69703425 </i>
   </energy>
  </scstep>
  <scstep>
   <time name="dav">   48.13   48.25</time>
   <time name="total">   48.82   48.95</time>
   <energy>
    <i name="e_fr_energy">   -186.86950635 </i>
    <i name="e_wo_entrp">   -186.52645978 </i>
    <i name="e_0_energy">   -186.69798306 </i>
   </energy>
  </scstep>
  <scstep>
   <time name="dav">   44.73   44.83</time>
   <time name="total">   45.43   45.55</time>
   <energy>
    <i name="e_fr_energy">   -186.86841516 </i>
    <i name="e_wo_entrp">   -186.52546157 </i>
    <i name="e_0_energy">   -186.69693837 </i>
   </energy>
  </scstep>
  <scstep>
   <time name="dav">   42.96   43.06</time>
   <time name="total">   43.65   43.77</time>
   <energy>
    <i name="e_fr_energy">   -186.86768939 </i>
    <i name="e_wo_entrp">   -186.52439749 </i>
    <i name="e_0_energy">   -186.69604344 </i>
   </energy>
  </scstep>
  <scstep>
   <time name="dav">   36.42   36.50</time>
   <time name="total">   37.12   37.22</time>
   <energy>
    <i name="e_fr_energy">   -186.86832231 </i>
    <i name="e_wo_entrp">   -186.52521057 </i>
    <i name="e_0_energy">   -186.69676644 </i>
   </energy>
  </scstep>
  <scstep>
   <time name="dav">   32.39   32.47</time>
   <time name="total">   33.09   33.18</time>
   <energy>
    <i name="e_fr_energy">   -186.86892360 </i>
    <i name="e_wo_entrp">   -186.52577456 </i>
    <i name="e_0_energy">   -186.69734908 </i>
   </energy>
  </scstep>
  <scstep>
   <time name="dav">   31.11   31.18</time>
   <time name="total">   31.81   31.89</time>
   <energy>
    <i name="e_fr_energy">   -186.86980748 </i>
    <i name="e_wo_entrp">   -186.52661160 </i>
    <i name="e_0_energy">   -186.69820954 </i>
   </energy>
  </scstep>
  <scstep>
   <time name="dav">   31.00   31.07</time>
   <time name="total">   31.70   31.79</time>
   <energy>
    <i name="e_fr_energy">   -186.87121334 </i>
    <i name="e_wo_entrp">   -186.52817902 </i>
    <i name="e_0_energy">   -186.69969618 </i>
   </energy>
  </scstep>
  <scstep>
   <time name="dav">   28.12   28.19</time>
   <time name="total">   28.84   28.92</time>
   <energy>
    <i name="e_fr_energy">   -186.87190298 </i>
    <i name="e_wo_entrp">   -186.52879239 </i>
    <i name="e_0_energy">   -186.70034768 </i>
   </energy>
  </scstep>
  <scstep>
   <time name="dav">   23.85   23.90</time>
   <time name="total">   24.60   24.67</time>
   <energy>
    <i name="e_fr_energy">   -186.87233554 </i>
    <i name="e_wo_entrp">   -186.52920211 </i>
    <i name="e_0_energy">   -186.70076882 </i>
   </energy>
  </scstep>
  <scstep>
   <time name="dav">   27.20   27.26</time>
   <time name="total">   27.92   28.00</time>
   <energy>
    <i name="e_fr_energy">   -186.87257821 </i>
    <i name="e_wo_entrp">   -186.52945397 </i>
    <i name="e_0_energy">   -186.70101609 </i>
   </energy>
  </scstep>
  <scstep>
   <time name="dav">   27.18   27.24</time>
   <time name="total">   27.89   27.97</time>
   <energy>
    <i name="e_fr_energy">   -186.87268984 </i>
    <i name="e_wo_entrp">   -186.52956947 </i>
    <i name="e_0_energy">   -186.70112965 </i>
   </energy>
  </scstep>
  <scstep>
   <time name="dav">   26.75   26.81</time>
   <time name="total">   26.80   26.87</time>
   <energy>
    <i name="alphaZ">     81.65567618 </i>
    <i name="ewald">  41890.25211673 </i>
    <i name="hartreedc"> -47833.00787160 </i>
    <i name="XCdc">   -231.60478286 </i>
    <i name="pawpsdc">   4192.10979648 </i>
    <i name="pawaedc">  -3610.12254741 </i>
    <i name="eentropy">     -0.34312394 </i>
    <i name="bandstr">  -1437.25456968 </i>
    <i name="atom">   6761.44252427 </i>
    <i name="e_fr_energy">   -186.87278183 </i>
    <i name="e_wo_entrp">   -186.52965789 </i>
    <i name="e_0_energy">   -186.70121986 </i>
   </energy>
  </scstep>
  <structure>
   <crystal>
    <varray name="basis" >
     <v>       8.66999996       5.03999989       0.00000000 </v>
     <v>      -8.66999982       5.04000013       0.00000000 </v>
     <v>       0.00000000       0.00000000      30.00000000 </v>
    </varray>
    <i name="volume">   2621.80797419 </i>
    <varray name="rec_basis" >
     <v>       0.05767013       0.09920635       0.00000000 </v>
     <v>      -0.05767013       0.09920635       0.00000000 </v>
     <v>       0.00000000       0.00000000       0.03333333 </v>
    </varray>
   </crystal>
   <varray name="positions" >
    <v>       0.33333334       0.00000000       0.00000000 </v>
    <v>       1.00000000       0.33333334       0.00000000 </v>
    <v>       0.33333334       0.33333334       0.00000000 </v>
    <v>       0.66666669       0.33333334       0.00000000 </v>
    <v>       0.66666669       0.66666669       0.00000000 </v>
    <v>       0.33333334       0.66666669       0.00000000 </v>
    <v>       0.00000000       0.00000000       0.00000000 </v>
    <v>       0.00000000       0.66666669       0.00000000 </v>
    <v>       0.66666669       0.00000000       0.00000000 </v>
    <v>       0.11068511       0.22244981       0.95539999 </v>
    <v>       0.22244981       0.11068511       0.04460000 </v>
    <v>       0.11068511       0.55578315       0.95539999 </v>
    <v>       0.22244981       0.44401845       0.04460000 </v>
    <v>       0.11068511       0.88911647       0.95539999 </v>
    <v>       0.22244981       0.77735180       0.04460000 </v>
    <v>       0.44401845       0.22244981       0.95539999 </v>
    <v>       0.55578315       0.11068511       0.04460000 </v>
    <v>       0.44401845       0.55578315       0.95539999 </v>
    <v>       0.55578315       0.44401845       0.04460000 </v>
    <v>       0.44401845       0.88911647       0.95539999 </v>
    <v>       0.55578315       0.77735180       0.04460000 </v>
    <v>       0.77735180       0.22244981       0.95539999 </v>
    <v>       0.88911647       0.11068511       0.04460000 </v>
    <v>       0.77735180       0.55578315       0.95539999 </v>
    <v>       0.88911647       0.44401845       0.04460000 </v>
    <v>       0.77735180       0.88911647       0.95539999 </v>
    <v>       0.88911647       0.77735180       0.04460000 </v>
   </varray>
  </structure>
  <varray name="forces" >
   <v>       0.12980169       0.15117450      -0.08910730 </v>
   <v>      -0.12979563       0.15119743       0.08908934 </v>
   <v>       0.00001943       0.39556181      -0.00000570 </v>
   <v>      -0.29378524       0.10166877      -0.06089954 </v>
   <v>       0.00000668      -0.28835428      -0.00000166 </v>
   <v>       0.29375826       0.10168382       0.06088507 </v>
   <v>       0.00003449      -0.14520151      -0.00000273 </v>
   <v>       0.05182122      -0.30808915       0.14471745 </v>
   <v>      -0.05184775      -0.30813156      -0.14472428 </v>
   <v>      -0.23760802       0.51778687      -1.39480448 </v>
   <v>       0.23763350       0.51776398       1.39479490 </v>
   <v>       0.37866058      -0.68084358      -2.14502739 </v>
   <v>       0.30905434      -0.67578071       1.42695591 </v>
   <v>       0.46909276       0.61207776      -2.17622274 </v>
   <v>      -0.61709102       0.53627049       2.10248799 </v>
   <v>      -0.30903169      -0.67576606      -1.42692925 </v>
   <v>      -0.37870341      -0.68084995       2.14502633 </v>
   <v>       0.52443044      -0.68844154      -2.17871616 </v>
   <v>      -0.52440742      -0.68844336       2.17870007 </v>
   <v>      -0.68232269       0.18053729      -2.15921013 </v>
   <v>      -0.18550429       0.14904252       2.89189680 </v>
   <v>       0.61702836       0.53628132      -2.10250813 </v>
   <v>      -0.46905331       0.61207780       2.17627010 </v>
   <v>       0.18553403       0.14905420      -2.89185072 </v>
   <v>       0.68225043       0.18054755       2.15918761 </v>
   <v>       0.03889717       0.12358636      -2.91037870 </v>
   <v>      -0.03887290       0.12358922       2.91037735 </v>
  </varray>
  <varray name="stress" >
   <v>       7.30058288      -0.00003286      -1.60718257 </v>
   <v>      -0.00003303       4.46128183       0.00000461 </v>
   <v>      -1.60718247       0.00000463      30.29114207 </v>
  </varray>
  <energy>
   <i name="e_fr_energy">   -186.87278183 </i>
   <i name="e_wo_entrp">   -186.70121986 </i>
   <i name="e_0_energy">     -0.34312394 </i>
  </energy>
  <time name="totalsc"> 1140.03 1143.06</time>
 </calculation>
 <calculation>
  <scstep>
   <time name="dav">   31.27   31.35</time>
   <time name="total">   32.00   32.08</time>
   <energy>
    <i name="alphaZ">     78.91964432 </i>
    <i name="ewald">  39379.30304458 </i>
    <i name="hartreedc"> -45336.77683496 </i>
    <i name="XCdc">   -239.06162296 </i>
    <i name="pawpsdc">   4192.09614642 </i>
    <i name="pawaedc">  -3610.10925053 </i>
    <i name="eentropy">     -0.28493009 </i>
    <i name="bandstr">  -1413.02229721 </i>
    <i name="atom">   6761.44252427 </i>
    <i name="e_fr_energy">   -187.49357617 </i>
    <i name="e_wo_entrp">   -187.20864607 </i>
    <i name="e_0_energy">   -187.35111112 </i>
   </energy>
  </scstep>
  <scstep>
   <time name="dav">   42.86   42.96</time>
   <time name="total">   43.57   43.69</time>
   <energy>
    <i name="e_fr_energy">   -189.30215921 </i>
    <i name="e_wo_entrp">   -188.98009002 </i>
    <i name="e_0_energy">   -189.14112462 </i>
   </energy>
  </scstep>
  <scstep>
   <time name="dav">   43.00   43.10</time>
   <time name="total">   43.73   43.84</time>
   <energy>
    <i name="e_fr_energy">   -189.41360851 </i>
    <i name="e_wo_entrp">   -189.13639502 </i>
    <i name="e_0_energy">   -189.27500177 </i>
   </energy>
  </scstep>
  <scstep>
   <time name="dav">   42.42   42.52</time>
   <time name="total">   43.15   43.26</time>
   <energy>
    <i name="e_fr_energy">   -188.76203355 </i>
    <i name="e_wo_entrp">   -188.47857977 </i>
    <i name="e_0_energy">   -188.62030666 </i>
   </energy>
  </scstep>
  <scstep>
   <time name="dav">   39.83   39.93</time>
   <time name="total">   40.56   40.66</time>
   <energy>
    <i name="e_fr_energy">   -188.87635513 </i>
    <i name="e_wo_entrp">   -188.58439032 </i>
    <i name="e_0_energy">   -188.73037273 </i>
   </energy>
  </scstep>
  <scstep>
   <time name="dav">   43.98   44.08</time>
   <time name="total">   44.71   44.83</time>
   <energy>
    <i name="e_fr_energy">   -188.74462329 </i>
    <i name="e_wo_entrp">   -188.45921669 </i>
    <i name="e_0_energy">   -188.60191999 </i>
   </energy>
  </scstep>
  <scstep>
   <time name="dav">   40.37   40.46</time>
   <time name="total">   41.10   41.21</time>
   <energy>
    <i name="e_fr_energy">   -188.68152997 </i>
    <i name="e_wo_entrp">   -188.39721276 </i>
    <i name="e_0_energy">   -188.53937137 </i>
   </energy>
  </scstep>
  <scstep>
   <time name="dav">   40.38   40.48</time>
   <time name="total">   41.11   41.22</time>
   <energy>
    <i name="e_fr_energy">   -188.66569582 </i>
    <i name="e_wo_entrp">   -188.38239497 </i>
    <i name="e_0_energy">   -188.52404539 </i>
   </energy>
  </scstep>
  <scstep>
   <time name="dav">   42.75   42.85</time>
   <time name="total">   43.48   43.59</time>
   <energy>
    <i name="e_fr_energy">   -188.66087208 </i>
    <i name="e_wo_entrp">   -188.37813753 </i>
    <i name="e_0_energy">   -188.51950480 </i>
   </energy>
  </scstep>
  <scstep>
   <time name="dav">   44.50   44.61</time>
   <time name="total">   45.23   45.35</time>
   <energy>
    <i name="e_fr_energy">   -188.66018541 </i>
    <i name="e_wo_entrp">   -188.37763305 </i>
    <i name="e_0_energy">   -188.51890923 </i>
   </energy>
  </scstep>
  <scstep>
   <time name="dav">   44.74   44.85</time>
   <time name="total">   45.48   45.60</time>
   <energy>
    <i name="e_fr_energy">   -188.66009468 </i>
    <i name="e_wo_entrp">   -188.37832314 </i>
    <i name="e_0_energy">   -188.51920891 </i>
   </energy>
  </scstep>
  <scstep>
   <time name="dav">   40.28   40.38</time>
   <time name="total">   41.01   41.12</time>
   <energy>
    <i name="e_fr_energy">   -188.66015948 </i>
    <i name="e_wo_entrp">   -188.37838991 </i>
    <i name="e_0_energy">   -188.51927470 </i>
   </energy>
  </scstep>
  <scstep>
   <time name="dav">   33.24   33.32</time>
   <time name="total">   33.98   34.08</time>
   <energy>
    <i name="e_fr_energy">   -188.65998812 </i>
    <i name="e_wo_entrp">   -188.37793191 </i>
    <i name="e_0_energy">   -188.51896001 </i>
   </energy>
  </scstep>
  <scstep>
   <time name="dav">   28.82   28.89</time>
   <time name="total">   29.55   29.63</time>
   <energy>
    <i name="e_fr_energy">   -188.66011147 </i>
    <i name="e_wo_entrp">   -188.37805761 </i>
    <i name="e_0_energy">   -188.51908454 </i>
   </energy>
  </scstep>
  <scstep>
   <time name="dav">   28.87   28.94</time>
   <time name="total">   28.92   29.00</time>
   <energy>
    <i name="alphaZ">     78.91964432 </i>
    <i name="ewald">  39379.30304458 </i>
    <i name="hartreedc"> -45347.09964329 </i>
    <i name="XCdc">   -237.98096792 </i>
    <i name="pawpsdc">   3949.13123616 </i>
    <i name="pawaedc">  -3363.62937877 </i>
    <i name="eentropy">     -0.28210144 </i>
    <i name="bandstr">  -1408.46456125 </i>
    <i name="atom">   6761.44252427 </i>
    <i name="e_fr_energy">   -188.66020334 </i>
    <i name="e_wo_entrp">   -188.37810190 </i>
    <i name="e_0_energy">   -188.51915262 </i>
   </energy>
  </scstep>
  <structure>
   <crystal>
    <varray name="basis" >
     <v>       8.85506877       5.10574182       0.00000000 </v>
     <v>      -8.85506960       5.10574373       0.00000000 </v>
     <v>       0.00000000       0.00000000      30.00000000 </v>
    </varray>
    <i name="volume">   2712.70232895 </i>
    <varray name="rec_basis" >
     <v>       0.05646484       0.09792895       0.00000000 </v>
     <v>      -0.05646482       0.09792894       0.00000000 </v>
     <v>       0.00000000       0.00000000       0.03333333 </v>
    </varray>
   </crystal>
   <varray name="positions" >
    <v>       0.33441799       0.00036239      -0.00014329 </v>
    <v>       1.00036252       0.33441808       0.00014326 </v>
    <v>       0.33522655       0.33522644      -0.00000001 </v>
    <v>       0.66633591       0.33463729      -0.00009793 </v>
    <v>       0.66528665       0.66528661      -0.00000000 </v>
    <v>       0.33463728       0.66633606       0.00009791 </v>
    <v>      -0.00069484      -0.00069503      -0.00000000 </v>
    <v>      -0.00133033       0.66504800       0.00023272 </v>
    <v>       0.66504773      -0.00133046      -0.00023273 </v>
    <v>       0.11250216       0.22558899       0.95315702 </v>
    <v>       0.22558895       0.11250198       0.04684295 </v>
    <v>       0.10848010       0.55147116       0.95195060 </v>
    <v>       0.22007538       0.43992434       0.04689467 </v>
    <v>       0.11491959       0.89074077       0.95190043 </v>
    <v>       0.22329954       0.78163522       0.04798099 </v>
    <v>       0.43992448       0.22007538       0.95310536 </v>
    <v>       0.55147101       0.10848019       0.04804939 </v>
    <v>       0.44218264       0.55102924       0.95189642 </v>
    <v>       0.55102929       0.44218256       0.04810354 </v>
    <v>       0.44298417       0.89187884       0.95192779 </v>
    <v>       0.55598036       0.77858121       0.04925042 </v>
    <v>       0.78163510       0.22329977       0.95201897 </v>
    <v>       0.89074088       0.11491948       0.04809963 </v>
    <v>       0.77858135       0.55598034       0.95074964 </v>
    <v>       0.89187869       0.44298442       0.04807216 </v>
    <v>       0.77805150       0.88959973       0.95071984 </v>
    <v>       0.88959981       0.77805144       0.04928014 </v>
   </varray>
  </structure>
  <varray name="forces" >
   <v>       0.17136324       0.12778790       0.04639750 </v>
   <v>      -0.17152291       0.12742771      -0.04642035 </v>
   <v>       0.00018738       0.38633912      -0.00004028 </v>
   <v>      -0.25023663       0.29175650      -0.07350934 </v>
   <v>       0.00042749      -0.08714377      -0.00001273 </v>
   <v>       0.25017884       0.29142020       0.07356007 </v>
   <v>      -0.00000932      -0.35968194      -0.00007035 </v>
   <v>      -0.09418771      -0.35211667       0.04153236 </v>
   <v>       0.09389414      -0.35153749      -0.04150155 </v>
   <v>       0.06532939      -0.07440105       0.22057507 </v>
   <v>      -0.06595451      -0.07431320      -0.22003867 </v>
   <v>      -0.09598523      -0.04586194       0.08936245 </v>
   <v>       0.02589513      -0.04019413      -0.03005400 </v>
   <v>      -0.04189768      -0.05140981       0.13654796 </v>
   <v>      -0.08622859      -0.04775236      -0.12593604 </v>
   <v>      -0.02603720      -0.03972167       0.02963404 </v>
   <v>       0.09616410      -0.04530707      -0.08919332 </v>
   <v>       0.03406206      -0.09214938      -0.15475902 </v>
   <v>      -0.03401231      -0.09209086       0.15483579 </v>
   <v>       0.01135695       0.10613430      -0.12094826 </v>
   <v>      -0.04880023       0.12367175       0.13933785 </v>
   <v>       0.08635475      -0.04728154       0.12620384 </v>
   <v>       0.04176342      -0.05086145      -0.13680837 </v>
   <v>       0.04888240       0.12356639      -0.13936276 </v>
   <v>      -0.01098837       0.10604550       0.12061305 </v>
   <v>      -0.07387493       0.08383895      -0.04439709 </v>
   <v>       0.07387632       0.08383603       0.04445215 </v>
  </varray>
  <varray name="stress" >
   <v>     -19.83903601       0.00069249      -0.01589412 </v>
   <v>       0.00069246     -19.44093092       0.00009572 </v>
   <v>      -0.01589423       0.00009582      -1.64180185 </v>
  </varray>
  <energy>
   <i name="e_fr_energy">   -188.66020334 </i>
   <i name="e_wo_entrp">   -188.51915262 </i>
   <i name="e_0_energy">     -0.28210144 </i>
  </energy>
  <time name="totalsc">  657.33  659.07</time>
 </calculation>
 <calculation>
  <scstep>
   <time name="dav">   34.08   34.16</time>
   <time name="total">   34.80   34.89</time>
   <energy>
    <i name="alphaZ">     82.33979229 </i>
    <i name="ewald">  41299.63846038 </i>
    <i name="hartreedc"> -47298.05977545 </i>
    <i name="XCdc">   -233.86394838 </i>
    <i name="pawpsdc">   3949.16044200 </i>
    <i name="pawaedc">  -3363.65953123 </i>
    <i name="eentropy">     -0.23576506 </i>
    <i name="bandstr">  -1387.33527102 </i>
    <i name="atom">   6761.44252427 </i>
    <i name="e_fr_energy">   -190.57307222 </i>
    <i name="e_wo_entrp">   -190.33730715 </i>
    <i name="e_0_energy">   -190.45518968 </i>
   </energy>
  </scstep>
  <scstep>
   <time name="dav">   40.93   41.03</time>
   <time name="total">   41.64   41.75</time>
   <energy>
    <i name="e_fr_energy">   -190.56963881 </i>
    <i name="e_wo_entrp">   -190.33123415 </i>
    <i name="e_0_energy">   -190.45043648 </i>
   </energy>
  </scstep>
  <scstep>
   <time name="dav">   42.79   42.89</time>
   <time name="total">   43.51   43.62</time>
   <energy>
    <i name="e_fr_energy">   -190.05009010 </i>
    <i name="e_wo_entrp">   -189.80011187 </i>
    <i name="e_0_energy">   -189.92510098 </i>
   </energy>
  </scstep>
  <scstep>
   <time name="dav">   44.09   44.19</time>
   <time name="total">   44.81   44.92</time>
   <energy>
    <i name="e_fr_energy">   -189.85319695 </i>
    <i name="e_wo_entrp">   -189.61736009 </i>
    <i name="e_0_energy">   -189.73527852 </i>
   </energy>
  </scstep>
  <scstep>
   <time name="dav">   43.14   43.24</time>
   <time name="total">   43.85   43.97</time>
   <energy>
    <i name="e_fr_energy">   -189.89984836 </i>
    <i name="e_wo_entrp">   -189.65469267 </i>
    <i name="e_0_energy">   -189.77727051 </i>
   </energy>
  </scstep>
  <scstep>
   <time name="dav">   42.65   42.76</time>
   <time name="total">   43.37   43.48</time>
   <energy>
    <i name="e_fr_energy">   -189.74611961 </i>
    <i name="e_wo_entrp">   -189.50784653 </i>
    <i name="e_0_energy">   -189.62698307 </i>
   </energy>
  </scstep>
  <scstep>
   <time name="dav">   41.27   41.37</time>
   <time name="total">   41.99   42.10</time>
   <energy>
    <i name="e_fr_energy">   -189.74024141 </i>
    <i name="e_wo_entrp">   -189.50228465 </i>
    <i name="e_0_energy">   -189.62126303 </i>
   </energy>
  </scstep>
  <scstep>
   <time name="dav">   36.72   36.81</time>
   <time name="total">   37.43   37.53</time>
   <energy>
    <i name="e_fr_energy">   -189.74024577 </i>
    <i name="e_wo_entrp">   -189.50229860 </i>
    <i name="e_0_energy">   -189.62127218 </i>
   </energy>
  </scstep>
  <scstep>
   <time name="dav">   38.27   38.36</time>
   <time name="total">   38.32   38.42</time>
   <energy>
    <i name="alphaZ">     82.33979229 </i>
    <i name="ewald">  41299.63846038 </i>
    <i name="hartreedc"> -47270.66420332 </i>
    <i name="XCdc">   -235.25638878 </i>
    <i name="pawpsdc">   4029.93220925 </i>
    <i name="pawaedc">  -3445.55246098 </i>
    <i name="eentropy">     -0.23808978 </i>
    <i name="bandstr">  -1411.38218028 </i>
    <i name="atom">   6761.44252427 </i>
    <i name="e_fr_energy">   -189.74033695 </i>
    <i name="e_wo_entrp">   -189.50224716 </i>
    <i name="e_0_energy">   -189.62129206 </i>
   </energy>
  </scstep>
  <structure>
   <crystal>
    <varray name="basis" >
     <v>       8.66733213       4.99967138       0.00000000 </v>
     <v>      -8.66732539       4.99966014       0.00000000 </v>
     <v>       0.00000000       0.00000000      30.00000000 </v>
    </varray>
    <i name="volume">   2600.02481170 </i>
    <varray name="rec_basis" >
     <v>       0.05768784       0.10000665       0.00000000 </v>
     <v>      -0.05768797       0.10000672       0.00000000 </v>
     <v>       0.00000000       0.00000000       0.03333333 </v>
    </varray>
   </crystal>
   <varray name="positions" >
    <v>       0.33479615       0.00041076      -0.00011694 </v>
    <v>       1.00041013       0.33479580       0.00011689 </v>
    <v>       0.33587149       0.33587102      -0.00000003 </v>
    <v>       0.66658203       0.33536499      -0.00013969 </v>
    <v>       0.66514163       0.66514077      -0.00000001 </v>
    <v>       0.33536437       0.66658167       0.00013970 </v>
    <v>      -0.00129511      -0.00129529      -0.00000004 </v>
    <v>      -0.00200861       0.66455099       0.00025631 </v>
    <v>       0.66455140      -0.00200749      -0.00025630 </v>
    <v>       0.11244086       0.22540196       0.95328232 </v>
    <v>       0.22540146       0.11244143       0.04671796 </v>
    <v>       0.10831120       0.55148698       0.95200136 </v>
    <v>       0.22003322       0.43983235       0.04687760 </v>
    <v>       0.11479348       0.89069528       0.95197800 </v>
    <v>       0.22313687       0.78163850       0.04790945 </v>
    <v>       0.43983313       0.22003415       0.95312220 </v>
    <v>       0.55148793       0.10831204       0.04799872 </v>
    <v>       0.44206163       0.55084267       0.95180851 </v>
    <v>       0.55084287       0.44206160       0.04819150 </v>
    <v>       0.44317223       0.89204504       0.95185908 </v>
    <v>       0.55613980       0.77883457       0.04932958 </v>
    <v>       0.78163929       0.22313776       0.95209066 </v>
    <v>       0.89069618       0.11479441       0.04802192 </v>
    <v>       0.77883461       0.55613952       0.95067047 </v>
    <v>       0.89204510       0.44317197       0.04814068 </v>
    <v>       0.77812033       0.88981074       0.95069462 </v>
    <v>       0.88981081       0.77812027       0.04930539 </v>
   </varray>
  </structure>
  <varray name="forces" >
   <v>       0.21172969       0.10272056       0.06741343 </v>
   <v>      -0.21100854       0.10426340      -0.06740472 </v>
   <v>      -0.00100763       0.38267506       0.00001796 </v>
   <v>      -0.21929948       0.35396704      -0.05186936 </v>
   <v>      -0.00085723      -0.01108678      -0.00000682 </v>
   <v>       0.21989897       0.35428787       0.05169950 </v>
   <v>       0.00006331      -0.43284486       0.00015154 </v>
   <v>      -0.14723103      -0.37038919       0.00252392 </v>
   <v>       0.14815479      -0.37194850      -0.00256643 </v>
   <v>      -0.00025688       0.05512438      -0.22177727 </v>
   <v>       0.00027324       0.05513861       0.22153789 </v>
   <v>       0.01858698      -0.08149339      -0.38369263 </v>
   <v>       0.06750065      -0.09503855       0.41733725 </v>
   <v>       0.04046835       0.05496321      -0.35710748 </v>
   <v>      -0.07719488       0.07162700       0.35034242 </v>
   <v>      -0.06792609      -0.09563806      -0.41724305 </v>
   <v>      -0.01823622      -0.08198876       0.38382237 </v>
   <v>       0.06741399      -0.15318980      -0.64997946 </v>
   <v>      -0.06825274      -0.15313287       0.65029524 </v>
   <v>      -0.09530197       0.01859739      -0.64132865 </v>
   <v>      -0.00697955       0.06369755       0.69392441 </v>
   <v>       0.07781161       0.07158898      -0.35017907 </v>
   <v>      -0.04051840       0.05493432       0.35688332 </v>
   <v>       0.00656530       0.06434851      -0.69401117 </v>
   <v>       0.09555834       0.01910752       0.64144589 </v>
   <v>      -0.03540608       0.00985201      -0.61205449 </v>
   <v>       0.03545151       0.00985736       0.61182546 </v>
  </varray>
  <varray name="stress" >
   <v>     -10.22589933      -0.00183013      -0.02623226 </v>
   <v>      -0.00183024      -9.89421416      -0.00019892 </v>
   <v>      -0.02623203      -0.00019880       6.57684552 </v>
  </varray>
  <energy>
   <i name="e_fr_energy">   -189.74033695 </i>
   <i name="e_wo_entrp">   -189.62129206 </i>
   <i name="e_0_energy">     -0.23808978 </i>
  </energy>
  <time name="totalsc">  429.92  431.04</time>
 </calculation>
 <calculation>
  <scstep>
   <time name="dav">   31.17   31.24</time>
   <time name="total">   31.88   31.95</time>
   <energy>
    <i name="alphaZ">     85.87319332 </i>
    <i name="ewald">  42858.69521336 </i>
    <i name="hartreedc"> -48875.41918856 </i>
    <i name="XCdc">   -232.91504772 </i>
    <i name="pawpsdc">   4037.64523885 </i>
    <i name="pawaedc">  -3453.34112211 </i>
    <i name="eentropy">     -0.19652596 </i>
    <i name="bandstr">  -1373.09918695 </i>
    <i name="atom">   6761.44252427 </i>
    <i name="e_fr_energy">   -191.31490149 </i>
    <i name="e_wo_entrp">   -191.11837553 </i>
    <i name="e_0_energy">   -191.21663851 </i>
   </energy>
  </scstep>
  <scstep>
   <time name="dav">   46.23   46.34</time>
   <time name="total">   46.94   47.06</time>
   <energy>
    <i name="e_fr_energy">   -191.17876221 </i>
    <i name="e_wo_entrp">   -190.97730704 </i>
    <i name="e_0_energy">   -191.07803463 </i>
   </energy>
  </scstep>
  <scstep>
   <time name="dav">   42.46   42.56</time>
   <time name="total">   43.16   43.27</time>
   <energy>
    <i name="e_fr_energy">   -191.21846819 </i>
    <i name="e_wo_entrp">   -191.00024406 </i>
    <i name="e_0_energy">   -191.10935613 </i>
   </energy>
  </scstep>
  <scstep>
   <time name="dav">   44.88   44.99</time>
   <time name="total">   45.60   45.72</time>
   <energy>
    <i name="e_fr_energy">   -190.81989537 </i>
    <i name="e_wo_entrp">   -190.62075694 </i>
    <i name="e_0_energy">   -190.72032615 </i>
   </energy>
  </scstep>
  <scstep>
   <time name="dav">   40.03   40.13</time>
   <time name="total">   40.73   40.84</time>
   <energy>
    <i name="e_fr_energy">   -190.72066904 </i>
    <i name="e_wo_entrp">   -190.51773337 </i>
    <i name="e_0_energy">   -190.61920120 </i>
   </energy>
  </scstep>
  <scstep>
   <time name="dav">   43.87   43.98</time>
   <time name="total">   44.58   44.70</time>
   <energy>
    <i name="e_fr_energy">   -190.71858360 </i>
    <i name="e_wo_entrp">   -190.51503902 </i>
    <i name="e_0_energy">   -190.61681131 </i>
   </energy>
  </scstep>
  <scstep>
   <time name="dav">   42.69   42.80</time>
   <time name="total">   43.38   43.49</time>
   <energy>
    <i name="e_fr_energy">   -190.70465402 </i>
    <i name="e_wo_entrp">   -190.50239735 </i>
    <i name="e_0_energy">   -190.60352569 </i>
   </energy>
  </scstep>
  <scstep>
   <time name="dav">   38.24   38.33</time>
   <time name="total">   38.94   39.04</time>
   <energy>
    <i name="e_fr_energy">   -190.69946879 </i>
    <i name="e_wo_entrp">   -190.49712678 </i>
    <i name="e_0_energy">   -190.59829779 </i>
   </energy>
  </scstep>
  <scstep>
   <time name="dav">   43.63   43.74</time>
   <time name="total">   44.33   44.44</time>
   <energy>
    <i name="e_fr_energy">   -190.69985027 </i>
    <i name="e_wo_entrp">   -190.49734209 </i>
    <i name="e_0_energy">   -190.59859618 </i>
   </energy>
  </scstep>
  <scstep>
   <time name="dav">   43.14   43.25</time>
   <time name="total">   43.84   43.96</time>
   <energy>
    <i name="e_fr_energy">   -190.70014483 </i>
    <i name="e_wo_entrp">   -190.49764838 </i>
    <i name="e_0_energy">   -190.59889660 </i>
   </energy>
  </scstep>
  <scstep>
   <time name="dav">   39.91   40.00</time>
   <time name="total">   40.60   40.71</time>
   <energy>
    <i name="e_fr_energy">   -190.69956642 </i>
    <i name="e_wo_entrp">   -190.49721065 </i>
    <i name="e_0_energy">   -190.59838853 </i>
   </energy>
  </scstep>
  <scstep>
   <time name="dav">   26.79   26.86</time>
   <time name="total">   26.84   26.92</time>
   <energy>
    <i name="alphaZ">     85.87319332 </i>
    <i name="ewald">  42858.69521336 </i>
    <i name="hartreedc"> -48846.87492369 </i>
    <i name="XCdc">   -234.27620766 </i>
    <i name="pawpsdc">   4063.87003931 </i>
    <i name="pawaedc">  -3479.74750646 </i>
    <i name="eentropy">     -0.20232692 </i>
    <i name="bandstr">  -1399.47957697 </i>
    <i name="atom">   6761.44252427 </i>
    <i name="e_fr_energy">   -190.69957142 </i>
    <i name="e_wo_entrp">   -190.49724450 </i>
    <i name="e_0_energy">   -190.59840796 </i>
   </energy>
  </scstep>
  <structure>
   <crystal>
    <varray name="basis" >
     <v>       8.48238481       4.89835123       0.00000000 </v>
     <v>      -8.48248715       4.89852905       0.00000000 </v>
     <v>       0.00000000       0.00000000      30.00000000 </v>
    </varray>
    <i name="volume">   2493.04229471 </i>
    <varray name="rec_basis" >
     <v>       0.05894640       0.10207393       0.00000000 </v>
     <v>      -0.05894426       0.10207269       0.00000000 </v>
     <v>       0.00000000       0.00000000       0.03333333 </v>
    </varray>
   </crystal>
   <varray name="positions" >
    <v>       0.33620727       0.00016561       0.00004148 </v>
    <v>       1.00018344       0.33621755      -0.00004147 </v>
    <v>       0.33826583       0.33827619       0.00000006 </v>
    <v>       0.66821720       0.33850255      -0.00022889 </v>
    <v>       0.66526003       0.66526916      -0.00000002 </v>
    <v>       0.33850875       0.66821739       0.00022835 </v>
    <v>      -0.00420552      -0.00420637       0.00000046 </v>
    <v>      -0.00499918       0.66278529       0.00022783 </v>
    <v>       0.66277559      -0.00501845      -0.00022798 </v>
    <v>       0.11301990       0.22617498       0.95243849 </v>
    <v>       0.22617539       0.11301938       0.04756062 </v>
    <v>       0.10794298       0.55064813       0.95079414 </v>
    <v>       0.21960171       0.43878863       0.04813262 </v>
    <v>       0.11567731       0.89104388       0.95080827 </v>
    <v>       0.22362388       0.78265980       0.04905007 </v>
    <v>       0.43878096       0.21959810       0.95186781 </v>
    <v>       0.55064482       0.10793651       0.04920618 </v>
    <v>       0.44123589       0.54942954       0.95002816 </v>
    <v>       0.54942575       0.44124057       0.04997271 </v>
    <v>       0.44256459       0.89244212       0.95007497 </v>
    <v>       0.55642436       0.77904732       0.05125268 </v>
    <v>       0.78266201       0.22362028       0.95095028 </v>
    <v>       0.89104307       0.11567665       0.04919121 </v>
    <v>       0.77905115       0.55643233       0.94874714 </v>
    <v>       0.89244767       0.44256831       0.04992542 </v>
    <v>       0.77792216       0.88975708       0.94893054 </v>
    <v>       0.88975744       0.77792192       0.05106876 </v>
   </varray>
  </structure>
  <varray name="forces" >
   <v>       0.25350429       0.08895025       0.07802925 </v>
   <v>      -0.25335447       0.08879496      -0.07783304 </v>
   <v>       0.00096118       0.33245737       0.00008263 </v>
   <v>      -0.21021540       0.42393706       0.00475758 </v>
   <v>      -0.00002057       0.11134862      -0.00014439 </v>
   <v>       0.20880466       0.42556401      -0.00498552 </v>
   <v>       0.00104585      -0.44741691       0.00032965 </v>
   <v>      -0.22836043      -0.42067913      -0.03242990 </v>
   <v>       0.22722344      -0.42152190       0.03256520 </v>
   <v>       0.02602468       0.00941880      -0.09744486 </v>
   <v>      -0.02458706       0.00964831       0.09601588 </v>
   <v>       0.02273810       0.03136353      -0.20099830 </v>
   <v>       0.02964429       0.01070052       0.31520288 </v>
   <v>       0.04035452      -0.00630708      -0.20845019 </v>
   <v>      -0.00441131      -0.00907514       0.19079737 </v>
   <v>      -0.02868131       0.00946948      -0.31292464 </v>
   <v>      -0.02380921       0.03021477       0.19900142 </v>
   <v>       0.04114701      -0.03518770      -0.46286724 </v>
   <v>      -0.04043524      -0.03512354       0.46178904 </v>
   <v>      -0.02355418      -0.01313886      -0.49929797 </v>
   <v>       0.04866478       0.00296160       0.54603294 </v>
   <v>       0.00339149      -0.01081761      -0.19126698 </v>
   <v>      -0.03977633      -0.00717952       0.20929160 </v>
   <v>      -0.04826160       0.00238105      -0.54444744 </v>
   <v>       0.02175276      -0.01325501       0.49954208 </v>
   <v>      -0.00934963      -0.07877080      -0.49323608 </v>
   <v>       0.00955970      -0.07873714       0.49288903 </v>
  </varray>
  <varray name="stress" >
   <v>      -5.75066838       0.00258831      -0.03810203 </v>
   <v>       0.00258831      -5.69572499       0.00108092 </v>
   <v>      -0.03810191       0.00108087       4.55235463 </v>
  </varray>
  <energy>
   <i name="e_fr_energy">   -190.69957142 </i>
   <i name="e_wo_entrp">   -190.59840796 </i>
   <i name="e_0_energy">     -0.20232692 </i>
  </energy>
  <time name="totalsc">  553.08  554.53</time>
 </calculation>
 <calculation>
  <scstep>
   <time name="dav">   32.24   32.32</time>
   <time name="total">   32.91   32.99</time>
   <energy>
    <i name="alphaZ">     90.18749474 </i>
    <i name="ewald">  44670.23337269 </i>
    <i name="hartreedc"> -50713.40788569 </i>
    <i name="XCdc">   -231.85543212 </i>
    <i name="pawpsdc">   4063.77769885 </i>
    <i name="pawaedc">  -3479.65019249 </i>
    <i name="eentropy">     -0.18364175 </i>
    <i name="bandstr">  -1352.59240340 </i>
    <i name="atom">   6761.44252427 </i>
    <i name="e_fr_energy">   -192.04846490 </i>
    <i name="e_wo_entrp">   -191.86482315 </i>
    <i name="e_0_energy">   -191.95664402 </i>
   </energy>
  </scstep>
  <scstep>
   <time name="dav">   44.53   44.63</time>
   <time name="total">   45.21   45.33</time>
   <energy>
    <i name="e_fr_energy">   -191.77358744 </i>
    <i name="e_wo_entrp">   -191.58351744 </i>
    <i name="e_0_energy">   -191.67855244 </i>
   </energy>
  </scstep>
  <scstep>
   <time name="dav">   44.30   44.41</time>
   <time name="total">   44.98   45.11</time>
   <energy>
    <i name="e_fr_energy">   -191.83022218 </i>
    <i name="e_wo_entrp">   -191.63158498 </i>
    <i name="e_0_energy">   -191.73090358 </i>
   </energy>
  </scstep>
  <scstep>
   <time name="dav">   44.59   44.70</time>
   <time name="total">   45.27   45.39</time>
   <energy>
    <i name="e_fr_energy">   -191.60113702 </i>
    <i name="e_wo_entrp">   -191.41735147 </i>
    <i name="e_0_energy">   -191.50924425 </i>
   </energy>
  </scstep>
  <scstep>
   <time name="dav">   45.03   45.13</time>
   <time name="total">   45.70   45.82</time>
   <energy>
    <i name="e_fr_energy">   -191.36810127 </i>
    <i name="e_wo_entrp">   -191.17586866 </i>
    <i name="e_0_energy">   -191.27198496 </i>
   </energy>
  </scstep>
  <scstep>
   <time name="dav">   41.52   41.62</time>
   <time name="total">   42.20   42.31</time>
   <energy>
    <i name="e_fr_energy">   -191.36115764 </i>
    <i name="e_wo_entrp">   -191.16942869 </i>
    <i name="e_0_energy">   -191.26529317 </i>
   </energy>
  </scstep>
  <scstep>
   <time name="dav">   42.06   42.16</time>
   <time name="total">   42.76   42.87</time>
   <energy>
    <i name="e_fr_energy">   -191.36396329 </i>
    <i name="e_wo_entrp">   -191.17192198 </i>
    <i name="e_0_energy">   -191.26794264 </i>
   </energy>
  </scstep>
  <scstep>
   <time name="dav">   40.76   40.86</time>
   <time name="total">   41.47   41.58</time>
   <energy>
    <i name="e_fr_energy">   -191.35476418 </i>
    <i name="e_wo_entrp">   -191.16292390 </i>
    <i name="e_0_energy">   -191.25884404 </i>
   </energy>
  </scstep>
  <scstep>
   <time name="dav">   41.82   41.92</time>
   <time name="total">   42.51   42.62</time>
   <energy>
    <i name="e_fr_energy">   -191.35556972 </i>
    <i name="e_wo_entrp">   -191.16377410 </i>
    <i name="e_0_energy">   -191.25967191 </i>
   </energy>
  </scstep>
  <scstep>
   <time name="dav">   42.38   42.48</time>
   <time name="total">   43.08   43.19</time>
   <energy>
    <i name="e_fr_energy">   -191.35508598 </i>
    <i name="e_wo_entrp">   -191.16320131 </i>
    <i name="e_0_energy">   -191.25914365 </i>
   </energy>
  </scstep>
  <scstep>
   <time name="dav">   34.15   34.23</time>
   <time name="total">   34.85   34.94</time>
   <energy>
    <i name="e_fr_energy">   -191.35497830 </i>
    <i name="e_wo_entrp">   -191.16313677 </i>
    <i name="e_0_energy">   -191.25905754 </i>
   </energy>
  </scstep>
  <scstep>
   <time name="dav">   28.01   28.08</time>
   <time name="total">   28.06   28.14</time>
   <energy>
    <i name="alphaZ">     90.18749474 </i>
    <i name="ewald">  44670.23337269 </i>
    <i name="hartreedc"> -50679.55033578 </i>
    <i name="XCdc">   -233.39123053 </i>
    <i name="pawpsdc">   4083.27347957 </i>
    <i name="pawaedc">  -3499.19372816 </i>
    <i name="eentropy">     -0.19188608 </i>
    <i name="bandstr">  -1384.16461600 </i>
    <i name="atom">   6761.44252427 </i>
    <i name="e_fr_energy">   -191.35492529 </i>
    <i name="e_wo_entrp">   -191.16303921 </i>
    <i name="e_0_energy">   -191.25898225 </i>
   </energy>
  </scstep>
  <structure>
   <crystal>
    <varray name="basis" >
     <v>       8.27511735       4.78095059       0.00000000 </v>
     <v>      -8.27512912       4.78097174       0.00000000 </v>
     <v>       0.00000000       0.00000000      30.00000000 </v>
    </varray>
    <i name="volume">   2373.78256890 </i>
    <varray name="rec_basis" >
     <v>       0.06042219       0.10458156       0.00000000 </v>
     <v>      -0.06042193       0.10458141       0.00000000 </v>
     <v>       0.00000000       0.00000000       0.03333333 </v>
    </varray>
   </crystal>
   <varray name="positions" >
    <v>       0.33904246      -0.00060747       0.00036502 </v>
    <v>       0.99941976       0.33905601      -0.00036431 </v>
    <v>       0.34237829       0.34238285       0.00000040 </v>
    <v>       0.67199539       0.34514364      -0.00021913 </v>
    <v>       0.66662378       0.66663903      -0.00000051 </v>
    <v>       0.34516253       0.67202192       0.00021750 </v>
    <v>      -0.00981715      -0.00983097       0.00000189 </v>
    <v>      -0.01168711       0.65931956       0.00008010 </v>
    <v>       0.65928832      -0.01171985      -0.00007988 </v>
    <v>       0.11363035       0.22668769       0.95155505 </v>
    <v>       0.22670009       0.11362225       0.04843828 </v>
    <v>       0.10837915       0.55039462       0.94943997 </v>
    <v>       0.21971178       0.43827291       0.04987061 </v>
    <v>       0.11642660       0.89095477       0.94942267 </v>
    <v>       0.22390416       0.78311156       0.05035469 </v>
    <v>       0.43825321       0.21968624       0.95013818 </v>
    <v>       0.55036957       0.10836266       0.05055354 </v>
    <v>       0.44080657       0.54826262       0.94761403 </v>
    <v>       0.54826162       0.44080997       0.05238355 </v>
    <v>       0.44179657       0.89249452       0.94751621 </v>
    <v>       0.55674622       0.77865515       0.05403284 </v>
    <v>       0.78308921       0.22388555       0.94964404 </v>
    <v>       0.89094669       0.11641150       0.05057961 </v>
    <v>       0.77865735       0.55675012       0.94597230 </v>
    <v>       0.89249058       0.44181248       0.05248553 </v>
    <v>       0.77687378       0.88876257       0.94636199 </v>
    <v>       0.88876470       0.77687255       0.05363572 </v>
   </varray>
  </structure>
  <varray name="forces" >
   <v>       0.27199858       0.12373682       0.00051351 </v>
   <v>      -0.27134743       0.12462337      -0.00095046 </v>
   <v>      -0.00068353       0.25675509      -0.00015458 </v>
   <v>      -0.17146330       0.34466444       0.02474820 </v>
   <v>       0.00029531       0.19491525      -0.00009117 </v>
   <v>       0.17177351       0.34292475      -0.02417203 </v>
   <v>      -0.00083264      -0.42032244      -0.00081238 </v>
   <v>      -0.29746054      -0.37749538       0.00507188 </v>
   <v>       0.29780762      -0.37668582      -0.00558735 </v>
   <v>       0.04173599      -0.08428176       0.17709339 </v>
   <v>      -0.04373845      -0.08433881      -0.17446872 </v>
   <v>      -0.06065747       0.17863733       0.09943427 </v>
   <v>      -0.03988551       0.11624282      -0.00573637 </v>
   <v>       0.00785810      -0.11590248       0.06870229 </v>
   <v>       0.07927224      -0.17606672      -0.15443945 </v>
   <v>       0.03859662       0.11797038       0.00261879 </v>
   <v>       0.06198620       0.18095988      -0.09680692 </v>
   <v>      -0.00868086       0.10298372      -0.11850229 </v>
   <v>       0.00869004       0.10288316       0.11930742 </v>
   <v>       0.06124735       0.00560951      -0.17749328 </v>
   <v>       0.11794177      -0.04058663       0.28105620 </v>
   <v>      -0.07805007      -0.17381450       0.15733218 </v>
   <v>      -0.00878084      -0.11489710      -0.07180239 </v>
   <v>      -0.11776103      -0.04060125      -0.28088518 </v>
   <v>      -0.05950401       0.00503328       0.17429405 </v>
   <v>      -0.02879835      -0.09603909      -0.24253015 </v>
   <v>       0.02844070      -0.09690782       0.24426052 </v>
  </varray>
  <varray name="stress" >
   <v>      -0.56575886      -0.00160174       0.32359829 </v>
   <v>      -0.00160167      -0.09008452      -0.00241066 </v>
   <v>       0.32359822      -0.00241071      -0.48620249 </v>
  </varray>
  <energy>
   <i name="e_fr_energy">   -191.35492529 </i>
   <i name="e_wo_entrp">   -191.25898225 </i>
   <i name="e_0_energy">     -0.19188608 </i>
  </energy>
  <time name="totalsc">  549.04  550.49</time>
 </calculation>
 <calculation>
  <scstep>
   <time name="dav">   31.10   31.17</time>
   <time name="total">   31.80   31.87</time>
   <energy>
    <i name="alphaZ">     90.45211419 </i>
    <i name="ewald">  44769.41397809 </i>
    <i name="hartreedc"> -50782.37323288 </i>
    <i name="XCdc">   -233.29352957 </i>
    <i name="pawpsdc">   4083.11808127 </i>
    <i name="pawaedc">  -3499.03235526 </i>
    <i name="eentropy">     -0.19476103 </i>
    <i name="bandstr">  -1380.99188490 </i>
    <i name="atom">   6761.44252427 </i>
    <i name="e_fr_energy">   -191.45906582 </i>
    <i name="e_wo_entrp">   -191.26430479 </i>
    <i name="e_0_energy">   -191.36168531 </i>
   </energy>
  </scstep>
  <scstep>
   <time name="dav">   43.02   43.12</time>
   <time name="total">   43.72   43.84</time>
   <energy>
    <i name="e_fr_energy">   -191.53254935 </i>
    <i name="e_wo_entrp">   -191.32711118 </i>
    <i name="e_0_energy">   -191.42983027 </i>
   </energy>
  </scstep>
  <scstep>
   <time name="dav">   43.14   43.24</time>
   <time name="total">   43.83   43.95</time>
   <energy>
    <i name="e_fr_energy">   -191.47485590 </i>
    <i name="e_wo_entrp">   -191.27917096 </i>
    <i name="e_0_energy">   -191.37701343 </i>
   </energy>
  </scstep>
  <scstep>
   <time name="dav">   39.72   39.82</time>
   <time name="total">   40.43   40.54</time>
   <energy>
    <i name="e_fr_energy">   -191.47038909 </i>
    <i name="e_wo_entrp">   -191.27382837 </i>
    <i name="e_0_energy">   -191.37210873 </i>
   </energy>
  </scstep>
  <scstep>
   <time name="dav">   42.47   42.57</time>
   <time name="total">   43.17   43.28</time>
   <energy>
    <i name="e_fr_energy">   -191.47033444 </i>
    <i name="e_wo_entrp">   -191.27266177 </i>
    <i name="e_0_energy">   -191.37149810 </i>
   </energy>
  </scstep>
  <scstep>
   <time name="dav">   41.39   41.49</time>
   <time name="total">   42.09   42.21</time>
   <energy>
    <i name="e_fr_energy">   -191.46897590 </i>
    <i name="e_wo_entrp">   -191.27158800 </i>
    <i name="e_0_energy">   -191.37028195 </i>
   </energy>
  </scstep>
  <scstep>
   <time name="dav">   40.83   40.93</time>
   <time name="total">   41.53   41.64</time>
   <energy>
    <i name="e_fr_energy">   -191.46806813 </i>
    <i name="e_wo_entrp">   -191.27044597 </i>
    <i name="e_0_energy">   -191.36925705 </i>
   </energy>
  </scstep>
  <scstep>
   <time name="dav">   31.74   31.81</time>
   <time name="total">   31.79   31.88</time>
   <energy>
    <i name="alphaZ">     90.45211419 </i>
    <i name="ewald">  44769.41397809 </i>
    <i name="hartreedc"> -50781.18602696 </i>
    <i name="XCdc">   -233.35899916 </i>
    <i name="pawpsdc">   4083.70175023 </i>
    <i name="pawaedc">  -3499.60734090 </i>
    <i name="eentropy">     -0.19747135 </i>
    <i name="bandstr">  -1382.12852294 </i>
    <i name="atom">   6761.44252427 </i>
    <i name="e_fr_energy">   -191.46799454 </i>
    <i name="e_wo_entrp">   -191.27052319 </i>
    <i name="e_0_energy">   -191.36925887 </i>
   </energy>
  </scstep>
  <structure>
   <crystal>
    <varray name="basis" >
     <v>       8.25736066       4.77716629       0.00000000 </v>
     <v>      -8.25741436       4.77726005       0.00000000 </v>
     <v>       0.00000000       0.00000000      30.00000000 </v>
    </varray>
    <i name="volume">   2366.83802094 </i>
    <varray name="rec_basis" >
     <v>       0.06055243       0.10466387       0.00000000 </v>
     <v>      -0.06055124       0.10466319       0.00000000 </v>
     <v>       0.00000000       0.00000000       0.03333333 </v>
    </varray>
   </crystal>
   <varray name="positions" >
    <v>       0.34065612      -0.00081788       0.00037848 </v>
    <v>       0.99921674       0.34067270      -0.00037849 </v>
    <v>       0.34391096       0.34391973       0.00000015 </v>
    <v>       0.67345862       0.34777590      -0.00017667 </v>
    <v>       0.66772238       0.66773618      -0.00000068 </v>
    <v>       0.34778698       0.67347576       0.00017599 </v>
    <v>      -0.01229183      -0.01230093       0.00000056 </v>
    <v>      -0.01488687       0.65808632       0.00008271 </v>
    <v>       0.65805960      -0.01491713      -0.00008335 </v>
    <v>       0.11333863       0.22614039       0.95181176 </v>
    <v>       0.22614670       0.11333614       0.04818585 </v>
    <v>       0.10916343       0.55151939       0.94954453 </v>
    <v>       0.22021016       0.43898954       0.04993901 </v>
    <v>       0.11587134       0.89031210       0.94947343 </v>
    <v>       0.22322661       0.78195181       0.05015395 </v>
    <v>       0.43897456       0.22019705       0.95006474 </v>
    <v>       0.55151010       0.10915481       0.05045325 </v>
    <v>       0.44130855       0.54878643       0.94730529 </v>
    <v>       0.54878495       0.44131141       0.05269357 </v>
    <v>       0.44197612       0.89233793       0.94710110 </v>
    <v>       0.55690480       0.77805469       0.05463435 </v>
    <v>       0.78194450       0.22321570       0.94984968 </v>
    <v>       0.89030626       0.11586395       0.05052364 </v>
    <v>       0.77805738       0.55690806       0.94537125 </v>
    <v>       0.89233606       0.44198401       0.05289523 </v>
    <v>       0.77622890       0.88829629       0.94583441 </v>
    <v>       0.88829271       0.77622409       0.05416619 </v>
   </varray>
  </structure>
  <varray name="forces" >
   <v>       0.28539127       0.18005399       0.03670358 </v>
   <v>      -0.28451225       0.18056593      -0.03652622 </v>
   <v>       0.00032141       0.28460643       0.00002562 </v>
   <v>      -0.21364655       0.33423448      -0.00100587 </v>
   <v>       0.00087275       0.15933909       0.00067953 </v>
   <v>       0.21241174       0.33429678       0.00118500 </v>
   <v>       0.00057854      -0.44542115       0.00041831 </v>
   <v>      -0.29624540      -0.39073872      -0.02361765 </v>
   <v>       0.29472649      -0.39110834       0.02411944 </v>
   <v>       0.02716476      -0.08037970       0.24691453 </v>
   <v>      -0.02722024      -0.08045126      -0.24697818 </v>
   <v>      -0.07519519       0.14384502       0.14217184 </v>
   <v>      -0.03592260       0.07569250      -0.04536463 </v>
   <v>       0.00696729      -0.10080923       0.10272351 </v>
   <v>       0.04670350      -0.15266324      -0.22351780 </v>
   <v>       0.03577954       0.07597326       0.04535489 </v>
   <v>       0.07530262       0.14380711      -0.14230071 </v>
   <v>      -0.00079237       0.08010884      -0.08751167 </v>
   <v>       0.00075708       0.08003289       0.08754522 </v>
   <v>       0.05128565       0.00771087      -0.15797543 </v>
   <v>       0.10443292      -0.03225811       0.22558128 </v>
   <v>      -0.04653968      -0.15248746       0.22391123 </v>
   <v>      -0.00708285      -0.10070604      -0.10325737 </v>
   <v>      -0.10451457      -0.03231522      -0.22643255 </v>
   <v>      -0.05088639       0.00775082       0.15778682 </v>
   <v>      -0.02015853      -0.06434914      -0.22625996 </v>
   <v>       0.02002105      -0.06433039       0.22562726 </v>
  </varray>
  <varray name="stress" >
   <v>       0.16294411       0.00044524       0.27825000 </v>
   <v>       0.00044538       0.41443157      -0.00050900 </v>
   <v>       0.27825001      -0.00050917      -1.17474080 </v>
  </varray>
  <energy>
   <i name="e_fr_energy">   -191.46799454 </i>
   <i name="e_wo_entrp">   -191.36925887 </i>
   <i name="e_0_energy">     -0.19747135 </i>
  </energy>
  <time name="totalsc">  378.31  379.30</time>
 </calculation>
 <calculation>
  <scstep>
   <time name="dav">   31.07   31.14</time>
   <time name="total">   31.77   31.85</time>
   <energy>
    <i name="alphaZ">     90.34959677 </i>
    <i name="ewald">  44724.43234629 </i>
    <i name="hartreedc"> -50735.05075801 </i>
    <i name="XCdc">   -233.42432908 </i>
    <i name="pawpsdc">   4083.88529015 </i>
    <i name="pawaedc">  -3499.79346703 </i>
    <i name="eentropy">     -0.19762408 </i>
    <i name="bandstr">  -1383.15276298 </i>
    <i name="atom">   6761.44252427 </i>
    <i name="e_fr_energy">   -191.50918369 </i>
    <i name="e_wo_entrp">   -191.31155961 </i>
    <i name="e_0_energy">   -191.41037165 </i>
   </energy>
  </scstep>
  <scstep>
   <time name="dav">   44.25   44.35</time>
   <time name="total">   44.94   45.06</time>
   <energy>
    <i name="e_fr_energy">   -191.52427627 </i>
    <i name="e_wo_entrp">   -191.32121334 </i>
    <i name="e_0_energy">   -191.42274481 </i>
   </energy>
  </scstep>
  <scstep>
   <time name="dav">   43.50   43.60</time>
   <time name="total">   44.19   44.31</time>
   <energy>
    <i name="e_fr_energy">   -191.51093619 </i>
    <i name="e_wo_entrp">   -191.31264056 </i>
    <i name="e_0_energy">   -191.41178838 </i>
   </energy>
  </scstep>
  <scstep>
   <time name="dav">   40.85   40.95</time>
   <time name="total">   41.55   41.66</time>
   <energy>
    <i name="e_fr_energy">   -191.51117879 </i>
    <i name="e_wo_entrp">   -191.31279121 </i>
    <i name="e_0_energy">   -191.41198500 </i>
   </energy>
  </scstep>
  <scstep>
   <time name="dav">   37.08   37.17</time>
   <time name="total">   37.78   37.88</time>
   <energy>
    <i name="e_fr_energy">   -191.51063402 </i>
    <i name="e_wo_entrp">   -191.31179081 </i>
    <i name="e_0_energy">   -191.41121242 </i>
   </energy>
  </scstep>
  <scstep>
   <time name="dav">   36.27   36.36</time>
   <time name="total">   36.99   37.08</time>
   <energy>
    <i name="e_fr_energy">   -191.51043740 </i>
    <i name="e_wo_entrp">   -191.31173390 </i>
    <i name="e_0_energy">   -191.41108565 </i>
   </energy>
  </scstep>
  <scstep>
   <time name="dav">   30.19   30.26</time>
   <time name="total">   30.24   30.31</time>
   <energy>
    <i name="alphaZ">     90.34959677 </i>
    <i name="ewald">  44724.43234629 </i>
    <i name="hartreedc"> -50736.48393458 </i>
    <i name="XCdc">   -233.37563539 </i>
    <i name="pawpsdc">   4084.66390073 </i>
    <i name="pawaedc">  -3500.58093418 </i>
    <i name="eentropy">     -0.19865535 </i>
    <i name="bandstr">  -1381.75963797 </i>
    <i name="atom">   6761.44252427 </i>
    <i name="e_fr_energy">   -191.51042941 </i>
    <i name="e_wo_entrp">   -191.31177406 </i>
    <i name="e_0_energy">   -191.41110173 </i>
   </energy>
  </scstep>
  <structure>
   <crystal>
    <varray name="basis" >
     <v>       8.26093064       4.78052660       0.00000000 </v>
     <v>      -8.26097865       4.78061056       0.00000000 </v>
[...]
      <set comment="kpoint 31">
       <r>  -17.5536    1.0000 </r>
       <r>  -17.2568    1.0000 </r>
       <r>  -16.9146    1.0000 </r>
       <r>  -16.7284    1.0000 </r>
       <r>  -16.5215    1.0000 </r>
       <r>  -16.4577    1.0000 </r>
       <r>  -16.3245    1.0000 </r>
       <r>  -16.1799    1.0000 </r>
       <r>  -16.0593    1.0000 </r>
       <r>  -16.0146    1.0000 </r>
       <r>  -15.9543    1.0000 </r>
       <r>  -15.8732    1.0000 </r>
       <r>  -15.7591    1.0000 </r>
       <r>  -15.6948    1.0000 </r>
       <r>  -15.6143    1.0000 </r>
       <r>  -15.4805    1.0000 </r>
       <r>  -15.4111    1.0000 </r>
       <r>  -15.2384    1.0000 </r>
       <r>   -9.7608    1.0000 </r>
       <r>   -9.4744    1.0000 </r>
       <r>   -9.3535    1.0000 </r>
       <r>   -9.0739    1.0000 </r>
       <r>   -8.8508    1.0000 </r>
       <r>   -8.7293    1.0000 </r>
       <r>   -8.5431    1.0000 </r>
       <r>   -8.5019    1.0000 </r>
       <r>   -8.4233    1.0000 </r>
       <r>   -8.3294    1.0000 </r>
       <r>   -8.2679    1.0000 </r>
       <r>   -8.1976    1.0000 </r>
       <r>   -8.1195    1.0000 </r>
       <r>   -8.0563    1.0000 </r>
       <r>   -8.0362    1.0000 </r>
       <r>   -7.8940    1.0000 </r>
       <r>   -7.8254    1.0000 </r>
       <r>   -7.7506    1.0000 </r>
       <r>   -7.6234    1.0000 </r>
       <r>   -7.4025    1.0000 </r>
       <r>   -7.2921    1.0000 </r>
       <r>   -7.2051    1.0000 </r>
       <r>   -7.1446    1.0000 </r>
       <r>   -7.1050    1.0000 </r>
       <r>   -7.0257    1.0000 </r>
       <r>   -6.9012    1.0000 </r>
       <r>   -6.8333    1.0000 </r>
       <r>   -6.7773    1.0000 </r>
       <r>   -6.7288    1.0000 </r>
       <r>   -6.6068    1.0000 </r>
       <r>   -6.5183    1.0000 </r>
       <r>   -6.4878    1.0000 </r>
       <r>   -6.4090    1.0000 </r>
       <r>   -6.3539    1.0000 </r>
       <r>   -6.3006    1.0000 </r>
       <r>   -6.2492    1.0000 </r>
       <r>   -6.1648    1.0000 </r>
       <r>   -6.0562    1.0000 </r>
       <r>   -5.9677    1.0000 </r>
       <r>   -5.8982    1.0000 </r>
       <r>   -5.8708    1.0000 </r>
       <r>   -5.8028    1.0000 </r>
       <r>   -5.6939    1.0000 </r>
       <r>   -5.6191    1.0000 </r>
       <r>   -5.4797    1.0000 </r>
       <r>   -5.3450    1.0000 </r>
       <r>   -5.2756    1.0000 </r>
       <r>   -5.1097    1.0000 </r>
       <r>   -5.0733    1.0000 </r>
       <r>   -4.8937    1.0000 </r>
       <r>   -4.8243    1.0000 </r>
       <r>   -4.6708    1.0000 </r>
       <r>   -4.6291    1.0000 </r>
       <r>   -4.5304    1.0000 </r>
       <r>   -4.4011    1.0000 </r>
       <r>   -4.2664    1.0000 </r>
       <r>   -4.1259    1.0000 </r>
       <r>   -4.0219    1.0000 </r>
       <r>   -3.8100    0.9994 </r>
       <r>   -3.7102    0.9943 </r>
       <r>   -3.5448    0.9133 </r>
       <r>   -3.4204    0.6848 </r>
       <r>   -2.9646    0.0031 </r>
       <r>   -2.8878    0.0005 </r>
       <r>   -2.7241    0.0000 </r>
       <r>   -2.5905    0.0000 </r>
       <r>   -2.5143    0.0000 </r>
       <r>   -2.4072    0.0000 </r>
       <r>   -2.2883    0.0000 </r>
       <r>   -2.1930    0.0000 </r>
       <r>   -2.1434    0.0000 </r>
       <r>   -1.9311    0.0000 </r>
       <r>   -1.7565    0.0000 </r>
       <r>   -1.6328    0.0000 </r>
       <r>   -1.4265    0.0000 </r>
       <r>   -1.3218    0.0000 </r>
       <r>   -1.2397    0.0000 </r>
       <r>   -1.1774    0.0000 </r>
       <r>   -1.0835    0.0000 </r>
       <r>   -1.0299    0.0000 </r>
       <r>   -0.9526    0.0000 </r>
       <r>   -0.8842    0.0000 </r>
       <r>   -0.7834    0.0000 </r>
       <r>   -0.7319    0.0000 </r>
       <r>   -0.6755    0.0000 </r>
       <r>   -0.5858    0.0000 </r>
       <r>   -0.4619    0.0000 </r>
       <r>   -0.4000    0.0000 </r>
       <r>   -0.1820    0.0000 </r>
       <r>   -0.1174    0.0000 </r>
       <r>   -0.0402    0.0000 </r>
       <r>    0.2684    0.0000 </r>
       <r>    0.3918    0.0000 </r>
       <r>    0.5525    0.0000 </r>
       <r>    0.6731    0.0000 </r>
       <r>    0.8997    0.0000 </r>
       <r>    1.0317    0.0000 </r>
       <r>    1.2676    0.0000 </r>
       <r>    1.5363    0.0000 </r>
       <r>    2.1293    0.0000 </r>
       <r>    2.3049    0.0000 </r>
       <r>    2.3870    0.0000 </r>
      </set>
      <set comment="kpoint 32">
       <r>  -17.5512    1.0000 </r>
       <r>  -17.2182    1.0000 </r>
       <r>  -17.0080    1.0000 </r>
       <r>  -16.7263    1.0000 </r>
       <r>  -16.4814    1.0000 </r>
       <r>  -16.3867    1.0000 </r>
       <r>  -16.3026    1.0000 </r>
       <r>  -16.2261    1.0000 </r>
       <r>  -16.1146    1.0000 </r>
       <r>  -16.0529    1.0000 </r>
       <r>  -15.9333    1.0000 </r>
       <r>  -15.8517    1.0000 </r>
       <r>  -15.7651    1.0000 </r>
       <r>  -15.6820    1.0000 </r>
       <r>  -15.6006    1.0000 </r>
       <r>  -15.4899    1.0000 </r>
       <r>  -15.4009    1.0000 </r>
       <r>  -15.2425    1.0000 </r>
       <r>   -9.6925    1.0000 </r>
       <r>   -9.5838    1.0000 </r>
       <r>   -9.4390    1.0000 </r>
       <r>   -9.0203    1.0000 </r>
       <r>   -8.7099    1.0000 </r>
       <r>   -8.6816    1.0000 </r>
       <r>   -8.5509    1.0000 </r>
       <r>   -8.4481    1.0000 </r>
       <r>   -8.4345    1.0000 </r>
       <r>   -8.3447    1.0000 </r>
       <r>   -8.2806    1.0000 </r>
       <r>   -8.2445    1.0000 </r>
       <r>   -8.1376    1.0000 </r>
       <r>   -8.1057    1.0000 </r>
       <r>   -8.0294    1.0000 </r>
       <r>   -7.9398    1.0000 </r>
       <r>   -7.8323    1.0000 </r>
       <r>   -7.7902    1.0000 </r>
       <r>   -7.5819    1.0000 </r>
       <r>   -7.4073    1.0000 </r>
       <r>   -7.3103    1.0000 </r>
       <r>   -7.2520    1.0000 </r>
       <r>   -7.1940    1.0000 </r>
       <r>   -7.0942    1.0000 </r>
       <r>   -7.0026    1.0000 </r>
       <r>   -6.9070    1.0000 </r>
       <r>   -6.8514    1.0000 </r>
       <r>   -6.7471    1.0000 </r>
       <r>   -6.6998    1.0000 </r>
       <r>   -6.5795    1.0000 </r>
       <r>   -6.5313    1.0000 </r>
       <r>   -6.4685    1.0000 </r>
       <r>   -6.4154    1.0000 </r>
       <r>   -6.3567    1.0000 </r>
       <r>   -6.2834    1.0000 </r>
       <r>   -6.2323    1.0000 </r>
       <r>   -6.1148    1.0000 </r>
       <r>   -6.0463    1.0000 </r>
       <r>   -5.9652    1.0000 </r>
       <r>   -5.9089    1.0000 </r>
       <r>   -5.8537    1.0000 </r>
       <r>   -5.7036    1.0000 </r>
       <r>   -5.6857    1.0000 </r>
       <r>   -5.5656    1.0000 </r>
       <r>   -5.4864    1.0000 </r>
       <r>   -5.4106    1.0000 </r>
       <r>   -5.2517    1.0000 </r>
       <r>   -5.1933    1.0000 </r>
       <r>   -5.0643    1.0000 </r>
       <r>   -4.9661    1.0000 </r>
       <r>   -4.8328    1.0000 </r>
       <r>   -4.7008    1.0000 </r>
       <r>   -4.6060    1.0000 </r>
       <r>   -4.4920    1.0000 </r>
       <r>   -4.3932    1.0000 </r>
       <r>   -4.3649    1.0000 </r>
       <r>   -4.1245    1.0000 </r>
       <r>   -4.0366    1.0000 </r>
       <r>   -3.8283    0.9996 </r>
       <r>   -3.6257    0.9734 </r>
       <r>   -3.5140    0.8735 </r>
       <r>   -3.3370    0.4568 </r>
       <r>   -3.0509    0.0165 </r>
       <r>   -2.9109    0.0009 </r>
       <r>   -2.7675    0.0000 </r>
       <r>   -2.5921    0.0000 </r>
       <r>   -2.5265    0.0000 </r>
       <r>   -2.4371    0.0000 </r>
       <r>   -2.2604    0.0000 </r>
       <r>   -2.1909    0.0000 </r>
       <r>   -2.1294    0.0000 </r>
       <r>   -1.9443    0.0000 </r>
       <r>   -1.7865    0.0000 </r>
       <r>   -1.6450    0.0000 </r>
       <r>   -1.4049    0.0000 </r>
       <r>   -1.2965    0.0000 </r>
       <r>   -1.1932    0.0000 </r>
       <r>   -1.1457    0.0000 </r>
       <r>   -1.0520    0.0000 </r>
       <r>   -0.9856    0.0000 </r>
       <r>   -0.9564    0.0000 </r>
       <r>   -0.9082    0.0000 </r>
       <r>   -0.8139    0.0000 </r>
       <r>   -0.7324    0.0000 </r>
       <r>   -0.6723    0.0000 </r>
       <r>   -0.5715    0.0000 </r>
       <r>   -0.5165    0.0000 </r>
       <r>   -0.3984    0.0000 </r>
       <r>   -0.2660    0.0000 </r>
       <r>   -0.0821    0.0000 </r>
       <r>    0.0473    0.0000 </r>
       <r>    0.2743    0.0000 </r>
       <r>    0.4009    0.0000 </r>
       <r>    0.4998    0.0000 </r>
       <r>    0.6785    0.0000 </r>
       <r>    0.8751    0.0000 </r>
       <r>    1.0343    0.0000 </r>
       <r>    1.2657    0.0000 </r>
       <r>    1.5306    0.0000 </r>
       <r>    2.1055    0.0000 </r>
       <r>    2.2701    0.0000 </r>
       <r>    2.5691    0.0000 </r>
      </set>
      <set comment="kpoint 33">
       <r>  -17.5211    1.0000 </r>
       <r>  -17.3095    1.0000 </r>
       <r>  -16.8955    1.0000 </r>
       <r>  -16.7237    1.0000 </r>
       <r>  -16.5058    1.0000 </r>
       <r>  -16.4578    1.0000 </r>
       <r>  -16.3411    1.0000 </r>
       <r>  -16.1856    1.0000 </r>
       <r>  -16.1495    1.0000 </r>
       <r>  -16.0330    1.0000 </r>
       <r>  -15.8818    1.0000 </r>
       <r>  -15.8130    1.0000 </r>
       <r>  -15.7690    1.0000 </r>
       <r>  -15.6832    1.0000 </r>
       <r>  -15.6042    1.0000 </r>
       <r>  -15.5050    1.0000 </r>
       <r>  -15.4034    1.0000 </r>
       <r>  -15.2501    1.0000 </r>
       <r>   -9.7647    1.0000 </r>
       <r>   -9.4738    1.0000 </r>
       <r>   -9.4125    1.0000 </r>
       <r>   -8.9713    1.0000 </r>
       <r>   -8.8026    1.0000 </r>
       <r>   -8.7582    1.0000 </r>
       <r>   -8.6489    1.0000 </r>
       <r>   -8.6133    1.0000 </r>
       <r>   -8.3782    1.0000 </r>
       <r>   -8.2863    1.0000 </r>
       <r>   -8.2361    1.0000 </r>
       <r>   -8.1648    1.0000 </r>
       <r>   -8.0968    1.0000 </r>
       <r>   -8.0779    1.0000 </r>
       <r>   -7.9669    1.0000 </r>
       <r>   -7.9111    1.0000 </r>
       <r>   -7.8587    1.0000 </r>
       <r>   -7.7821    1.0000 </r>
       <r>   -7.5149    1.0000 </r>
       <r>   -7.4819    1.0000 </r>
       <r>   -7.3933    1.0000 </r>
       <r>   -7.3361    1.0000 </r>
       <r>   -7.1411    1.0000 </r>
       <r>   -7.0610    1.0000 </r>
       <r>   -6.9690    1.0000 </r>
       <r>   -6.9025    1.0000 </r>
       <r>   -6.8652    1.0000 </r>
       <r>   -6.7729    1.0000 </r>
       <r>   -6.6643    1.0000 </r>
       <r>   -6.6033    1.0000 </r>
       <r>   -6.5490    1.0000 </r>
       <r>   -6.4630    1.0000 </r>
       <r>   -6.4246    1.0000 </r>
       <r>   -6.3355    1.0000 </r>
       <r>   -6.2785    1.0000 </r>
       <r>   -6.1369    1.0000 </r>
       <r>   -6.0823    1.0000 </r>
       <r>   -6.0405    1.0000 </r>
       <r>   -5.9541    1.0000 </r>
       <r>   -5.9373    1.0000 </r>
       <r>   -5.8830    1.0000 </r>
       <r>   -5.7597    1.0000 </r>
       <r>   -5.6562    1.0000 </r>
       <r>   -5.6101    1.0000 </r>
       <r>   -5.5256    1.0000 </r>
       <r>   -5.4155    1.0000 </r>
       <r>   -5.3049    1.0000 </r>
       <r>   -5.1877    1.0000 </r>
       <r>   -5.0903    1.0000 </r>
       <r>   -4.8619    1.0000 </r>
       <r>   -4.7587    1.0000 </r>
       <r>   -4.7068    1.0000 </r>
       <r>   -4.5987    1.0000 </r>
       <r>   -4.4460    1.0000 </r>
       <r>   -4.4228    1.0000 </r>
       <r>   -4.3721    1.0000 </r>
       <r>   -4.1632    1.0000 </r>
       <r>   -4.0509    1.0000 </r>
       <r>   -3.9060    1.0000 </r>
       <r>   -3.5587    0.9278 </r>
       <r>   -3.4593    0.7752 </r>
       <r>   -3.3144    0.3942 </r>
       <r>   -3.0876    0.0306 </r>
       <r>   -2.9436    0.0019 </r>
       <r>   -2.8440    0.0002 </r>
       <r>   -2.5899    0.0000 </r>
       <r>   -2.5425    0.0000 </r>
       <r>   -2.4709    0.0000 </r>
       <r>   -2.2296    0.0000 </r>
       <r>   -2.1801    0.0000 </r>
       <r>   -2.1292    0.0000 </r>
       <r>   -1.9079    0.0000 </r>
       <r>   -1.8114    0.0000 </r>
       <r>   -1.6363    0.0000 </r>
       <r>   -1.3855    0.0000 </r>
       <r>   -1.2918    0.0000 </r>
       <r>   -1.1446    0.0000 </r>
       <r>   -1.1178    0.0000 </r>
       <r>   -1.0476    0.0000 </r>
       <r>   -0.9807    0.0000 </r>
       <r>   -0.9422    0.0000 </r>
       <r>   -0.8805    0.0000 </r>
       <r>   -0.8437    0.0000 </r>
       <r>   -0.7340    0.0000 </r>
       <r>   -0.6690    0.0000 </r>
       <r>   -0.5850    0.0000 </r>
       <r>   -0.5138    0.0000 </r>
       <r>   -0.4754    0.0000 </r>
       <r>   -0.3748    0.0000 </r>
       <r>   -0.0200    0.0000 </r>
       <r>    0.1001    0.0000 </r>
       <r>    0.2379    0.0000 </r>
       <r>    0.4140    0.0000 </r>
       <r>    0.5197    0.0000 </r>
       <r>    0.6860    0.0000 </r>
       <r>    0.8620    0.0000 </r>
       <r>    1.0644    0.0000 </r>
       <r>    1.2607    0.0000 </r>
       <r>    1.5512    0.0000 </r>
       <r>    2.1424    0.0000 </r>
       <r>    2.2998    0.0000 </r>
       <r>    2.4054    0.0000 </r>
      </set>
      <set comment="kpoint 34">
       <r>  -17.4852    1.0000 </r>
       <r>  -17.3786    1.0000 </r>
       <r>  -16.7504    1.0000 </r>
       <r>  -16.7225    1.0000 </r>
       <r>  -16.6451    1.0000 </r>
       <r>  -16.4836    1.0000 </r>
       <r>  -16.3289    1.0000 </r>
       <r>  -16.1799    1.0000 </r>
       <r>  -16.1581    1.0000 </r>
       <r>  -16.0178    1.0000 </r>
       <r>  -15.8500    1.0000 </r>
       <r>  -15.7884    1.0000 </r>
       <r>  -15.7638    1.0000 </r>
       <r>  -15.6851    1.0000 </r>
       <r>  -15.6163    1.0000 </r>
       <r>  -15.5148    1.0000 </r>
       <r>  -15.4097    1.0000 </r>
       <r>  -15.2535    1.0000 </r>
       <r>   -9.8031    1.0000 </r>
       <r>   -9.3954    1.0000 </r>
       <r>   -9.3477    1.0000 </r>
       <r>   -8.9371    1.0000 </r>
       <r>   -8.9076    1.0000 </r>
       <r>   -8.8786    1.0000 </r>
       <r>   -8.6999    1.0000 </r>
       <r>   -8.6322    1.0000 </r>
       <r>   -8.3542    1.0000 </r>
       <r>   -8.2980    1.0000 </r>
       <r>   -8.2210    1.0000 </r>
       <r>   -8.1462    1.0000 </r>
       <r>   -8.0701    1.0000 </r>
       <r>   -8.0306    1.0000 </r>
       <r>   -7.9143    1.0000 </r>
       <r>   -7.8910    1.0000 </r>
       <r>   -7.7665    1.0000 </r>
       <r>   -7.7616    1.0000 </r>
       <r>   -7.6663    1.0000 </r>
       <r>   -7.4594    1.0000 </r>
       <r>   -7.4277    1.0000 </r>
       <r>   -7.3459    1.0000 </r>
       <r>   -7.0895    1.0000 </r>
       <r>   -7.0545    1.0000 </r>
       <r>   -6.9905    1.0000 </r>
       <r>   -6.8992    1.0000 </r>
       <r>   -6.8264    1.0000 </r>
       <r>   -6.7860    1.0000 </r>
       <r>   -6.6762    1.0000 </r>
       <r>   -6.5957    1.0000 </r>
       <r>   -6.5512    1.0000 </r>
       <r>   -6.4547    1.0000 </r>
       <r>   -6.4464    1.0000 </r>
       <r>   -6.3115    1.0000 </r>
       <r>   -6.2816    1.0000 </r>
       <r>   -6.1805    1.0000 </r>
       <r>   -6.1122    1.0000 </r>
       <r>   -6.0293    1.0000 </r>
       <r>   -5.9562    1.0000 </r>
       <r>   -5.9259    1.0000 </r>
       <r>   -5.7945    1.0000 </r>
       <r>   -5.7562    1.0000 </r>
       <r>   -5.7506    1.0000 </r>
       <r>   -5.5820    1.0000 </r>
       <r>   -5.5536    1.0000 </r>
       <r>   -5.4834    1.0000 </r>
       <r>   -5.3189    1.0000 </r>
       <r>   -5.1411    1.0000 </r>
       <r>   -5.1287    1.0000 </r>
       <r>   -4.8205    1.0000 </r>
       <r>   -4.7022    1.0000 </r>
       <r>   -4.6985    1.0000 </r>
       <r>   -4.4903    1.0000 </r>
       <r>   -4.4765    1.0000 </r>
       <r>   -4.4231    1.0000 </r>
       <r>   -4.3626    1.0000 </r>
       <r>   -4.2366    1.0000 </r>
       <r>   -4.0547    1.0000 </r>
       <r>   -3.9517    1.0000 </r>
       <r>   -3.5345    0.9011 </r>
       <r>   -3.3846    0.5902 </r>
       <r>   -3.3803    0.5784 </r>
       <r>   -3.0672    0.0219 </r>
       <r>   -2.9444    0.0020 </r>
       <r>   -2.9062    0.0008 </r>
       <r>   -2.5752    0.0000 </r>
       <r>   -2.5646    0.0000 </r>
       <r>   -2.4843    0.0000 </r>
       <r>   -2.2186    0.0000 </r>
       <r>   -2.1683    0.0000 </r>
       <r>   -2.1329    0.0000 </r>
       <r>   -1.8843    0.0000 </r>
       <r>   -1.8192    0.0000 </r>
       <r>   -1.6266    0.0000 </r>
       <r>   -1.3744    0.0000 </r>
       <r>   -1.2897    0.0000 </r>
       <r>   -1.1300    0.0000 </r>
       <r>   -1.0966    0.0000 </r>
       <r>   -1.0756    0.0000 </r>
       <r>   -1.0033    0.0000 </r>
       <r>   -0.9317    0.0000 </r>
       <r>   -0.8384    0.0000 </r>
       <r>   -0.8379    0.0000 </r>
       <r>   -0.7189    0.0000 </r>
       <r>   -0.6519    0.0000 </r>
       <r>   -0.6099    0.0000 </r>
       <r>   -0.5874    0.0000 </r>
       <r>   -0.4889    0.0000 </r>
       <r>   -0.3935    0.0000 </r>
       <r>   -0.0071    0.0000 </r>
       <r>    0.1129    0.0000 </r>
       <r>    0.2132    0.0000 </r>
       <r>    0.4319    0.0000 </r>
       <r>    0.5368    0.0000 </r>
       <r>    0.6894    0.0000 </r>
       <r>    0.8675    0.0000 </r>
       <r>    1.0828    0.0000 </r>
       <r>    1.2558    0.0000 </r>
       <r>    1.5669    0.0000 </r>
       <r>    2.2260    0.0000 </r>
       <r>    2.2601    0.0000 </r>
       <r>    2.3904    0.0000 </r>
      </set>
     </set>
    </set>
   </array>
  </eigenvalues>
  <separator name="orbital magnetization" >
   <v name="MAGDIPOLOUT">      0.00000000      0.00000000      0.00000000</v>
  </separator>
 </calculation>
 <structure name="finalpos" >
  <crystal>
   <varray name="basis" >
    <v>       8.32540167       4.82514256       0.00000000 </v>
    <v>      -8.32537139       4.82509121       0.00000000 </v>
    <v>       0.00000000       0.00000000      30.00000000 </v>
   </varray>
   <i name="volume">   2410.25778789 </i>
   <varray name="rec_basis" >
    <v>       0.06005695       0.10362424       0.00000000 </v>
    <v>      -0.06005759       0.10362462       0.00000000 </v>
    <v>       0.00000000       0.00000000       0.03333333 </v>
   </varray>
  </crystal>
  <varray name="positions" >
   <v>       0.36904381       0.01206846      -0.00141681 </v>
   <v>       1.01215149       0.36901325       0.00141554 </v>
   <v>       0.35726403       0.35729851       0.00000533 </v>
   <v>       0.67473009       0.35872243       0.00049254 </v>
   <v>       0.66381393       0.66380859       0.00000478 </v>
   <v>       0.35874267       0.67476982      -0.00048667 </v>
   <v>      -0.03486330      -0.03484040       0.00000980 </v>
   <v>      -0.03482496       0.65113995       0.00031744 </v>
   <v>       0.65112149      -0.03480410      -0.00030261 </v>
   <v>       0.10912885       0.22252656       0.95821284 </v>
   <v>       0.22253122       0.10911887       0.04177400 </v>
   <v>       0.11091302       0.56266905       0.95018113 </v>
   <v>       0.22513990       0.44438544       0.05046503 </v>
   <v>       0.11386847       0.88865009       0.95221368 </v>
   <v>       0.21978355       0.78245979       0.04344501 </v>
   <v>       0.44435120       0.22510793       0.94954423 </v>
   <v>       0.56263932       0.11089875       0.04981754 </v>
   <v>       0.43995938       0.54899625       0.94539044 </v>
   <v>       0.54899966       0.43996101       0.05460337 </v>
   <v>       0.44571854       0.89072829       0.94477185 </v>
   <v>       0.55553717       0.77114680       0.05665052 </v>
   <v>       0.78246573       0.21979207       0.95655493 </v>
   <v>       0.88863735       0.11386008       0.04779268 </v>
   <v>       0.77113602       0.55552861       0.94333792 </v>
   <v>       0.89073103       0.44571201       0.05521067 </v>
   <v>       0.76885406       0.88064856       0.94329233 </v>
   <v>       0.88064071       0.76884776       0.05670242 </v>
  </varray>
 </structure>
</modeling>
