unknown system                          
           1
     8.855069    5.105742    0.000000
    -8.855070    5.105744    0.000000
     0.000000    0.000000   30.000000
   V    Mo   W    S 
   3   3   3  18
Direct configuration=     1
   0.33333334  0.00000000  0.00000000
   1.00000000  0.33333334  0.00000000
   0.33333334  0.33333334  0.00000000
   0.66666669  0.33333334  0.00000000
   0.66666669  0.66666669  0.00000000
   0.33333334  0.66666669  0.00000000
   0.00000000  0.00000000  0.00000000
   0.00000000  0.66666669  0.00000000
   0.66666669  0.00000000  0.00000000
   0.11068511  0.22244981  0.95539999
   0.22244981  0.11068511  0.04460000
   0.11068511  0.55578315  0.95539999
   0.22244981  0.44401845  0.04460000
   0.11068511  0.88911647  0.95539999
   0.22244981  0.77735180  0.04460000
   0.44401845  0.22244981  0.95539999
   0.55578315  0.11068511  0.04460000
   0.44401845  0.55578315  0.95539999
   0.55578315  0.44401845  0.04460000
   0.44401845  0.88911647  0.95539999
   0.55578315  0.77735180  0.04460000
   0.77735180  0.22244981  0.95539999
   0.88911647  0.11068511  0.04460000
   0.77735180  0.55578315  0.95539999
   0.88911647  0.44401845  0.04460000
   0.77735180  0.88911647  0.95539999
   0.88911647  0.77735180  0.04460000
unknown system                          
           1
     8.667332    4.999671    0.000000
    -8.667325    4.999660    0.000000
     0.000000    0.000000   30.000000
   V    Mo   W    S 
   3   3   3  18
Direct configuration=     2
   0.33441799  0.00036239 -0.00014329
   1.00036252  0.33441808  0.00014326
   0.33522655  0.33522644 -0.00000001
   0.66633591  0.33463729 -0.00009793
   0.66528665  0.66528661 -0.00000000
   0.33463728  0.66633606  0.00009791
  -0.00069484 -0.00069503 -0.00000000
  -0.00133033  0.66504800  0.00023272
   0.66504773 -0.00133046 -0.00023273
   0.11250216  0.22558899  0.95315702
   0.22558895  0.11250198  0.04684295
   0.10848010  0.55147116  0.95195060
   0.22007538  0.43992434  0.04689467
   0.11491959  0.89074077  0.95190043
   0.22329954  0.78163522  0.04798099
   0.43992448  0.22007538  0.95310536
   0.55147101  0.10848019  0.04804939
   0.44218264  0.55102924  0.95189642
   0.55102929  0.44218256  0.04810354
   0.44298417  0.89187884  0.95192779
   0.55598036  0.77858121  0.04925042
   0.78163510  0.22329977  0.95201897
   0.89074088  0.11491948  0.04809963
   0.77858135  0.55598034  0.95074964
   0.89187869  0.44298442  0.04807216
   0.77805150  0.88959973  0.95071984
   0.88959981  0.77805144  0.04928014
unknown system                          
           1
     8.482385    4.898351    0.000000
    -8.482487    4.898529    0.000000
     0.000000    0.000000   30.000000
   V    Mo   W    S 
   3   3   3  18
Direct configuration=     3
   0.33479615  0.00041076 -0.00011694
   1.00041013  0.33479580  0.00011689
   0.33587149  0.33587102 -0.00000003
   0.66658203  0.33536499 -0.00013969
   0.66514163  0.66514077 -0.00000001
   0.33536437  0.66658167  0.00013970
  -0.00129511 -0.00129529 -0.00000004
  -0.00200861  0.66455099  0.00025631
   0.66455140 -0.00200749 -0.00025630
   0.11244086  0.22540196  0.95328232
   0.22540146  0.11244143  0.04671796
   0.10831120  0.55148698  0.95200136
   0.22003322  0.43983235  0.04687760
   0.11479348  0.89069528  0.95197800
   0.22313687  0.78163850  0.04790945
   0.43983313  0.22003415  0.95312220
   0.55148793  0.10831204  0.04799872
   0.44206163  0.55084267  0.95180851
   0.55084287  0.44206160  0.04819150
   0.44317223  0.89204504  0.95185908
   0.55613980  0.77883457  0.04932958
   0.78163929  0.22313776  0.95209066
   0.89069618  0.11479441  0.04802192
   0.77883461  0.55613952  0.95067047
   0.89204510  0.44317197  0.04814068
   0.77812033  0.88981074  0.95069462
   0.88981081  0.77812027  0.04930539
unknown system                          
           1
     8.275117    4.780951    0.000000
    -8.275129    4.780972    0.000000
     0.000000    0.000000   30.000000
   V    Mo   W    S 
   3   3   3  18
Direct configuration=     4
   0.33620727  0.00016561  0.00004148
   1.00018344  0.33621755 -0.00004147
   0.33826583  0.33827619  0.00000006
   0.66821720  0.33850255 -0.00022889
   0.66526003  0.66526916 -0.00000002
   0.33850875  0.66821739  0.00022835
  -0.00420552 -0.00420637  0.00000046
  -0.00499918  0.66278529  0.00022783
   0.66277559 -0.00501845 -0.00022798
   0.11301990  0.22617498  0.95243849
   0.22617539  0.11301938  0.04756062
   0.10794298  0.55064813  0.95079414
   0.21960171  0.43878863  0.04813262
   0.11567731  0.89104388  0.95080827
   0.22362388  0.78265980  0.04905007
   0.43878096  0.21959810  0.95186781
   0.55064482  0.10793651  0.04920618
   0.44123589  0.54942954  0.95002816
   0.54942575  0.44124057  0.04997271
   0.44256459  0.89244212  0.95007497
   0.55642436  0.77904732  0.05125268
   0.78266201  0.22362028  0.95095028
   0.89104307  0.11567665  0.04919121
   0.77905115  0.55643233  0.94874714
   0.89244767  0.44256831  0.04992542
   0.77792216  0.88975708  0.94893054
   0.88975744  0.77792192  0.05106876
unknown system                          
           1
     8.257361    4.777166    0.000000
    -8.257414    4.777260    0.000000
     0.000000    0.000000   30.000000
   V    Mo   W    S 
   3   3   3  18
Direct configuration=     5
   0.33904246 -0.00060747  0.00036502
   0.99941976  0.33905601 -0.00036431
   0.34237829  0.34238285  0.00000040
   0.67199539  0.34514364 -0.00021913
   0.66662378  0.66663903 -0.00000051
   0.34516253  0.67202192  0.00021750
  -0.00981715 -0.00983097  0.00000189
  -0.01168711  0.65931956  0.00008010
   0.65928832 -0.01171985 -0.00007988
   0.11363035  0.22668769  0.95155505
   0.22670009  0.11362225  0.04843828
   0.10837915  0.55039462  0.94943997
   0.21971178  0.43827291  0.04987061
   0.11642660  0.89095477  0.94942267
   0.22390416  0.78311156  0.05035469
   0.43825321  0.21968624  0.95013818
   0.55036957  0.10836266  0.05055354
   0.44080657  0.54826262  0.94761403
   0.54826162  0.44080997  0.05238355
   0.44179657  0.89249452  0.94751621
   0.55674622  0.77865515  0.05403284
   0.78308921  0.22388555  0.94964404
   0.89094669  0.11641150  0.05057961
   0.77865735  0.55675012  0.94597230
   0.89249058  0.44181248  0.05248553
   0.77687378  0.88876257  0.94636199
   0.88876470  0.77687255  0.05363572
unknown system                          
           1
     8.260931    4.780527    0.000000
    -8.260979    4.780611    0.000000
     0.000000    0.000000   30.000000
   V    Mo   W    S 
   3   3   3  18
Direct configuration=     6
   0.34065612 -0.00081788  0.00037848
   0.99921674  0.34067270 -0.00037849
   0.34391096  0.34391973  0.00000015
   0.67345862  0.34777590 -0.00017667
   0.66772238  0.66773618 -0.00000068
   0.34778698  0.67347576  0.00017599
  -0.01229183 -0.01230093  0.00000056
  -0.01488687  0.65808632  0.00008271
   0.65805960 -0.01491713 -0.00008335
   0.11333863  0.22614039  0.95181176
   0.22614670  0.11333614  0.04818585
   0.10916343  0.55151939  0.94954453
   0.22021016  0.43898954  0.04993901
   0.11587134  0.89031210  0.94947343
   0.22322661  0.78195181  0.05015395
   0.43897456  0.22019705  0.95006474
   0.55151010  0.10915481  0.05045325
   0.44130855  0.54878643  0.94730529
   0.54878495  0.44131141  0.05269357
   0.44197612  0.89233793  0.94710110
   0.55690480  0.77805469  0.05463435
   0.78194450  0.22321570  0.94984968
   0.89030626  0.11586395  0.05052364
   0.77805738  0.55690806  0.94537125
   0.89233606  0.44198401  0.05289523
   0.77622890  0.88829629  0.94583441
   0.88829271  0.77622409  0.05416619
unknown system                          
           1
     8.259594    4.777683    0.000000
    -8.259932    4.778269    0.000000
     0.000000    0.000000   30.000000
   V    Mo   W    S 
   3   3   3  18
Direct configuration=     7
   0.34139080 -0.00076792  0.00040120
   0.99926871  0.34140721 -0.00040108
   0.34448934  0.34449716  0.00000017
   0.67386939  0.34870250 -0.00017838
   0.66805420  0.66806554 -0.00000017
   0.34871205  0.67388824  0.00017782
  -0.01320379 -0.01321440  0.00000088
  -0.01604440  0.65764498  0.00006716
   0.65761556 -0.01607325 -0.00006741
   0.11318345  0.22591628  0.95200540
   0.22592233  0.11318085  0.04799214
   0.10937604  0.55193978  0.94967015
   0.22032815  0.43920967  0.04987731
   0.11564310  0.89008005  0.94957131
   0.22294072  0.78154704  0.04997066
   0.43919525  0.22031591  0.95012644
   0.55193049  0.10936717  0.05032752
   0.44149166  0.54898205  0.94728285
   0.54898034  0.44149439  0.05271604
   0.44207319  0.89228897  0.94703043
   0.55696347  0.77785711  0.05474810
   0.78154031  0.22293003  0.95003317
   0.89007434  0.11563614  0.05042545
   0.77785955  0.55696672  0.94525680
   0.89228777  0.44208065  0.05296585
   0.77607905  0.88819701  0.94571584
   0.88819339  0.77607455  0.05428426
unknown system                          
           1
     8.253480    4.779550    0.000000
    -8.253491    4.779570    0.000000
     0.000000    0.000000   30.000000
   V    Mo   W    S 
   3   3   3  18
Direct configuration=     8
   0.34090143 -0.00098601  0.00039844
   0.99907938  0.34083862 -0.00039326
   0.34426720  0.34423302  0.00000099
   0.67376002  0.34843391 -0.00018441
   0.66791202  0.66790646 -0.00000036
   0.34849776  0.67392392  0.00018376
  -0.01270632 -0.01276051  0.00000208
  -0.01563821  0.65783928  0.00004022
   0.65767981 -0.01568054 -0.00003953
   0.11329676  0.22601506  0.95182152
   0.22603791  0.11327870  0.04816508
   0.10937564  0.55177864  0.94955570
   0.22040246  0.43922743  0.04996416
   0.11574780  0.89013062  0.94944921
   0.22309121  0.78168883  0.05015469
   0.43919218  0.22035459  0.95004614
   0.55172143  0.10933814  0.05043257
   0.44145720  0.54891624  0.94723837
   0.54892052  0.44146309  0.05276223
   0.44200723  0.89231803  0.94696838
   0.55693598  0.77796365  0.05475485
   0.78163904  0.22305975  0.94983978
   0.89012024  0.11571598  0.05055444
   0.77796774  0.55694175  0.94525066
   0.89230192  0.44203499  0.05303338
   0.77608400  0.88816969  0.94569215
   0.88816211  0.77607113  0.05430866
unknown system                          
           1
     8.255663    4.781668    0.000000
    -8.255709    4.781749    0.000000
     0.000000    0.000000   30.000000
   V    Mo   W    S 
   3   3   3  18
Direct configuration=     9
   0.34263358 -0.00091297  0.00045786
   0.99915717  0.34260363 -0.00045969
   0.34570783  0.34569821  0.00000003
   0.67484416  0.35072211 -0.00016925
   0.66871916  0.66869370 -0.00000382
   0.35074720  0.67493020  0.00016691
  -0.01502855 -0.01505337  0.00000035
  -0.01837666  0.65675539  0.00005836
   0.65667730 -0.01838484 -0.00005877
   0.11295824  0.22553596  0.95227119
   0.22555513  0.11294349  0.04772259
   0.10980308  0.55267096  0.94983397
   0.22061470  0.43963462  0.04985062
   0.11526464  0.88965402  0.94965304
   0.22244743  0.78081721  0.04973926
   0.43959866  0.22057414  0.95015173
   0.55264790  0.10979071  0.05016947
   0.44180131  0.54928205  0.94713132
   0.54927718  0.44181083  0.05287462
   0.44221383  0.89223244  0.94677867
   0.55711002  0.77748286  0.05510969
   0.78078988  0.22243009  0.95026577
   0.88964063  0.11523404  0.05034282
   0.77747855  0.55710493  0.94489810
   0.89221820  0.44224088  0.05320522
   0.77574445  0.88798337  0.94540387
   0.88796945  0.77573979  0.05460597
unknown system                          
           1
     8.264725    4.792937    0.000000
    -8.264569    4.792670    0.000000
     0.000000    0.000000   30.000000
   V    Mo   W    S 
   3   3   3  18
Direct configuration=    10
   0.34303577 -0.00085906  0.00046751
   0.99921530  0.34299742 -0.00046911
   0.34603706  0.34602532  0.00000032
   0.67499564  0.35113752 -0.00017060
   0.66882353  0.66879620 -0.00000277
   0.35116698  0.67509366  0.00016911
  -0.01548701 -0.01551416  0.00000072
  -0.01888835  0.65656322  0.00005446
   0.65647323 -0.01889700 -0.00005431
   0.11290136  0.22545029  0.95236225
   0.22547062  0.11288512  0.04763037
   0.10988565  0.55285512  0.94987481
   0.22063729  0.43968758  0.04983564
   0.11518601  0.88956738  0.94969244
   0.22232478  0.78066801  0.04965604
   0.43965094  0.22059525  0.95016734
   0.55282798  0.10987154  0.05012758
   0.44185614  0.54933700  0.94709819
   0.54933264  0.44186568  0.05290745
   0.44224175  0.89221109  0.94673336
   0.55714215  0.77738629  0.05518123
   0.78063853  0.22230698  0.95034820
   0.88955387  0.11515456  0.05030410
   0.77738262  0.55713746  0.94482504
   0.89219539  0.44226856  0.05325130
   0.77568283  0.88794588  0.94533154
   0.88793174  0.77567756  0.05467769
unknown system                          
           1
     8.262814    4.799188    0.000000
    -8.262857    4.799263    0.000000
     0.000000    0.000000   30.000000
   V    Mo   W    S 
   3   3   3  18
Direct configuration=    11
   0.34568849 -0.00045380  0.00052262
   0.99962019  0.34570155 -0.00053010
   0.34822304  0.34823817 -0.00000013
   0.67600445  0.35376995 -0.00018089
   0.66943984  0.66941387 -0.00000012
   0.35376841  0.67602154  0.00018121
  -0.01850687 -0.01850042  0.00000129
  -0.02212305  0.65526856  0.00004271
   0.65524953 -0.02212809 -0.00004234
   0.11252751  0.22488766  0.95300048
   0.22489757  0.11252058  0.04699779
   0.11038595  0.55404260  0.95016494
   0.22077782  0.44002228  0.04971791
   0.11462995  0.88897973  0.94997690
   0.22151130  0.77968491  0.04908317
   0.43999675  0.22076431  0.95027907
   0.55405106  0.11039670  0.04984980
   0.44220040  0.54969659  0.94690206
   0.54968781  0.44220739  0.05310179
   0.44245846  0.89204246  0.94647405
   0.55734425  0.77675764  0.05561207
   0.77968902  0.22151186  0.95093030
   0.88896939  0.11462105  0.05001497
   0.77675131  0.55733413  0.94438887
   0.89203845  0.44246719  0.05350391
   0.77525435  0.88768899  0.94490301
   0.88767909  0.77525704  0.05510458
unknown system                          
           1
     8.275642    4.809838    0.000000
    -8.275802    4.810115    0.000000
     0.000000    0.000000   30.000000
   V    Mo   W    S 
   3   3   3  18
Direct configuration=    12
   0.34926976  0.00026661  0.00056537
   1.00033068  0.34929808 -0.00056904
   0.35119134  0.35122212 -0.00000007
   0.67689144  0.35660964 -0.00021002
   0.66981914  0.66980539  0.00000207
   0.35659924  0.67688192  0.00021187
  -0.02219812 -0.02218078  0.00000182
  -0.02575977  0.65381056  0.00005644
   0.65380324 -0.02576619 -0.00005750
   0.11209789  0.22419730  0.95385446
   0.22419357  0.11209322  0.04614506
   0.11094909  0.55552328  0.95043848
   0.22090708  0.44031708  0.04957718
   0.11401346  0.88831524  0.95038172
   0.22057710  0.77869738  0.04831714
   0.44031327  0.22091885  0.95042365
   0.55552829  0.11095099  0.04956559
   0.44256167  0.55010534  0.94666736
   0.55009435  0.44255787  0.05333232
   0.44273056  0.89176182  0.94620935
   0.55759666  0.77595521  0.05605784
   0.77871836  0.22058267  0.95169659
   0.88830835  0.11402883  0.04961183
   0.77595796  0.55759379  0.94393953
   0.89176735  0.44271219  0.05377989
   0.77464506  0.88730788  0.94445778
   0.88730741  0.77464816  0.05554319
unknown system                          
           1
     8.271310    4.809023    0.000000
    -8.271317    4.809038    0.000000
     0.000000    0.000000   30.000000
   V    Mo   W    S 
   3   3   3  18
Direct configuration=    13
   0.35118369  0.00074029  0.00054508
   1.00082756  0.35108600 -0.00054601
   0.35262119  0.35262612  0.00000118
   0.67688492  0.35735809 -0.00022342
   0.66968072  0.66965378 -0.00000093
   0.35739141  0.67700590  0.00022288
  -0.02374182 -0.02374150  0.00000299
  -0.02695528  0.65345368  0.00007487
   0.65334272 -0.02694453 -0.00007521
   0.11193349  0.22387171  0.95430429
   0.22388925  0.11191193  0.04568119
   0.11125811  0.55641375  0.95046401
   0.22102759  0.44046452  0.04956094
   0.11382878  0.88799894  0.95057484
   0.22015048  0.77838762  0.04791374
   0.44043762  0.22099322  0.95045248
   0.55634681  0.11121829  0.04952482
   0.44272822  0.55032135  0.94648467
   0.55031857  0.44272454  0.05351660
   0.44280880  0.89155187  0.94604018
   0.55772803  0.77547170  0.05630248
   0.77835628  0.22013379  0.95208684
   0.88799081  0.11381309  0.04943125
   0.77547892  0.55773174  0.94369724
   0.89153969  0.44282118  0.05396109
   0.77418478  0.88696982  0.94420573
   0.88697311  0.77417755  0.05579610
unknown system                          
           1
     8.280338    4.815329    0.000000
    -8.280280    4.815229    0.000000
     0.000000    0.000000   30.000000
   V    Mo   W    S 
   3   3   3  18
Direct configuration=    14
   0.35319479  0.00133577  0.00050138
   1.00144998  0.35307596 -0.00050861
   0.35404740  0.35405822  0.00000273
   0.67698144  0.35824137 -0.00023386
   0.66953882  0.66949868 -0.00000295
   0.35827605  0.67711712  0.00023265
  -0.02540132 -0.02538415  0.00000396
  -0.02837732  0.65291805  0.00008414
   0.65282296 -0.02834944 -0.00008188
   0.11172564  0.22353890  0.95481295
   0.22356407  0.11169555  0.04516712
   0.11144480  0.55721659  0.95053360
   0.22117301  0.44063697  0.04950239
   0.11358309  0.88770353  0.95082237
   0.21976470  0.77814991  0.04746277
   0.44059511  0.22111597  0.95050985
   0.55715743  0.11141697  0.04946683
   0.44285336  0.55054851  0.94637581
   0.55054707  0.44285983  0.05362961
   0.44295692  0.89132211  0.94594225
   0.55781865  0.77508062  0.05641139
   0.77810925  0.21974932  0.95253684
   0.88768899  0.11355186  0.04918660
   0.77507986  0.55781388  0.94358954
   0.89130299  0.44298441  0.05404444
   0.77371767  0.88660368  0.94407092
   0.88659903  0.77371427  0.05593706
unknown system                          
           1
     8.280589    4.816020    0.000000
    -8.280651    4.816129    0.000000
     0.000000    0.000000   30.000000
   V    Mo   W    S 
   3   3   3  18
Direct configuration=    15
   0.35430773  0.00174464  0.00045793
   1.00185817  0.35425563 -0.00046865
   0.35476395  0.35478829  0.00000276
   0.67695773  0.35855123 -0.00022448
   0.66934111  0.66930507 -0.00000146
   0.35856203  0.67702795  0.00022432
  -0.02624474 -0.02621668  0.00000398
  -0.02899683  0.65267333  0.00010041
   0.65263313 -0.02897725 -0.00009833
   0.11162121  0.22340409  0.95509334
   0.22342115  0.11159464  0.04488956
   0.11155331  0.55769467  0.95052482
   0.22125269  0.44072632  0.04950623
   0.11351407  0.88757947  0.95092860
   0.21956203  0.77806979  0.04722156
   0.44069162  0.22121374  0.95050184
   0.55767461  0.11155240  0.04948542
   0.44290157  0.55066505  0.94627112
   0.55065885  0.44290958  0.05373410
   0.44302871  0.89117649  0.94584492
   0.55784944  0.77480239  0.05652105
   0.77805212  0.21955868  0.95278416
   0.88755973  0.11349494  0.04907820
   0.77479596  0.55783792  0.94347822
   0.89116660  0.44304112  0.05413250
   0.77339525  0.88634104  0.94394853
   0.88633324  0.77339993  0.05605926
unknown system                          
           1
     8.290332    4.821803    0.000000
    -8.290282    4.821718    0.000000
     0.000000    0.000000   30.000000
   V    Mo   W    S 
   3   3   3  18
Direct configuration=    16
   0.35639342  0.00256654  0.00037364
   1.00267731  0.35630533 -0.00038240
   0.35593575  0.35596278  0.00000307
   0.67689509  0.35911927 -0.00021014
   0.66901178  0.66897845 -0.00000001
   0.35914150  0.67698064  0.00021082
  -0.02772925 -0.02769317  0.00000550
  -0.03019806  0.65225499  0.00011781
   0.65219402 -0.03016956 -0.00011681
   0.11140708  0.22316185  0.95561187
   0.22317682  0.11137848  0.04436813
   0.11169242  0.55853501  0.95052890
   0.22145397  0.44094363  0.04948980
   0.11334735  0.88737010  0.95116462
   0.21926525  0.77802425  0.04674562
   0.44090692  0.22141839  0.95051986
   0.55849965  0.11167805  0.04947582
   0.44294732  0.55085605  0.94614317
   0.55085293  0.44295432  0.05386079
   0.44319843  0.89092388  0.94574262
   0.55784290  0.77435461  0.05661410
   0.77801013  0.21926609  0.95326020
   0.88735143  0.11333360  0.04884563
   0.77435248  0.55783437  0.94338300
   0.89091426  0.44319611  0.05423968
   0.77283523  0.88584388  0.94381546
   0.88583833  0.77283653  0.05618913
unknown system                          
           1
     8.289055    4.820293    0.000000
    -8.289070    4.820320    0.000000
     0.000000    0.000000   30.000000
   V    Mo   W    S 
   3   3   3  18
Direct configuration=    17
   0.35739197  0.00305001  0.00030568
   1.00315972  0.35737056 -0.00031755
   0.35641704  0.35645362  0.00000246
   0.67679950  0.35925286 -0.00018666
   0.66871600  0.66868839 -0.00000112
   0.35924953  0.67682754  0.00018617
  -0.02837604 -0.02833361  0.00000460
  -0.03064590  0.65206775  0.00013493
   0.65205666 -0.03062823 -0.00013380
   0.11129866  0.22309575  0.95585382
   0.22310414  0.11127753  0.04412971
   0.11173773  0.55894936  0.95049403
   0.22155700  0.44104767  0.04951773
   0.11333641  0.88732583  0.95125155
   0.21914442  0.77808817  0.04652236
   0.44101985  0.22153851  0.95048996
   0.55894832  0.11174606  0.04951780
   0.44292865  0.55091602  0.94605119
   0.55090916  0.44293524  0.05395295
   0.44327181  0.89080728  0.94565531
   0.55781488  0.77409878  0.05669500
   0.77809351  0.21915313  0.95348766
   0.88730449  0.11333455  0.04875668
   0.77409016  0.55780015  0.94330288
   0.89081020  0.44326178  0.05432117
   0.77252650  0.88555622  0.94372145
   0.88555009  0.77253354  0.05628392
unknown system                          
           1
     8.295004    4.823325    0.000000
    -8.295025    4.823362    0.000000
     0.000000    0.000000   30.000000
   V    Mo   W    S 
   3   3   3  18
Direct configuration=    18
   0.35876081  0.00374525  0.00021610
   1.00384757  0.35874559 -0.00022485
   0.35699380  0.35703225  0.00000251
   0.67671391  0.35951592 -0.00016067
   0.66838479  0.66836358  0.00000002
   0.35951069  0.67673088  0.00016213
  -0.02926239 -0.02922028  0.00000503
  -0.03136848  0.65181375  0.00014715
   0.65180226 -0.03135510 -0.00014618
   0.11113290  0.22298926  0.95619341
   0.22299172  0.11111440  0.04379126
   0.11176173  0.55948908  0.95047572
   0.22174748  0.44123921  0.04952838
   0.11325566  0.88726213  0.95140817
   0.21902237  0.77820967  0.04618963
   0.44121852  0.22173803  0.95048066
   0.55948084  0.11176499  0.04952921
   0.44287335  0.55098097  0.94597814
   0.55097375  0.44287733  0.05402323
   0.44341645  0.89065797  0.94559407
   0.55773481  0.77379767  0.05671747
   0.77822166  0.21903045  0.95382014
   0.88724149  0.11325988  0.04860049
   0.77379278  0.55772377  0.94327875
   0.89066575  0.44339860  0.05438761
   0.77213656  0.88516766  0.94366639
   0.88516366  0.77214151  0.05633590
unknown system                          
           1
     8.312629    4.830263    0.000000
    -8.312520    4.830076    0.000000
     0.000000    0.000000   30.000000
   V    Mo   W    S 
   3   3   3  18
Direct configuration=    19
   0.35954743  0.00418777  0.00014816
   1.00428798  0.35951593 -0.00015669
   0.35726090  0.35729986  0.00000227
   0.67659528  0.35955525 -0.00013409
   0.66812562  0.66810641 -0.00000084
   0.35955474  0.67662140  0.00013417
  -0.02972115 -0.02967899  0.00000510
  -0.03168726  0.65171573  0.00015952
   0.65169548 -0.03167197 -0.00015927
   0.11104020  0.22295475  0.95637356
   0.22295791  0.11102262  0.04361097
   0.11177942  0.55982103  0.95044000
   0.22187881  0.44136179  0.04956335
   0.11326307  0.88726372  0.95147706
   0.21896893  0.77833610  0.04600711
   0.44133974  0.22186467  0.95044776
   0.55980043  0.11177466  0.04956140
   0.44280912  0.55098626  0.94591444
   0.55098060  0.44281193  0.05408669
   0.44349262  0.89058452  0.94553348
   0.55766918  0.77359118  0.05676000
   0.77834594  0.21897576  0.95400203
   0.88724393  0.11326622  0.04853263
   0.77358865  0.55766042  0.94323701
   0.89059086  0.44347659  0.05445213
   0.77189491  0.88491399  0.94360955
   0.88491111  0.77189686  0.05639240
unknown system                          
           1
     8.304680    4.825574    0.000000
    -8.304712    4.825632    0.000000
     0.000000    0.000000   30.000000
   V    Mo   W    S 
   3   3   3  18
Direct configuration=    20
   0.36198899  0.00573409 -0.00007431
   1.00582037  0.36210431  0.00006332
   0.35822716  0.35827581  0.00000168
   0.67615242  0.35969500 -0.00005207
   0.66705030  0.66704379 -0.00000002
   0.35963356  0.67605253  0.00005374
  -0.03103965 -0.03100747  0.00000335
  -0.03269670  0.65121146  0.00018414
   0.65129286 -0.03271015 -0.00018236
   0.11079200  0.22293043  0.95695425
   0.22291487  0.11079846  0.04303887
   0.11166061  0.56061286  0.95040961
   0.22231448  0.44171197  0.04960876
   0.11323030  0.88730735  0.95172554
   0.21888936  0.77884578  0.04541213
   0.44170962  0.22234286  0.95039642
   0.56066119  0.11169955  0.04960504
   0.44250655  0.55083020  0.94581913
   0.55081965  0.44250827  0.05417967
   0.44379081  0.89042097  0.94541524
   0.55742947  0.77305048  0.05677714
   0.77890045  0.21891197  0.95460466
   0.88729159  0.11327302  0.04827711
   0.77304276  0.55741517  0.94321938
   0.89045485  0.44376291  0.05455896
   0.77122464  0.88415673  0.94353656
   0.88415196  0.77123608  0.05646398
unknown system                          
           1
     8.301868    4.823454    0.000000
    -8.301847    4.823420    0.000000
     0.000000    0.000000   30.000000
   V    Mo   W    S 
   3   3   3  18
Direct configuration=    21
   0.36218144  0.00586578 -0.00010442
   1.00594895  0.36216597  0.00010058
   0.35810463  0.35814505  0.00000209
   0.67617041  0.35968699 -0.00004395
   0.66708702  0.66707559 -0.00000038
   0.35968032  0.67617207  0.00004497
  -0.03117389 -0.03113821  0.00000500
  -0.03281278  0.65129177  0.00019488
   0.65128059 -0.03280195 -0.00019584
   0.11073972  0.22290454  0.95699258
   0.22290079  0.11073449  0.04299446
   0.11168863  0.56075786  0.95038438
   0.22240365  0.44180457  0.04963760
   0.11322407  0.88732927  0.95175489
   0.21891247  0.77892368  0.04534289
   0.44179136  0.22240212  0.95037485
   0.56073254  0.11167860  0.04961064
   0.44246336  0.55084287  0.94578675
   0.55084004  0.44246373  0.05421167
   0.44382563  0.89040033  0.94541113
   0.55737002  0.77297803  0.05677262
   0.77894419  0.21891860  0.95466566
   0.88731715  0.11324361  0.04825284
   0.77298227  0.55736765  0.94322388
   0.89041327  0.44380572  0.05458123
   0.77114081  0.88405686  0.94354453
   0.88405779  0.77113886  0.05645437
unknown system                          
           1
     8.305156    4.824283    0.000000
    -8.305191    4.824344    0.000000
     0.000000    0.000000   30.000000
   V    Mo   W    S 
   3   3   3  18
Direct configuration=    22
   0.36303434  0.00650542 -0.00024193
   1.00660670  0.36303800  0.00023183
   0.35791963  0.35796008  0.00000211
   0.67619772  0.35967858  0.00001891
   0.66695598  0.66694375 -0.00000279
   0.35966707  0.67620377 -0.00002164
  -0.03175923 -0.03172053  0.00000413
  -0.03317606  0.65126422  0.00020844
   0.65126329 -0.03316839 -0.00020785
   0.11051525  0.22282522  0.95714903
   0.22282257  0.11050636  0.04283808
   0.11167237  0.56113700  0.95032538
   0.22261762  0.44208563  0.04975671
   0.11329540  0.88744208  0.95181220
   0.21890589  0.77918997  0.04512798
   0.44207070  0.22260882  0.95025563
   0.56113368  0.11167547  0.04968032
   0.44229904  0.55085856  0.94567244
   0.55085517  0.44229965  0.05432708
   0.44395726  0.89033472  0.94530570
   0.55720196  0.77271020  0.05681295
   0.77920667  0.21891536  0.95487986
   0.88742426  0.11330608  0.04819679
   0.77270638  0.55719351  0.94318586
   0.89034913  0.44394841  0.05468020
   0.77081236  0.88366152  0.94347499
   0.88365931  0.77081099  0.05652749
unknown system                          
           1
     8.303126    4.822862    0.000000
    -8.303163    4.822927    0.000000
     0.000000    0.000000   30.000000
   V    Mo   W    S 
   3   3   3  18
Direct configuration=    23
   0.36344676  0.00682553 -0.00029878
   1.00691955  0.36342775  0.00029325
   0.35801881  0.35805852  0.00000251
   0.67605298  0.35964168  0.00004243
   0.66668904  0.66667813 -0.00000103
   0.35964046  0.67606916 -0.00004245
  -0.03193591 -0.03189978  0.00000523
  -0.03328691  0.65122521  0.00021133
   0.65120840 -0.03327368 -0.00021080
   0.11045675  0.22282317  0.95722642
   0.22282159  0.11044714  0.04275978
   0.11164917  0.56128110  0.95030740
   0.22274404  0.44220023  0.04978532
   0.11332483  0.88749073  0.95183873
   0.21893136  0.77935207  0.04502853
   0.44218326  0.22273299  0.95022750
   0.56125887  0.11163960  0.04969134
   0.44218535  0.55077067  0.94566207
   0.55076881  0.44218587  0.05433616
   0.44404450  0.89034287  0.94527127
   0.55710867  0.77259349  0.05681282
   0.77936483  0.21893713  0.95497793
   0.88747438  0.11333327  0.04817047
   0.77259516  0.55710538  0.94318406
   0.89035428  0.44403276  0.05471834
   0.77069458  0.88350216  0.94344878
   0.88350082  0.77069130  0.05655130
unknown system                          
           1
     8.300330    4.819735    0.000000
    -8.300285    4.819658    0.000000
     0.000000    0.000000   30.000000
   V    Mo   W    S 
   3   3   3  18
Direct configuration=    24
   0.36350694  0.00690455 -0.00032144
   1.00699799  0.36348960  0.00031743
   0.35803421  0.35807420  0.00000317
   0.67600533  0.35966744  0.00005733
   0.66659566  0.66658591  0.00000073
   0.35966738  0.67601933 -0.00005429
  -0.03198999 -0.03195516  0.00000643
  -0.03331397  0.65125728  0.00020522
   0.65124020 -0.03329984 -0.00020280
   0.11043815  0.22280712  0.95723900
   0.22280483  0.11042704  0.04274682
   0.11167890  0.56138054  0.95028499
   0.22280204  0.44226462  0.04981084
   0.11334248  0.88750131  0.95183027
   0.21892353  0.77938103  0.04501259
   0.44224658  0.22279095  0.95020081
   0.56135769  0.11166876  0.04971292
   0.44214803  0.55076684  0.94564801
   0.55076520  0.44214880  0.05434888
   0.44406830  0.89032880  0.94523465