   27   27  100    1
  0.9710400E+02  0.1002848E-08  0.1002848E-08  0.3000000E-08  0.5000000E-15
  1.000000000000000E-004
  CAR 
 unknown system                          
    159     34    120
 
  0.0000000E+00  0.0000000E+00  0.0000000E+00  0.1562500E-01
    1      -17.823632   1.000000
    2      -16.789192   1.000000
    3      -16.648359   1.000000
    4      -16.607696   1.000000
    5      -16.486941   1.000000
    6      -16.434228   1.000000
    7      -16.364809   1.000000
    8      -16.287137   1.000000
    9      -16.257894   1.000000
   10      -16.155595   1.000000
   11      -16.092286   1.000000
   12      -15.933186   1.000000
   13      -15.872758   1.000000
   14      -15.656810   1.000000
   15      -15.635280   1.000000
   16      -15.521655   1.000000
   17      -15.330201   1.000000
   18      -15.247572   1.000000
   19       -9.231476   1.000000
   20       -9.017775   1.000000
   21       -8.898017   1.000000
   22       -8.869471   1.000000
   23       -8.772259   1.000000
   24       -8.706287   1.000000
   25       -8.653655   1.000000
   26       -8.619266   1.000000
   27       -8.564598   1.000000
   28       -8.431010   1.000000
   29       -8.427056   1.000000
   30       -8.344387   1.000000
   31       -8.311875   1.000000
   32       -8.224453   1.000000
   33       -8.163877   1.000000
   34       -8.060737   1.000000
   35       -7.845014   1.000000
   36       -7.795185   1.000000
   37       -7.665768   1.000000
   38       -7.587628   1.000000
   39       -7.441940   1.000000
   40       -7.341383   1.000000
   41       -7.304437   1.000000
   42       -7.217035   1.000000
   43       -7.099692   1.000000
   44       -6.985870   1.000000
   45       -6.880964   1.000000
   46       -6.823777   1.000000
   47       -6.765693   1.000000
   48       -6.748543   1.000000
   49       -6.682700   1.000000
   50       -6.514293   1.000000
   51       -6.430629   1.000000
   52       -6.314581   1.000000
   53       -6.236653   1.000000
   54       -6.169730   1.000000
   55       -6.056641   1.000000
   56       -6.024032   1.000000
   57       -5.999238   1.000000
   58       -5.870705   1.000000
   59       -5.736832   1.000000
   60       -5.653325   1.000000
   61       -5.580628   1.000000
   62       -5.453888   1.000000
   63       -5.376373   1.000000
   64       -5.067643   1.000000
   65       -5.051905   1.000000
   66       -4.899963   1.000000
   67       -4.843760   1.000000
   68       -4.819695   1.000000
   69       -4.811531   1.000000
   70       -4.697824   1.000000
   71       -4.662813   1.000000
   72       -4.584474   1.000000
   73       -4.437004   1.000000
   74       -4.281384   1.000000
   75       -4.233019   1.000000
   76       -4.083548   1.000000
   77       -3.769230   0.999732
   78       -3.566285   0.978651
   79       -3.482470   0.924213
   80       -3.313103   0.593434
   81       -3.164301   0.207307
   82       -2.804936   0.000394
   83       -2.687216   0.000014
   84       -2.651466   0.000004
   85       -2.484892   0.000000
   86       -2.378249   0.000000
   87       -2.201099   0.000000
   88       -2.185296   0.000000
   89       -2.088165   0.000000
   90       -1.883840   0.000000
   91       -1.774049   0.000000
   92       -1.644141   0.000000
   93       -1.348491   0.000000
   94       -1.224499   0.000000
   95       -1.180678   0.000000
   96       -1.068136   0.000000
   97       -1.005800   0.000000
   98       -0.973673   0.000000
   99       -0.797169   0.000000
  100       -0.669312   0.000000
  101       -0.625473   0.000000
  102       -0.549959   0.000000
  103       -0.472572   0.000000
  104       -0.438559   0.000000
  105       -0.262153   0.000000
  106       -0.198451   0.000000
  107       -0.043394   0.000000
  108        0.007090   0.000000
  109        0.132160   0.000000
  110        0.193604   0.000000
  111        0.352706   0.000000
  112        0.477664   0.000000
  113        0.508040   0.000000
  114        0.944983   0.000000
  115        1.109530   0.000000
  116        1.229681   0.000000
  117        1.349179   0.000000
  118        1.646515   0.000000
  119        1.839634   0.000000
  120        2.165521   0.000000
 
  0.1250000E+00  0.2775558E-16  0.0000000E+00  0.3125000E-01
    1      -17.798116   1.000000
    2      -16.798853   1.000000
    3      -16.780120   1.000000
    4      -16.574365   1.000000
    5      -16.502237   1.000000
    6      -16.452550   1.000000
    7      -16.382171   1.000000
    8      -16.301354   1.000000
    9      -16.202664   1.000000
   10      -16.078642   1.000000
   11      -16.049846   1.000000
   12      -15.946195   1.000000
   13      -15.850019   1.000000
   14      -15.654561   1.000000
   15      -15.628455   1.000000
   16      -15.530503   1.000000
   17      -15.354202   1.000000
   18      -15.248697   1.000000
   19       -9.226526   1.000000
   20       -9.142962   1.000000
   21       -9.001263   1.000000
   22       -8.991717   1.000000
   23       -8.778794   1.000000
   24       -8.735330   1.000000
   25       -8.693181   1.000000
   26       -8.613144   1.000000
   27       -8.524277   1.000000
   28       -8.466069   1.000000
   29       -8.378189   1.000000
   30       -8.328856   1.000000
   31       -8.251079   1.000000
   32       -8.108937   1.000000
   33       -7.981278   1.000000
   34       -7.935009   1.000000
   35       -7.889893   1.000000
   36       -7.740216   1.000000
   37       -7.700320   1.000000
   38       -7.531688   1.000000
   39       -7.404207   1.000000
   40       -7.366169   1.000000
   41       -7.325229   1.000000
   42       -7.241821   1.000000
   43       -7.112938   1.000000
   44       -6.998234   1.000000
   45       -6.900028   1.000000
   46       -6.829597   1.000000
   47       -6.811853   1.000000
   48       -6.730283   1.000000
   49       -6.648995   1.000000
   50       -6.556000   1.000000
   51       -6.429875   1.000000
   52       -6.321169   1.000000
   53       -6.255869   1.000000
   54       -6.121728   1.000000
   55       -6.093511   1.000000
   56       -6.041919   1.000000
   57       -5.969368   1.000000
   58       -5.832265   1.000000
   59       -5.704472   1.000000
   60       -5.614682   1.000000
   61       -5.574105   1.000000
   62       -5.440274   1.000000
   63       -5.376790   1.000000
   64       -5.151457   1.000000
   65       -5.131596   1.000000
   66       -5.048346   1.000000
   67       -4.962427   1.000000
   68       -4.873312   1.000000
   69       -4.795488   1.000000
   70       -4.686605   1.000000
   71       -4.542595   1.000000
   72       -4.464710   1.000000
   73       -4.375410   1.000000
   74       -4.267175   1.000000
   75       -4.192740   1.000000
   76       -4.000339   1.000000
   77       -3.846773   0.999970
   78       -3.659186   0.996358
   79       -3.519903   0.955311
   80       -3.396071   0.794764
   81       -3.047097   0.050030
   82       -2.802025   0.000366
   83       -2.717520   0.000035
   84       -2.616988   0.000001
   85       -2.466552   0.000000
   86       -2.369235   0.000000
   87       -2.206689   0.000000
   88       -2.155731   0.000000
   89       -2.057402   0.000000
   90       -1.882265   0.000000
   91       -1.774590   0.000000
   92       -1.638819   0.000000
   93       -1.360183   0.000000
   94       -1.216728   0.000000
   95       -1.171716   0.000000
   96       -1.068973   0.000000
   97       -1.004359   0.000000
   98       -0.976360   0.000000
   99       -0.800766   0.000000
  100       -0.745820   0.000000
  101       -0.669046   0.000000
  102       -0.601212   0.000000
  103       -0.538052   0.000000
  104       -0.503935   0.000000
  105       -0.325356   0.000000
  106       -0.168889   0.000000
  107       -0.107131   0.000000
  108        0.047075   0.000000
  109        0.092479   0.000000
  110        0.226107   0.000000
  111        0.351967   0.000000
  112        0.468715   0.000000
  113        0.603709   0.000000
  114        0.934178   0.000000
  115        1.144531   0.000000
  116        1.245848   0.000000
  117        1.332663   0.000000
  118        1.691990   0.000000
  119        1.878545   0.000000
  120        2.200953   0.000000
 
  0.2500000E+00  0.5551115E-16  0.0000000E+00  0.3125000E-01
    1      -17.722814   1.000000
    2      -17.000587   1.000000
    3      -16.777877   1.000000
    4      -16.636267   1.000000
    5      -16.576664   1.000000
    6      -16.449287   1.000000
    7      -16.361241   1.000000
    8      -16.227696   1.000000
    9      -16.151697   1.000000
   10      -16.032260   1.000000
   11      -15.986553   1.000000
   12      -15.896034   1.000000
   13      -15.825233   1.000000
   14      -15.638142   1.000000
   15      -15.606329   1.000000
   16      -15.547112   1.000000
   17      -15.408819   1.000000
   18      -15.260368   1.000000
   19       -9.483480   1.000000
   20       -9.184862   1.000000
   21       -9.132896   1.000000
   22       -9.023126   1.000000
   23       -8.926964   1.000000
   24       -8.798015   1.000000
   25       -8.692326   1.000000
   26       -8.616803   1.000000
   27       -8.435400   1.000000
   28       -8.394061   1.000000
   29       -8.362550   1.000000
   30       -8.258939   1.000000
   31       -8.165170   1.000000
   32       -8.011825   1.000000
   33       -7.926640   1.000000
   34       -7.844201   1.000000
   35       -7.757301   1.000000
   36       -7.668309   1.000000
   37       -7.563296   1.000000
   38       -7.528418   1.000000
   39       -7.456335   1.000000
   40       -7.349123   1.000000
   41       -7.309274   1.000000
   42       -7.181156   1.000000
   43       -7.122905   1.000000
   44       -6.986024   1.000000
   45       -6.925182   1.000000
   46       -6.874723   1.000000
   47       -6.799774   1.000000
   48       -6.745834   1.000000
   49       -6.602450   1.000000
   50       -6.487318   1.000000
   51       -6.420968   1.000000
   52       -6.357875   1.000000
   53       -6.272117   1.000000
   54       -6.137694   1.000000
   55       -6.101586   1.000000
   56       -6.074062   1.000000
   57       -5.881757   1.000000
   58       -5.821897   1.000000
   59       -5.735609   1.000000
   60       -5.629008   1.000000
   61       -5.558697   1.000000
   62       -5.482291   1.000000
   63       -5.443554   1.000000
   64       -5.264262   1.000000
   65       -5.231544   1.000000
   66       -5.194552   1.000000
   67       -5.077599   1.000000
   68       -4.874268   1.000000
   69       -4.776609   1.000000
   70       -4.624614   1.000000
   71       -4.469664   1.000000
   72       -4.367630   1.000000
   73       -4.290311   1.000000
   74       -4.175153   1.000000
   75       -4.124309   1.000000
   76       -4.070558   1.000000
   77       -3.947269   0.999999
   78       -3.755524   0.999617
   79       -3.551552   0.972727
   80       -3.394557   0.791706
   81       -2.989525   0.020102
   82       -2.826879   0.000683
   83       -2.720090   0.000038
   84       -2.550867   0.000000
   85       -2.431639   0.000000
   86       -2.356175   0.000000
   87       -2.213651   0.000000
   88       -2.092975   0.000000
   89       -1.983333   0.000000
   90       -1.869028   0.000000
   91       -1.756575   0.000000
   92       -1.616811   0.000000
   93       -1.385259   0.000000
   94       -1.265135   0.000000
   95       -1.125426   0.000000
   96       -1.081197   0.000000
   97       -1.026405   0.000000
   98       -0.975487   0.000000
   99       -0.937394   0.000000
  100       -0.801673   0.000000
  101       -0.772462   0.000000
  102       -0.702720   0.000000
  103       -0.634427   0.000000
  104       -0.559744   0.000000
  105       -0.424747   0.000000
  106       -0.279143   0.000000
  107       -0.182977   0.000000
  108       -0.018902   0.000000
  109        0.081266   0.000000
  110        0.237179   0.000000
  111        0.371598   0.000000
  112        0.603865   0.000000
  113        0.717261   0.000000
  114        0.874903   0.000000
  115        1.161973   0.000000
  116        1.281792   0.000000
  117        1.407411   0.000000
  118        1.817987   0.000000
  119        1.989847   0.000000
  120        2.306020   0.000000
 
  0.3750000E+00  0.0000000E+00  0.0000000E+00  0.3125000E-01
    1      -17.602938   1.000000
    2      -17.214437   1.000000
    3      -16.768382   1.000000
    4      -16.696471   1.000000
    5      -16.610464   1.000000
    6      -16.488824   1.000000
    7      -16.308983   1.000000
    8      -16.165865   1.000000
    9      -16.115573   1.000000
   10      -16.020839   1.000000
   11      -15.918783   1.000000
   12      -15.857879   1.000000
   13      -15.809569   1.000000
   14      -15.639787   1.000000
   15      -15.603827   1.000000
   16      -15.522994   1.000000
   17      -15.444913   1.000000
   18      -15.285037   1.000000
   19       -9.708465   1.000000
   20       -9.289445   1.000000
   21       -9.160708   1.000000
   22       -9.044469   1.000000
   23       -8.937742   1.000000
   24       -8.886422   1.000000
   25       -8.643649   1.000000
   26       -8.565396   1.000000
   27       -8.425233   1.000000
   28       -8.349099   1.000000
   29       -8.302560   1.000000
   30       -8.248683   1.000000
   31       -8.111479   1.000000
   32       -7.988359   1.000000
   33       -7.945575   1.000000
   34       -7.847074   1.000000
   35       -7.717432   1.000000
   36       -7.679635   1.000000
   37       -7.561985   1.000000
   38       -7.504564   1.000000
   39       -7.375328   1.000000
   40       -7.319370   1.000000
   41       -7.248472   1.000000
   42       -7.143745   1.000000
   43       -7.047700   1.000000
   44       -6.964942   1.000000
   45       -6.910682   1.000000
   46       -6.839876   1.000000
   47       -6.737774   1.000000
   48       -6.617186   1.000000
   49       -6.510953   1.000000
   50       -6.439910   1.000000
   51       -6.382105   1.000000
   52       -6.318810   1.000000
   53       -6.227660   1.000000
   54       -6.168101   1.000000
   55       -6.122982   1.000000
   56       -6.082823   1.000000
   57       -6.040426   1.000000
   58       -5.983433   1.000000
   59       -5.807856   1.000000
   60       -5.696079   1.000000
   61       -5.654267   1.000000
   62       -5.514519   1.000000
   63       -5.478284   1.000000
   64       -5.314672   1.000000
   65       -5.255317   1.000000
   66       -5.134159   1.000000
   67       -5.068758   1.000000
   68       -4.874009   1.000000
   69       -4.788659   1.000000
   70       -4.696354   1.000000
   71       -4.474521   1.000000
   72       -4.448970   1.000000
   73       -4.276804   1.000000
   74       -4.133465   1.000000
   75       -4.102603   1.000000
   76       -4.027263   1.000000
   77       -3.907112   0.999995
   78       -3.746798   0.999522
   79       -3.591042   0.986157
   80       -3.315990   0.601336
   81       -3.002794   0.025125
   82       -2.885582   0.002663
   83       -2.677242   0.000010
   84       -2.509730   0.000000
   85       -2.427092   0.000000
   86       -2.322923   0.000000
   87       -2.198077   0.000000
   88       -2.035866   0.000000
   89       -1.916776   0.000000
   90       -1.848603   0.000000
   91       -1.729490   0.000000
   92       -1.561612   0.000000
   93       -1.427777   0.000000
   94       -1.296054   0.000000
   95       -1.186145   0.000000
   96       -1.153937   0.000000
   97       -1.035514   0.000000
   98       -1.005114   0.000000
   99       -0.958865   0.000000
  100       -0.924476   0.000000
  101       -0.843201   0.000000
  102       -0.772296   0.000000
  103       -0.666026   0.000000
  104       -0.572806   0.000000
  105       -0.512923   0.000000
  106       -0.389853   0.000000
  107       -0.298951   0.000000
  108       -0.092258   0.000000
  109        0.076999   0.000000
  110        0.246789   0.000000
  111        0.357557   0.000000
  112        0.716144   0.000000
  113        0.800928   0.000000
  114        0.877894   0.000000
  115        1.132788   0.000000
  116        1.293913   0.000000
  117        1.550003   0.000000
  118        2.005451   0.000000
  119        2.164627   0.000000
  120        2.477298   0.000000
 
  0.5000000E+00  0.1110223E-15  0.0000000E+00  0.1562500E-01
    1      -17.487591   1.000000
    2      -17.363366   1.000000
    3      -16.760497   1.000000
    4      -16.723101   1.000000
    5      -16.618141   1.000000
    6      -16.505007   1.000000
    7      -16.292110   1.000000
    8      -16.136351   1.000000
    9      -16.114755   1.000000
   10      -16.002117   1.000000
   11      -15.896370   1.000000
   12      -15.862254   1.000000
   13      -15.761118   1.000000
   14      -15.695029   1.000000
   15      -15.579433   1.000000
   16      -15.540326   1.000000
   17      -15.421584   1.000000
   18      -15.304014   1.000000
   19       -9.789441   1.000000
   20       -9.330144   1.000000
   21       -9.177172   1.000000
   22       -9.081462   1.000000
   23       -8.929159   1.000000
   24       -8.843682   1.000000
   25       -8.621194   1.000000
   26       -8.603377   1.000000
   27       -8.430350   1.000000
   28       -8.336471   1.000000
   29       -8.260475   1.000000
   30       -8.164141   1.000000
   31       -8.155201   1.000000
   32       -8.012604   1.000000
   33       -7.906640   1.000000
   34       -7.868223   1.000000
   35       -7.793549   1.000000
   36       -7.639727   1.000000
   37       -7.565420   1.000000
   38       -7.513821   1.000000
   39       -7.422914   1.000000
   40       -7.322906   1.000000
   41       -7.251686   1.000000
   42       -7.026090   1.000000
   43       -7.004699   1.000000
   44       -6.918562   1.000000
   45       -6.886712   1.000000
   46       -6.673166   1.000000
   47       -6.625835   1.000000
   48       -6.571824   1.000000
   49       -6.510464   1.000000
   50       -6.481611   1.000000
   51       -6.428767   1.000000
   52       -6.322358   1.000000
   53       -6.314793   1.000000
   54       -6.207195   1.000000
   55       -6.172944   1.000000
   56       -6.151786   1.000000
   57       -6.031944   1.000000
   58       -5.905627   1.000000
   59       -5.772378   1.000000
   60       -5.710022   1.000000
   61       -5.658633   1.000000
   62       -5.580011   1.000000
   63       -5.460112   1.000000
   64       -5.427270   1.000000
   65       -5.271831   1.000000
   66       -5.093389   1.000000
   67       -5.054376   1.000000
   68       -5.001744   1.000000
   69       -4.826003   1.000000
   70       -4.611562   1.000000
   71       -4.534523   1.000000
   72       -4.441504   1.000000
   73       -4.297358   1.000000
   74       -4.170439   1.000000
   75       -4.079396   1.000000
   76       -3.942274   0.999999
   77       -3.838361   0.999961
   78       -3.764603   0.999697
   79       -3.627103   0.992989
   80       -3.266010   0.461519
   81       -2.977189   0.016223
   82       -2.955541   0.010954
   83       -2.655462   0.000005
   84       -2.499218   0.000000
   85       -2.431313   0.000000
   86       -2.300490   0.000000
   87       -2.184692   0.000000
   88       -2.014454   0.000000
   89       -1.893628   0.000000
   90       -1.838857   0.000000
   91       -1.722285   0.000000
   92       -1.525715   0.000000
   93       -1.430179   0.000000
   94       -1.301259   0.000000
   95       -1.254904   0.000000
   96       -1.195988   0.000000
   97       -1.041719   0.000000
   98       -0.994846   0.000000
   99       -0.991096   0.000000
  100       -0.967477   0.000000
  101       -0.867691   0.000000
  102       -0.789727   0.000000
  103       -0.652489   0.000000
  104       -0.607207   0.000000
  105       -0.544144   0.000000
  106       -0.423245   0.000000
  107       -0.346587   0.000000
  108       -0.123840   0.000000
  109        0.079104   0.000000
  110        0.240870   0.000000
  111        0.347530   0.000000
  112        0.754369   0.000000
  113        0.812879   0.000000
  114        0.913540   0.000000
  115        1.115829   0.000000
  116        1.302325   0.000000
  117        1.605860   0.000000
  118        2.230607   0.000000
  119        2.255450   0.000000
  120        2.378627   0.000000
 
  0.0000000E+00  0.1250000E+00  0.0000000E+00  0.3125000E-01
    1      -17.798579   1.000000
    2      -16.829169   1.000000
    3      -16.700504   1.000000
    4      -16.663290   1.000000
    5      -16.526351   1.000000
    6      -16.393507   1.000000
    7      -16.331547   1.000000
    8      -16.273506   1.000000
    9      -16.238478   1.000000
   10      -16.154860   1.000000
   11      -16.008702   1.000000
   12      -15.926382   1.000000
   13      -15.864953   1.000000
   14      -15.664923   1.000000
   15      -15.637595   1.000000
   16      -15.537080   1.000000
   17      -15.334017   1.000000
   18      -15.250213   1.000000
   19       -9.253827   1.000000
   20       -9.165608   1.000000
   21       -9.007117   1.000000
   22       -8.901582   1.000000
   23       -8.856020   1.000000
   24       -8.756294   1.000000
   25       -8.673291   1.000000
   26       -8.604140   1.000000
   27       -8.526173   1.000000
   28       -8.417822   1.000000
   29       -8.308756   1.000000
   30       -8.281296   1.000000
   31       -8.260047   1.000000
   32       -8.129174   1.000000
   33       -8.073138   1.000000
   34       -8.015414   1.000000
   35       -7.781414   1.000000
   36       -7.745895   1.000000
   37       -7.653150   1.000000
   38       -7.588063   1.000000
   39       -7.486088   1.000000
   40       -7.412895   1.000000
   41       -7.271665   1.000000
   42       -7.192574   1.000000
   43       -7.110818   1.000000
   44       -7.040855   1.000000
   45       -6.955805   1.000000
   46       -6.834318   1.000000
   47       -6.750567   1.000000
   48       -6.665772   1.000000
   49       -6.615437   1.000000
   50       -6.486115   1.000000
   51       -6.401772   1.000000
   52       -6.338689   1.000000
   53       -6.248594   1.000000
   54       -6.183452   1.000000
   55       -6.103437   1.000000
   56       -6.037410   1.000000
   57       -5.958184   1.000000
   58       -5.918693   1.000000
   59       -5.694606   1.000000
   60       -5.642177   1.000000
   61       -5.561911   1.000000
   62       -5.536366   1.000000
   63       -5.452711   1.000000
   64       -5.156175   1.000000
   65       -5.090808   1.000000
   66       -4.901068   1.000000
   67       -4.873324   1.000000
   68       -4.815147   1.000000
   69       -4.792368   1.000000
   70       -4.666360   1.000000
   71       -4.603867   1.000000
   72       -4.546622   1.000000
   73       -4.418222   1.000000
   74       -4.285873   1.000000
   75       -4.188671   1.000000
   76       -4.102115   1.000000
   77       -3.814525   0.999922
   78       -3.657665   0.996239
   79       -3.532723   0.963220
   80       -3.254603   0.429649
   81       -3.130360   0.145531
   82       -2.756694   0.000109
   83       -2.676136   0.000010
   84       -2.639144   0.000003
   85       -2.467708   0.000000
   86       -2.365091   0.000000
   87       -2.173369   0.000000
   88       -2.160095   0.000000
   89       -2.049463   0.000000
   90       -1.904219   0.000000
   91       -1.761323   0.000000
   92       -1.637221   0.000000
   93       -1.355073   0.000000
   94       -1.214035   0.000000
   95       -1.196969   0.000000
   96       -1.077266   0.000000
   97       -1.026144   0.000000
   98       -0.951035   0.000000
   99       -0.827186   0.000000
  100       -0.748668   0.000000
  101       -0.718787   0.000000
  102       -0.639353   0.000000
  103       -0.548785   0.000000
  104       -0.415560   0.000000
  105       -0.370083   0.000000
  106       -0.202824   0.000000
  107       -0.028278   0.000000
  108        0.089029   0.000000
  109        0.156423   0.000000
  110        0.229961   0.000000
  111        0.385099   0.000000
  112        0.510065   0.000000
  113        0.558148   0.000000
  114        0.955976   0.000000
  115        1.090318   0.000000
  116        1.186559   0.000000
  117        1.279350   0.000000
  118        1.690214   0.000000
  119        1.879945   0.000000
  120        2.200546   0.000000
 
  0.1250000E+00  0.1250000E+00  0.0000000E+00  0.3125000E-01
    1      -17.748746   1.000000
    2      -16.908111   1.000000
    3      -16.839872   1.000000
    4      -16.662662   1.000000
    5      -16.466034   1.000000
    6      -16.401957   1.000000
    7      -16.378909   1.000000
    8      -16.285255   1.000000
    9      -16.187520   1.000000
   10      -16.054021   1.000000
   11      -15.965204   1.000000
   12      -15.906648   1.000000
   13      -15.843395   1.000000
   14      -15.663144   1.000000
   15      -15.628243   1.000000
   16      -15.559544   1.000000
   17      -15.364519   1.000000
   18      -15.249865   1.000000
   19       -9.386446   1.000000
   20       -9.274513   1.000000
   21       -9.088208   1.000000
   22       -9.059266   1.000000
   23       -8.833514   1.000000
   24       -8.746860   1.000000
   25       -8.620507   1.000000
   26       -8.591357   1.000000
   27       -8.557058   1.000000
   28       -8.405241   1.000000
   29       -8.329325   1.000000
   30       -8.247585   1.000000
   31       -8.159210   1.000000
   32       -8.114404   1.000000
   33       -7.928206   1.000000
   34       -7.833919   1.000000
   35       -7.799757   1.000000
   36       -7.714843   1.000000
   37       -7.625933   1.000000
   38       -7.515798   1.000000
   39       -7.433698   1.000000
   40       -7.383928   1.000000
   41       -7.259976   1.000000
   42       -7.237735   1.000000
   43       -7.117735   1.000000
   44       -7.024540   1.000000
   45       -6.970769   1.000000
   46       -6.847292   1.000000
   47       -6.776817   1.000000
   48       -6.687910   1.000000
   49       -6.576471   1.000000
   50       -6.458209   1.000000
   51       -6.387260   1.000000
   52       -6.333784   1.000000
   53       -6.292451   1.000000
   54       -6.166123   1.000000
   55       -6.114736   1.000000
   56       -6.048644   1.000000
   57       -5.951447   1.000000
   58       -5.891998   1.000000
   59       -5.728971   1.000000
   60       -5.634278   1.000000
   61       -5.609709   1.000000
   62       -5.495800   1.000000
   63       -5.443437   1.000000
   64       -5.289159   1.000000
   65       -5.178153   1.000000
   66       -5.083536   1.000000
   67       -4.951049   1.000000
   68       -4.848185   1.000000
   69       -4.774802   1.000000
   70       -4.620379   1.000000
   71       -4.464560   1.000000
   72       -4.411246   1.000000
   73       -4.380864   1.000000
   74       -4.271776   1.000000
   75       -4.148329   1.000000
   76       -4.072146   1.000000
   77       -3.971773   1.000000
   78       -3.731406   0.999299
   79       -3.531141   0.962311
   80       -3.313931   0.595705
   81       -3.034189   0.041297
   82       -2.743599   0.000075
   83       -2.678870   0.000011
   84       -2.593470   0.000001
   85       -2.442202   0.000000
   86       -2.339201   0.000000
   87       -2.152010   0.000000
   88       -2.119535   0.000000
   89       -1.993596   0.000000
   90       -1.903360   0.000000
   91       -1.751827   0.000000
   92       -1.624113   0.000000
   93       -1.361414   0.000000
   94       -1.261528   0.000000
   95       -1.173184   0.000000
   96       -1.087117   0.000000
   97       -1.042777   0.000000
   98       -0.965596   0.000000
   99       -0.903073   0.000000
  100       -0.818092   0.000000
  101       -0.793236   0.000000
  102       -0.746004   0.000000
  103       -0.647725   0.000000
  104       -0.465750   0.000000
  105       -0.402568   0.000000
  106       -0.196301   0.000000
  107       -0.111083   0.000000
  108        0.043443   0.000000
  109        0.171712   0.000000
  110        0.286843   0.000000
  111        0.386731   0.000000
  112        0.556395   0.000000
  113        0.671093   0.000000
  114        0.953714   0.000000
  115        1.105359   0.000000
  116        1.183412   0.000000
  117        1.238069   0.000000
  118        1.774437   0.000000
  119        1.956348   0.000000
  120        2.270445   0.000000
 
  0.2500000E+00  0.1250000E+00  0.0000000E+00  0.3125000E-01
    1      -17.651307   1.000000
    2      -17.095378   1.000000
    3      -16.914201   1.000000
    4      -16.666033   1.000000
    5      -16.476451   1.000000
    6      -16.435386   1.000000
    7      -16.348817   1.000000
    8      -16.226562   1.000000
    9      -16.143203   1.000000
   10      -16.015711   1.000000
   11      -15.936622   1.000000
   12      -15.861270   1.000000
   13      -15.812207   1.000000
   14      -15.656497   1.000000
   15      -15.623321   1.000000
   16      -15.544021   1.000000
   17      -15.420548   1.000000
   18      -15.256781   1.000000
   19       -9.610748   1.000000
   20       -9.388154   1.000000
   21       -9.233444   1.000000
   22       -9.003615   1.000000
   23       -8.870974   1.000000
   24       -8.709766   1.000000
   25       -8.636719   1.000000
   26       -8.558928   1.000000
   27       -8.439492   1.000000
   28       -8.377844   1.000000
   29       -8.340394   1.000000
   30       -8.261248   1.000000
   31       -8.142060   1.000000
   32       -8.023960   1.000000
   33       -7.972909   1.000000
   34       -7.838215   1.000000
   35       -7.781167   1.000000
   36       -7.631925   1.000000
   37       -7.566292   1.000000
   38       -7.426521   1.000000
   39       -7.376430   1.000000
   40       -7.323121   1.000000
   41       -7.304626   1.000000
   42       -7.186723   1.000000
   43       -7.107229   1.000000
   44       -7.044741   1.000000
   45       -6.865665   1.000000
   46       -6.803806   1.000000
   47       -6.732060   1.000000