       N       E                     dE             d eps       ncg     rms          rms(c)
DAV:   1     0.112605107030E+04    0.11261E+04   -0.35977E+04  8160   0.577E+02
DAV:   2    -0.284859754370E+01   -0.11289E+04   -0.10873E+04 11480   0.173E+02
DAV:   3    -0.199885425721E+03   -0.19704E+03   -0.18939E+03 10880   0.820E+01
DAV:   4    -0.208996672418E+03   -0.91112E+01   -0.88575E+01 12240   0.261E+01
DAV:   5    -0.209306824114E+03   -0.31015E+00   -0.30933E+00 11360   0.350E+00    0.275E+01
DAV:   6    -0.236737569660E+03   -0.27431E+02   -0.11020E+02 12600   0.603E+01    0.595E+01
DAV:   7    -0.196529713101E+03    0.40208E+02   -0.17802E+02 13480   0.152E+02    0.200E+01
DAV:   8    -0.189487425650E+03    0.70423E+01   -0.17492E+01 12080   0.128E+01    0.127E+01
DAV:   9    -0.188170883438E+03    0.13165E+01   -0.31130E+00 12440   0.632E+00    0.915E+00
DAV:  10    -0.187032911686E+03    0.11380E+01   -0.21406E+00 13480   0.740E+00    0.303E+00
DAV:  11    -0.186942945266E+03    0.89966E-01   -0.58931E-01 12440   0.233E+00    0.233E+00
DAV:  12    -0.187058482881E+03   -0.11554E+00   -0.66927E-01 12840   0.419E+00    0.469E+00
DAV:  13    -0.186883146132E+03    0.17534E+00   -0.49739E-01 12560   0.403E+00    0.211E+00
DAV:  14    -0.186845571265E+03    0.37575E-01   -0.10768E-01 13400   0.177E+00    0.124E+00
DAV:  15    -0.186840183063E+03    0.53882E-02   -0.62732E-02 11880   0.148E+00    0.109E+00
DAV:  16    -0.186829650327E+03    0.10533E-01   -0.19524E-02 12920   0.701E-01    0.470E-01
DAV:  17    -0.186827487671E+03    0.21627E-02   -0.90753E-03 12760   0.466E-01    0.241E-01
DAV:  18    -0.186827156183E+03    0.33149E-03   -0.21079E-03 11800   0.138E-01    0.178E-01
DAV:  19    -0.186826786547E+03    0.36964E-03   -0.95012E-04 10120   0.128E-01    0.516E-02
DAV:  20    -0.186827370182E+03   -0.58363E-03   -0.61432E-04  9320   0.583E-02    0.565E-02
DAV:  21    -0.186828028314E+03   -0.65813E-03   -0.42041E-04  9240   0.595E-02    0.436E-02
DAV:  22    -0.186829216589E+03   -0.11883E-02   -0.23010E-04  7560   0.586E-02    0.400E-02
DAV:  23    -0.186830484746E+03   -0.12682E-02   -0.15102E-04  7600   0.454E-02    0.110E-02
DAV:  24    -0.186831087796E+03   -0.60305E-03   -0.31888E-05  6640   0.140E-02    0.925E-03
DAV:  25    -0.186831472794E+03   -0.38500E-03   -0.17665E-05  5600   0.139E-02    0.563E-03
DAV:  26    -0.186831688628E+03   -0.21583E-03   -0.85397E-06  6840   0.741E-03    0.213E-03
DAV:  27    -0.186831794838E+03   -0.10621E-03   -0.39781E-06  6920   0.444E-03    0.126E-03
DAV:  28    -0.186831839719E+03   -0.44882E-04   -0.21030E-06  7360   0.346E-03
   1 F= -.18683184E+03 E0= -.18665931E+03  d E =-.186832E+03
       N       E                     dE             d eps       ncg     rms          rms(c)
DAV:   1    -0.187465818308E+03   -0.63402E+00   -0.27337E+02  8160   0.351E+01    0.461E+00
DAV:   2    -0.189254961368E+03   -0.17891E+01   -0.20083E+01 12200   0.148E+01    0.774E+00
DAV:   3    -0.189391546257E+03   -0.13658E+00   -0.37035E+00 12480   0.117E+01    0.699E+00
DAV:   4    -0.188734276266E+03    0.65727E+00   -0.66766E-01 12640   0.498E+00    0.176E+00
DAV:   5    -0.188727228199E+03    0.70481E-02   -0.29340E-01 10920   0.152E+00    0.211E+00
DAV:   6    -0.188691054880E+03    0.36173E-01   -0.29579E-01 12080   0.215E+00    0.200E+00
DAV:   7    -0.188688334877E+03    0.27200E-02   -0.17321E-01 12920   0.244E+00    0.229E+00
DAV:   8    -0.188648803915E+03    0.39531E-01   -0.92323E-02 12720   0.163E+00    0.528E-01
DAV:   9    -0.188645189718E+03    0.36142E-02   -0.77813E-03 10640   0.321E-01    0.185E-01
DAV:  10    -0.188645751983E+03   -0.56226E-03   -0.38130E-03 13440   0.302E-01    0.364E-01
DAV:  11    -0.188644870445E+03    0.88154E-03   -0.26205E-03 12240   0.302E-01    0.139E-01
DAV:  12    -0.188644936325E+03   -0.65880E-04   -0.64191E-04 11040   0.106E-01
   2 F= -.18864494E+03 E0= -.18850250E+03  d E =-.181310E+01
       N       E                     dE             d eps       ncg     rms          rms(c)
DAV:   1    -0.190565577918E+03   -0.19207E+01   -0.31203E+01  9240   0.142E+01    0.445E+00
DAV:   2    -0.190550230449E+03    0.15347E-01   -0.28435E+00 11400   0.967E+00    0.743E+00
DAV:   3    -0.190040306156E+03    0.50992E+00   -0.13564E+00 12360   0.865E+00    0.414E+00
DAV:   4    -0.189834164047E+03    0.20614E+00   -0.71120E-01 12760   0.408E+00    0.247E+00
DAV:   5    -0.189746380563E+03    0.87783E-01   -0.29144E-01 11720   0.188E+00    0.826E-01
DAV:   6    -0.189731503123E+03    0.14877E-01   -0.39390E-02 10600   0.707E-01    0.291E-01
DAV:   7    -0.189732923515E+03   -0.14204E-02   -0.87972E-03 12400   0.506E-01    0.427E-01
DAV:   8    -0.189731602728E+03    0.13208E-02   -0.30301E-03 11960   0.353E-01    0.150E-01
DAV:   9    -0.189731724781E+03   -0.12205E-03   -0.98150E-04 10440   0.119E-01    0.126E-01
DAV:  10    -0.189731724607E+03    0.17456E-06   -0.63303E-04 10160   0.119E-01
   3 F= -.18973172E+03 E0= -.18961116E+03  d E =-.108679E+01
       N       E                     dE             d eps       ncg     rms          rms(c)
DAV:   1    -0.191289331856E+03   -0.15576E+01   -0.74848E+01  8160   0.197E+01    0.462E+00
DAV:   2    -0.191184233488E+03    0.10510E+00   -0.54982E+00 13120   0.839E+00    0.526E+00
DAV:   3    -0.191199112638E+03   -0.14879E-01   -0.16395E+00 12160   0.923E+00    0.628E+00
DAV:   4    -0.190857969424E+03    0.34114E+00   -0.13187E+00 12880   0.720E+00    0.310E+00
DAV:   5    -0.190839930735E+03    0.18039E-01   -0.51588E-01 12000   0.461E+00    0.326E+00
DAV:   6    -0.190714192408E+03    0.12574E+00   -0.21705E-01 12200   0.330E+00    0.101E+00
DAV:   7    -0.190704435520E+03    0.97569E-02   -0.42441E-02 12520   0.102E+00    0.461E-01
DAV:   8    -0.190703376120E+03    0.10594E-02   -0.10574E-02 11440   0.614E-01    0.501E-01
DAV:   9    -0.190701204718E+03    0.21714E-02   -0.40366E-03 11360   0.462E-01    0.156E-01
DAV:  10    -0.190701444948E+03   -0.24023E-03   -0.11499E-03 10360   0.143E-01    0.118E-01
DAV:  11    -0.190701310146E+03    0.13480E-03   -0.84656E-04 10520   0.104E-01    0.528E-02
DAV:  12    -0.190701290344E+03    0.19802E-04   -0.15297E-04  7880   0.462E-02
   4 F= -.19070129E+03 E0= -.19059677E+03  d E =-.969566E+00
       N       E                     dE             d eps       ncg     rms          rms(c)
DAV:   1    -0.192029248308E+03   -0.13279E+01   -0.15600E+02  8160   0.279E+01    0.566E+00
DAV:   2    -0.191887038266E+03    0.14221E+00   -0.94961E+00 12240   0.933E+00    0.502E+00
DAV:   3    -0.192208932412E+03   -0.32189E+00   -0.24428E+00 11240   0.109E+01    0.935E+00
DAV:   4    -0.191585101480E+03    0.62383E+00   -0.28551E+00 12080   0.114E+01    0.406E+00
DAV:   5    -0.191522404752E+03    0.62697E-01   -0.83212E-01 12280   0.596E+00    0.374E+00
DAV:   6    -0.191334817960E+03    0.18759E+00   -0.29635E-01 12240   0.397E+00    0.935E-01
DAV:   7    -0.191328507180E+03    0.63108E-02   -0.55631E-02 12240   0.114E+00    0.570E-01
DAV:   8    -0.191326335011E+03    0.21722E-02   -0.18163E-02 11880   0.800E-01    0.595E-01
DAV:   9    -0.191323137197E+03    0.31978E-02   -0.61723E-03 11960   0.561E-01    0.183E-01
DAV:  10    -0.191323546146E+03   -0.40895E-03   -0.20533E-03 10920   0.177E-01    0.126E-01
DAV:  11    -0.191323302969E+03    0.24318E-03   -0.81331E-04 11240   0.108E-01    0.478E-02
DAV:  12    -0.191323305624E+03   -0.26551E-05   -0.11915E-04  6560   0.403E-02
   5 F= -.19132331E+03 E0= -.19122264E+03  d E =-.622015E+00
       N       E                     dE             d eps       ncg     rms          rms(c)
DAV:   1    -0.191363986250E+03   -0.40683E-01   -0.36231E+00  8160   0.401E+00    0.512E-01
DAV:   2    -0.191405590582E+03   -0.41604E-01   -0.20392E-01 12720   0.234E+00    0.183E+00
DAV:   3    -0.191375428388E+03    0.30162E-01   -0.70562E-02 12040   0.181E+00    0.445E-01
DAV:   4    -0.191375374963E+03    0.53425E-04   -0.93748E-03 11160   0.668E-01    0.454E-01
DAV:   5    -0.191373287608E+03    0.20874E-02   -0.50948E-03 10320   0.514E-01    0.194E-01
DAV:   6    -0.191373182248E+03    0.10536E-03   -0.16663E-03 10800   0.223E-01    0.165E-01
DAV:   7    -0.191373499293E+03   -0.31705E-03   -0.21408E-03 10440   0.330E-01    0.244E-01
DAV:   8    -0.191372873343E+03    0.62595E-03   -0.10214E-03  8920   0.219E-01    0.334E-02
DAV:   9    -0.191372886097E+03   -0.12753E-04   -0.91592E-05  5880   0.373E-02
   6 F= -.19137289E+03 E0= -.19127049E+03  d E =-.495805E-01
       N       E                     dE             d eps       ncg     rms          rms(c)
DAV:   1    -0.191417762545E+03   -0.44889E-01   -0.48537E+00  8160   0.463E+00    0.527E-01
DAV:   2    -0.191448600505E+03   -0.30838E-01   -0.16234E-01 12960   0.178E+00    0.163E+00
DAV:   3    -0.191426091152E+03    0.22509E-01   -0.66003E-02 12240   0.173E+00    0.548E-01
DAV:   4    -0.191424337972E+03    0.17532E-02   -0.97258E-03 11080   0.597E-01    0.400E-01
DAV:   5    -0.191423134518E+03    0.12035E-02   -0.56452E-03 10760   0.539E-01    0.274E-01
DAV:   6    -0.191422669756E+03    0.46476E-03   -0.27845E-03 10360   0.328E-01    0.196E-01
DAV:   7    -0.191422901572E+03   -0.23182E-03   -0.25406E-03 11280   0.355E-01    0.243E-01
DAV:   8    -0.191422291053E+03    0.61052E-03   -0.11629E-03  9360   0.234E-01    0.454E-02
DAV:   9    -0.191422281162E+03    0.98913E-05   -0.10084E-04  5640   0.442E-02
   7 F= -.19142228E+03 E0= -.19131864E+03  d E =-.493951E-01
       N       E                     dE             d eps       ncg     rms          rms(c)
DAV:   1    -0.191438159669E+03   -0.15869E-01   -0.44416E-01  8160   0.142E+00    0.198E-01
DAV:   2    -0.191441305149E+03   -0.31455E-02   -0.18458E-02 12160   0.672E-01    0.547E-01
DAV:   3    -0.191438576044E+03    0.27291E-02   -0.68189E-03 11520   0.580E-01    0.174E-01
DAV:   4    -0.191438671009E+03   -0.94965E-04   -0.15682E-03  9840   0.277E-01    0.204E-01
DAV:   5    -0.191438279601E+03    0.39141E-03   -0.11697E-03  9880   0.248E-01    0.997E-02
DAV:   6    -0.191438219000E+03    0.60601E-04   -0.42232E-04  7680   0.117E-01
   8 F= -.19143822E+03 E0= -.19133430E+03  d E =-.159378E-01
       N       E                     dE             d eps       ncg     rms          rms(c)
DAV:   1    -0.191453404545E+03   -0.15125E-01   -0.56644E-01  8160   0.159E+00    0.233E-01
DAV:   2    -0.191462934245E+03   -0.95297E-02   -0.35565E-02 12840   0.109E+00    0.942E-01
DAV:   3    -0.191454494466E+03    0.84398E-02   -0.17329E-02 11160   0.874E-01    0.185E-01
DAV:   4    -0.191454623036E+03   -0.12857E-03   -0.18637E-03  9800   0.299E-01    0.201E-01
DAV:   5    -0.191454191723E+03    0.43131E-03   -0.87302E-04 10080   0.208E-01    0.662E-02
DAV:   6    -0.191454230290E+03   -0.38567E-04   -0.25333E-04  6920   0.981E-02
   9 F= -.19145423E+03 E0= -.19134990E+03  d E =-.160113E-01
       N       E                     dE             d eps       ncg     rms          rms(c)
DAV:   1    -0.191496272133E+03   -0.42080E-01   -0.31597E+00  8160   0.374E+00    0.428E-01
DAV:   2    -0.191521427834E+03   -0.25156E-01   -0.10700E-01 13360   0.160E+00    0.150E+00
DAV:   3    -0.191500403955E+03    0.21024E-01   -0.42109E-02 12440   0.147E+00    0.317E-01
DAV:   4    -0.191500361484E+03    0.42471E-04   -0.42783E-03 11520   0.392E-01    0.331E-01
DAV:   5    -0.191499558048E+03    0.80344E-03   -0.37183E-03 12240   0.420E-01    0.214E-01
DAV:   6    -0.191499520885E+03    0.37163E-04   -0.20283E-03  9920   0.273E-01    0.179E-01
DAV:   7    -0.191499396597E+03    0.12429E-03   -0.14896E-03 10120   0.272E-01    0.145E-01
DAV:   8    -0.191499127246E+03    0.26935E-03   -0.41819E-04  8000   0.138E-01    0.206E-02
DAV:   9    -0.191499136341E+03   -0.90947E-05   -0.53570E-05  6280   0.268E-02
  10 F= -.19149914E+03 E0= -.19139524E+03  d E =-.449061E-01
       N       E                     dE             d eps       ncg     rms          rms(c)
DAV:   1    -0.191466501916E+03    0.32625E-01   -0.16353E+00  8160   0.271E+00    0.340E-01
DAV:   2    -0.191478071769E+03   -0.11570E-01   -0.57410E-02 13480   0.123E+00    0.102E+00
DAV:   3    -0.191468073723E+03    0.99980E-02   -0.21075E-02 12000   0.105E+00    0.279E-01
DAV:   4    -0.191468130858E+03   -0.57135E-04   -0.36193E-03 10160   0.421E-01    0.301E-01
DAV:   5    -0.191467271515E+03    0.85934E-03   -0.28209E-03 10440   0.389E-01    0.158E-01
DAV:   6    -0.191467149881E+03    0.12163E-03   -0.11408E-03 10320   0.194E-01    0.121E-01
DAV:   7    -0.191467161303E+03   -0.11422E-04   -0.90690E-04  8680   0.202E-01
  11 F= -.19146716E+03 E0= -.19136290E+03  d E =0.319750E-01
       N       E                     dE             d eps       ncg     rms          rms(c)
DAV:   1    -0.191532254442E+03   -0.65105E-01   -0.71656E+00  8160   0.567E+00    0.680E-01
DAV:   2    -0.191581875719E+03   -0.49621E-01   -0.25194E-01 13080   0.248E+00    0.217E+00
DAV:   3    -0.191541395366E+03    0.40480E-01   -0.96637E-02 12240   0.218E+00    0.569E-01
DAV:   4    -0.191541491848E+03   -0.96482E-04   -0.16014E-02 12240   0.847E-01    0.650E-01
DAV:   5    -0.191537768307E+03    0.37235E-02   -0.12320E-02 11600   0.791E-01    0.357E-01
DAV:   6    -0.191537616318E+03    0.15199E-03   -0.65149E-03 11120   0.489E-01    0.342E-01
DAV:   7    -0.191536955964E+03    0.66035E-03   -0.48019E-03 11640   0.477E-01    0.222E-01
DAV:   8    -0.191536326461E+03    0.62950E-03   -0.11232E-03  9560   0.202E-01    0.435E-02
DAV:   9    -0.191536304871E+03    0.21590E-04   -0.13242E-04  6680   0.426E-02
  12 F= -.19153630E+03 E0= -.19143292E+03  d E =-.691436E-01
       N       E                     dE             d eps       ncg     rms          rms(c)
DAV:   1    -0.191546444218E+03   -0.10118E-01   -0.14436E-01  8160   0.802E-01    0.855E-02
DAV:   2    -0.191547111677E+03   -0.66746E-03   -0.44200E-03 12200   0.272E-01    0.220E-01
DAV:   3    -0.191546700938E+03    0.41074E-03   -0.12874E-03  9920   0.249E-01    0.908E-02
DAV:   4    -0.191546667668E+03    0.33271E-04   -0.20213E-04  5720   0.949E-02
  13 F= -.19154667E+03 E0= -.19144364E+03  d E =-.103628E-01
       N       E                     dE             d eps       ncg     rms          rms(c)
DAV:   1    -0.191548479187E+03   -0.17782E-02   -0.16109E-01  8160   0.901E-01    0.232E-01
DAV:   2    -0.191552789436E+03   -0.43102E-02   -0.17786E-02 11520   0.874E-01    0.690E-01
DAV:   3    -0.191547749240E+03    0.50402E-02   -0.85533E-03 11160   0.702E-01    0.173E-01
DAV:   4    -0.191548081911E+03   -0.33267E-03   -0.23279E-03  9560   0.329E-01    0.270E-01
DAV:   5    -0.191547452883E+03    0.62903E-03   -0.18935E-03  9520   0.288E-01    0.118E-01
DAV:   6    -0.191547293335E+03    0.15955E-03   -0.57149E-04  8640   0.111E-01    0.369E-02
DAV:   7    -0.191547276091E+03    0.17243E-04   -0.10942E-04  7080   0.386E-02
  14 F= -.19154728E+03 E0= -.19144462E+03  d E =-.608424E-03
       N       E                     dE             d eps       ncg     rms          rms(c)
DAV:   1    -0.191603912678E+03   -0.56619E-01   -0.44125E+00  8160   0.448E+00    0.534E-01
DAV:   2    -0.191628413181E+03   -0.24501E-01   -0.15870E-01 12760   0.182E+00    0.142E+00
DAV:   3    -0.191611280075E+03    0.17133E-01   -0.51038E-02 12240   0.157E+00    0.515E-01
DAV:   4    -0.191610828161E+03    0.45191E-03   -0.11626E-02 11520   0.718E-01    0.507E-01
DAV:   5    -0.191608530339E+03    0.22978E-02   -0.77808E-03 11240   0.643E-01    0.297E-01
DAV:   6    -0.191608084480E+03    0.44586E-03   -0.38398E-03 10240   0.360E-01    0.221E-01
DAV:   7    -0.191608194722E+03   -0.11024E-03   -0.32380E-03 11480   0.389E-01    0.249E-01
DAV:   8    -0.191607483600E+03    0.71112E-03   -0.12477E-03  9240   0.231E-01    0.358E-02
DAV:   9    -0.191607480185E+03    0.34147E-05   -0.93938E-05  5880   0.376E-02
  15 F= -.19160748E+03 E0= -.19150633E+03  d E =-.602041E-01
       N       E                     dE             d eps       ncg     rms          rms(c)
DAV:   1    -0.191668741817E+03   -0.61258E-01   -0.51252E+00  8160   0.481E+00    0.530E-01
DAV:   2    -0.191695980119E+03   -0.27238E-01   -0.16761E-01 12320   0.180E+00    0.153E+00
DAV:   3    -0.191676909474E+03    0.19071E-01   -0.58837E-02 12240   0.161E+00    0.484E-01
DAV:   4    -0.191675916361E+03    0.99311E-03   -0.85572E-03 11480   0.583E-01    0.431E-01
DAV:   5    -0.191674518498E+03    0.13979E-02   -0.64218E-03 11320   0.578E-01    0.296E-01
DAV:   6    -0.191674143539E+03    0.37496E-03   -0.39147E-03 11120   0.368E-01    0.199E-01
DAV:   7    -0.191674030558E+03    0.11298E-03   -0.24237E-03 11480   0.332E-01    0.190E-01
DAV:   8    -0.191673587465E+03    0.44309E-03   -0.76273E-04  9240   0.195E-01    0.348E-02
DAV:   9    -0.191673578600E+03    0.88659E-05   -0.81071E-05  6080   0.379E-02
  16 F= -.19167358E+03 E0= -.19157497E+03  d E =-.660984E-01
       N       E                     dE             d eps       ncg     rms          rms(c)
DAV:   1    -0.191670978631E+03    0.26088E-02   -0.77715E-03  8160   0.188E-01    0.201E-02
DAV:   2    -0.191671003654E+03   -0.25023E-04   -0.20428E-04  9040   0.617E-02
  17 F= -.19167100E+03 E0= -.19157232E+03  d E =0.257495E-02
       N       E                     dE             d eps       ncg     rms          rms(c)
DAV:   1    -0.191763655474E+03   -0.92677E-01   -0.12143E+01  8160   0.746E+00    0.751E-01
DAV:   2    -0.191793295376E+03   -0.29640E-01   -0.31957E-01 12080   0.198E+00    0.127E+00
DAV:   3    -0.191785711952E+03    0.75834E-02   -0.71466E-02 12400   0.188E+00    0.968E-01
DAV:   4    -0.191777307385E+03    0.84046E-02   -0.20307E-02 12280   0.960E-01    0.438E-01
DAV:   5    -0.191776811483E+03    0.49590E-03   -0.11644E-02 12280   0.760E-01    0.468E-01
DAV:   6    -0.191775184674E+03    0.16268E-02   -0.73555E-03 11960   0.599E-01    0.239E-01
DAV:   7    -0.191774745480E+03    0.43919E-03   -0.29575E-03 11360   0.342E-01    0.205E-01
DAV:   8    -0.191774314945E+03    0.43053E-03   -0.12998E-03 10120   0.251E-01    0.746E-02
DAV:   9    -0.191774259098E+03    0.55847E-04   -0.21567E-04  6840   0.796E-02
  18 F= -.19177426E+03 E0= -.19168150E+03  d E =-.103255E+00
       N       E                     dE             d eps       ncg     rms          rms(c)
DAV:   1    -0.191735370057E+03    0.38945E-01   -0.22113E+00  8160   0.323E+00    0.419E-01
DAV:   2    -0.191749290886E+03   -0.13921E-01   -0.80312E-02 12480   0.143E+00    0.115E+00
DAV:   3    -0.191736457116E+03    0.12834E-01   -0.32573E-02 12280   0.123E+00    0.294E-01
DAV:   4    -0.191736461076E+03   -0.39604E-05   -0.59272E-03 12280   0.499E-01    0.349E-01
DAV:   5    -0.191735422332E+03    0.10387E-02   -0.45688E-03 11360   0.498E-01    0.225E-01
DAV:   6    -0.191734911977E+03    0.51035E-03   -0.20623E-03 11160   0.271E-01    0.110E-01
DAV:   7    -0.191735026241E+03   -0.11426E-03   -0.10644E-03 10640   0.218E-01    0.170E-01
DAV:   8    -0.191734737487E+03    0.28875E-03   -0.51200E-04  8560   0.160E-01    0.320E-02
DAV:   9    -0.191734737070E+03    0.41622E-06   -0.50778E-05  5920   0.314E-02
  19 F= -.19173474E+03 E0= -.19163910E+03  d E =0.395220E-01
       N       E                     dE             d eps       ncg     rms          rms(c)
DAV:   1    -0.191792367605E+03   -0.57630E-01   -0.38947E+00  8160   0.421E+00    0.454E-01
DAV:   2    -0.191811220696E+03   -0.18853E-01   -0.12580E-01 12160   0.148E+00    0.125E+00
DAV:   3    -0.191798661564E+03    0.12559E-01   -0.42292E-02 12280   0.134E+00    0.406E-01
DAV:   4    -0.191797011320E+03    0.16502E-02   -0.44932E-03 11440   0.371E-01    0.217E-01
DAV:   5    -0.191797107624E+03   -0.96304E-04   -0.35388E-03 12840   0.420E-01    0.271E-01
DAV:   6    -0.191796674416E+03    0.43321E-03   -0.30314E-03 11440   0.374E-01    0.161E-01
DAV:   7    -0.191796431510E+03    0.24291E-03   -0.11337E-03  9640   0.207E-01    0.112E-01
DAV:   8    -0.191796294046E+03    0.13746E-03   -0.28872E-04  8560   0.132E-01    0.361E-02
DAV:   9    -0.191796282856E+03    0.11190E-04   -0.56305E-05  6080   0.445E-02
  20 F= -.19179628E+03 E0= -.19170381E+03  d E =-.615458E-01
       N       E                     dE             d eps       ncg     rms          rms(c)
DAV:   1    -0.191801399985E+03   -0.51059E-02   -0.32772E-02  8160   0.396E-01    0.543E-02
DAV:   2    -0.191801544621E+03   -0.14464E-03   -0.13900E-03 12600   0.157E-01    0.108E-01
DAV:   3    -0.191801448125E+03    0.96496E-04   -0.43106E-04  8840   0.149E-01
  21 F= -.19180145E+03 E0= -.19170930E+03  d E =-.516527E-02
       N       E                     dE             d eps       ncg     rms          rms(c)
DAV:   1    -0.191783709201E+03    0.17835E-01   -0.41194E-01  8160   0.139E+00    0.185E-01
DAV:   2    -0.191788257352E+03   -0.45482E-02   -0.18335E-02 13120   0.746E-01    0.653E-01
DAV:   3    -0.191783978585E+03    0.42788E-02   -0.84819E-03 11280   0.650E-01    0.102E-01
DAV:   4    -0.191784038841E+03   -0.60256E-04   -0.76529E-04  9120   0.158E-01
  22 F= -.19178404E+03 E0= -.19169124E+03  d E =0.174093E-01
       N       E                     dE             d eps       ncg     rms          rms(c)
DAV:   1    -0.191838787018E+03   -0.54808E-01   -0.39474E+00  8160   0.423E+00    0.438E-01
DAV:   2    -0.191858086719E+03   -0.19300E-01   -0.12455E-01 12200   0.162E+00    0.122E+00
DAV:   3    -0.191845120228E+03    0.12966E-01   -0.36938E-02 12360   0.133E+00    0.386E-01
DAV:   4    -0.191844509626E+03    0.61060E-03   -0.55755E-03 10720   0.522E-01    0.335E-01
DAV:   5    -0.191843478563E+03    0.10311E-02   -0.36881E-03 12360   0.478E-01    0.187E-01
DAV:   6    -0.191843189107E+03    0.28946E-03   -0.14603E-03 11320   0.207E-01    0.789E-02
DAV:   7    -0.191843104104E+03    0.85002E-04   -0.45918E-04 10080   0.105E-01
  23 F= -.19184310E+03 E0= -.19175345E+03  d E =-.590653E-01
       N       E                     dE             d eps       ncg     rms          rms(c)
DAV:   1    -0.191860927077E+03   -0.17738E-01   -0.31012E-01  8160   0.122E+00    0.178E-01
DAV:   2    -0.191861468823E+03   -0.54175E-03   -0.11261E-02 11960   0.371E-01    0.247E-01
DAV:   3    -0.191861467077E+03    0.17458E-05   -0.35529E-03 12120   0.431E-01    0.259E-01
DAV:   4    -0.191860782095E+03    0.68498E-03   -0.13906E-03  9800   0.262E-01    0.865E-02
DAV:   5    -0.191860810665E+03   -0.28571E-04   -0.66365E-04  9280   0.161E-01
  24 F= -.19186081E+03 E0= -.19177217E+03  d E =-.177066E-01
       N       E                     dE             d eps       ncg     rms          rms(c)
DAV:   1    -0.191940303518E+03   -0.79521E-01   -0.76594E+00  8160   0.598E+00    0.692E-01
DAV:   2    -0.191970008645E+03   -0.29705E-01   -0.24138E-01 12440   0.198E+00    0.151E+00
DAV:   3    -0.191951940980E+03    0.18068E-01   -0.63915E-02 12360   0.186E+00    0.659E-01
DAV:   4    -0.191947999223E+03    0.39418E-02   -0.12654E-02 11160   0.724E-01    0.442E-01
DAV:   5    -0.191946961551E+03    0.10377E-02   -0.94269E-03 12000   0.748E-01    0.368E-01
DAV:   6    -0.191945916600E+03    0.10450E-02   -0.48437E-03 11560   0.453E-01    0.196E-01
DAV:   7    -0.191945673248E+03    0.24335E-03   -0.24828E-03 11120   0.352E-01    0.172E-01
DAV:   8    -0.191945303255E+03    0.36999E-03   -0.67850E-04 10360   0.193E-01    0.363E-02
DAV:   9    -0.191945292856E+03    0.10400E-04   -0.84536E-05  6360   0.379E-02
  25 F= -.19194529E+03 E0= -.19186110E+03  d E =-.844822E-01
       N       E                     dE             d eps       ncg     rms          rms(c)
DAV:   1    -0.192005608824E+03   -0.60306E-01   -0.55825E+00  8160   0.505E+00    0.587E-01
DAV:   2    -0.192034854107E+03   -0.29245E-01   -0.19433E-01 11280   0.199E+00    0.135E+00
DAV:   3    -0.192015226426E+03    0.19628E-01   -0.40078E-02 12200   0.165E+00    0.450E-01
DAV:   4    -0.192015392153E+03   -0.16573E-03   -0.91228E-03 11400   0.727E-01    0.519E-01
DAV:   5    -0.192012822293E+03    0.25699E-02   -0.68666E-03 11240   0.653E-01    0.228E-01
DAV:   6    -0.192012869589E+03   -0.47297E-04   -0.29537E-03 12680   0.344E-01    0.214E-01
DAV:   7    -0.192012523404E+03    0.34618E-03   -0.20658E-03 11200   0.348E-01    0.149E-01
DAV:   8    -0.192012223760E+03    0.29964E-03   -0.52090E-04  9200   0.160E-01    0.249E-02
DAV:   9    -0.192012229883E+03   -0.61224E-05   -0.74426E-05  6080   0.315E-02
  26 F= -.19201223E+03 E0= -.19193196E+03  d E =-.669370E-01
       N       E                     dE             d eps       ncg     rms          rms(c)
DAV:   1    -0.192043963221E+03   -0.31739E-01   -0.16925E+00  8160   0.282E+00    0.355E-01
DAV:   2    -0.192049436932E+03   -0.54737E-02   -0.64582E-02 11560   0.895E-01    0.573E-01
DAV:   3    -0.192047890079E+03    0.15469E-02   -0.13290E-02 12240   0.909E-01    0.430E-01
DAV:   4    -0.192045642597E+03    0.22475E-02   -0.33702E-03 11320   0.423E-01    0.123E-01
DAV:   5    -0.192045918010E+03   -0.27541E-03   -0.17229E-03 11760   0.283E-01    0.207E-01
DAV:   6    -0.192045474134E+03    0.44388E-03   -0.12697E-03 10360   0.287E-01    0.917E-02
DAV:   7    -0.192045388904E+03    0.85230E-04   -0.33277E-04  8760   0.127E-01
  27 F= -.19204539E+03 E0= -.19196638E+03  d E =-.331590E-01
       N       E                     dE             d eps       ncg     rms          rms(c)
DAV:   1    -0.192078786228E+03   -0.33312E-01   -0.25759E+00  8160   0.341E+00    0.398E-01
DAV:   2    -0.192090661532E+03   -0.11875E-01   -0.94247E-02 11200   0.133E+00    0.802E-01
DAV:   3    -0.192083983355E+03    0.66782E-02   -0.16957E-02 12200   0.108E+00    0.326E-01
DAV:   4    -0.192083503713E+03    0.47964E-03   -0.36322E-03 11400   0.477E-01    0.297E-01
DAV:   5    -0.192082807387E+03    0.69633E-03   -0.24877E-03 11120   0.424E-01    0.175E-01
DAV:   6    -0.192082660551E+03    0.14684E-03   -0.12621E-03 10680   0.216E-01    0.110E-01
DAV:   7    -0.192082627597E+03    0.32954E-04   -0.84072E-04 10200   0.210E-01
  28 F= -.19208263E+03 E0= -.19200576E+03  d E =-.372387E-01
       N       E                     dE             d eps       ncg     rms          rms(c)
DAV:   1    -0.192103814715E+03   -0.21154E-01   -0.11380E+00  8160   0.231E+00    0.295E-01
DAV:   2    -0.192106657460E+03   -0.28427E-02   -0.44256E-02 11800   0.647E-01    0.349E-01
DAV:   3    -0.192107216163E+03   -0.55870E-03   -0.78148E-03 12240   0.725E-01    0.431E-01
DAV:   4    -0.192105061672E+03    0.21545E-02   -0.28344E-03 11360   0.444E-01    0.103E-01
DAV:   5    -0.192105179096E+03   -0.11742E-03   -0.10408E-03 10280   0.219E-01    0.148E-01
DAV:   6    -0.192104978054E+03    0.20104E-03   -0.75522E-04 10400   0.229E-01    0.813E-02
DAV:   7    -0.192104897947E+03    0.80107E-04   -0.21560E-04  7840   0.102E-01
  29 F= -.19210490E+03 E0= -.19202870E+03  d E =-.222704E-01
       N       E                     dE             d eps       ncg     rms          rms(c)
DAV:   1    -0.192127164032E+03   -0.22186E-01   -0.17240E+00  8160   0.279E+00    0.334E-01
DAV:   2    -0.192135308617E+03   -0.81446E-02   -0.66229E-02 11080   0.113E+00    0.648E-01
DAV:   3    -0.192130772040E+03    0.45366E-02   -0.11529E-02 12080   0.897E-01    0.254E-01
DAV:   4    -0.192130280480E+03    0.49156E-03   -0.21629E-03 11400   0.348E-01    0.199E-01
DAV:   5    -0.192130081427E+03    0.19905E-03   -0.14725E-03 11160   0.338E-01    0.160E-01
DAV:   6    -0.192129925303E+03    0.15612E-03   -0.86428E-04 10520   0.201E-01    0.852E-02
DAV:   7    -0.192129893076E+03    0.32227E-04   -0.44937E-04  8720   0.149E-01
  30 F= -.19212989E+03 E0= -.19205518E+03  d E =-.249951E-01
       N       E                     dE             d eps       ncg     rms          rms(c)
DAV:   1    -0.192142700722E+03   -0.12775E-01   -0.57998E-01  8160   0.166E+00    0.217E-01
DAV:   2    -0.192143800837E+03   -0.11001E-02   -0.23029E-02 11320   0.419E-01    0.178E-01
DAV:   3    -0.192144548940E+03   -0.74810E-03   -0.32688E-03 12280   0.472E-01    0.333E-01
DAV:   4    -0.192143278893E+03    0.12700E-02   -0.16362E-03 10360   0.368E-01    0.770E-02
DAV:   5    -0.192143284896E+03   -0.60035E-05   -0.48142E-04  9400   0.128E-01
  31 F= -.19214328E+03 E0= -.19206884E+03  d E =-.133918E-01
       N       E                     dE             d eps       ncg     rms          rms(c)
DAV:   1    -0.192159785453E+03   -0.16507E-01   -0.12809E+00  8160   0.242E+00    0.304E-01
DAV:   2    -0.192166960985E+03   -0.71755E-02   -0.50092E-02 11320   0.102E+00    0.637E-01
DAV:   3    -0.192162178135E+03    0.47828E-02   -0.10411E-02 12320   0.857E-01    0.201E-01
DAV:   4    -0.192161898156E+03    0.27998E-03   -0.15339E-03 11240   0.273E-01    0.163E-01
DAV:   5    -0.192161756117E+03    0.14204E-03   -0.11904E-03 11200   0.281E-01    0.125E-01
DAV:   6    -0.192161631851E+03    0.12427E-03   -0.58005E-04 10240   0.149E-01    0.456E-02
DAV:   7    -0.192161595566E+03    0.36285E-04   -0.10176E-04  6760   0.569E-02
  32 F= -.19216160E+03 E0= -.19208806E+03  d E =-.183107E-01
       N       E                     dE             d eps       ncg     rms          rms(c)
DAV:   1    -0.192171052152E+03   -0.94203E-02   -0.41737E-01  8160   0.140E+00    0.183E-01
DAV:   2    -0.192171843109E+03   -0.79096E-03   -0.16050E-02 11080   0.340E-01    0.151E-01
DAV:   3    -0.192172340807E+03   -0.49770E-03   -0.23484E-03 12320   0.403E-01    0.275E-01
DAV:   4    -0.192171461890E+03    0.87892E-03   -0.10808E-03 10120   0.302E-01    0.658E-02
DAV:   5    -0.192171529763E+03   -0.67873E-04   -0.37493E-04  8520   0.152E-01
  33 F= -.19217153E+03 E0= -.19209827E+03  d E =-.993420E-02
       N       E                     dE             d eps       ncg     rms          rms(c)
DAV:   1    -0.192183121312E+03   -0.11659E-01   -0.78888E-01  8160   0.190E+00    0.233E-01
DAV:   2    -0.192186572032E+03   -0.34507E-02   -0.29337E-02 11400   0.715E-01    0.418E-01
DAV:   3    -0.192184655007E+03    0.19170E-02   -0.53439E-03 12280   0.614E-01    0.172E-01
DAV:   4    -0.192184326450E+03    0.32856E-03   -0.80847E-04  9800   0.199E-01    0.101E-01
DAV:   5    -0.192184410125E+03   -0.83675E-04   -0.77041E-04 10640   0.223E-01
  34 F= -.19218441E+03 E0= -.19211171E+03  d E =-.128804E-01
       N       E                     dE             d eps       ncg     rms          rms(c)
DAV:   1    -0.192191963571E+03   -0.76371E-02   -0.32874E-01  8160   0.124E+00    0.156E-01
DAV:   2    -0.192192841647E+03   -0.87808E-03   -0.11597E-02 11280   0.340E-01    0.189E-01
DAV:   3    -0.192192753004E+03    0.88644E-04   -0.21221E-03 12480   0.367E-01    0.181E-01
DAV:   4    -0.192192364940E+03    0.38806E-03   -0.61005E-04  9160   0.207E-01    0.660E-02
DAV:   5    -0.192192416925E+03   -0.51985E-04   -0.33277E-04  9040   0.150E-01
  35 F= -.19219242E+03 E0= -.19211997E+03  d E =-.800680E-02
       N       E                     dE             d eps       ncg     rms          rms(c)
DAV:   1    -0.192213156022E+03   -0.20791E-01   -0.41061E+00  8160   0.436E+00    0.493E-01
DAV:   2    -0.192222827601E+03   -0.96716E-02   -0.13788E-01 11440   0.106E+00    0.472E-01
DAV:   3    -0.192224292118E+03   -0.14645E-02   -0.19617E-02 12160   0.112E+00    0.626E-01
DAV:   4    -0.192219583384E+03    0.47087E-02   -0.70225E-03 11800   0.739E-01    0.207E-01
DAV:   5    -0.192219933321E+03   -0.34994E-03   -0.28649E-03 12520   0.451E-01    0.282E-01
DAV:   6    -0.192219400717E+03    0.53260E-03   -0.22920E-03 11880   0.405E-01    0.158E-01
DAV:   7    -0.192219007725E+03    0.39299E-03   -0.74362E-04 10040   0.172E-01    0.472E-02
DAV:   8    -0.192219009914E+03   -0.21884E-05   -0.12495E-04  7240   0.893E-02
  36 F= -.19221901E+03 E0= -.19214730E+03  d E =-.265930E-01
       N       E                     dE             d eps       ncg     rms          rms(c)
DAV:   1    -0.192224173882E+03   -0.51662E-02   -0.18285E-01  8160   0.919E-01    0.122E-01
DAV:   2    -0.192224903757E+03   -0.72987E-03   -0.71594E-03 11760   0.380E-01    0.209E-01
DAV:   3    -0.192224443338E+03    0.46042E-03   -0.13492E-03 11160   0.311E-01    0.921E-02
DAV:   4    -0.192224385501E+03    0.57837E-04   -0.30123E-04  7400   0.129E-01
  37 F= -.19222439E+03 E0= -.19215306E+03  d E =-.537559E-02
       N       E                     dE             d eps       ncg     rms          rms(c)
DAV:   1    -0.192232419891E+03   -0.79766E-02   -0.45399E-01  8160   0.145E+00    0.182E-01
DAV:   2    -0.192234071425E+03   -0.16515E-02   -0.14829E-02 11920   0.481E-01    0.316E-01
DAV:   3    -0.192233172261E+03    0.89916E-03   -0.28194E-03 12000   0.468E-01    0.169E-01
DAV:   4    -0.192232905899E+03    0.26636E-03   -0.68665E-04  9680   0.192E-01    0.729E-02
DAV:   5    -0.192232880148E+03    0.25751E-04   -0.41061E-04  9960   0.128E-01
  38 F= -.19223288E+03 E0= -.19216182E+03  d E =-.849465E-02
       N       E                     dE             d eps       ncg     rms          rms(c)
DAV:   1    -0.192240285531E+03   -0.73796E-02   -0.35484E-01  8160   0.129E+00    0.173E-01
DAV:   2    -0.192242156822E+03   -0.18713E-02   -0.13485E-02 12560   0.525E-01    0.336E-01
DAV:   3    -0.192240818644E+03    0.13382E-02   -0.32465E-03 12320   0.488E-01    0.128E-01
DAV:   4    -0.192240779641E+03    0.39002E-04   -0.51247E-04  8960   0.185E-01
  39 F= -.19224078E+03 E0= -.19217010E+03  d E =-.789949E-02
       N       E                     dE             d eps       ncg     rms          rms(c)
DAV:   1    -0.192240569843E+03    0.24880E-03   -0.28514E-03 12360   0.225E-01    0.674E-02
DAV:   2    -0.192241323806E+03   -0.75396E-03   -0.12977E-03 10520   0.334E-01    0.257E-01
DAV:   3    -0.192240516230E+03    0.80758E-03   -0.72635E-04  9600   0.273E-01    0.235E-02
DAV:   4    -0.192240552377E+03   -0.36147E-04   -0.50314E-05  5760   0.620E-02
  40 F= -.19224055E+03 E0= -.19216978E+03  d E =0.227264E-03
       N       E                     dE             d eps       ncg     rms          rms(c)
DAV:   1    -0.192249381015E+03   -0.88648E-02   -0.56539E-01  8160   0.161E+00    0.191E-01
DAV:   2    -0.192251154557E+03   -0.17735E-02   -0.18179E-02 10920   0.546E-01    0.304E-01
DAV:   3    -0.192250288133E+03    0.86642E-03   -0.33602E-03 12400   0.491E-01    0.170E-01
DAV:   4    -0.192250074296E+03    0.21384E-03   -0.75575E-04  9600   0.230E-01    0.118E-01
DAV:   5    -0.192249988491E+03    0.85805E-04   -0.50138E-04  9320   0.206E-01
  41 F= -.19224999E+03 E0= -.19217960E+03  d E =-.943611E-02
       N       E                     dE             d eps       ncg     rms          rms(c)
DAV:   1    -0.192249585551E+03    0.48874E-03   -0.12145E-03 11360   0.142E-01    0.483E-02
DAV:   2    -0.192249848350E+03   -0.26280E-03   -0.65739E-04 10760   0.182E-01    0.139E-01
DAV:   3    -0.192249566118E+03    0.28223E-03   -0.36449E-04  8720   0.175E-01    0.438E-02
DAV:   4    -0.192249545833E+03    0.20285E-04   -0.46109E-05  5760   0.489E-02
  42 F= -.19224955E+03 E0= -.19217927E+03  d E =0.442658E-03
       N       E                     dE             d eps       ncg     rms          rms(c)
DAV:   1    -0.192259540099E+03   -0.99740E-02   -0.66995E-01  8160   0.176E+00    0.214E-01
DAV:   2    -0.192261629300E+03   -0.20892E-02   -0.21350E-02 11240   0.595E-01    0.347E-01
DAV:   3    -0.192260682401E+03    0.94690E-03   -0.40447E-03 12800   0.553E-01    0.210E-01
DAV:   4    -0.192260178477E+03    0.50392E-03   -0.83733E-04 10000   0.230E-01    0.774E-02
DAV:   5    -0.192260223474E+03   -0.44996E-04   -0.58288E-04  9600   0.159E-01
  43 F= -.19226022E+03 E0= -.19219008E+03  d E =-.106776E-01
       N       E                     dE             d eps       ncg     rms          rms(c)
DAV:   1    -0.192270980310E+03   -0.10802E-01   -0.86305E-01  8160   0.200E+00    0.247E-01
DAV:   2    -0.192273662749E+03   -0.26824E-02   -0.27900E-02 10960   0.632E-01    0.375E-01
DAV:   3    -0.192272509541E+03    0.11532E-02   -0.57777E-03 12520   0.642E-01    0.237E-01
DAV:   4    -0.192271934667E+03    0.57487E-03   -0.12229E-03  9920   0.273E-01    0.123E-01
DAV:   5    -0.192271912322E+03    0.22345E-04   -0.64811E-04 10240   0.234E-01
  44 F= -.19227191E+03 E0= -.19220202E+03  d E =-.116888E-01
       N       E                     dE             d eps       ncg     rms          rms(c)
DAV:   1    -0.192275629996E+03   -0.36953E-02   -0.10274E-01  8160   0.697E-01    0.104E-01
DAV:   2    -0.192276411281E+03   -0.78128E-03   -0.46851E-03 12240   0.343E-01    0.234E-01
DAV:   3    -0.192275715771E+03    0.69551E-03   -0.16652E-03 10960   0.324E-01    0.830E-02
DAV:   4    -0.192275673687E+03    0.42084E-04   -0.21595E-04  7240   0.108E-01
  45 F= -.19227567E+03 E0= -.19220613E+03  d E =-.376136E-02
       N       E                     dE             d eps       ncg     rms          rms(c)
DAV:   1    -0.192283984047E+03   -0.82683E-02   -0.53443E-01  8160   0.156E+00    0.190E-01
DAV:   2    -0.192285191500E+03   -0.12075E-02   -0.15646E-02 11080   0.457E-01    0.251E-01
DAV:   3    -0.192284900685E+03    0.29082E-03   -0.30666E-03 12080   0.458E-01    0.210E-01
DAV:   4    -0.192284404579E+03    0.49611E-03   -0.82699E-04 10000   0.240E-01    0.742E-02
DAV:   5    -0.192284389025E+03    0.15554E-04   -0.41317E-04  9080   0.119E-01
  46 F= -.19228439E+03 E0= -.19221507E+03  d E =-.871534E-02
       N       E                     dE             d eps       ncg     rms          rms(c)
DAV:   1    -0.192301857257E+03   -0.17453E-01   -0.40707E+00  8160   0.431E+00    0.507E-01
DAV:   2    -0.192312297030E+03   -0.10440E-01   -0.12945E-01 11040   0.125E+00    0.650E-01
DAV:   3    -0.192310893064E+03    0.14040E-02   -0.22244E-02 12400   0.127E+00    0.567E-01
DAV:   4    -0.192306842332E+03    0.40507E-02   -0.56000E-03 11800   0.632E-01    0.196E-01
DAV:   5    -0.192307412825E+03   -0.57049E-03   -0.29440E-03 11080   0.486E-01    0.292E-01
DAV:   6    -0.192306558892E+03    0.85393E-03   -0.20091E-03 11720   0.381E-01    0.116E-01
DAV:   7    -0.192306403447E+03    0.15544E-03   -0.49149E-04  9480   0.182E-01    0.761E-02
DAV:   8    -0.192306343241E+03    0.60206E-04   -0.13564E-04  8360   0.987E-02
  47 F= -.19230634E+03 E0= -.19223782E+03  d E =-.219542E-01
       N       E                     dE             d eps       ncg     rms          rms(c)
DAV:   1    -0.192307537151E+03   -0.11337E-02   -0.56843E-02  8240   0.550E-01    0.119E-01
DAV:   2    -0.192307500503E+03    0.36647E-04   -0.30832E-03 11240   0.251E-01    0.146E-01
DAV:   3    -0.192307351510E+03    0.14899E-03   -0.11914E-03 10880   0.277E-01    0.120E-01
DAV:   4    -0.192307183925E+03    0.16759E-03   -0.41404E-04  8560   0.176E-01    0.644E-02
DAV:   5    -0.192307176150E+03    0.77751E-05   -0.22961E-04  7080   0.122E-01
  48 F= -.19230718E+03 E0= -.19223908E+03  d E =-.832908E-03
       N       E                     dE             d eps       ncg     rms          rms(c)
DAV:   1    -0.192320219793E+03   -0.13036E-01   -0.72655E+00  8160   0.577E+00    0.666E-01
DAV:   2    -0.192340475267E+03   -0.20255E-01   -0.23564E-01 10920   0.174E+00    0.908E-01
DAV:   3    -0.192336046931E+03    0.44283E-02   -0.38159E-02 12520   0.169E+00    0.709E-01
DAV:   4    -0.192330028489E+03    0.60184E-02   -0.90258E-03 11920   0.827E-01    0.295E-01
DAV:   5    -0.192330293739E+03   -0.26525E-03   -0.53759E-03 11320   0.657E-01    0.353E-01
DAV:   6    -0.192329184530E+03    0.11092E-02   -0.35083E-03 11920   0.484E-01    0.169E-01
DAV:   7    -0.192328839288E+03    0.34524E-03   -0.10029E-03 10960   0.260E-01    0.106E-01
DAV:   8    -0.192328714076E+03    0.12521E-03   -0.26481E-04  9120   0.134E-01    0.348E-02
DAV:   9    -0.192328702450E+03    0.11627E-04   -0.56134E-05  6760   0.394E-02
  49 F= -.19232870E+03 E0= -.19226224E+03  d E =-.215263E-01
       N       E                     dE             d eps       ncg     rms          rms(c)
DAV:   1    -0.192325525846E+03    0.31882E-02   -0.45818E-01  8160   0.145E+00    0.198E-01
DAV:   2    -0.192326902687E+03   -0.13768E-02   -0.16771E-02 10240   0.575E-01    0.307E-01
DAV:   3    -0.192326001766E+03    0.90092E-03   -0.37041E-03 12480   0.515E-01    0.173E-01
DAV:   4    -0.192325713378E+03    0.28839E-03   -0.91372E-04 10400   0.252E-01    0.119E-01
DAV:   5    -0.192325660578E+03    0.52801E-04   -0.60982E-04 10680   0.230E-01
  50 F= -.19232566E+03 E0= -.19225872E+03  d E =0.304187E-02
       N       E                     dE             d eps       ncg     rms          rms(c)
DAV:   1    -0.192327934299E+03   -0.22209E-02   -0.15383E-01  8160   0.845E-01    0.104E-01
DAV:   2    -0.192328434713E+03   -0.50041E-03   -0.60571E-03 11240   0.246E-01    0.135E-01
DAV:   3    -0.192328338238E+03    0.96475E-04   -0.92535E-04 11440   0.254E-01
  51 F= -.19232834E+03 E0= -.19226109E+03  d E =-.267766E-02
       N       E                     dE             d eps       ncg     rms          rms(c)
DAV:   1    -0.192329233451E+03   -0.79874E-03   -0.21315E-02  8160   0.343E-01    0.609E-02
DAV:   2    -0.192329303846E+03   -0.70394E-04   -0.93520E-04 10480   0.983E-02
  52 F= -.19232930E+03 E0= -.19226228E+03  d E =-.965608E-03
       N       E                     dE             d eps       ncg     rms          rms(c)
DAV:   1    -0.192331547347E+03   -0.23139E-02   -0.11631E-01  8160   0.744E-01    0.121E-01
DAV:   2    -0.192331735977E+03   -0.18863E-03   -0.46042E-03 10920   0.266E-01    0.142E-01
DAV:   3    -0.192331671235E+03    0.64742E-04   -0.10239E-03 10920   0.278E-01    0.130E-01
DAV:   4    -0.192331484250E+03    0.18699E-03   -0.38634E-04  8520   0.176E-01    0.673E-02
DAV:   5    -0.192331494013E+03   -0.97633E-05   -0.24610E-04  8320   0.137E-01
  53 F= -.19233149E+03 E0= -.19226468E+03  d E =-.219017E-02
       N       E                     dE             d eps       ncg     rms          rms(c)
DAV:   1    -0.192334413771E+03   -0.29295E-02   -0.32459E-01  8160   0.122E+00    0.151E-01
DAV:   2    -0.192335369785E+03   -0.95601E-03   -0.12765E-02 10640   0.373E-01    0.179E-01
DAV:   3    -0.192335337171E+03    0.32614E-04   -0.18281E-03 12840   0.374E-01    0.178E-01
DAV:   4    -0.192334956110E+03    0.38106E-03   -0.51945E-04  8760   0.209E-01    0.654E-02
DAV:   5    -0.192334998965E+03   -0.42855E-04   -0.26550E-04  8720   0.146E-01
  54 F= -.19233500E+03 E0= -.19226858E+03  d E =-.350495E-02
       N       E                     dE             d eps       ncg     rms          rms(c)
DAV:   1    -0.192338059696E+03   -0.31036E-02   -0.57690E-01  8160   0.163E+00    0.198E-01
DAV:   2    -0.192340149865E+03   -0.20902E-02   -0.21598E-02 10880   0.557E-01    0.308E-01
DAV:   3    -0.192339429908E+03    0.71996E-03   -0.35118E-03 12520   0.523E-01    0.199E-01
DAV:   4    -0.192338987250E+03    0.44266E-03   -0.67425E-04  9720   0.225E-01    0.812E-02
DAV:   5    -0.192339006334E+03   -0.19084E-04   -0.45334E-04  9800   0.169E-01
  55 F= -.19233901E+03 E0= -.19227300E+03  d E =-.400737E-02
       N       E                     dE             d eps       ncg     rms          rms(c)
DAV:   1    -0.192341067067E+03   -0.20798E-02   -0.18435E+00  8160   0.291E+00    0.347E-01
DAV:   2    -0.192346527269E+03   -0.54602E-02   -0.67565E-02 11280   0.851E-01    0.423E-01
DAV:   3    -0.192346105768E+03    0.42150E-03   -0.94600E-03 12440   0.858E-01    0.400E-01
DAV:   4    -0.192344230521E+03    0.18752E-02   -0.28296E-03 11520   0.474E-01    0.155E-01
DAV:   5    -0.192344275913E+03   -0.45393E-04   -0.13343E-03 10360   0.311E-01    0.176E-01
DAV:   6    -0.192344074284E+03    0.20163E-03   -0.10589E-03 10720   0.264E-01    0.994E-02
DAV:   7    -0.192343910780E+03    0.16350E-03   -0.33759E-04  9040   0.126E-01    0.422E-02
DAV:   8    -0.192343898849E+03    0.11931E-04   -0.57326E-05  7160   0.661E-02
  56 F= -.19234390E+03 E0= -.19227849E+03  d E =-.489252E-02
       N       E                     dE             d eps       ncg     rms          rms(c)
DAV:   1    -0.192344618615E+03   -0.70783E-03   -0.20833E-01  8160   0.974E-01    0.114E-01
DAV:   2    -0.192345434895E+03   -0.81628E-03   -0.90670E-03 10400   0.343E-01    0.162E-01
DAV:   3    -0.192345294417E+03    0.14048E-03   -0.11598E-03 11960   0.299E-01    0.124E-01
DAV:   4    -0.192345095581E+03    0.19884E-03   -0.22396E-04  7360   0.136E-01    0.371E-02
DAV:   5    -0.192345136459E+03   -0.40878E-04   -0.12335E-04  6280   0.966E-02
  57 F= -.19234514E+03 E0= -.19227966E+03  d E =-.123761E-02
       N       E                     dE             d eps       ncg     rms          rms(c)
DAV:   1    -0.192345397341E+03   -0.30176E-03   -0.32451E-01  8160   0.121E+00    0.141E-01
DAV:   2    -0.192346524400E+03   -0.11271E-02   -0.14037E-02 10840   0.369E-01    0.156E-01
DAV:   3    -0.192346598520E+03   -0.74120E-04   -0.15572E-03 12880   0.344E-01    0.180E-01
DAV:   4    -0.192346199213E+03    0.39931E-03   -0.49732E-04  8960   0.209E-01    0.511E-02
DAV:   5    -0.192346222868E+03   -0.23656E-04   -0.15222E-04  6080   0.956E-02
  58 F= -.19234622E+03 E0= -.19228067E+03  d E =-.108641E-02
       N       E                     dE             d eps       ncg     rms          rms(c)
DAV:   1    -0.192346480401E+03   -0.28119E-03   -0.12332E-01  8160   0.760E-01    0.106E-01
DAV:   2    -0.192347294952E+03   -0.81455E-03   -0.59387E-03 12160   0.349E-01    0.212E-01
DAV:   3    -0.192346719546E+03    0.57541E-03   -0.14403E-03 11120   0.320E-01    0.815E-02
DAV:   4    -0.192346679691E+03    0.39855E-04   -0.19098E-04  6840   0.109E-01
  59 F= -.19234668E+03 E0= -.19228127E+03  d E =-.456822E-03
