   27   27  100    1
  0.9710400E+02  0.1002848E-08  0.1002848E-08  0.3000000E-08  0.5000000E-15
  1.000000000000000E-004
  CAR 
 unknown system                          
    159     34    120
 
  0.0000000E+00  0.0000000E+00  0.0000000E+00  0.1562500E-01
    1      -17.826354   1.000000
    2      -16.775693   1.000000
    3      -16.608279   1.000000
    4      -16.596704   1.000000
    5      -16.536420   1.000000
    6      -16.525607   1.000000
    7      -16.416251   1.000000
    8      -16.257355   1.000000
    9      -16.200820   1.000000
   10      -16.153232   1.000000
   11      -16.105566   1.000000
   12      -15.938912   1.000000
   13      -15.909127   1.000000
   14      -15.644289   1.000000
   15      -15.596884   1.000000
   16      -15.494487   1.000000
   17      -15.272228   1.000000
   18      -15.218657   1.000000
   19       -9.308386   1.000000
   20       -9.047334   1.000000
   21       -8.939183   1.000000
   22       -8.853615   1.000000
   23       -8.726434   1.000000
   24       -8.710253   1.000000
   25       -8.693824   1.000000
   26       -8.671074   1.000000
   27       -8.541959   1.000000
   28       -8.480267   1.000000
   29       -8.467433   1.000000
   30       -8.417151   1.000000
   31       -8.346824   1.000000
   32       -8.162533   1.000000
   33       -8.067855   1.000000
   34       -8.001746   1.000000
   35       -7.804700   1.000000
   36       -7.742600   1.000000
   37       -7.684167   1.000000
   38       -7.518351   1.000000
   39       -7.506262   1.000000
   40       -7.379618   1.000000
   41       -7.336964   1.000000
   42       -7.209489   1.000000
   43       -7.069740   1.000000
   44       -6.941424   1.000000
   45       -6.867205   1.000000
   46       -6.797975   1.000000
   47       -6.738609   1.000000
   48       -6.666423   1.000000
   49       -6.607630   1.000000
   50       -6.529809   1.000000
   51       -6.442218   1.000000
   52       -6.262788   1.000000
   53       -6.223434   1.000000
   54       -6.174260   1.000000
   55       -6.153247   1.000000
   56       -6.066079   1.000000
   57       -5.999501   1.000000
   58       -5.901567   1.000000
   59       -5.881230   1.000000
   60       -5.634265   1.000000
   61       -5.612407   1.000000
   62       -5.354643   1.000000
   63       -5.307524   1.000000
   64       -5.078958   1.000000
   65       -5.024274   1.000000
   66       -4.923197   1.000000
   67       -4.899263   1.000000
   68       -4.826217   1.000000
   69       -4.760989   1.000000
   70       -4.707079   1.000000
   71       -4.683179   1.000000
   72       -4.667502   1.000000
   73       -4.457875   1.000000
   74       -4.371947   1.000000
   75       -4.305282   1.000000
   76       -3.975394   1.000000
   77       -3.784227   0.999967
   78       -3.608652   0.996992
   79       -3.497061   0.974873
   80       -3.191506   0.419646
   81       -3.174673   0.373791
   82       -2.851590   0.004575
   83       -2.766770   0.000673
   84       -2.630111   0.000015
   85       -2.571855   0.000002
   86       -2.492286   0.000000
   87       -2.244250   0.000000
   88       -2.222804   0.000000
   89       -2.205072   0.000000
   90       -2.062981   0.000000
   91       -1.704689   0.000000
   92       -1.630677   0.000000
   93       -1.381810   0.000000
   94       -1.206583   0.000000
   95       -1.074983   0.000000
   96       -0.993590   0.000000
   97       -0.948385   0.000000
   98       -0.902825   0.000000
   99       -0.818912   0.000000
  100       -0.635365   0.000000
  101       -0.596474   0.000000
  102       -0.529157   0.000000
  103       -0.381616   0.000000
  104       -0.282708   0.000000
  105       -0.222535   0.000000
  106       -0.154093   0.000000
  107       -0.101230   0.000000
  108       -0.053600   0.000000
  109        0.068959   0.000000
  110        0.232549   0.000000
  111        0.295213   0.000000
  112        0.410972   0.000000
  113        0.829431   0.000000
  114        0.949850   0.000000
  115        1.005828   0.000000
  116        1.144312   0.000000
  117        1.220261   0.000000
  118        1.653651   0.000000
  119        1.846116   0.000000
  120        2.167638   0.000000
 
  0.1250000E+00  0.2775558E-16  0.0000000E+00  0.3125000E-01
    1      -17.801407   1.000000
    2      -16.817751   1.000000
    3      -16.719460   1.000000
    4      -16.616536   1.000000
    5      -16.560654   1.000000
    6      -16.456874   1.000000
    7      -16.383055   1.000000
    8      -16.273832   1.000000
    9      -16.198321   1.000000
   10      -16.136093   1.000000
   11      -16.007214   1.000000
   12      -15.931217   1.000000
   13      -15.904440   1.000000
   14      -15.649959   1.000000
   15      -15.600996   1.000000
   16      -15.511444   1.000000
   17      -15.274015   1.000000
   18      -15.222724   1.000000
   19       -9.304371   1.000000
   20       -9.227703   1.000000
   21       -9.057031   1.000000
   22       -8.893610   1.000000
   23       -8.810090   1.000000
   24       -8.746847   1.000000
   25       -8.709644   1.000000
   26       -8.573414   1.000000
   27       -8.539677   1.000000
   28       -8.468249   1.000000
   29       -8.369188   1.000000
   30       -8.332102   1.000000
   31       -8.221832   1.000000
   32       -8.105354   1.000000
   33       -8.042920   1.000000
   34       -7.966857   1.000000
   35       -7.732981   1.000000
   36       -7.693710   1.000000
   37       -7.656426   1.000000
   38       -7.556511   1.000000
   39       -7.521289   1.000000
   40       -7.455794   1.000000
   41       -7.291659   1.000000
   42       -7.182559   1.000000
   43       -7.130220   1.000000
   44       -7.010144   1.000000
   45       -6.863248   1.000000
   46       -6.831540   1.000000
   47       -6.730232   1.000000
   48       -6.627642   1.000000
   49       -6.551158   1.000000
   50       -6.464257   1.000000
   51       -6.434562   1.000000
   52       -6.324424   1.000000
   53       -6.238559   1.000000
   54       -6.193650   1.000000
   55       -6.142972   1.000000
   56       -6.064475   1.000000
   57       -6.020570   1.000000
   58       -5.969753   1.000000
   59       -5.745546   1.000000
   60       -5.637606   1.000000
   61       -5.558396   1.000000
   62       -5.442200   1.000000
   63       -5.428427   1.000000
   64       -5.194060   1.000000
   65       -5.051711   1.000000
   66       -4.950471   1.000000
   67       -4.876448   1.000000
   68       -4.828656   1.000000
   69       -4.764694   1.000000
   70       -4.689549   1.000000
   71       -4.629276   1.000000
   72       -4.581977   1.000000
   73       -4.447248   1.000000
   74       -4.325718   1.000000
   75       -4.260173   1.000000
   76       -4.041385   1.000000
   77       -3.796297   0.999977
   78       -3.685704   0.999502
   79       -3.548446   0.989861
   80       -3.154854   0.322052
   81       -3.132986   0.268749
   82       -2.825767   0.002644
   83       -2.732444   0.000281
   84       -2.622599   0.000012
   85       -2.555939   0.000001
   86       -2.485359   0.000000
   87       -2.208330   0.000000
   88       -2.194806   0.000000
   89       -2.182092   0.000000
   90       -2.062173   0.000000
   91       -1.717255   0.000000
   92       -1.616061   0.000000
   93       -1.381291   0.000000
   94       -1.226310   0.000000
   95       -1.080108   0.000000
   96       -1.020500   0.000000
   97       -0.947051   0.000000
   98       -0.892090   0.000000
   99       -0.804805   0.000000
  100       -0.733527   0.000000
  101       -0.669754   0.000000
  102       -0.599259   0.000000
  103       -0.505783   0.000000
  104       -0.371961   0.000000
  105       -0.248177   0.000000
  106       -0.159062   0.000000
  107       -0.073341   0.000000
  108       -0.009551   0.000000
  109        0.095627   0.000000
  110        0.213566   0.000000
  111        0.332942   0.000000
  112        0.501311   0.000000
  113        0.875622   0.000000
  114        0.925475   0.000000
  115        1.004656   0.000000
  116        1.130180   0.000000
  117        1.186437   0.000000
  118        1.696266   0.000000
  119        1.886557   0.000000
  120        2.202573   0.000000
 
  0.2500000E+00  0.5551115E-16  0.0000000E+00  0.3125000E-01
    1      -17.727927   1.000000
    2      -17.009134   1.000000
    3      -16.743785   1.000000
    4      -16.658871   1.000000
    5      -16.614753   1.000000
    6      -16.428615   1.000000
    7      -16.344988   1.000000
    8      -16.244696   1.000000
    9      -16.184862   1.000000
   10      -16.073292   1.000000
   11      -15.924721   1.000000
   12      -15.899761   1.000000
   13      -15.838924   1.000000
   14      -15.670879   1.000000
   15      -15.611017   1.000000
   16      -15.549953   1.000000
   17      -15.279268   1.000000
   18      -15.234058   1.000000
   19       -9.551460   1.000000
   20       -9.267327   1.000000
   21       -9.186360   1.000000
   22       -8.992265   1.000000
   23       -8.933201   1.000000
   24       -8.784184   1.000000
   25       -8.656241   1.000000
   26       -8.551386   1.000000
   27       -8.462418   1.000000
   28       -8.426016   1.000000
   29       -8.269930   1.000000
   30       -8.216186   1.000000
   31       -8.123172   1.000000
   32       -8.091145   1.000000
   33       -7.986930   1.000000
   34       -7.775285   1.000000
   35       -7.725806   1.000000
   36       -7.663136   1.000000
   37       -7.609120   1.000000
   38       -7.557547   1.000000
   39       -7.503637   1.000000
   40       -7.384287   1.000000
   41       -7.302468   1.000000
   42       -7.166815   1.000000
   43       -7.113218   1.000000
   44       -7.031222   1.000000
   45       -6.901897   1.000000
   46       -6.827097   1.000000
   47       -6.718504   1.000000
   48       -6.648206   1.000000
   49       -6.497475   1.000000
   50       -6.444472   1.000000
   51       -6.350326   1.000000
   52       -6.315454   1.000000
   53       -6.289793   1.000000
   54       -6.230304   1.000000
   55       -6.171461   1.000000
   56       -6.087366   1.000000
   57       -6.028914   1.000000
   58       -5.902796   1.000000
   59       -5.723223   1.000000
   60       -5.653293   1.000000
   61       -5.616858   1.000000
   62       -5.567219   1.000000
   63       -5.445550   1.000000
   64       -5.409357   1.000000
   65       -5.254078   1.000000
   66       -4.986312   1.000000
   67       -4.859857   1.000000
   68       -4.824130   1.000000
   69       -4.708195   1.000000
   70       -4.647730   1.000000
   71       -4.510240   1.000000
   72       -4.469178   1.000000
   73       -4.410502   1.000000
   74       -4.304548   1.000000
   75       -4.240358   1.000000
   76       -4.148997   1.000000
   77       -3.842017   0.999995
   78       -3.782551   0.999965
   79       -3.584620   0.995016
   80       -3.110931   0.219893
   81       -3.062524   0.132459
   82       -2.793303   0.001270
   83       -2.660798   0.000038
   84       -2.602596   0.000006
   85       -2.508187   0.000000
   86       -2.459613   0.000000
   87       -2.152651   0.000000
   88       -2.131318   0.000000
   89       -2.101735   0.000000
   90       -2.005940   0.000000
   91       -1.731494   0.000000
   92       -1.590077   0.000000
   93       -1.392832   0.000000
   94       -1.310408   0.000000
   95       -1.143763   0.000000
   96       -1.071152   0.000000
   97       -0.964777   0.000000
   98       -0.912135   0.000000
   99       -0.880885   0.000000
  100       -0.825240   0.000000
  101       -0.754849   0.000000
  102       -0.711313   0.000000
  103       -0.681776   0.000000
  104       -0.507302   0.000000
  105       -0.332728   0.000000
  106       -0.192747   0.000000
  107       -0.055044   0.000000
  108        0.045650   0.000000
  109        0.092701   0.000000
  110        0.144653   0.000000
  111        0.392566   0.000000
  112        0.655561   0.000000
  113        0.871102   0.000000
  114        0.923224   0.000000
  115        1.056353   0.000000
  116        1.115636   0.000000
  117        1.160403   0.000000
  118        1.815538   0.000000
  119        2.002231   0.000000
  120        2.306038   0.000000
 
  0.3750000E+00  0.0000000E+00  0.0000000E+00  0.3125000E-01
    1      -17.611887   1.000000
    2      -17.220208   1.000000
    3      -16.752798   1.000000
    4      -16.679922   1.000000
    5      -16.654898   1.000000
    6      -16.432498   1.000000
    7      -16.333081   1.000000
    8      -16.239261   1.000000
    9      -16.107918   1.000000
   10      -16.000549   1.000000
   11      -15.930464   1.000000
   12      -15.876503   1.000000
   13      -15.735776   1.000000
   14      -15.681574   1.000000
   15      -15.658870   1.000000
   16      -15.562412   1.000000
   17      -15.285816   1.000000
   18      -15.248008   1.000000
   19       -9.762124   1.000000
   20       -9.374780   1.000000
   21       -9.163199   1.000000
   22       -9.081089   1.000000
   23       -8.973149   1.000000
   24       -8.815350   1.000000
   25       -8.571828   1.000000
   26       -8.491418   1.000000
   27       -8.438822   1.000000
   28       -8.313635   1.000000
   29       -8.275018   1.000000
   30       -8.211554   1.000000
   31       -8.164586   1.000000
   32       -8.107889   1.000000
   33       -7.895181   1.000000
   34       -7.820326   1.000000
   35       -7.759943   1.000000
   36       -7.707448   1.000000
   37       -7.582480   1.000000
   38       -7.405603   1.000000
   39       -7.372102   1.000000
   40       -7.311814   1.000000
   41       -7.210528   1.000000
   42       -7.147355   1.000000
   43       -7.062816   1.000000
   44       -6.986442   1.000000
   45       -6.823942   1.000000
   46       -6.792605   1.000000
   47       -6.703555   1.000000
   48       -6.625209   1.000000
   49       -6.540805   1.000000
   50       -6.446006   1.000000
   51       -6.407010   1.000000
   52       -6.357258   1.000000
   53       -6.288171   1.000000
   54       -6.222870   1.000000
   55       -6.138635   1.000000
   56       -6.051751   1.000000
   57       -6.033283   1.000000
   58       -5.873557   1.000000
   59       -5.843723   1.000000
   60       -5.731851   1.000000
   61       -5.690527   1.000000
   62       -5.589325   1.000000
   63       -5.563397   1.000000
   64       -5.455221   1.000000
   65       -5.311495   1.000000
   66       -5.025765   1.000000
   67       -4.872223   1.000000
   68       -4.825185   1.000000
   69       -4.756932   1.000000
   70       -4.666805   1.000000
   71       -4.562222   1.000000
   72       -4.444953   1.000000
   73       -4.392551   1.000000
   74       -4.259015   1.000000
   75       -4.178675   1.000000
   76       -4.079190   1.000000
   77       -3.972437   1.000000
   78       -3.744306   0.999895
   79       -3.568561   0.993118
   80       -3.094792   0.187627
   81       -3.009784   0.068406
   82       -2.773804   0.000799
   83       -2.657108   0.000034
   84       -2.556050   0.000001
   85       -2.461357   0.000000
   86       -2.403180   0.000000
   87       -2.079869   0.000000
   88       -2.065453   0.000000
   89       -2.023083   0.000000
   90       -1.879630   0.000000
   91       -1.720345   0.000000
   92       -1.573826   0.000000
   93       -1.476335   0.000000
   94       -1.424415   0.000000
   95       -1.254893   0.000000
   96       -1.153292   0.000000
   97       -1.036850   0.000000
   98       -0.997289   0.000000
   99       -0.964162   0.000000
  100       -0.891731   0.000000
  101       -0.835026   0.000000
  102       -0.700721   0.000000
  103       -0.665430   0.000000
  104       -0.603431   0.000000
  105       -0.387393   0.000000
  106       -0.249635   0.000000
  107       -0.115136   0.000000
  108        0.035130   0.000000
  109        0.055777   0.000000
  110        0.101925   0.000000
  111        0.425597   0.000000
  112        0.742103   0.000000
  113        0.843974   0.000000
  114        0.908749   0.000000
  115        1.070537   0.000000
  116        1.164966   0.000000
  117        1.226126   0.000000
  118        1.994895   0.000000
  119        2.181815   0.000000
  120        2.428957   0.000000
 
  0.5000000E+00  0.1110223E-15  0.0000000E+00  0.1562500E-01
    1      -17.506156   1.000000
    2      -17.359701   1.000000
    3      -16.758945   1.000000
    4      -16.679361   1.000000
    5      -16.672978   1.000000
    6      -16.436423   1.000000
    7      -16.330312   1.000000
    8      -16.242487   1.000000
    9      -16.043962   1.000000
   10      -15.996202   1.000000
   11      -15.938023   1.000000
   12      -15.846109   1.000000
   13      -15.723528   1.000000
   14      -15.709532   1.000000
   15      -15.654955   1.000000
   16      -15.558664   1.000000
   17      -15.288937   1.000000
   18      -15.254800   1.000000
   19       -9.837657   1.000000
   20       -9.417314   1.000000
   21       -9.168947   1.000000
   22       -9.107114   1.000000
   23       -8.955437   1.000000
   24       -8.827926   1.000000
   25       -8.538379   1.000000
   26       -8.462236   1.000000
   27       -8.419930   1.000000
   28       -8.305210   1.000000
   29       -8.277466   1.000000
   30       -8.197270   1.000000
   31       -8.148463   1.000000
   32       -8.108020   1.000000
   33       -7.966957   1.000000
   34       -7.880941   1.000000
   35       -7.777400   1.000000
   36       -7.736227   1.000000
   37       -7.520809   1.000000
   38       -7.355199   1.000000
   39       -7.312803   1.000000
   40       -7.238177   1.000000
   41       -7.128083   1.000000
   42       -7.083386   1.000000
   43       -7.053711   1.000000
   44       -7.044384   1.000000
   45       -6.818406   1.000000
   46       -6.747681   1.000000
   47       -6.616870   1.000000
   48       -6.583873   1.000000
   49       -6.562518   1.000000
   50       -6.535900   1.000000
   51       -6.451661   1.000000
   52       -6.343130   1.000000
   53       -6.261247   1.000000
   54       -6.224368   1.000000
   55       -6.166708   1.000000
   56       -6.073864   1.000000
   57       -6.046566   1.000000
   58       -5.880619   1.000000
   59       -5.841677   1.000000
   60       -5.799278   1.000000
   61       -5.705755   1.000000
   62       -5.611097   1.000000
   63       -5.533272   1.000000
   64       -5.403527   1.000000
   65       -5.276155   1.000000
   66       -5.198277   1.000000
   67       -4.954568   1.000000
   68       -4.868542   1.000000
   69       -4.793988   1.000000
   70       -4.655806   1.000000
   71       -4.517765   1.000000
   72       -4.445591   1.000000
   73       -4.354999   1.000000
   74       -4.231191   1.000000
   75       -4.157031   1.000000
   76       -4.047613   1.000000
   77       -4.023579   1.000000
   78       -3.724648   0.999820
   79       -3.547092   0.989599
   80       -3.094421   0.186922
   81       -2.990536   0.052202
   82       -2.767270   0.000681
   83       -2.658944   0.000036
   84       -2.547346   0.000001
   85       -2.448951   0.000000
   86       -2.361890   0.000000
   87       -2.049504   0.000000
   88       -2.017670   0.000000
   89       -1.975519   0.000000
   90       -1.818980   0.000000
   91       -1.701537   0.000000
   92       -1.626229   0.000000
   93       -1.514684   0.000000
   94       -1.439159   0.000000
   95       -1.331321   0.000000
   96       -1.211945   0.000000
   97       -1.066672   0.000000
   98       -1.060467   0.000000
   99       -0.975599   0.000000
  100       -0.907643   0.000000
  101       -0.856273   0.000000
  102       -0.685454   0.000000
  103       -0.647326   0.000000
  104       -0.622560   0.000000
  105       -0.403441   0.000000
  106       -0.277893   0.000000
  107       -0.163035   0.000000
  108        0.015507   0.000000
  109        0.030308   0.000000
  110        0.099161   0.000000
  111        0.435640   0.000000
  112        0.760806   0.000000
  113        0.830456   0.000000
  114        0.911850   0.000000
  115        1.063305   0.000000
  116        1.198302   0.000000
  117        1.266387   0.000000
  118        2.189613   0.000000
  119        2.257069   0.000000
  120        2.408880   0.000000
 
  0.0000000E+00  0.1250000E+00  0.0000000E+00  0.3125000E-01
    1      -17.800542   1.000000
    2      -16.785464   1.000000
    3      -16.757880   1.000000
    4      -16.627183   1.000000
    5      -16.546786   1.000000
    6      -16.436936   1.000000
    7      -16.377285   1.000000
    8      -16.328470   1.000000
    9      -16.209945   1.000000
   10      -16.086201   1.000000
   11      -16.021649   1.000000
   12      -15.967902   1.000000
   13      -15.864682   1.000000
   14      -15.639804   1.000000
   15      -15.594600   1.000000
   16      -15.504535   1.000000
   17      -15.290827   1.000000
   18      -15.224585   1.000000
   19       -9.293386   1.000000
   20       -9.183208   1.000000
   21       -9.086093   1.000000
   22       -8.961932   1.000000
   23       -8.778515   1.000000
   24       -8.722185   1.000000
   25       -8.671747   1.000000
   26       -8.623736   1.000000
   27       -8.544993   1.000000
   28       -8.463613   1.000000
   29       -8.396845   1.000000
   30       -8.377889   1.000000
   31       -8.270577   1.000000
   32       -8.009748   1.000000
   33       -7.970714   1.000000
   34       -7.949670   1.000000
   35       -7.809198   1.000000
   36       -7.733679   1.000000
   37       -7.695700   1.000000
   38       -7.553388   1.000000
   39       -7.443688   1.000000
   40       -7.382078   1.000000
   41       -7.297365   1.000000
   42       -7.255894   1.000000
   43       -7.093567   1.000000
   44       -6.978245   1.000000
   45       -6.909515   1.000000
   46       -6.800927   1.000000
   47       -6.729034   1.000000
   48       -6.664346   1.000000
   49       -6.615939   1.000000
   50       -6.501855   1.000000
   51       -6.439703   1.000000
   52       -6.303064   1.000000
   53       -6.237705   1.000000
   54       -6.197207   1.000000
   55       -6.138980   1.000000
   56       -6.046848   1.000000
   57       -5.992036   1.000000
   58       -5.899974   1.000000
   59       -5.792361   1.000000
   60       -5.616452   1.000000
   61       -5.555282   1.000000
   62       -5.371271   1.000000
   63       -5.340119   1.000000
   64       -5.206302   1.000000
   65       -5.083776   1.000000
   66       -5.036172   1.000000
   67       -4.913968   1.000000
   68       -4.877134   1.000000
   69       -4.817763   1.000000
   70       -4.677812   1.000000
   71       -4.603669   1.000000
   72       -4.539505   1.000000
   73       -4.447158   1.000000
   74       -4.338775   1.000000
   75       -4.237924   1.000000
   76       -3.914483   1.000000
   77       -3.820344   0.999989
   78       -3.710633   0.999738
   79       -3.480419   0.967125
   80       -3.415453   0.916321
   81       -2.967199   0.036816
   82       -2.876045   0.007478
   83       -2.758921   0.000554
   84       -2.610211   0.000008
   85       -2.561093   0.000002
   86       -2.481927   0.000000
   87       -2.254053   0.000000
   88       -2.194213   0.000000
   89       -2.167451   0.000000
   90       -2.055248   0.000000
   91       -1.706229   0.000000
   92       -1.610394   0.000000
   93       -1.382415   0.000000
   94       -1.214580   0.000000
   95       -1.080008   0.000000
   96       -1.011876   0.000000
   97       -0.955637   0.000000
   98       -0.894671   0.000000
   99       -0.819907   0.000000
  100       -0.690239   0.000000
  101       -0.629793   0.000000
  102       -0.565199   0.000000
  103       -0.456722   0.000000
  104       -0.362476   0.000000
  105       -0.320812   0.000000
  106       -0.253235   0.000000
  107       -0.116073   0.000000
  108        0.020607   0.000000
  109        0.059669   0.000000
  110        0.262402   0.000000
  111        0.382424   0.000000
  112        0.474725   0.000000
  113        0.755234   0.000000
  114        0.924959   0.000000
  115        1.020127   0.000000
  116        1.156879   0.000000
  117        1.287134   0.000000
  118        1.698891   0.000000
  119        1.884133   0.000000
  120        2.203186   0.000000
 
  0.1250000E+00  0.1250000E+00  0.0000000E+00  0.3125000E-01
    1      -17.750161   1.000000
    2      -16.928953   1.000000
    3      -16.798793   1.000000
    4      -16.680706   1.000000
    5      -16.515251   1.000000
    6      -16.420390   1.000000
    7      -16.347801   1.000000
    8      -16.311082   1.000000
    9      -16.206648   1.000000
   10      -16.053957   1.000000
   11      -15.965167   1.000000
   12      -15.908780   1.000000
   13      -15.850575   1.000000
   14      -15.646476   1.000000
   15      -15.598861   1.000000
   16      -15.538540   1.000000
   17      -15.296370   1.000000
   18      -15.227619   1.000000
   19       -9.446106   1.000000
   20       -9.299492   1.000000
   21       -9.188490   1.000000
   22       -9.033159   1.000000
   23       -8.802259   1.000000
   24       -8.745883   1.000000
   25       -8.687573   1.000000
   26       -8.549137   1.000000
   27       -8.508958   1.000000
   28       -8.373674   1.000000
   29       -8.326456   1.000000
   30       -8.283026   1.000000
   31       -8.139410   1.000000
   32       -8.065188   1.000000
   33       -7.996535   1.000000
   34       -7.829644   1.000000
   35       -7.768714   1.000000
   36       -7.706494   1.000000
   37       -7.646041   1.000000
   38       -7.558453   1.000000
   39       -7.443759   1.000000
   40       -7.392310   1.000000
   41       -7.261630   1.000000
   42       -7.209019   1.000000
   43       -7.130679   1.000000
   44       -7.044000   1.000000
   45       -6.898741   1.000000
   46       -6.792701   1.000000
   47       -6.741238   1.000000
   48       -6.657224   1.000000
   49       -6.541404   1.000000
   50       -6.441394   1.000000
   51       -6.353820   1.000000
   52       -6.338879   1.000000
   53       -6.302590   1.000000
   54       -6.225919   1.000000
   55       -6.149064   1.000000
   56       -6.052727   1.000000
   57       -6.007984   1.000000
   58       -5.920072   1.000000
   59       -5.722879   1.000000
   60       -5.605872   1.000000
   61       -5.572945   1.000000
   62       -5.535547   1.000000
   63       -5.429675   1.000000
   64       -5.276872   1.000000
   65       -5.211014   1.000000
   66       -5.063711   1.000000
   67       -4.904214   1.000000
   68       -4.858384   1.000000
   69       -4.742952   1.000000
   70       -4.640129   1.000000
   71       -4.521152   1.000000
   72       -4.502793   1.000000
   73       -4.433615   1.000000
   74       -4.288043   1.000000
   75       -4.157287   1.000000
   76       -4.108526   1.000000
   77       -3.922420   1.000000
   78       -3.722765   0.999810
   79       -3.525080   0.984455
   80       -3.306121   0.728290
   81       -2.942697   0.024873
   82       -2.849084   0.004344
   83       -2.697027   0.000108
   84       -2.615696   0.000010
   85       -2.539821   0.000001
   86       -2.449106   0.000000
   87       -2.187718   0.000000
   88       -2.149847   0.000000
   89       -2.125870   0.000000
   90       -2.026525   0.000000
   91       -1.727313   0.000000
   92       -1.584174   0.000000
   93       -1.389472   0.000000
   94       -1.259890   0.000000
   95       -1.104211   0.000000
   96       -1.053892   0.000000
   97       -0.984353   0.000000
   98       -0.879535   0.000000
   99       -0.842406   0.000000
  100       -0.766330   0.000000
  101       -0.726384   0.000000
  102       -0.650123   0.000000
  103       -0.639736   0.000000
  104       -0.485487   0.000000
  105       -0.354047   0.000000
  106       -0.220302   0.000000
  107       -0.145843   0.000000
  108        0.063442   0.000000
  109        0.085339   0.000000
  110        0.212226   0.000000
  111        0.424112   0.000000
  112        0.644602   0.000000
  113        0.814664   0.000000
  114        0.937195   0.000000
  115        0.990840   0.000000
  116        1.096963   0.000000
  117        1.248650   0.000000
  118        1.780423   0.000000
  119        1.961945   0.000000
  120        2.272709   0.000000
 
  0.2500000E+00  0.1250000E+00  0.0000000E+00  0.3125000E-01
    1      -17.653649   1.000000
    2      -17.120426   1.000000
    3      -16.865370   1.000000
    4      -16.703465   1.000000
    5      -16.496592   1.000000
    6      -16.429596   1.000000
    7      -16.321262   1.000000
    8      -16.278000   1.000000
    9      -16.152666   1.000000
   10      -16.024779   1.000000
   11      -15.947911   1.000000
   12      -15.865170   1.000000
   13      -15.780411   1.000000
   14      -15.668931   1.000000
   15      -15.605313   1.000000
   16      -15.565254   1.000000
   17      -15.306298   1.000000
   18      -15.233870   1.000000
   19       -9.673070   1.000000
   20       -9.437896   1.000000
   21       -9.196269   1.000000
   22       -9.090761   1.000000
   23       -8.864669   1.000000
   24       -8.720992   1.000000
   25       -8.603550   1.000000
   26       -8.496588   1.000000
   27       -8.396327   1.000000
   28       -8.387562   1.000000
   29       -8.288648   1.000000
   30       -8.227361   1.000000
   31       -8.130161   1.000000
   32       -8.111762   1.000000
   33       -7.973135   1.000000
   34       -7.837691   1.000000
   35       -7.724124   1.000000
   36       -7.712028   1.000000
   37       -7.591271   1.000000
   38       -7.516859   1.000000
   39       -7.392482   1.000000
   40       -7.354213   1.000000
   41       -7.196106   1.000000
   42       -7.130743   1.000000
   43       -7.112882   1.000000
   44       -6.972285   1.000000
   45       -6.859255   1.000000
   46       -6.785590   1.000000
   47       -6.714002   1.000000