<?xml version="1.0" encoding="ISO-8859-1"?>
<modeling>
 <generator>
  <i name="program" type="string">vasp </i>
  <i name="version" type="string">5.4.1  </i>
  <i name="subversion" type="string">05Feb16 (build Jul 05 2020 17:13:04) complex                          parallel </i>
  <i name="platform" type="string">IFC91_ompi </i>
  <i name="date" type="string">2024 04 20 </i>
  <i name="time" type="string">00:41:03 </i>
 </generator>
 <incar>
  <i type="int" name="ISTART">     0</i>
  <i type="string" name="PREC">normal</i>
  <i type="string" name="ALGO"> Normal</i>
  <i type="int" name="ISPIN">     1</i>
  <i type="int" name="ICHARG">     2</i>
  <i type="int" name="IBRION">     1</i>
  <i type="int" name="NSW">   100</i>
  <i type="int" name="ISIF">     3</i>
  <i type="int" name="ISYM">     0</i>
  <i name="SYMPREC">      0.00000001</i>
  <i name="POTIM">      0.50000000</i>
  <i type="logical" name="LREAL"> F  </i>
  <i type="logical" name="LPLANE"> F  </i>
  <i type="int" name="ISMEAR">     0</i>
  <i type="logical" name="LWAVE"> F  </i>
  <i type="logical" name="LCHARG"> F  </i>
  <v type="int" name="KPOINT_BSE">    -1     0     0     0</v>
 </incar>
 <kpoints>
  <generation param="Gamma">
   <v type="int" name="divisions">       8        8        1 </v>
   <v name="usershift">      0.00000000       0.00000000       0.00000000 </v>
   <v name="genvec1">      0.12500000       0.00000000       0.00000000 </v>
   <v name="genvec2">     -0.00000000       0.12500000       0.00000000 </v>
   <v name="genvec3">      0.00000000       0.00000000       1.00000000 </v>
   <v name="shift">      0.00000000       0.00000000       0.00000000 </v>
  </generation>
  <varray name="kpointlist" >
   <v>       0.00000000       0.00000000       0.00000000 </v>
   <v>       0.12500000       0.00000000       0.00000000 </v>
   <v>       0.25000000       0.00000000       0.00000000 </v>
   <v>       0.37500000       0.00000000       0.00000000 </v>
   <v>       0.50000000       0.00000000       0.00000000 </v>
   <v>       0.00000000       0.12500000       0.00000000 </v>
   <v>       0.12500000       0.12500000       0.00000000 </v>
   <v>       0.25000000       0.12500000       0.00000000 </v>
   <v>       0.37500000       0.12500000       0.00000000 </v>
   <v>       0.50000000       0.12500000       0.00000000 </v>
   <v>      -0.37500000       0.12500000       0.00000000 </v>
   <v>      -0.25000000       0.12500000       0.00000000 </v>
   <v>      -0.12500000       0.12500000       0.00000000 </v>
   <v>       0.00000000       0.25000000       0.00000000 </v>
   <v>       0.12500000       0.25000000       0.00000000 </v>
   <v>       0.25000000       0.25000000       0.00000000 </v>
   <v>       0.37500000       0.25000000       0.00000000 </v>
   <v>       0.50000000       0.25000000       0.00000000 </v>
   <v>      -0.37500000       0.25000000       0.00000000 </v>
   <v>      -0.25000000       0.25000000       0.00000000 </v>
   <v>      -0.12500000       0.25000000       0.00000000 </v>
   <v>      -0.00000000       0.37500000       0.00000000 </v>
   <v>       0.12500000       0.37500000       0.00000000 </v>
   <v>       0.25000000       0.37500000       0.00000000 </v>
   <v>       0.37500000       0.37500000       0.00000000 </v>
   <v>       0.50000000       0.37500000       0.00000000 </v>
   <v>      -0.37500000       0.37500000       0.00000000 </v>
   <v>      -0.25000000       0.37500000       0.00000000 </v>
   <v>      -0.12500000       0.37500000       0.00000000 </v>
   <v>       0.00000000       0.50000000       0.00000000 </v>
   <v>       0.12500000       0.50000000       0.00000000 </v>
   <v>       0.25000000       0.50000000       0.00000000 </v>
   <v>       0.37500000       0.50000000       0.00000000 </v>
   <v>       0.50000000       0.50000000       0.00000000 </v>
  </varray>
  <varray name="weights" >
   <v>       0.01562500 </v>
   <v>       0.03125000 </v>
   <v>       0.03125000 </v>
   <v>       0.03125000 </v>
   <v>       0.01562500 </v>
   <v>       0.03125000 </v>
   <v>       0.03125000 </v>
   <v>       0.03125000 </v>
   <v>       0.03125000 </v>
   <v>       0.03125000 </v>
   <v>       0.03125000 </v>
   <v>       0.03125000 </v>
   <v>       0.03125000 </v>
   <v>       0.03125000 </v>
   <v>       0.03125000 </v>
   <v>       0.03125000 </v>
   <v>       0.03125000 </v>
   <v>       0.03125000 </v>
   <v>       0.03125000 </v>
   <v>       0.03125000 </v>
   <v>       0.03125000 </v>
   <v>       0.03125000 </v>
   <v>       0.03125000 </v>
   <v>       0.03125000 </v>
   <v>       0.03125000 </v>
   <v>       0.03125000 </v>
   <v>       0.03125000 </v>
   <v>       0.03125000 </v>
   <v>       0.03125000 </v>
   <v>       0.01562500 </v>
   <v>       0.03125000 </v>
   <v>       0.03125000 </v>
   <v>       0.03125000 </v>
   <v>       0.01562500 </v>
  </varray>
 </kpoints>
 <parameters>
  <separator name="general" >
   <i type="string" name="SYSTEM">unknown system</i>
   <i type="logical" name="LCOMPAT"> F  </i>
  </separator>
  <separator name="electronic" >
   <i type="string" name="PREC">normal</i>
   <i name="ENMAX">    280.00000000</i>
   <i name="ENAUG">    373.43800000</i>
   <i name="EDIFF">      0.00010000</i>
   <i type="int" name="IALGO">    38</i>
   <i type="int" name="IWAVPR">    11</i>
   <i type="int" name="NBANDS">   120</i>
   <i name="NELECT">    159.00000000</i>
   <i type="int" name="TURBO">     0</i>
   <i type="int" name="IRESTART">     0</i>
   <i type="int" name="NREBOOT">     0</i>
   <i type="int" name="NMIN">     0</i>
   <i name="EREF">      0.00000000</i>
   <separator name="electronic smearing" >
    <i type="int" name="ISMEAR">     0</i>
    <i name="SIGMA">      0.20000000</i>
    <i name="KSPACING">      0.50000000</i>
    <i type="logical" name="KGAMMA"> T  </i>
   </separator>
   <separator name="electronic projectors" >
    <i type="logical" name="LREAL"> F  </i>
    <v name="ROPT">      0.00000000      0.00000000      0.00000000      0.00000000</v>
    <i type="int" name="LMAXPAW">  -100</i>
    <i type="int" name="LMAXMIX">     2</i>
    <i type="logical" name="NLSPLINE"> F  </i>
   </separator>
   <separator name="electronic startup" >
    <i type="int" name="ISTART">     0</i>
    <i type="int" name="ICHARG">     2</i>
    <i type="int" name="INIWAV">     1</i>
   </separator>
   <separator name="electronic spin" >
    <i type="int" name="ISPIN">     1</i>
    <i type="logical" name="LNONCOLLINEAR"> F  </i>
    <v name="MAGMOM">      1.00000000      1.00000000      1.00000000      1.00000000      1.00000000      1.00000000      1.00000000      1.00000000      1.00000000      1.00000000      1.00000000      1.00000000      1.00000000      1.00000000      1.00000000      1.00000000      1.00000000      1.00000000      1.00000000      1.00000000
      1.00000000      1.00000000      1.00000000      1.00000000      1.00000000      1.00000000      1.00000000</v>
    <i name="NUPDOWN">     -1.00000000</i>
    <i type="logical" name="LSORBIT"> F  </i>
    <v name="SAXIS">      0.00000000      0.00000000      1.00000000</v>
    <i type="logical" name="LSPIRAL"> F  </i>
    <v name="QSPIRAL">      0.00000000      0.00000000      0.00000000</v>
    <i type="logical" name="LZEROZ"> F  </i>
   </separator>
   <separator name="electronic exchange-correlation" >
    <i type="logical" name="LASPH"> F  </i>
    <i type="logical" name="LMETAGGA"> F  </i>
   </separator>
   <separator name="electronic convergence" >
    <i type="int" name="NELM">    60</i>
    <i type="int" name="NELMDL">    -5</i>
    <i type="int" name="NELMIN">     2</i>
    <i name="ENINI">    280.00000000</i>
    <separator name="electronic convergence detail" >
     <i type="logical" name="LDIAG"> T  </i>
     <i type="logical" name="LSUBROT"> F  </i>
     <i name="WEIMIN">      0.00100000</i>
     <i name="EBREAK">      0.00000021</i>
     <i name="DEPER">      0.30000000</i>
     <i type="int" name="NRMM">     4</i>
     <i name="TIME">      0.40000000</i>
    </separator>
   </separator>
   <separator name="electronic mixer" >
    <i name="AMIX">      0.40000000</i>
    <i name="BMIX">      1.00000000</i>
    <i name="AMIN">      0.10000000</i>
    <i name="AMIX_MAG">      1.60000000</i>
    <i name="BMIX_MAG">      1.00000000</i>
    <separator name="electronic mixer details" >
     <i type="int" name="IMIX">     4</i>
     <i type="logical" name="MIXFIRST"> F  </i>
     <i type="int" name="MAXMIX">   -45</i>
     <i name="WC">    100.00000000</i>
     <i type="int" name="INIMIX">     1</i>
     <i type="int" name="MIXPRE">     1</i>
     <i type="int" name="MREMOVE">     5</i>
    </separator>
   </separator>
   <separator name="electronic dipolcorrection" >
    <i type="logical" name="LDIPOL"> F  </i>
    <i type="logical" name="LMONO"> F  </i>
    <i type="int" name="IDIPOL">     0</i>
    <i name="EPSILON">      1.00000000</i>
    <v name="DIPOL">   -100.00000000   -100.00000000   -100.00000000</v>
    <i name="EFIELD">      0.00000000</i>
   </separator>
  </separator>
  <separator name="grids" >
   <i type="int" name="NGX">    42</i>
   <i type="int" name="NGY">    42</i>
   <i type="int" name="NGZ">   126</i>
   <i type="int" name="NGXF">    84</i>
   <i type="int" name="NGYF">    84</i>
   <i type="int" name="NGZF">   252</i>
   <i type="logical" name="ADDGRID"> F  </i>
  </separator>
  <separator name="ionic" >
   <i type="int" name="NSW">   100</i>
   <i type="int" name="IBRION">     1</i>
   <i type="int" name="ISIF">     3</i>
   <i name="PSTRESS">      0.00000000</i>
   <i name="EDIFFG">      0.00100000</i>
   <i type="int" name="NFREE">     0</i>
   <i name="POTIM">      0.50000000</i>
   <i name="SMASS">     -3.00000000</i>
   <i name="SCALEE">      1.00000000</i>
  </separator>
  <separator name="ionic md" >
   <i name="TEBEG">      0.00010000</i>
   <i name="TEEND">      0.00010000</i>
   <i type="int" name="NBLOCK">     1</i>
   <i type="int" name="KBLOCK">   100</i>
   <i type="int" name="NPACO">   256</i>
   <i name="APACO">     16.00000000</i>
  </separator>
  <separator name="symmetry" >
   <i type="int" name="ISYM">     0</i>
   <i name="SYMPREC">      0.00000001</i>
  </separator>
  <separator name="dos" >
   <i type="logical" name="LORBIT"> F  </i>
   <v name="RWIGS">     -1.00000000     -1.00000000     -1.00000000     -1.00000000</v>
   <i type="int" name="NEDOS">   301</i>
   <i name="EMIN">     10.00000000</i>
   <i name="EMAX">    -10.00000000</i>
   <i name="EFERMI">      0.00000000</i>
  </separator>
  <separator name="writing" >
   <i type="int" name="NWRITE">     2</i>
   <i type="logical" name="LWAVE"> F  </i>
   <i type="logical" name="LCHARG"> F  </i>
   <i type="logical" name="LPARD"> F  </i>
   <i type="logical" name="LVTOT"> F  </i>
   <i type="logical" name="LVHAR"> F  </i>
   <i type="logical" name="LELF"> F  </i>
   <i type="logical" name="LOPTICS"> F  </i>
   <v name="STM">      0.00000000      0.00000000      0.00000000      0.00000000      0.00000000      0.00000000      0.00000000</v>
  </separator>
  <separator name="performance" >
   <i type="int" name="NPAR">    40</i>
   <i type="int" name="NSIM">     4</i>
   <i type="int" name="NBLK">    -1</i>
   <i type="logical" name="LPLANE"> F  </i>
   <i type="logical" name="LSCALAPACK"> T  </i>
   <i type="logical" name="LSCAAWARE"> F  </i>
   <i type="logical" name="LSCALU"> F  </i>
   <i type="logical" name="LASYNC"> F  </i>
   <i type="logical" name="LORBITALREAL"> F  </i>
  </separator>
  <separator name="miscellaneous" >
   <i type="int" name="IDIOT">     3</i>
   <i type="logical" name="LMUSIC"> F  </i>
   <v name="POMASS">     50.94100000     95.94000000    183.85000000     32.06600000</v>
   <v name="DARWINR">      0.00000000      0.00000000      0.00000000      0.00000000</v>
   <v name="DARWINV">      1.00000000      1.00000000      1.00000000      1.00000000</v>
   <i type="logical" name="LCORR"> T  </i>
  </separator>
  <i type="logical" name="GGA_COMPAT"> T  </i>
  <i type="logical" name="LBERRY"> F  </i>
  <i type="int" name="ICORELEVEL">     0</i>
  <i type="logical" name="LDAU"> F  </i>
  <i type="int" name="I_CONSTRAINED_M">     0</i>
  <separator name="electronic exchange-correlation" >
   <i type="string" name="GGA">--</i>
   <i type="int" name="VOSKOWN">     0</i>
   <i type="logical" name="LHFCALC"> F  </i>
   <i type="string" name="PRECFOCK"></i>
   <i type="logical" name="LSYMGRAD"> F  </i>
   <i type="logical" name="LHFONE"> F  </i>
   <i type="logical" name="LRHFCALC"> F  </i>
   <i type="logical" name="LTHOMAS"> F  </i>
   <i type="logical" name="LMODELHF"> F  </i>
   <i name="ENCUT4O">     -1.00000000</i>
   <i type="int" name="EXXOEP">     0</i>
   <i type="int" name="FOURORBIT">     0</i>
   <i name="AEXX">      0.00000000</i>
   <i name="HFALPHA">      0.00000000</i>
   <i name="MCALPHA">      0.00000000</i>
   <i name="ALDAX">      1.00000000</i>
   <i name="AGGAX">      1.00000000</i>
   <i name="ALDAC">      1.00000000</i>
   <i name="AGGAC">      1.00000000</i>
   <i type="int" name="NKREDX">     1</i>
   <i type="int" name="NKREDY">     1</i>
   <i type="int" name="NKREDZ">     1</i>
   <i type="logical" name="SHIFTRED"> F  </i>
   <i type="logical" name="ODDONLY"> F  </i>
   <i type="logical" name="EVENONLY"> F  </i>
   <i type="int" name="LMAXFOCK">     0</i>
   <i type="int" name="NMAXFOCKAE">     0</i>
   <i type="logical" name="LFOCKAEDFT"> F  </i>
   <i name="HFSCREEN">      0.00000000</i>
   <i name="HFSCREENC">      0.00000000</i>
   <i type="int" name="NBANDSGWLOW">     0</i>
  </separator>
  <separator name="vdW DFT" >
   <i type="logical" name="LUSE_VDW"> F  </i>
   <i name="Zab_VDW">     -0.84910000</i>
   <i name="PARAM1">      0.12340000</i>
   <i name="PARAM2">      1.00000000</i>
   <i name="PARAM3">      0.00000000</i>
  </separator>
  <separator name="model GW" >
   <i type="int" name="MODEL_GW">     0</i>
   <i name="MODEL_EPS0">     58.26239943</i>
   <i name="MODEL_ALPHA">      1.00000000</i>
  </separator>
  <separator name="linear response parameters" >
   <i type="logical" name="LEPSILON"> F  </i>
   <i type="logical" name="LRPA"> F  </i>
   <i type="logical" name="LNABLA"> F  </i>
   <i type="logical" name="LVEL"> F  </i>
   <i type="int" name="KINTER">     0</i>
   <i name="CSHIFT">      0.10000000</i>
   <i name="OMEGAMAX">     -1.00000000</i>
   <i name="DEG_THRESHOLD">      0.00200000</i>
  </separator>
  <separator name="orbital magnetization" >
   <i type="logical" name="NUCIND"> F  </i>
   <v name="MAGPOS">      0.00000000      0.00000000      0.00000000</v>
   <i type="logical" name="LNICSALL"> T  </i>
   <i type="logical" name="ORBITALMAG"> F  </i>
   <i type="logical" name="LMAGBLOCH"> F  </i>
   <i type="logical" name="LCHIMAG"> F  </i>
   <i type="logical" name="LGAUGE"> T  </i>
   <i type="int" name="MAGATOM">     0</i>
   <v name="MAGDIPOL">      0.00000000      0.00000000      0.00000000</v>
   <v name="AVECCONST">      0.00000000      0.00000000      0.00000000</v>
  </separator>
  <separator name="response functions" >
   <i type="logical" name="LADDER"> F  </i>
   <i type="logical" name="LFXC"> F  </i>
   <i type="logical" name="LHARTREE"> T  </i>
   <i type="int" name="IBSE">     0</i>
   <v type="int" name="KPOINT">    -1     0     0     0</v>
   <i type="logical" name="LTCTE"> F  </i>
   <i type="logical" name="LTETE"> F  </i>
   <i type="logical" name="LTRIPLET"> F  </i>
   <i type="logical" name="LFXCEPS"> F  </i>
   <i type="logical" name="LFXHEG"> F  </i>
   <i type="int" name="NATURALO">     0</i>
   <i type="logical" name="L2ORDER"> F  </i>
   <i type="logical" name="LUSEW"> F  </i>
   <i name="ENCUTGW">     -2.00000000</i>
   <i name="ENCUTGWSOFT">     -2.00000000</i>
   <i name="ENCUTLF">     -1.00000000</i>
   <i type="int" name="LMAXMP2">    -1</i>
   <i name="SCISSOR">      0.00000000</i>
   <i type="int" name="NOMEGA">     0</i>
   <i type="int" name="NOMEGAR">     0</i>
   <i type="int" name="NBANDSGW">    -1</i>
   <i type="int" name="NBANDSO">    -1</i>
   <i type="int" name="NBANDSV">    -1</i>
   <i type="int" name="NELM">     1</i>
   <i type="int" name="NELMHF">     1</i>
   <i type="int" name="DIM">     3</i>
   <i type="int" name="ANTIRES">     0</i>
   <i name="OMEGAMAX">    -30.00000000</i>
   <i name="OMEGAMIN">    -30.00000000</i>
   <i name="OMEGATL">   -200.00000000</i>
   <i type="int" name="OMEGAGRID">     0</i>
   <i name="CSHIFT">     -0.10000000</i>
   <i type="logical" name="SELFENERGY"> F  </i>
   <i type="logical" name="LSPECTRAL"> F  </i>
   <i type="logical" name="LSPECTRALGW"> F  </i>
   <i type="logical" name="LSINGLES"> F  </i>
   <i type="logical" name="LFERMIGW"> F  </i>
   <i type="logical" name="ODDONLYGW"> F  </i>
   <i type="logical" name="EVENONLYGW"> F  </i>
   <i type="int" name="NKREDLFX">     1</i>
   <i type="int" name="NKREDLFY">     1</i>
   <i type="int" name="NKREDLFZ">     1</i>
   <i type="int" name="MAXMEM">  1800</i>
   <i type="int" name="TELESCOPE">     0</i>
   <i type="int" name="TAUPAR">     1</i>
   <i type="int" name="OMEGAPAR">    -1</i>
   <i name="LAMBDA">      1.00000000</i>
  </separator>
  <separator name="External order field" >
   <i name="OFIELD_KAPPA">      0.00000000</i>
   <v name="OFIELD_K">      0.00000000      0.00000000      0.00000000</v>
   <i name="OFIELD_Q6_NEAR">      0.00000000</i>
   <i name="OFIELD_Q6_FAR">      0.00000000</i>
   <i name="OFIELD_A">      0.00000000</i>
  </separator>
 </parameters>
 <atominfo>
  <atoms>      27 </atoms>
  <types>       4 </types>
  <array name="atoms" >
   <dimension dim="1">ion</dimension>
   <field type="string">element</field>
   <field type="int">atomtype</field>
   <set>
    <rc><c>V </c><c>   1</c></rc>
    <rc><c>V </c><c>   1</c></rc>
    <rc><c>V </c><c>   1</c></rc>
    <rc><c>Mo</c><c>   2</c></rc>
    <rc><c>Mo</c><c>   2</c></rc>
    <rc><c>Mo</c><c>   2</c></rc>
    <rc><c>W </c><c>   3</c></rc>
    <rc><c>W </c><c>   3</c></rc>
    <rc><c>W </c><c>   3</c></rc>
    <rc><c>S </c><c>   4</c></rc>
    <rc><c>S </c><c>   4</c></rc>
    <rc><c>S </c><c>   4</c></rc>
    <rc><c>S </c><c>   4</c></rc>
    <rc><c>S </c><c>   4</c></rc>
    <rc><c>S </c><c>   4</c></rc>
    <rc><c>S </c><c>   4</c></rc>
    <rc><c>S </c><c>   4</c></rc>
    <rc><c>S </c><c>   4</c></rc>
    <rc><c>S </c><c>   4</c></rc>
    <rc><c>S </c><c>   4</c></rc>
    <rc><c>S </c><c>   4</c></rc>
    <rc><c>S </c><c>   4</c></rc>
    <rc><c>S </c><c>   4</c></rc>
    <rc><c>S </c><c>   4</c></rc>
    <rc><c>S </c><c>   4</c></rc>
    <rc><c>S </c><c>   4</c></rc>
    <rc><c>S </c><c>   4</c></rc>
   </set>
  </array>
  <array name="atomtypes" >
   <dimension dim="1">type</dimension>
   <field type="int">atomspertype</field>
   <field type="string">element</field>
   <field>mass</field>
   <field>valence</field>
   <field type="string">pseudopotential</field>
   <set>
    <rc><c>   3</c><c>V </c><c>     50.94100000</c><c>      5.00000000</c><c> PAW_PBE V 08Apr2002                    </c></rc>
    <rc><c>   3</c><c>Mo</c><c>     95.94000000</c><c>      6.00000000</c><c> PAW_PBE Mo 08Apr2002                   </c></rc>
    <rc><c>   3</c><c>W </c><c>    183.85000000</c><c>      6.00000000</c><c> PAW_PBE W 08Apr2002                    </c></rc>
    <rc><c>  18</c><c>S </c><c>     32.06600000</c><c>      6.00000000</c><c>  PAW_PBE S 17Jan2003                   </c></rc>
   </set>
  </array>
 </atominfo>
 <structure name="initialpos" >
  <crystal>
   <varray name="basis" >
    <v>       8.66999996       5.03999989       0.00000000 </v>
    <v>      -8.66999982       5.04000013       0.00000000 </v>
    <v>       0.00000000       0.00000000      30.00000000 </v>
   </varray>
   <i name="volume">   2621.80797419 </i>
   <varray name="rec_basis" >
    <v>       0.05767013       0.09920635       0.00000000 </v>
    <v>      -0.05767013       0.09920635       0.00000000 </v>
    <v>       0.00000000       0.00000000       0.03333333 </v>
   </varray>
  </crystal>
  <varray name="positions" >
   <v>       0.33333334       0.00000000       0.00000000 </v>
   <v>       0.66666669       0.66666669       0.00000000 </v>
   <v>       0.66666669       0.33333334       0.00000000 </v>
   <v>       0.00000000       0.66666669       0.00000000 </v>
   <v>       1.00000000       0.33333334       0.00000000 </v>
   <v>       0.00000000       0.00000000       0.00000000 </v>
   <v>       0.33333334       0.33333334       0.00000000 </v>
   <v>       0.33333334       0.66666669       0.00000000 </v>
   <v>       0.66666669       0.00000000       0.00000000 </v>
   <v>       0.11068511       0.22244981       0.95539999 </v>
   <v>       0.22244981       0.11068511       0.04460000 </v>
   <v>       0.11068511       0.55578315       0.95539999 </v>
   <v>       0.22244981       0.44401845       0.04460000 </v>
   <v>       0.11068511       0.88911647       0.95539999 </v>
   <v>       0.22244981       0.77735180       0.04460000 </v>
   <v>       0.44401845       0.22244981       0.95539999 </v>
   <v>       0.55578315       0.11068511       0.04460000 </v>
   <v>       0.44401845       0.55578315       0.95539999 </v>
   <v>       0.55578315       0.44401845       0.04460000 </v>
   <v>       0.44401845       0.88911647       0.95539999 </v>
   <v>       0.55578315       0.77735180       0.04460000 </v>
   <v>       0.77735180       0.22244981       0.95539999 </v>
   <v>       0.88911647       0.11068511       0.04460000 </v>
   <v>       0.77735180       0.55578315       0.95539999 </v>
   <v>       0.88911647       0.44401845       0.04460000 </v>
   <v>       0.77735180       0.88911647       0.95539999 </v>
   <v>       0.88911647       0.77735180       0.04460000 </v>
  </varray>
 </structure>
 <calculation>
  <scstep>
   <time name="dav">   21.68   21.74</time>
   <time name="total">   21.73   21.79</time>
   <energy>
    <i name="alphaZ">     81.65567618 </i>
    <i name="ewald">  41890.23010356 </i>
    <i name="hartreedc"> -47722.85868283 </i>
    <i name="XCdc">   -242.92976575 </i>
    <i name="pawpsdc">   3467.42045192 </i>
    <i name="pawaedc">  -2871.19716117 </i>
    <i name="eentropy">     -0.54875175 </i>
    <i name="bandstr">   -238.87973954 </i>
    <i name="atom">   6761.44252427 </i>
    <i name="e_fr_energy">   1124.33465489 </i>
    <i name="e_wo_entrp">   1124.88340664 </i>
    <i name="e_0_energy">   1124.60903076 </i>
   </energy>
  </scstep>
  <scstep>
   <time name="dav">   28.07   28.14</time>
   <time name="total">   28.07   28.14</time>
   <energy>
    <i name="e_fr_energy">     -3.39962107 </i>
    <i name="e_wo_entrp">     -3.21631427 </i>
    <i name="e_0_energy">     -3.30796767 </i>
   </energy>
  </scstep>
  <scstep>
   <time name="dav">   27.80   27.87</time>
   <time name="total">   27.80   27.87</time>
   <energy>
    <i name="e_fr_energy">   -200.01245688 </i>
    <i name="e_wo_entrp">   -199.75417930 </i>
    <i name="e_0_energy">   -199.88331809 </i>
   </energy>
  </scstep>
  <scstep>
   <time name="dav">   29.99   30.06</time>
   <time name="total">   29.99   30.07</time>
   <energy>
    <i name="e_fr_energy">   -208.97186460 </i>
    <i name="e_wo_entrp">   -208.67362728 </i>
    <i name="e_0_energy">   -208.82274594 </i>
   </energy>
  </scstep>
  <scstep>
   <time name="dav">   28.99   29.06</time>
   <time name="total">   29.46   29.54</time>
   <energy>
    <i name="e_fr_energy">   -209.27890146 </i>
    <i name="e_wo_entrp">   -208.98374259 </i>
    <i name="e_0_energy">   -209.13132202 </i>
   </energy>
  </scstep>
  <scstep>
   <time name="dav">   31.12   31.20</time>
   <time name="total">   31.62   31.70</time>
   <energy>
    <i name="e_fr_energy">   -237.20800493 </i>
    <i name="e_wo_entrp">   -236.93885546 </i>
    <i name="e_0_energy">   -237.07343019 </i>
   </energy>
  </scstep>
  <scstep>
   <time name="dav">   31.99   32.07</time>
   <time name="total">   32.50   32.58</time>
   <energy>
    <i name="e_fr_energy">   -196.63959149 </i>
    <i name="e_wo_entrp">   -196.30527344 </i>
    <i name="e_0_energy">   -196.47243246 </i>
   </energy>
  </scstep>
  <scstep>
   <time name="dav">   29.14   29.21</time>
   <time name="total">   29.65   29.73</time>
   <energy>
    <i name="e_fr_energy">   -190.08551839 </i>
    <i name="e_wo_entrp">   -189.81607812 </i>
    <i name="e_0_energy">   -189.95079825 </i>
   </energy>
  </scstep>
  <scstep>
   <time name="dav">   29.65   29.72</time>
   <time name="total">   30.17   30.25</time>
   <energy>
    <i name="e_fr_energy">   -188.31131274 </i>
    <i name="e_wo_entrp">   -187.98312214 </i>
    <i name="e_0_energy">   -188.14721744 </i>
   </energy>
  </scstep>
  <scstep>
   <time name="dav">   32.34   32.42</time>
   <time name="total">   32.87   32.96</time>
   <energy>
    <i name="e_fr_energy">   -187.12469401 </i>
    <i name="e_wo_entrp">   -186.78220205 </i>
    <i name="e_0_energy">   -186.95344803 </i>
   </energy>
  </scstep>
  <scstep>
   <time name="dav">   30.75   30.82</time>
   <time name="total">   31.29   31.37</time>
   <energy>
    <i name="e_fr_energy">   -187.01468696 </i>
    <i name="e_wo_entrp">   -186.66574810 </i>
    <i name="e_0_energy">   -186.84021753 </i>
   </energy>
  </scstep>
  <scstep>
   <time name="dav">   31.19   31.27</time>
   <time name="total">   31.73   31.81</time>
   <energy>
    <i name="e_fr_energy">   -187.03037581 </i>
    <i name="e_wo_entrp">   -186.69619347 </i>
    <i name="e_0_energy">   -186.86328464 </i>
   </energy>
  </scstep>
  <scstep>
   <time name="dav">   32.00   32.07</time>
   <time name="total">   32.53   32.62</time>
   <energy>
    <i name="e_fr_energy">   -186.93282579 </i>
    <i name="e_wo_entrp">   -186.59639381 </i>
    <i name="e_0_energy">   -186.76460980 </i>
   </energy>
  </scstep>
  <scstep>
   <time name="dav">   31.50   31.58</time>
   <time name="total">   32.04   32.12</time>
   <energy>
    <i name="e_fr_energy">   -186.90347412 </i>
    <i name="e_wo_entrp">   -186.56217117 </i>
    <i name="e_0_energy">   -186.73282265 </i>
   </energy>
  </scstep>
  <scstep>
   <time name="dav">   30.15   30.22</time>
   <time name="total">   30.68   30.76</time>
   <energy>
    <i name="e_fr_energy">   -186.89835943 </i>
    <i name="e_wo_entrp">   -186.55506444 </i>
    <i name="e_0_energy">   -186.72671194 </i>
   </energy>
  </scstep>
  <scstep>
   <time name="dav">   31.77   31.84</time>
   <time name="total">   32.30   32.39</time>
   <energy>
    <i name="e_fr_energy">   -186.89256673 </i>
    <i name="e_wo_entrp">   -186.54905855 </i>
    <i name="e_0_energy">   -186.72081264 </i>
   </energy>
  </scstep>
  <scstep>
   <time name="dav">   31.45   31.53</time>
   <time name="total">   31.99   32.07</time>
   <energy>
    <i name="e_fr_energy">   -186.88992043 </i>
    <i name="e_wo_entrp">   -186.54838953 </i>
    <i name="e_0_energy">   -186.71915498 </i>
   </energy>
  </scstep>
  <scstep>
   <time name="dav">   29.04   29.11</time>
   <time name="total">   29.58   29.66</time>
   <energy>
    <i name="e_fr_energy">   -186.88938296 </i>
    <i name="e_wo_entrp">   -186.54800557 </i>
    <i name="e_0_energy">   -186.71869426 </i>
   </energy>
  </scstep>
  <scstep>
   <time name="dav">   28.21   28.28</time>
   <time name="total">   28.75   28.83</time>
   <energy>
    <i name="e_fr_energy">   -186.88917294 </i>
    <i name="e_wo_entrp">   -186.54733299 </i>
    <i name="e_0_energy">   -186.71825297 </i>
   </energy>
  </scstep>
  <scstep>
   <time name="dav">   23.64   23.70</time>
   <time name="total">   24.18   24.25</time>
   <energy>
    <i name="e_fr_energy">   -186.89005573 </i>
    <i name="e_wo_entrp">   -186.54854446 </i>
    <i name="e_0_energy">   -186.71930009 </i>
   </energy>
  </scstep>
  <scstep>
   <time name="dav">   21.86   21.91</time>
   <time name="total">   22.39   22.45</time>
   <energy>
    <i name="e_fr_energy">   -186.89092529 </i>
    <i name="e_wo_entrp">   -186.54928643 </i>
    <i name="e_0_energy">   -186.72010586 </i>
   </energy>
  </scstep>
  <scstep>
   <time name="dav">   18.84   18.88</time>
   <time name="total">   19.37   19.42</time>
   <energy>
    <i name="e_fr_energy">   -186.89173487 </i>
    <i name="e_wo_entrp">   -186.55013041 </i>
    <i name="e_0_energy">   -186.72093264 </i>
   </energy>
  </scstep>
  <scstep>
   <time name="dav">   20.26   20.31</time>
   <time name="total">   20.80   20.86</time>
   <energy>
    <i name="e_fr_energy">   -186.89289209 </i>
    <i name="e_wo_entrp">   -186.55140244 </i>
    <i name="e_0_energy">   -186.72214726 </i>
   </energy>
  </scstep>
  <scstep>
   <time name="dav">   18.93   18.97</time>
   <time name="total">   19.46   19.52</time>
   <energy>
    <i name="e_fr_energy">   -186.89347518 </i>
    <i name="e_wo_entrp">   -186.55191898 </i>
    <i name="e_0_energy">   -186.72269708 </i>
   </energy>
  </scstep>
  <scstep>
   <time name="dav">   16.17   16.21</time>
   <time name="total">   16.71   16.75</time>
   <energy>
    <i name="e_fr_energy">   -186.89384175 </i>
    <i name="e_wo_entrp">   -186.55226734 </i>
    <i name="e_0_energy">   -186.72305455 </i>
   </energy>
  </scstep>
  <scstep>
   <time name="dav">   18.94   18.99</time>
   <time name="total">   19.48   19.53</time>
   <energy>
    <i name="e_fr_energy">   -186.89408019 </i>
    <i name="e_wo_entrp">   -186.55252653 </i>
    <i name="e_0_energy">   -186.72330336 </i>
   </energy>
  </scstep>
  <scstep>
   <time name="dav">   19.90   19.94</time>
   <time name="total">   19.93   19.99</time>
   <energy>
    <i name="alphaZ">     81.65567618 </i>
    <i name="ewald">  41890.23010356 </i>
    <i name="hartreedc"> -47833.15535971 </i>
    <i name="XCdc">   -231.59757444 </i>
    <i name="pawpsdc">   4192.17558619 </i>
    <i name="pawaedc">  -3610.20120656 </i>
    <i name="eentropy">     -0.34155707 </i>
    <i name="bandstr">  -1437.10236306 </i>
    <i name="atom">   6761.44252427 </i>
    <i name="e_fr_energy">   -186.89417062 </i>
    <i name="e_wo_entrp">   -186.55261355 </i>
    <i name="e_0_energy">   -186.72339209 </i>
   </energy>
  </scstep>
  <structure>
   <crystal>
    <varray name="basis" >
     <v>       8.66999996       5.03999989       0.00000000 </v>
     <v>      -8.66999982       5.04000013       0.00000000 </v>
     <v>       0.00000000       0.00000000      30.00000000 </v>
    </varray>
    <i name="volume">   2621.80797419 </i>
    <varray name="rec_basis" >
     <v>       0.05767013       0.09920635       0.00000000 </v>
     <v>      -0.05767013       0.09920635       0.00000000 </v>
     <v>       0.00000000       0.00000000       0.03333333 </v>
    </varray>
   </crystal>
   <varray name="positions" >
    <v>       0.33333334       0.00000000       0.00000000 </v>
    <v>       0.66666669       0.66666669       0.00000000 </v>
    <v>       0.66666669       0.33333334       0.00000000 </v>
    <v>       0.00000000       0.66666669       0.00000000 </v>
    <v>       1.00000000       0.33333334       0.00000000 </v>
    <v>       0.00000000       0.00000000       0.00000000 </v>
    <v>       0.33333334       0.33333334       0.00000000 </v>
    <v>       0.33333334       0.66666669       0.00000000 </v>
    <v>       0.66666669       0.00000000       0.00000000 </v>
    <v>       0.11068511       0.22244981       0.95539999 </v>
    <v>       0.22244981       0.11068511       0.04460000 </v>
    <v>       0.11068511       0.55578315       0.95539999 </v>
    <v>       0.22244981       0.44401845       0.04460000 </v>
    <v>       0.11068511       0.88911647       0.95539999 </v>
    <v>       0.22244981       0.77735180       0.04460000 </v>
    <v>       0.44401845       0.22244981       0.95539999 </v>
    <v>       0.55578315       0.11068511       0.04460000 </v>
    <v>       0.44401845       0.55578315       0.95539999 </v>
    <v>       0.55578315       0.44401845       0.04460000 </v>
    <v>       0.44401845       0.88911647       0.95539999 </v>
    <v>       0.55578315       0.77735180       0.04460000 </v>
    <v>       0.77735180       0.22244981       0.95539999 </v>
    <v>       0.88911647       0.11068511       0.04460000 </v>
    <v>       0.77735180       0.55578315       0.95539999 </v>
    <v>       0.88911647       0.44401845       0.04460000 </v>
    <v>       0.77735180       0.88911647       0.95539999 </v>
    <v>       0.88911647       0.77735180       0.04460000 </v>
   </varray>
  </structure>
  <varray name="forces" >
   <v>      -0.22062179      -0.28664978       0.08270827 </v>
   <v>       0.28411768       0.31918365      -0.09478682 </v>
   <v>       0.14506304       0.31492506       0.01081659 </v>
   <v>      -0.03222338      -0.03320523      -0.01047745 </v>
   <v>      -0.00205871       0.01462877       0.02968393 </v>
   <v>       0.01660137      -0.00940817      -0.12144412 </v>
   <v>      -0.11503196      -0.39142589      -0.01363187 </v>
   <v>      -0.28624213      -0.45604486       0.12096525 </v>
   <v>       0.17669657       0.45199820       0.03973128 </v>
   <v>       0.20564129       0.13680321      -2.90270448 </v>
   <v>       0.69714986       0.16464058       2.13401428 </v>
   <v>       0.20548339       0.12991961      -2.90446470 </v>
   <v>      -0.07175306       0.14733321       2.94039393 </v>
   <v>       0.50468837       0.68944118      -2.14761637 </v>
   <v>      -0.35375456       0.73550780       2.20004220 </v>
   <v>       0.73814255      -0.00035009      -1.44444401 </v>
   <v>      -0.74007842      -0.02053150       1.45753211 </v>
   <v>       0.49001271       0.60332842      -2.15493225 </v>
   <v>       0.23805128       0.53040514       1.39015086 </v>
   <v>      -0.59095257       0.01020500      -2.07107606 </v>
   <v>       0.58526979      -0.00820310       2.07007929 </v>
   <v>      -0.65645516      -0.14055326      -2.13175256 </v>
   <v>      -0.22477052      -0.13646558       2.88056271 </v>
   <v>      -0.34545098      -0.66871586      -1.44278527 </v>
   <v>      -0.51917192      -0.69183039       2.14045732 </v>
   <v>       0.38522753      -0.71264615      -2.20256684 </v>
   <v>      -0.51358023      -0.69228998       2.14554482 </v>
  </varray>
  <varray name="stress" >
   <v>       7.26439555       0.11661337      -1.50051305 </v>
   <v>       0.11661325       4.49792723      -0.01529904 </v>
   <v>      -1.50051287      -0.01529892      30.28039367 </v>
  </varray>
  <energy>
   <i name="e_fr_energy">   -186.89417062 </i>
   <i name="e_wo_entrp">   -186.72339209 </i>
   <i name="e_0_energy">     -0.34155707 </i>
  </energy>
  <time name="totalsc">  779.63  781.74</time>
 </calculation>
 <calculation>
  <scstep>
   <time name="dav">   21.69   21.74</time>
   <time name="total">   22.24   22.29</time>
   <energy>
    <i name="alphaZ">     78.91948272 </i>
    <i name="ewald">  39379.56897188 </i>
    <i name="hartreedc"> -45337.17130777 </i>
    <i name="XCdc">   -239.05174220 </i>
    <i name="pawpsdc">   4192.15734020 </i>
    <i name="pawaedc">  -3610.18307207 </i>
    <i name="eentropy">     -0.27766395 </i>
    <i name="bandstr">  -1412.93629521 </i>
    <i name="atom">   6761.44252427 </i>
    <i name="e_fr_energy">   -187.53176213 </i>
    <i name="e_wo_entrp">   -187.25409818 </i>
    <i name="e_0_energy">   -187.39293016 </i>
   </energy>
  </scstep>
  <scstep>
   <time name="dav">   30.28   30.36</time>
   <time name="total">   30.82   30.90</time>
   <energy>
    <i name="e_fr_energy">   -189.59432350 </i>
    <i name="e_wo_entrp">   -189.25807630 </i>
    <i name="e_0_energy">   -189.42619990 </i>
   </energy>
  </scstep>
  <scstep>
   <time name="dav">   30.23   30.30</time>
   <time name="total">   30.78   30.86</time>
   <energy>
    <i name="e_fr_energy">   -189.33021817 </i>
    <i name="e_wo_entrp">   -189.06097222 </i>
    <i name="e_0_energy">   -189.19559520 </i>
   </energy>
  </scstep>
  <scstep>
   <time name="dav">   30.85   30.92</time>
   <time name="total">   31.39   31.47</time>
   <energy>
    <i name="e_fr_energy">   -188.79014074 </i>
    <i name="e_wo_entrp">   -188.51058386 </i>
    <i name="e_0_energy">   -188.65036230 </i>
   </energy>
  </scstep>
  <scstep>
   <time name="dav">   29.91   29.99</time>
   <time name="total">   30.46   30.54</time>
   <energy>
    <i name="e_fr_energy">   -188.88854693 </i>
    <i name="e_wo_entrp">   -188.60203071 </i>
    <i name="e_0_energy">   -188.74528882 </i>
   </energy>
  </scstep>
  <scstep>
   <time name="dav">   30.81   30.89</time>
   <time name="total">   31.35   31.44</time>
   <energy>
    <i name="e_fr_energy">   -188.77922803 </i>
    <i name="e_wo_entrp">   -188.50260931 </i>
    <i name="e_0_energy">   -188.64091867 </i>
   </energy>
  </scstep>
  <scstep>
   <time name="dav">   29.72   29.79</time>
   <time name="total">   30.27   30.35</time>
   <energy>
    <i name="e_fr_energy">   -188.72037007 </i>
    <i name="e_wo_entrp">   -188.44119438 </i>
    <i name="e_0_energy">   -188.58078222 </i>
   </energy>
  </scstep>
  <scstep>
   <time name="dav">   31.44   31.52</time>
   <time name="total">   31.99   32.08</time>
   <energy>
    <i name="e_fr_energy">   -188.71081639 </i>
    <i name="e_wo_entrp">   -188.43288780 </i>
    <i name="e_0_energy">   -188.57185210 </i>
   </energy>
  </scstep>
  <scstep>
   <time name="dav">   29.56   29.63</time>
   <time name="total">   30.11   30.19</time>
   <energy>
    <i name="e_fr_energy">   -188.70007831 </i>
    <i name="e_wo_entrp">   -188.42295036 </i>
    <i name="e_0_energy">   -188.56151434 </i>
   </energy>
  </scstep>
  <scstep>
   <time name="dav">   29.61   29.68</time>
   <time name="total">   30.16   30.24</time>
   <energy>
    <i name="e_fr_energy">   -188.69918241 </i>
    <i name="e_wo_entrp">   -188.42245895 </i>
    <i name="e_0_energy">   -188.56082068 </i>
   </energy>
  </scstep>
  <scstep>
   <time name="dav">   30.57   30.65</time>
   <time name="total">   31.12   31.20</time>
   <energy>
    <i name="e_fr_energy">   -188.69854535 </i>
    <i name="e_wo_entrp">   -188.42211885 </i>
    <i name="e_0_energy">   -188.56033210 </i>
   </energy>
  </scstep>
  <scstep>
   <time name="dav">   29.34   29.41</time>
   <time name="total">   29.38   29.45</time>
   <energy>
    <i name="alphaZ">     78.91948272 </i>
    <i name="ewald">  39379.56897188 </i>
    <i name="hartreedc"> -45348.02506907 </i>
    <i name="XCdc">   -237.96484522 </i>
    <i name="pawpsdc">   3952.28543306 </i>
    <i name="pawaedc">  -3366.82361934 </i>
    <i name="eentropy">     -0.27636666 </i>
    <i name="bandstr">  -1407.82515086 </i>
    <i name="atom">   6761.44252427 </i>
    <i name="e_fr_energy">   -188.69863922 </i>
    <i name="e_wo_entrp">   -188.42227256 </i>
    <i name="e_0_energy">   -188.56045589 </i>
   </energy>
  </scstep>
  <structure>
   <crystal>
    <varray name="basis" >
     <v>       8.85587035       5.10923881       0.00000000 </v>
     <v>      -8.85243331       5.10332677       0.00000000 </v>
     <v>       0.00000000       0.00000000      30.00000000 </v>
    </varray>
    <i name="volume">   2712.70788357 </i>
    <varray name="rec_basis" >
     <v>       0.05643800       0.09789959       0.00000000 </v>
     <v>      -0.05650338       0.09793760       0.00000000 </v>
     <v>       0.00000000       0.00000000       0.03333333 </v>
    </varray>
   </crystal>
   <varray name="positions" >
    <v>       0.33134764      -0.00075809       0.00013300 </v>
    <v>       0.66898475       0.66740383      -0.00015243 </v>
    <v>       0.66857750       0.33443698       0.00001739 </v>
    <v>      -0.00024857       0.66659742      -0.00001685 </v>
    <v>       1.00006429       0.33340908       0.00004773 </v>
    <v>       0.00000116      -0.00009121      -0.00019529 </v>
    <v>       0.33113995       0.33178003      -0.00002192 </v>
    <v>       0.33035435       0.66528044       0.00019452 </v>
    <v>       0.66932154       0.00167166       0.00006389 </v>
    <v>       0.11191197       0.22253242       0.95073218 </v>
    <v>       0.22517736       0.10953349       0.04803168 </v>
    <v>       0.11187859       0.55583326       0.95072935 </v>
    <v>       0.22295531       0.44492322       0.04932841 </v>
    <v>       0.11538888       0.89101199       0.95194643 </v>
    <v>       0.22498573       0.78185612       0.04813786 </v>
    <v>       0.44607041       0.22039450       0.95307720 </v>
    <v>       0.55362587       0.11264586       0.04694384 </v>
    <v>       0.44826926       0.55730738       0.95193467 </v>
    <v>       0.55898396       0.44589466       0.04683548 </v>
    <v>       0.44242317       0.89080943       0.95206952 </v>
    <v>       0.55737221       0.77568422       0.04792887 </v>
    <v>       0.77485275       0.22360349       0.95197194 </v>
    <v>       0.88783800       0.11065734       0.04923220 </v>
    <v>       0.77319024       0.55354379       0.95307986 </v>
    <v>       0.88436096       0.44215179       0.04804204 </v>
    <v>       0.77501285       0.88463399       0.95185807 </v>
    <v>       0.88437432       0.77546737       0.04805022 </v>
   </varray>
  </structure>
  <varray name="forces" >
   <v>      -0.17339511      -0.28006509      -0.06885671 </v>
   <v>       0.20703258       0.34972263       0.04854136 </v>
   <v>       0.15462393       0.25779875       0.08795386 </v>
   <v>       0.13135692       0.07996019       0.00502345 </v>
   <v>       0.16622363       0.14024794       0.01277308 </v>
   <v>      -0.15227396       0.03364333      -0.03958209 </v>
   <v>      -0.35273353      -0.42066147      -0.09953066 </v>
   <v>      -0.22661633      -0.59667603      -0.06300385 </v>
   <v>       0.26838024       0.49489527       0.08218483 </v>
   <v>       0.05717395       0.10834138      -0.17084643 </v>
   <v>      -0.01354598       0.09927272       0.08017990 </v>
   <v>       0.05827597       0.10816286      -0.13555626 </v>
   <v>       0.06292898       0.08910659       0.14658101 </v>
   <v>       0.03027014       0.06900615      -0.06351546 </v>
   <v>       0.09323004       0.05807179       0.09889841 </v>
   <v>      -0.10780420       0.00174143       0.25033595 </v>
   <v>       0.10917339       0.00844985      -0.21654622 </v>
   <v>      -0.05453232      -0.06827340       0.23550315 </v>
   <v>      -0.05908543      -0.08725525      -0.24607792 </v>
   <v>       0.09598808       0.00723883       0.27236061 </v>
   <v>      -0.09198910      -0.00847659      -0.23827380 </v>
   <v>       0.01744194      -0.10019087      -0.06856666 </v>
   <v>      -0.04858125      -0.10564573       0.13785403 </v>
   <v>      -0.00180314      -0.04452460      -0.03892512 </v>
   <v>      -0.04688758      -0.07617747       0.05617253 </v>
   <v>      -0.09665727      -0.04989770      -0.09216286 </v>
   <v>      -0.02619460      -0.06781552       0.02708187 </v>
  </varray>
  <varray name="stress" >
   <v>     -19.98331609      -0.02719280      -0.01632359 </v>
   <v>      -0.02719284     -19.58017231      -0.11668183 </v>
   <v>      -0.01632359      -0.11668151      -1.81078218 </v>
  </varray>
  <energy>
   <i name="e_fr_energy">   -188.69863922 </i>
   <i name="e_wo_entrp">   -188.56045589 </i>
   <i name="e_0_energy">     -0.27636666 </i>
  </energy>
  <time name="totalsc">  402.53  403.60</time>
 </calculation>
 <calculation>
  <scstep>
   <time name="dav">   23.62   23.68</time>
   <time name="total">   24.16   24.22</time>
   <energy>
    <i name="alphaZ">     82.33553016 </i>
    <i name="ewald">  41298.08389569 </i>
    <i name="hartreedc"> -47296.99261742 </i>
    <i name="XCdc">   -233.85498437 </i>
    <i name="pawpsdc">   3950.55562165 </i>
    <i name="pawaedc">  -3365.07437980 </i>
    <i name="eentropy">     -0.23210553 </i>
    <i name="bandstr">  -1386.88238196 </i>
    <i name="atom">   6761.44252427 </i>
    <i name="e_fr_energy">   -190.61889731 </i>
    <i name="e_wo_entrp">   -190.38679177 </i>
    <i name="e_0_energy">   -190.50284454 </i>
   </energy>
  </scstep>
  <scstep>
   <time name="dav">   27.96   28.03</time>
   <time name="total">   28.48   28.56</time>
   <energy>
    <i name="e_fr_energy">   -190.56918395 </i>
    <i name="e_wo_entrp">   -190.34059957 </i>
    <i name="e_0_energy">   -190.45489176 </i>
   </energy>
  </scstep>
  <scstep>
   <time name="dav">   30.16   30.24</time>
   <time name="total">   30.69   30.77</time>
   <energy>
    <i name="e_fr_energy">   -190.10688720 </i>
    <i name="e_wo_entrp">   -189.85807622 </i>
    <i name="e_0_energy">   -189.98248171 </i>
   </energy>
  </scstep>
  <scstep>
   <time name="dav">   30.60   30.67</time>
   <time name="total">   31.13   31.22</time>
   <energy>
    <i name="e_fr_energy">   -189.89447856 </i>
    <i name="e_wo_entrp">   -189.66605742 </i>
    <i name="e_0_energy">   -189.78026799 </i>
   </energy>
  </scstep>
  <scstep>
   <time name="dav">   30.22   30.29</time>
   <time name="total">   30.75   30.83</time>
   <energy>
    <i name="e_fr_energy">   -189.84817375 </i>
    <i name="e_wo_entrp">   -189.61343420 </i>
    <i name="e_0_energy">   -189.73080398 </i>
   </energy>
  </scstep>
  <scstep>
   <time name="dav">   30.99   31.07</time>
   <time name="total">   31.52   31.61</time>
   <energy>
    <i name="e_fr_energy">   -189.79747443 </i>
    <i name="e_wo_entrp">   -189.56337186 </i>
    <i name="e_0_energy">   -189.68042315 </i>
   </energy>
  </scstep>
  <scstep>
   <time name="dav">   28.71   28.78</time>
   <time name="total">   29.25   29.32</time>
   <energy>
    <i name="e_fr_energy">   -189.79072882 </i>
    <i name="e_wo_entrp">   -189.55800329 </i>
    <i name="e_0_energy">   -189.67436605 </i>
   </energy>
  </scstep>
  <scstep>
   <time name="dav">   29.97   30.04</time>
   <time name="total">   30.50   30.59</time>
   <energy>
    <i name="e_fr_energy">   -189.79115133 </i>
    <i name="e_wo_entrp">   -189.55824023 </i>
    <i name="e_0_energy">   -189.67469578 </i>
   </energy>
  </scstep>
  <scstep>
   <time name="dav">   27.30   27.37</time>
   <time name="total">   27.84   27.91</time>
   <energy>
    <i name="e_fr_energy">   -189.79085043 </i>
    <i name="e_wo_entrp">   -189.55788596 </i>
    <i name="e_0_energy">   -189.67436820 </i>
   </energy>
  </scstep>
  <scstep>
   <time name="dav">   25.12   25.18</time>
   <time name="total">   25.65   25.73</time>
   <energy>
    <i name="e_fr_energy">   -189.79108770 </i>
    <i name="e_wo_entrp">   -189.55811583 </i>
    <i name="e_0_energy">   -189.67460177 </i>
   </energy>
  </scstep>
  <scstep>
   <time name="dav">   23.62   23.68</time>
   <time name="total">   24.15   24.22</time>
   <energy>
    <i name="e_fr_energy">   -189.79081136 </i>
    <i name="e_wo_entrp">   -189.55772770 </i>
    <i name="e_0_energy">   -189.67426953 </i>
   </energy>
  </scstep>
  <scstep>
   <time name="dav">   19.10   19.15</time>
   <time name="total">   19.14   19.19</time>
   <energy>
    <i name="alphaZ">     82.33553016 </i>
    <i name="ewald">  41298.08389569 </i>
    <i name="hartreedc"> -47270.35169843 </i>
    <i name="XCdc">   -235.24588496 </i>
    <i name="pawpsdc">   4038.63312190 </i>
    <i name="pawaedc">  -3454.34130745 </i>
    <i name="eentropy">     -0.23305999 </i>
    <i name="bandstr">  -1410.11395605 </i>
    <i name="atom">   6761.44252427 </i>
    <i name="e_fr_energy">   -189.79083485 </i>
    <i name="e_wo_entrp">   -189.55777485 </i>
    <i name="e_0_energy">   -189.67430485 </i>
   </energy>
  </scstep>
  <structure>
   <crystal>
    <varray name="basis" >
     <v>       8.66817325       5.00296290       0.00000000 </v>
     <v>      -8.66510332       4.99768387       0.00000000 </v>
     <v>       0.00000000       0.00000000      30.00000000 </v>
    </varray>
    <i name="volume">   2600.15940274 </i>
    <varray name="rec_basis" >
     <v>       0.05766205       0.09997583       0.00000000 </v>
     <v>      -0.05772296       0.10001125       0.00000000 </v>
     <v>       0.00000000       0.00000000       0.03333333 </v>
    </varray>
   </crystal>
   <varray name="positions" >
    <v>       0.33071888      -0.00105607       0.00009421 </v>
    <v>       0.66976084       0.66778498      -0.00012508 </v>
    <v>       0.66915151       0.33471602       0.00006694 </v>
    <v>       0.00000901       0.66660433      -0.00001402 </v>
    <v>       1.00045487       0.33348249       0.00005493 </v>
    <v>      -0.00008842       0.00010988      -0.00021759 </v>
    <v>       0.33010752       0.33142059      -0.00007799 </v>
    <v>       0.32915099       0.66450924       0.00015903 </v>
    <v>       0.67039633       0.00223450       0.00011019 </v>
    <v>       0.11214576       0.22265715       0.95063594 </v>
    <v>       0.22532869       0.10971074       0.04807685 </v>
    <v>       0.11211313       0.55595664       0.95065299 </v>
    <v>       0.22316276       0.44501061       0.04941099 </v>
    <v>       0.11553193       0.89109730       0.95191065 </v>
    <v>       0.22517074       0.78186321       0.04819357 </v>
    <v>       0.44597047       0.22050033       0.95321822 </v>
    <v>       0.55374398       0.11255560       0.04682185 </v>
    <v>       0.44810429       0.55724645       0.95206734 </v>
    <v>       0.55878324       0.44580666       0.04669686 </v>
    <v>       0.44252670       0.89072975       0.95222295 </v>
    <v>       0.55727044       0.77575803       0.04779464 </v>
    <v>       0.77470362       0.22342100       0.95193332 </v>
    <v>       0.88761687       0.11052887       0.04930986 </v>
    <v>       0.77311485       0.55347182       0.95305794 </v>
    <v>       0.88419020       0.44207048       0.04807369 </v>
    <v>       0.77483810       0.88464370       0.95180615 </v>
    <v>       0.88423713       0.77538014       0.04806548 </v>
   </varray>
  </structure>
  <varray name="forces" >
   <v>      -0.15571547      -0.30953337      -0.08533055 </v>
   <v>       0.16575348       0.37784264       0.07347289 </v>
   <v>       0.17663678       0.24468944       0.08690825 </v>
   <v>       0.18382832       0.12130679       0.01124408 </v>
   <v>       0.21469596       0.17450202       0.00529445 </v>
   <v>      -0.20741800       0.03288686      -0.00987456 </v>
   <v>      -0.42690562      -0.42246861      -0.08555534 </v>
   <v>      -0.21502802      -0.63496522      -0.08454306 </v>
   <v>       0.30213127       0.48979877       0.06600928 </v>
   <v>       0.00797982       0.02468557      -0.74150249 </v>
   <v>       0.09123091       0.01933197       0.58189536 </v>
   <v>       0.00634877       0.02212713      -0.69815608 </v>
   <v>       0.02661675       0.01716734       0.73443445 </v>
   <v>       0.06615395       0.12328817      -0.54604525 </v>
   <v>      -0.03585973       0.11221771       0.61859335 </v>
   <v>       0.04860790       0.00775407      -0.19149335 </v>
   <v>      -0.04637618       0.00332959       0.22691163 </v>
   <v>       0.01374422       0.05853620      -0.25019817 </v>
   <v>       0.00659631       0.02728471       0.18572361 </v>
   <v>      -0.02981676       0.02151727      -0.19069306 </v>
   <v>       0.03999981      -0.01833087       0.22812210 </v>
   <v>      -0.08973256      -0.02106340      -0.57269695 </v>
   <v>       0.00103361      -0.01995677       0.69907994 </v>
   <v>      -0.02928094      -0.09883728      -0.49147026 </v>
   <v>      -0.07998692      -0.12719273       0.53965535 </v>
   <v>       0.02007894      -0.10778123      -0.61229260 </v>
   <v>      -0.05531661      -0.11813678       0.50250698 </v>
  </varray>
  <varray name="stress" >
   <v>     -10.15764971      -0.02534476      -0.05617355 </v>
   <v>      -0.02534470      -9.89153538      -0.12680775 </v>
   <v>      -0.05617360      -0.12680760       6.47610553 </v>
  </varray>
  <energy>
   <i name="e_fr_energy">   -189.79083485 </i>
   <i name="e_wo_entrp">   -189.67430485 </i>
   <i name="e_0_energy">     -0.23305999 </i>
  </energy>
  <time name="totalsc">  375.60  376.61</time>
 </calculation>
 <calculation>
  <scstep>
   <time name="dav">   21.67   21.72</time>
   <time name="total">   22.18   22.24</time>
   <energy>
    <i name="alphaZ">     85.80249008 </i>
    <i name="ewald">  42825.41895061 </i>
    <i name="hartreedc"> -48842.00266959 </i>
    <i name="XCdc">   -232.96328695 </i>
    <i name="pawpsdc">   4038.75649321 </i>
    <i name="pawaedc">  -3454.46271810 </i>
    <i name="eentropy">     -0.19155197 </i>
    <i name="bandstr">  -1373.16673755 </i>
    <i name="atom">   6761.44252427 </i>
    <i name="e_fr_energy">   -191.36650597 </i>
    <i name="e_wo_entrp">   -191.17495400 </i>
    <i name="e_0_energy">   -191.27072998 </i>
   </energy>
  </scstep>
  <scstep>
   <time name="dav">   32.41   32.48</time>
   <time name="total">   32.92   33.01</time>
   <energy>
    <i name="e_fr_energy">   -191.18477240 </i>
    <i name="e_wo_entrp">   -190.99493252 </i>
    <i name="e_0_energy">   -191.08985246 </i>
   </energy>
  </scstep>
  <scstep>
   <time name="dav">   29.89   29.96</time>
   <time name="total">   30.40   30.48</time>
   <energy>
    <i name="e_fr_energy">   -191.33367974 </i>
    <i name="e_wo_entrp">   -191.10991434 </i>
    <i name="e_0_energy">   -191.22179704 </i>
   </energy>
  </scstep>
  <scstep>
   <time name="dav">   30.47   30.54</time>
   <time name="total">   30.99   31.08</time>
   <energy>
    <i name="e_fr_energy">   -190.93594278 </i>
    <i name="e_wo_entrp">   -190.74474435 </i>
    <i name="e_0_energy">   -190.84034356 </i>
   </energy>
  </scstep>
  <scstep>
   <time name="dav">   30.05   30.12</time>
   <time name="total">   30.57   30.65</time>
   <energy>
    <i name="e_fr_energy">   -190.89310592 </i>
    <i name="e_wo_entrp">   -190.69836616 </i>
    <i name="e_0_energy">   -190.79573604 </i>
   </energy>
  </scstep>
  <scstep>
   <time name="dav">   30.10   30.17</time>
   <time name="total">   30.62   30.70</time>
   <energy>
    <i name="e_fr_energy">   -190.80753449 </i>
    <i name="e_wo_entrp">   -190.60893806 </i>
    <i name="e_0_energy">   -190.70823627 </i>
   </energy>
  </scstep>
  <scstep>
   <time name="dav">   30.75   30.83</time>
   <time name="total">   31.27   31.35</time>
   <energy>
    <i name="e_fr_energy">   -190.79550345 </i>
    <i name="e_wo_entrp">   -190.60107477 </i>
    <i name="e_0_energy">   -190.69828911 </i>
   </energy>
  </scstep>
  <scstep>
   <time name="dav">   28.33   28.40</time>
   <time name="total">   28.85   28.93</time>
   <energy>
    <i name="e_fr_energy">   -190.79313446 </i>
    <i name="e_wo_entrp">   -190.59741595 </i>
    <i name="e_0_energy">   -190.69527520 </i>
   </energy>
  </scstep>
  <scstep>
   <time name="dav">   28.22   28.28</time>
   <time name="total">   28.74   28.81</time>
   <energy>
    <i name="e_fr_energy">   -190.79209792 </i>
    <i name="e_wo_entrp">   -190.59642461 </i>
    <i name="e_0_energy">   -190.69426126 </i>
   </energy>
  </scstep>
  <scstep>
   <time name="dav">   28.09   28.16</time>
   <time name="total">   28.61   28.68</time>
   <energy>
    <i name="e_fr_energy">   -190.79226919 </i>
    <i name="e_wo_entrp">   -190.59632784 </i>
    <i name="e_0_energy">   -190.69429851 </i>
   </energy>
  </scstep>
  <scstep>
   <time name="dav">   24.26   24.32</time>
   <time name="total">   24.30   24.36</time>
   <energy>
    <i name="alphaZ">     85.80249008 </i>
    <i name="ewald">  42825.41895061 </i>
    <i name="hartreedc"> -48813.22375329 </i>
    <i name="XCdc">   -234.28964769 </i>
    <i name="pawpsdc">   4063.59533998 </i>
    <i name="pawaedc">  -3479.47822149 </i>
    <i name="eentropy">     -0.19584838 </i>
    <i name="bandstr">  -1399.86401744 </i>
    <i name="atom">   6761.44252427 </i>
    <i name="e_fr_energy">   -190.79218333 </i>
    <i name="e_wo_entrp">   -190.59633495 </i>
    <i name="e_0_energy">   -190.69425914 </i>
   </energy>
  </scstep>
  <structure>
   <crystal>
    <varray name="basis" >
     <v>       8.48765343       4.90190183       0.00000000 </v>
     <v>      -8.48552648       4.89825249       0.00000000 </v>
     <v>       0.00000000       0.00000000      30.00000000 </v>
    </varray>
    <i name="volume">   2495.09661928 </i>
    <varray name="rec_basis" >
     <v>       0.05889454       0.10202643       0.00000000 </v>
     <v>      -0.05893842       0.10205200       0.00000000 </v>
     <v>       0.00000000       0.00000000       0.03333333 </v>
    </varray>
   </crystal>
   <varray name="positions" >
    <v>       0.32817468      -0.00252840      -0.00009610 </v>
    <v>       0.67273086       0.66967880       0.00004792 </v>
    <v>       0.67131670       0.33554395       0.00024563 </v>
    <v>       0.00160869       0.66672695       0.00001450 </v>
    <v>       1.00247487       0.33381435       0.00005951 </v>
    <v>      -0.00071195       0.00114165      -0.00021275 </v>
    <v>       0.32581655       0.33042229      -0.00024290 </v>
    <v>       0.32432815       0.66120302      -0.00003396 </v>
    <v>       0.67458287       0.00414510       0.00023284 </v>
    <v>       0.11204927       0.22264469       0.94861890 </v>
    <v>       0.22572969       0.10915184       0.04970552 </v>
    <v>       0.11198490       0.55593207       0.94873236 </v>
    <v>       0.22313426       0.44489458       0.05142803 </v>
    <v>       0.11672812       0.89171321       0.95037236 </v>
    <v>       0.22569223       0.78301538       0.04991335 </v>
    <v>       0.44643422       0.22016309       0.95244711 </v>
    <v>       0.55336102       0.11295506       0.04766753 </v>
    <v>       0.44893441       0.55778108       0.95113765 </v>
    <v>       0.55935790       0.44614480       0.04744752 </v>
    <v>       0.44240832       0.89118875       0.95143546 </v>
    <v>       0.55746539       0.77528434       0.04866231 </v>
    <v>       0.77429171       0.22396509       0.95032160 </v>
    <v>       0.88778109       0.11054283       0.05123122 </v>
    <v>       0.77221645       0.55286352       0.95165789 </v>
    <v>       0.88293189       0.44148422       0.04959958 </v>
    <v>       0.77426034       0.88358470       0.95009903 </v>
    <v>       0.88313183       0.77475748       0.04950777 </v>
   </varray>
  </structure>
  <varray name="forces" >
   <v>      -0.17052321      -0.32565778      -0.07935429 </v>
   <v>       0.17769331       0.44849567       0.07390506 </v>
   <v>       0.18297155       0.22146587       0.04918014 </v>
   <v>       0.21496004       0.14406953       0.01299380 </v>
   <v>       0.26256925       0.20552505      -0.01306024 </v>
   <v>      -0.25271379       0.03144395       0.02597074 </v>
   <v>      -0.45235630      -0.42172277      -0.02019591 </v>
   <v>      -0.22302157      -0.72399725      -0.03723668 </v>
   <v>       0.33000128       0.55230159       0.00337594 </v>
   <v>      -0.02402509      -0.06088643      -0.59315034 </v>
   <v>      -0.01273694      -0.02122317       0.37976381 </v>
   <v>      -0.04231955      -0.08591374      -0.56361715 </v>
   <v>      -0.01868292      -0.03609592       0.58930158 </v>
   <v>      -0.01127245       0.00126304      -0.39027680 </v>
   <v>      -0.02553768       0.01133901       0.47274980 </v>
   <v>      -0.02491886      -0.00009669      -0.08126252 </v>
   <v>      -0.00114842       0.00742401       0.14125347 </v>
   <v>      -0.00213733      -0.00481104      -0.11015419 </v>
   <v>      -0.03285215      -0.04518127       0.06158731 </v>
   <v>       0.04794009       0.01754270       0.01087844 </v>
   <v>      -0.03486042      -0.03479840       0.03076333 </v>
   <v>       0.00089197       0.04589752      -0.38391864 </v>
   <v>       0.02204597       0.07254160       0.53913772 </v>
   <v>       0.02920850       0.00319471      -0.37923638 </v>
   <v>      -0.00326315      -0.00743281       0.38695506 </v>
   <v>       0.04389101      -0.00321381      -0.48539305 </v>
   <v>       0.02019686       0.00852682       0.35904000 </v>
  </varray>
  <varray name="stress" >
   <v>      -5.87748977       0.11282258      -0.08956017 </v>
   <v>       0.11282255      -5.76160510       0.05767505 </v>
   <v>      -0.08956028       0.05767504       4.58207897 </v>
  </varray>
  <energy>
   <i name="e_fr_energy">   -190.79218333 </i>
   <i name="e_wo_entrp">   -190.69425914 </i>
   <i name="e_0_energy">     -0.19584838 </i>
  </energy>
  <time name="totalsc">  362.08  363.04</time>
 </calculation>
 <calculation>
  <scstep>
   <time name="dav">   21.63   21.69</time>
   <time name="total">   22.15   22.21</time>
   <energy>
    <i name="alphaZ">     90.23762677 </i>
    <i name="ewald">  44694.16824167 </i>
    <i name="hartreedc"> -50738.19321554 </i>
    <i name="XCdc">   -231.78594873 </i>
    <i name="pawpsdc">   4063.89012137 </i>
    <i name="pawaedc">  -3479.77155199 </i>
    <i name="eentropy">     -0.16409520 </i>
    <i name="bandstr">  -1352.09134720 </i>
    <i name="atom">   6761.44252427 </i>
    <i name="e_fr_energy">   -192.26764458 </i>
    <i name="e_wo_entrp">   -192.10354938 </i>
    <i name="e_0_energy">   -192.18559698 </i>
   </energy>
  </scstep>
  <scstep>
   <time name="dav">   27.54   27.60</time>
   <time name="total">   28.04   28.12</time>
   <energy>
    <i name="e_fr_energy">   -191.99572995 </i>
    <i name="e_wo_entrp">   -191.82019062 </i>
    <i name="e_0_energy">   -191.90796028 </i>
   </energy>
  </scstep>
  <scstep>
   <time name="dav">   29.84   29.91</time>
   <time name="total">   30.34   30.42</time>
   <energy>
    <i name="e_fr_energy">   -192.05120581 </i>
    <i name="e_wo_entrp">   -191.87022930 </i>
    <i name="e_0_energy">   -191.96071756 </i>
   </energy>
  </scstep>
  <scstep>
   <time name="dav">   29.47   29.54</time>
   <time name="total">   29.98   30.06</time>
   <energy>
    <i name="e_fr_energy">   -191.87813586 </i>
    <i name="e_wo_entrp">   -191.69936793 </i>
    <i name="e_0_energy">   -191.78875189 </i>
   </energy>
  </scstep>
  <scstep>
   <time name="dav">   30.20   30.27</time>
   <time name="total">   30.71   30.79</time>
   <energy>
    <i name="e_fr_energy">   -191.61135813 </i>
    <i name="e_wo_entrp">   -191.44343068 </i>
    <i name="e_0_energy">   -191.52739440 </i>
   </energy>
  </scstep>
  <scstep>
   <time name="dav">   30.76   30.84</time>
   <time name="total">   31.27   31.35</time>
   <energy>
    <i name="e_fr_energy">   -191.59017090 </i>
    <i name="e_wo_entrp">   -191.40792776 </i>
    <i name="e_0_energy">   -191.49904933 </i>
   </energy>
  </scstep>
  <scstep>
   <time name="dav">   30.26   30.33</time>
   <time name="total">   30.77   30.85</time>
   <energy>
    <i name="e_fr_energy">   -191.57228062 </i>
    <i name="e_wo_entrp">   -191.40580353 </i>
    <i name="e_0_energy">   -191.48904207 </i>
   </energy>
  </scstep>
  <scstep>
   <time name="dav">   29.58   29.65</time>
   <time name="total">   30.09   30.17</time>
   <energy>
    <i name="e_fr_energy">   -191.56570368 </i>
    <i name="e_wo_entrp">   -191.39449504 </i>
    <i name="e_0_energy">   -191.48009936 </i>
   </energy>
  </scstep>
  <scstep>
   <time name="dav">   29.08   29.15</time>
   <time name="total">   29.59   29.67</time>
   <energy>
    <i name="e_fr_energy">   -191.56472846 </i>
    <i name="e_wo_entrp">   -191.39322123 </i>
    <i name="e_0_energy">   -191.47897484 </i>
   </energy>
  </scstep>
  <scstep>
   <time name="dav">   28.52   28.59</time>
   <time name="total">   29.03   29.11</time>
   <energy>
    <i name="e_fr_energy">   -191.56470159 </i>
    <i name="e_wo_entrp">   -191.39291789 </i>
    <i name="e_0_energy">   -191.47880974 </i>
   </energy>
  </scstep>
  <scstep>
   <time name="dav">   27.03   27.10</time>
   <time name="total">   27.07   27.14</time>
   <energy>
    <i name="alphaZ">     90.23762677 </i>
    <i name="ewald">  44694.16824167 </i>
    <i name="hartreedc"> -50703.25272930 </i>
    <i name="XCdc">   -233.33610555 </i>
    <i name="pawpsdc">   4086.95331227 </i>
    <i name="pawaedc">  -3502.92002056 </i>
    <i name="eentropy">     -0.17193188 </i>
    <i name="bandstr">  -1384.68555879 </i>
    <i name="atom">   6761.44252427 </i>
    <i name="e_fr_energy">   -191.56464111 </i>
    <i name="e_wo_entrp">   -191.39270923 </i>
    <i name="e_0_energy">   -191.47867517 </i>
   </energy>
  </scstep>
  <structure>
   <crystal>
    <varray name="basis" >
     <v>       8.27699883       4.78716837       0.00000000 </v>
     <v>      -8.26837500       4.77226398       0.00000000 </v>
     <v>       0.00000000       0.00000000      30.00000000 </v>
    </varray>
    <i name="volume">   2372.46380030 </i>
    <varray name="rec_basis" >
     <v>       0.06034567       0.10455428       0.00000000 </v>
     <v>      -0.06053414       0.10466333       0.00000000 </v>
     <v>       0.00000000       0.00000000       0.03333333 </v>
    </varray>
   </crystal>
   <varray name="positions" >
    <v>       0.32289067      -0.00545571      -0.00043721 </v>
    <v>       0.67945915       0.67402256       0.00037199 </v>
    <v>       0.67541206       0.33695210       0.00046415 </v>
    <v>       0.00508258       0.66699912       0.00007242 </v>
    <v>       1.00699576       0.33449679       0.00000906 </v>
    <v>      -0.00218309       0.00339605      -0.00009716 </v>
    <v>       0.31722522       0.32852300      -0.00034603 </v>
    <v>       0.31379873       0.65381634      -0.00023198 </v>
    <v>       0.68372093       0.00848932       0.00026417 </v>
    <v>       0.11096569       0.22201060       0.94556376 </v>
    <v>       0.22548665       0.10853252       0.05185647 </v>
    <v>       0.11050163       0.55513756       0.94581238 </v>
    <v>       0.22241188       0.44447541       0.05448311 </v>
    <v>       0.11716514       0.89203925       0.94822320 </v>
    <v>       0.22575024       0.78389918       0.05242842 </v>
    <v>       0.44662272       0.22003390       0.95161479 </v>
    <v>       0.55311458       0.11334233       0.04873111 </v>
    <v>       0.44947156       0.55808587       0.95012815 </v>
    <v>       0.55917095       0.44612901       0.04819763 </v>
    <v>       0.44272934       0.89140136       0.95090550 </v>
    <v>       0.55707900       0.77480326       0.04936196 </v>
    <v>       0.77471835       0.22492019       0.94815863 </v>
    <v>       0.88900101       0.11131885       0.05406446 </v>
    <v>       0.77202978       0.55246503       0.94960711 </v>
    <v>       0.88233284       0.44119387       0.05173459 </v>
    <v>       0.77436344       0.88270717       0.94754258 </v>
    <v>       0.88289765       0.77447953       0.05151665 </v>
   </varray>
  </structure>
  <varray name="forces" >
   <v>      -0.26276177      -0.36462989       0.00927614 </v>
   <v>       0.26219352       0.54856566      -0.04926824 </v>
   <v>       0.22915697       0.26664668       0.01868500 </v>
   <v>       0.12488411       0.01206302      -0.05305793 </v>
   <v>       0.09600428       0.01867989      -0.07827817 </v>
   <v>      -0.16279424       0.03761017      -0.01205545 </v>
   <v>      -0.31396269      -0.35015309       0.04382369 </v>
   <v>      -0.16501695      -0.49539681       0.11672518 </v>
   <v>       0.27350366       0.52114976      -0.06742461 </v>
   <v>      -0.03375031      -0.12063678      -0.25948182 </v>
   <v>      -0.09870425      -0.03645136       0.09387708 </v>
   <v>      -0.07253596      -0.21332972      -0.29020054 </v>
   <v>      -0.04107673      -0.06090026       0.29832085 </v>
   <v>      -0.10957019      -0.11756286      -0.07639368 </v>
   <v>       0.04261734      -0.07008579       0.14997983 </v>
   <v>      -0.16501391      -0.03202157       0.16807338 </v>
   <v>       0.12128427      -0.00951501      -0.14769692 </v>
   <v>      -0.08256344      -0.08930442       0.21338771 </v>
   <v>      -0.10745380      -0.11263247      -0.23166912 </v>
   <v>       0.20873311      -0.01043587       0.36138321 </v>
   <v>      -0.16697365      -0.08489504      -0.34961660 </v>
   <v>       0.09460907       0.10467317      -0.11221951 </v>
   <v>       0.02864569       0.18220262       0.27215677 </v>
   <v>       0.04415250       0.09142211      -0.05664919 </v>
   <v>       0.09974636       0.11994435       0.09044192 </v>
   <v>       0.04000790       0.09195809      -0.17446149 </v>
   <v>       0.11663909       0.17303543       0.12234252 </v>
  </varray>
  <varray name="stress" >
   <v>      -0.03448196       0.26109516       0.09922780 </v>
   <v>       0.26109534       0.10354097       0.46773287 </v>
   <v>       0.09922804       0.46773272      -0.45607411 </v>
  </varray>
  <energy>
   <i name="e_fr_energy">   -191.56464111 </i>
   <i name="e_wo_entrp">   -191.47867517 </i>
   <i name="e_0_energy">     -0.17193188 </i>
  </energy>
  <time name="totalsc">  361.58  362.54</time>
 </calculation>
 <calculation>
  <scstep>
   <time name="dav">   21.66   21.72</time>
   <time name="total">   22.17   22.23</time>
   <energy>
    <i name="alphaZ">     90.20626973 </i>
    <i name="ewald">  44665.08854903 </i>
    <i name="hartreedc"> -50674.40800744 </i>
    <i name="XCdc">   -233.42608294 </i>
    <i name="pawpsdc">   4087.32639690 </i>
    <i name="pawaedc">  -3503.28984209 </i>
    <i name="eentropy">     -0.16570054 </i>
    <i name="bandstr">  -1384.45778978 </i>
    <i name="atom">   6761.44252427 </i>
    <i name="e_fr_energy">   -191.68368285 </i>
    <i name="e_wo_entrp">   -191.51798231 </i>
    <i name="e_0_energy">   -191.60083258 </i>
   </energy>
  </scstep>
  <scstep>
   <time name="dav">   31.06   31.14</time>
   <time name="total">   31.57   31.65</time>
   <energy>
    <i name="e_fr_energy">   -191.74703531 </i>
    <i name="e_wo_entrp">   -191.56193009 </i>
    <i name="e_0_energy">   -191.65448270 </i>
   </energy>
  </scstep>
  <scstep>
   <time name="dav">   30.79   30.86</time>
   <time name="total">   31.30   31.38</time>
   <energy>
    <i name="e_fr_energy">   -191.70253578 </i>
    <i name="e_wo_entrp">   -191.53641265 </i>
    <i name="e_0_energy">   -191.61947422 </i>
   </energy>
  </scstep>
  <scstep>
   <time name="dav">   28.72   28.79</time>
   <time name="total">   29.23   29.31</time>
   <energy>
    <i name="e_fr_energy">   -191.70238795 </i>
    <i name="e_wo_entrp">   -191.53343788 </i>
    <i name="e_0_energy">   -191.61791291 </i>
   </energy>
  </scstep>
  <scstep>
   <time name="dav">   28.84   28.91</time>
   <time name="total">   29.35   29.43</time>
   <energy>
    <i name="e_fr_energy">   -191.69909281 </i>
    <i name="e_wo_entrp">   -191.53023644 </i>
    <i name="e_0_energy">   -191.61466463 </i>
   </energy>
  </scstep>
  <scstep>
   <time name="dav">   28.37   28.44</time>
   <time name="total">   28.88   28.96</time>
   <energy>
    <i name="e_fr_energy">   -191.69894390 </i>
    <i name="e_wo_entrp">   -191.52960105 </i>
    <i name="e_0_energy">   -191.61427247 </i>
   </energy>
  </scstep>
  <scstep>
   <time name="dav">   28.60   28.67</time>
   <time name="total">   29.11   29.18</time>
   <energy>
    <i name="e_fr_energy">   -191.69842263 </i>
    <i name="e_wo_entrp">   -191.52972478 </i>
    <i name="e_0_energy">   -191.61407371 </i>
   </energy>
  </scstep>
  <scstep>
   <time name="dav">   23.84   23.89</time>
   <time name="total">   24.34   24.41</time>
   <energy>
    <i name="e_fr_energy">   -191.69818517 </i>
    <i name="e_wo_entrp">   -191.52917912 </i>
    <i name="e_0_energy">   -191.61368214 </i>
   </energy>
  </scstep>
  <scstep>
   <time name="dav">   17.71   17.75</time>
   <time name="total">   17.74   17.79</time>
   <energy>
    <i name="alphaZ">     90.20626973 </i>
    <i name="ewald">  44665.08854903 </i>
    <i name="hartreedc"> -50675.79736794 </i>
    <i name="XCdc">   -233.38912493 </i>
    <i name="pawpsdc">   4086.21680855 </i>
    <i name="pawaedc">  -3502.14936130 </i>
    <i name="eentropy">     -0.16874363 </i>
    <i name="bandstr">  -1383.14774173 </i>
    <i name="atom">   6761.44252427 </i>
    <i name="e_fr_energy">   -191.69818796 </i>
    <i name="e_wo_entrp">   -191.52944433 </i>
    <i name="e_0_energy">   -191.61381614 </i>
   </energy>
  </scstep>
  <structure>
   <crystal>
    <varray name="basis" >
     <v>       8.28021458       4.79449547       0.00000000 </v>
     <v>      -8.26508210       4.76832064       0.00000000 </v>
     <v>       0.00000000       0.00000000      30.00000000 </v>
    </varray>
    <i name="volume">   2373.28850405 </i>
    <varray name="rec_basis" >
     <v>       0.06027485       0.10447633       0.00000000 </v>
     <v>      -0.06060572       0.10466761       0.00000000 </v>
     <v>       0.00000000       0.00000000       0.03333333 </v>
    </varray>
   </crystal>
   <varray name="positions" >
    <v>       0.32034089      -0.00650244      -0.00042044 </v>
    <v>       0.68291869       0.67598317       0.00029158 </v>
    <v>       0.67738200       0.33761505       0.00049261 </v>
    <v>       0.00548282       0.66669654      -0.00001245 </v>
    <v>       1.00734007       0.33430858      -0.00011537 </v>
    <v>      -0.00245614       0.00404218      -0.00011706 </v>
    <v>       0.31461918       0.32769024      -0.00027555 </v>
    <v>       0.31090683       0.65185756      -0.00004474 </v>
    <v>       0.68706234       0.01028081       0.00015652 </v>
    <v>       0.11027228       0.22150860       0.94517009 </v>
    <v>       0.22502081       0.10864091       0.05199158 </v>
    <v>       0.10923531       0.55428495       0.94536896 </v>
    <v>       0.22199373       0.44429238       0.05493859 </v>
    <v>       0.11625738       0.89176550       0.94811577 </v>
    <v>       0.22552224       0.78341825       0.05265089 </v>
    <v>       0.44598440       0.22035298       0.95188911 </v>
    <v>       0.55341944       0.11294061       0.04848798 </v>
    <v>       0.44878191       0.55787501       0.95047588 </v>
    <v>       0.55829706       0.44587543       0.04782248 </v>
    <v>       0.44327825       0.89074284       0.95148632 </v>
    <v>       0.55617435       0.77486550       0.04879893 </v>
    <v>       0.77551236       0.22516320       0.94799435 </v>
    <v>       0.88998653       0.11214283       0.05447958 </v>
    <v>       0.77261660       0.55279768       0.94953037 </v>
    <v>       0.88322502       0.44150772       0.05186449 </v>
    <v>       0.77493836       0.88305830       0.94728130 </v>
    <v>       0.88410176       0.77501007       0.05169813 </v>
   </varray>
  </structure>
  <varray name="forces" >
   <v>      -0.29548793      -0.37383608      -0.00377980 </v>
   <v>       0.27531909       0.53305990      -0.00567242 </v>
   <v>       0.25936408       0.30608736       0.06443040 </v>
   <v>       0.13469204      -0.01492512      -0.03229771 </v>
   <v>       0.06513331       0.00294592      -0.03135732 </v>
   <v>      -0.14992129       0.07279365       0.02964231 </v>
   <v>      -0.29527841      -0.37997489       0.01799153 </v>
   <v>      -0.20517063      -0.51594013       0.02343423 </v>
   <v>       0.27343586       0.51676815      -0.00345985 </v>
   <v>      -0.02557229      -0.09454512      -0.21850748 </v>
   <v>      -0.05134078      -0.03771885       0.11989246 </v>
   <v>      -0.04351249      -0.13192986      -0.19517742 </v>
   <v>      -0.03457299      -0.08135273       0.24874819 </v>
   <v>      -0.07553144      -0.08538161      -0.07544012 </v>
   <v>       0.00116829      -0.06312665       0.14150333 </v>
   <v>      -0.11517799      -0.03129684       0.22310348 </v>
   <v>       0.10181988      -0.01145851      -0.21703545 </v>
   <v>      -0.06390951      -0.04776392       0.25942218 </v>
   <v>      -0.08665939      -0.06628619      -0.28979728 </v>
   <v>       0.15018089       0.01125121       0.39344180 </v>
   <v>      -0.10492023      -0.05719764      -0.37449308 </v>
   <v>       0.04090268       0.06777860      -0.16434538 </v>
   <v>       0.03577025       0.13290698       0.20497442 </v>
   <v>       0.02230964       0.05235955      -0.08366090 </v>
   <v>       0.06231625       0.08153130       0.07280038 </v>
   <v>       0.03964022       0.07876388      -0.19058405 </v>
   <v>       0.08500290       0.13648762       0.08622355 </v>
  </varray>
  <varray name="stress" >
   <v>       0.00159131       0.07442471       0.10383023 </v>
   <v>       0.07442464       0.11294989       0.26189560 </v>
   <v>       0.10383025       0.26189533      -1.03131263 </v>
  </varray>
  <energy>
   <i name="e_fr_energy">   -191.69818796 </i>
   <i name="e_wo_entrp">   -191.61381614 </i>
   <i name="e_0_energy">     -0.16874363 </i>
  </energy>
  <time name="totalsc">  286.03  286.79</time>
 </calculation>
 <calculation>
  <scstep>
   <time name="dav">   21.64   21.70</time>
   <time name="total">   22.15   22.21</time>
   <energy>
    <i name="alphaZ">     90.15466989 </i>
    <i name="ewald">  44640.10477750 </i>
    <i name="hartreedc"> -50650.13236854 </i>
    <i name="XCdc">   -233.44159941 </i>
    <i name="pawpsdc">   4086.19214712 </i>
    <i name="pawaedc">  -3502.12456749 </i>
    <i name="eentropy">     -0.16260902 </i>
    <i name="bandstr">  -1383.85249536 </i>
    <i name="atom">   6761.44252427 </i>
    <i name="e_fr_energy">   -191.81952103 </i>
    <i name="e_wo_entrp">   -191.65691201 </i>
    <i name="e_0_energy">   -191.73821652 </i>
   </energy>
  </scstep>
  <scstep>
   <time name="dav">   31.00   31.07</time>
   <time name="total">   31.50   31.58</time>
   <energy>
    <i name="e_fr_energy">   -191.86028975 </i>
    <i name="e_wo_entrp">   -191.68600261 </i>
    <i name="e_0_energy">   -191.77314618 </i>
   </energy>
  </scstep>
  <scstep>
   <time name="dav">   30.56   30.63</time>
   <time name="total">   31.07   31.15</time>
   <energy>
    <i name="e_fr_energy">   -191.83848905 </i>
    <i name="e_wo_entrp">   -191.67728135 </i>
    <i name="e_0_energy">   -191.75788520 </i>
   </energy>
  </scstep>
  <scstep>
   <time name="dav">   29.07   29.14</time>
   <time name="total">   29.57   29.65</time>
   <energy>
    <i name="e_fr_energy">   -191.83537410 </i>
    <i name="e_wo_entrp">   -191.67109928 </i>
    <i name="e_0_energy">   -191.75323669 </i>
   </energy>
  </scstep>
  <scstep>
   <time name="dav">   29.90   29.97</time>
   <time name="total">   30.41   30.49</time>
   <energy>
    <i name="e_fr_energy">   -191.83457276 </i>
    <i name="e_wo_entrp">   -191.67053812 </i>
    <i name="e_0_energy">   -191.75255544 </i>
   </energy>
  </scstep>
  <scstep>
   <time name="dav">   28.99   29.06</time>
   <time name="total">   29.50   29.58</time>
   <energy>
    <i name="e_fr_energy">   -191.83390310 </i>
    <i name="e_wo_entrp">   -191.66977908 </i>
    <i name="e_0_energy">   -191.75184109 </i>
   </energy>
  </scstep>
  <scstep>
   <time name="dav">   26.29   26.36</time>
   <time name="total">   26.80   26.88</time>
   <energy>
    <i name="e_fr_energy">   -191.83308813 </i>
    <i name="e_wo_entrp">   -191.66902949 </i>
    <i name="e_0_energy">   -191.75105881 </i>
   </energy>
  </scstep>
  <scstep>
   <time name="dav">   21.22   21.27</time>
   <time name="total">   21.25   21.31</time>
   <energy>
    <i name="alphaZ">     90.15466989 </i>
    <i name="ewald">  44640.10477750 </i>
    <i name="hartreedc"> -50651.07978917 </i>
    <i name="XCdc">   -233.40240313 </i>
    <i name="pawpsdc">   4088.21051846 </i>
    <i name="pawaedc">  -3504.15928383 </i>
    <i name="eentropy">     -0.16405279 </i>
    <i name="bandstr">  -1382.94009825 </i>
    <i name="atom">   6761.44252427 </i>
    <i name="e_fr_energy">   -191.83313705 </i>
    <i name="e_wo_entrp">   -191.66908426 </i>
    <i name="e_0_energy">   -191.75111066 </i>
   </energy>
  </scstep>
  <structure>
   <crystal>
    <varray name="basis" >
     <v>       8.28225898       4.79820988       0.00000000 </v>
     <v>      -8.26526132       4.76879999       0.00000000 </v>
[...]
      <set comment="kpoint 31">
       <r>  -17.5148    1.0000 </r>
       <r>  -17.2990    1.0000 </r>
       <r>  -16.9266    1.0000 </r>
       <r>  -16.6963    1.0000 </r>
       <r>  -16.5020    1.0000 </r>
       <r>  -16.4819    1.0000 </r>
       <r>  -16.3243    1.0000 </r>
       <r>  -16.1908    1.0000 </r>
       <r>  -16.1439    1.0000 </r>
       <r>  -16.0635    1.0000 </r>
       <r>  -15.9034    1.0000 </r>
       <r>  -15.8305    1.0000 </r>
       <r>  -15.7861    1.0000 </r>
       <r>  -15.6244    1.0000 </r>
       <r>  -15.5675    1.0000 </r>
       <r>  -15.4614    1.0000 </r>
       <r>  -15.3544    1.0000 </r>
       <r>  -15.3248    1.0000 </r>
       <r>   -9.7789    1.0000 </r>
       <r>   -9.4485    1.0000 </r>
       <r>   -9.4076    1.0000 </r>
       <r>   -8.9130    1.0000 </r>
       <r>   -8.8360    1.0000 </r>
       <r>   -8.7546    1.0000 </r>
       <r>   -8.6298    1.0000 </r>
       <r>   -8.5728    1.0000 </r>
       <r>   -8.4170    1.0000 </r>
       <r>   -8.3088    1.0000 </r>
       <r>   -8.2502    1.0000 </r>
       <r>   -8.1672    1.0000 </r>
       <r>   -8.1360    1.0000 </r>
       <r>   -8.0679    1.0000 </r>
       <r>   -8.0122    1.0000 </r>
       <r>   -7.8961    1.0000 </r>
       <r>   -7.8436    1.0000 </r>
       <r>   -7.8122    1.0000 </r>
       <r>   -7.5505    1.0000 </r>
       <r>   -7.4414    1.0000 </r>
       <r>   -7.3961    1.0000 </r>
       <r>   -7.3244    1.0000 </r>
       <r>   -7.1406    1.0000 </r>
       <r>   -7.0000    1.0000 </r>
       <r>   -6.9630    1.0000 </r>
       <r>   -6.8727    1.0000 </r>
       <r>   -6.8345    1.0000 </r>
       <r>   -6.7687    1.0000 </r>
       <r>   -6.6766    1.0000 </r>
       <r>   -6.5866    1.0000 </r>
       <r>   -6.5259    1.0000 </r>
       <r>   -6.5008    1.0000 </r>
       <r>   -6.4404    1.0000 </r>
       <r>   -6.3524    1.0000 </r>
       <r>   -6.2897    1.0000 </r>
       <r>   -6.1975    1.0000 </r>
       <r>   -6.1282    1.0000 </r>
       <r>   -6.0517    1.0000 </r>
       <r>   -5.9996    1.0000 </r>
       <r>   -5.9194    1.0000 </r>
       <r>   -5.8429    1.0000 </r>
       <r>   -5.7151    1.0000 </r>
       <r>   -5.6466    1.0000 </r>
       <r>   -5.5305    1.0000 </r>
       <r>   -5.5027    1.0000 </r>
       <r>   -5.4118    1.0000 </r>
       <r>   -5.1936    1.0000 </r>
       <r>   -5.1018    1.0000 </r>
       <r>   -5.0423    1.0000 </r>
       <r>   -4.8614    1.0000 </r>
       <r>   -4.8218    1.0000 </r>
       <r>   -4.6795    1.0000 </r>
       <r>   -4.6563    1.0000 </r>
       <r>   -4.5422    1.0000 </r>
       <r>   -4.3457    1.0000 </r>
       <r>   -4.2678    1.0000 </r>
       <r>   -4.1203    1.0000 </r>
       <r>   -4.0527    1.0000 </r>
       <r>   -3.7939    1.0000 </r>
       <r>   -3.7298    0.9998 </r>
       <r>   -3.6422    0.9986 </r>
       <r>   -3.1009    0.1995 </r>
       <r>   -3.0210    0.0795 </r>
       <r>   -2.8647    0.0060 </r>
       <r>   -2.7072    0.0001 </r>
       <r>   -2.6023    0.0000 </r>
       <r>   -2.5232    0.0000 </r>
       <r>   -2.3672    0.0000 </r>
       <r>   -2.2214    0.0000 </r>
       <r>   -2.1165    0.0000 </r>
       <r>   -2.0326    0.0000 </r>
       <r>   -1.9061    0.0000 </r>
       <r>   -1.7035    0.0000 </r>
       <r>   -1.4849    0.0000 </r>
       <r>   -1.3711    0.0000 </r>
       <r>   -1.2687    0.0000 </r>
       <r>   -1.2492    0.0000 </r>
       <r>   -1.1763    0.0000 </r>
       <r>   -1.0655    0.0000 </r>
       <r>   -0.9791    0.0000 </r>
       <r>   -0.8871    0.0000 </r>
       <r>   -0.8350    0.0000 </r>
       <r>   -0.7945    0.0000 </r>
       <r>   -0.7278    0.0000 </r>
       <r>   -0.6312    0.0000 </r>
       <r>   -0.5981    0.0000 </r>
       <r>   -0.5545    0.0000 </r>
       <r>   -0.4086    0.0000 </r>
       <r>   -0.3566    0.0000 </r>
       <r>   -0.0633    0.0000 </r>
       <r>   -0.0430    0.0000 </r>
       <r>    0.2336    0.0000 </r>
       <r>    0.4275    0.0000 </r>
       <r>    0.5892    0.0000 </r>
       <r>    0.8829    0.0000 </r>
       <r>    0.9285    0.0000 </r>
       <r>    1.0807    0.0000 </r>
       <r>    1.2417    0.0000 </r>
       <r>    1.5933    0.0000 </r>
       <r>    2.1519    0.0000 </r>
       <r>    2.3037    0.0000 </r>
       <r>    2.4129    0.0000 </r>
      </set>
      <set comment="kpoint 32">
       <r>  -17.5455    1.0000 </r>
       <r>  -17.1792    1.0000 </r>
       <r>  -17.0639    1.0000 </r>
       <r>  -16.6983    1.0000 </r>
       <r>  -16.4931    1.0000 </r>
       <r>  -16.3790    1.0000 </r>
       <r>  -16.3183    1.0000 </r>
       <r>  -16.2184    1.0000 </r>
       <r>  -16.1207    1.0000 </r>
       <r>  -16.0850    1.0000 </r>
       <r>  -15.9725    1.0000 </r>
       <r>  -15.8470    1.0000 </r>
       <r>  -15.7844    1.0000 </r>
       <r>  -15.5885    1.0000 </r>
       <r>  -15.5548    1.0000 </r>
       <r>  -15.4623    1.0000 </r>
       <r>  -15.3611    1.0000 </r>
       <r>  -15.3246    1.0000 </r>
       <r>   -9.6766    1.0000 </r>
       <r>   -9.5983    1.0000 </r>
       <r>   -9.4332    1.0000 </r>
       <r>   -8.9307    1.0000 </r>
       <r>   -8.7373    1.0000 </r>
       <r>   -8.6707    1.0000 </r>
       <r>   -8.5392    1.0000 </r>
       <r>   -8.4653    1.0000 </r>
       <r>   -8.4204    1.0000 </r>
       <r>   -8.3884    1.0000 </r>
       <r>   -8.3241    1.0000 </r>
       <r>   -8.2577    1.0000 </r>
       <r>   -8.1763    1.0000 </r>
       <r>   -8.1060    1.0000 </r>
       <r>   -8.0421    1.0000 </r>
       <r>   -7.9284    1.0000 </r>
       <r>   -7.8494    1.0000 </r>
       <r>   -7.7816    1.0000 </r>
       <r>   -7.5542    1.0000 </r>
       <r>   -7.4498    1.0000 </r>
       <r>   -7.3261    1.0000 </r>
       <r>   -7.2760    1.0000 </r>
       <r>   -7.1686    1.0000 </r>
       <r>   -7.0292    1.0000 </r>
       <r>   -6.9520    1.0000 </r>
       <r>   -6.9113    1.0000 </r>
       <r>   -6.8384    1.0000 </r>
       <r>   -6.7533    1.0000 </r>
       <r>   -6.6635    1.0000 </r>
       <r>   -6.5965    1.0000 </r>
       <r>   -6.5083    1.0000 </r>
       <r>   -6.4795    1.0000 </r>
       <r>   -6.4322    1.0000 </r>
       <r>   -6.3769    1.0000 </r>
       <r>   -6.3492    1.0000 </r>
       <r>   -6.1941    1.0000 </r>
       <r>   -6.1248    1.0000 </r>
       <r>   -6.0216    1.0000 </r>
       <r>   -5.9580    1.0000 </r>
       <r>   -5.8690    1.0000 </r>
       <r>   -5.7882    1.0000 </r>
       <r>   -5.7577    1.0000 </r>
       <r>   -5.6514    1.0000 </r>
       <r>   -5.5516    1.0000 </r>
       <r>   -5.5037    1.0000 </r>
       <r>   -5.4095    1.0000 </r>
       <r>   -5.1805    1.0000 </r>
       <r>   -5.0862    1.0000 </r>
       <r>   -4.9973    1.0000 </r>
       <r>   -4.8606    1.0000 </r>
       <r>   -4.8496    1.0000 </r>
       <r>   -4.7871    1.0000 </r>
       <r>   -4.7371    1.0000 </r>
       <r>   -4.5179    1.0000 </r>
       <r>   -4.3411    1.0000 </r>
       <r>   -4.2469    1.0000 </r>
       <r>   -4.1309    1.0000 </r>
       <r>   -3.9666    1.0000 </r>
       <r>   -3.8197    1.0000 </r>
       <r>   -3.7004    0.9997 </r>
       <r>   -3.6551    0.9989 </r>
       <r>   -3.0734    0.1497 </r>
       <r>   -3.0523    0.1176 </r>
       <r>   -2.8381    0.0034 </r>
       <r>   -2.7115    0.0002 </r>
       <r>   -2.5832    0.0000 </r>
       <r>   -2.4981    0.0000 </r>
       <r>   -2.4015    0.0000 </r>
       <r>   -2.2458    0.0000 </r>
       <r>   -2.1314    0.0000 </r>
       <r>   -2.0671    0.0000 </r>
       <r>   -1.9100    0.0000 </r>
       <r>   -1.6861    0.0000 </r>
       <r>   -1.4544    0.0000 </r>
       <r>   -1.4078    0.0000 </r>
       <r>   -1.2779    0.0000 </r>
       <r>   -1.2483    0.0000 </r>
       <r>   -1.1885    0.0000 </r>
       <r>   -1.0453    0.0000 </r>
       <r>   -0.9763    0.0000 </r>
       <r>   -0.8814    0.0000 </r>
       <r>   -0.8601    0.0000 </r>
       <r>   -0.7920    0.0000 </r>
       <r>   -0.7216    0.0000 </r>
       <r>   -0.6469    0.0000 </r>
       <r>   -0.6105    0.0000 </r>
       <r>   -0.5425    0.0000 </r>
       <r>   -0.3708    0.0000 </r>
       <r>   -0.3031    0.0000 </r>
       <r>   -0.0692    0.0000 </r>
       <r>   -0.0270    0.0000 </r>
       <r>    0.1471    0.0000 </r>
       <r>    0.3933    0.0000 </r>
       <r>    0.6009    0.0000 </r>
       <r>    0.7806    0.0000 </r>
       <r>    0.9280    0.0000 </r>
       <r>    1.1388    0.0000 </r>
       <r>    1.2746    0.0000 </r>
       <r>    1.6211    0.0000 </r>
       <r>    2.1187    0.0000 </r>
       <r>    2.2705    0.0000 </r>
       <r>    2.5828    0.0000 </r>
      </set>
      <set comment="kpoint 33">
       <r>  -17.5463    1.0000 </r>
       <r>  -17.2412    1.0000 </r>
       <r>  -16.9454    1.0000 </r>
       <r>  -16.6989    1.0000 </r>
       <r>  -16.5342    1.0000 </r>
       <r>  -16.4540    1.0000 </r>
       <r>  -16.3493    1.0000 </r>
       <r>  -16.1725    1.0000 </r>
       <r>  -16.1156    1.0000 </r>
       <r>  -16.0342    1.0000 </r>
       <r>  -15.9552    1.0000 </r>
       <r>  -15.8615    1.0000 </r>
       <r>  -15.7706    1.0000 </r>
       <r>  -15.6033    1.0000 </r>
       <r>  -15.5649    1.0000 </r>
       <r>  -15.4624    1.0000 </r>
       <r>  -15.3637    1.0000 </r>
       <r>  -15.3253    1.0000 </r>
       <r>   -9.7427    1.0000 </r>
       <r>   -9.4741    1.0000 </r>
       <r>   -9.3547    1.0000 </r>
       <r>   -8.9548    1.0000 </r>
       <r>   -8.8826    1.0000 </r>
       <r>   -8.7983    1.0000 </r>
       <r>   -8.5868    1.0000 </r>
       <r>   -8.5099    1.0000 </r>
       <r>   -8.4456    1.0000 </r>
       <r>   -8.2987    1.0000 </r>
       <r>   -8.2620    1.0000 </r>
       <r>   -8.2187    1.0000 </r>
       <r>   -8.1213    1.0000 </r>
       <r>   -8.0915    1.0000 </r>
       <r>   -7.9645    1.0000 </r>
       <r>   -7.9051    1.0000 </r>
       <r>   -7.8406    1.0000 </r>
       <r>   -7.7776    1.0000 </r>
       <r>   -7.5862    1.0000 </r>
       <r>   -7.4453    1.0000 </r>
       <r>   -7.3543    1.0000 </r>
       <r>   -7.2588    1.0000 </r>
       <r>   -7.1686    1.0000 </r>
       <r>   -7.0813    1.0000 </r>
       <r>   -6.9716    1.0000 </r>
       <r>   -6.9147    1.0000 </r>
       <r>   -6.8522    1.0000 </r>
       <r>   -6.7110    1.0000 </r>
       <r>   -6.6379    1.0000 </r>
       <r>   -6.5778    1.0000 </r>
       <r>   -6.5365    1.0000 </r>
       <r>   -6.4883    1.0000 </r>
       <r>   -6.4363    1.0000 </r>
       <r>   -6.3489    1.0000 </r>
       <r>   -6.3065    1.0000 </r>
       <r>   -6.2131    1.0000 </r>
       <r>   -6.1741    1.0000 </r>
       <r>   -6.0371    1.0000 </r>
       <r>   -5.9849    1.0000 </r>
       <r>   -5.8983    1.0000 </r>
       <r>   -5.8188    1.0000 </r>
       <r>   -5.7071    1.0000 </r>
       <r>   -5.6823    1.0000 </r>
       <r>   -5.5316    1.0000 </r>
       <r>   -5.4807    1.0000 </r>
       <r>   -5.4183    1.0000 </r>
       <r>   -5.2076    1.0000 </r>
       <r>   -5.0921    1.0000 </r>
       <r>   -5.0563    1.0000 </r>
       <r>   -4.8906    1.0000 </r>
       <r>   -4.8273    1.0000 </r>
       <r>   -4.7051    1.0000 </r>
       <r>   -4.6208    1.0000 </r>
       <r>   -4.5091    1.0000 </r>
       <r>   -4.3352    1.0000 </r>
       <r>   -4.2494    1.0000 </r>
       <r>   -4.1599    1.0000 </r>
       <r>   -3.9504    1.0000 </r>
       <r>   -3.8552    1.0000 </r>
       <r>   -3.7457    0.9999 </r>
       <r>   -3.6236    0.9978 </r>
       <r>   -3.0858    0.1710 </r>
       <r>   -3.0345    0.0946 </r>
       <r>   -2.8806    0.0082 </r>
       <r>   -2.6841    0.0001 </r>
       <r>   -2.5956    0.0000 </r>
       <r>   -2.4785    0.0000 </r>
       <r>   -2.4036    0.0000 </r>
       <r>   -2.2222    0.0000 </r>
       <r>   -2.1363    0.0000 </r>
       <r>   -2.0756    0.0000 </r>
       <r>   -1.9184    0.0000 </r>
       <r>   -1.6706    0.0000 </r>
       <r>   -1.4282    0.0000 </r>
       <r>   -1.4117    0.0000 </r>
       <r>   -1.2960    0.0000 </r>
       <r>   -1.2453    0.0000 </r>
       <r>   -1.1893    0.0000 </r>
       <r>   -1.0665    0.0000 </r>
       <r>   -0.9754    0.0000 </r>
       <r>   -0.9395    0.0000 </r>
       <r>   -0.8567    0.0000 </r>
       <r>   -0.8354    0.0000 </r>
       <r>   -0.7682    0.0000 </r>
       <r>   -0.6270    0.0000 </r>
       <r>   -0.5433    0.0000 </r>
       <r>   -0.5061    0.0000 </r>
       <r>   -0.3644    0.0000 </r>
       <r>   -0.2861    0.0000 </r>
       <r>   -0.0939    0.0000 </r>
       <r>   -0.0480    0.0000 </r>
       <r>    0.0986    0.0000 </r>
       <r>    0.3731    0.0000 </r>
       <r>    0.6294    0.0000 </r>
       <r>    0.7105    0.0000 </r>
       <r>    0.9617    0.0000 </r>
       <r>    1.1881    0.0000 </r>
       <r>    1.3099    0.0000 </r>
       <r>    1.6451    0.0000 </r>
       <r>    2.1480    0.0000 </r>
       <r>    2.3040    0.0000 </r>
       <r>    2.4026    0.0000 </r>
      </set>
      <set comment="kpoint 34">
       <r>  -17.5387    1.0000 </r>
       <r>  -17.2886    1.0000 </r>
       <r>  -16.7954    1.0000 </r>
       <r>  -16.6935    1.0000 </r>
       <r>  -16.6756    1.0000 </r>
       <r>  -16.4749    1.0000 </r>
       <r>  -16.3508    1.0000 </r>
       <r>  -16.1587    1.0000 </r>
       <r>  -16.1183    1.0000 </r>
       <r>  -16.0182    1.0000 </r>
       <r>  -15.9132    1.0000 </r>
       <r>  -15.8611    1.0000 </r>
       <r>  -15.7372    1.0000 </r>
       <r>  -15.6605    1.0000 </r>
       <r>  -15.5630    1.0000 </r>
       <r>  -15.4618    1.0000 </r>
       <r>  -15.3640    1.0000 </r>
       <r>  -15.3258    1.0000 </r>
       <r>   -9.7828    1.0000 </r>
       <r>   -9.3340    1.0000 </r>
       <r>   -9.2394    1.0000 </r>
       <r>   -9.1129    1.0000 </r>
       <r>   -8.9614    1.0000 </r>
       <r>   -8.8989    1.0000 </r>
       <r>   -8.5891    1.0000 </r>
       <r>   -8.5300    1.0000 </r>
       <r>   -8.4462    1.0000 </r>
       <r>   -8.2888    1.0000 </r>
       <r>   -8.2563    1.0000 </r>
       <r>   -8.1807    1.0000 </r>
       <r>   -8.1237    1.0000 </r>
       <r>   -8.0190    1.0000 </r>
       <r>   -7.9698    1.0000 </r>
       <r>   -7.8611    1.0000 </r>
       <r>   -7.7440    1.0000 </r>
       <r>   -7.7273    1.0000 </r>
       <r>   -7.6041    1.0000 </r>
       <r>   -7.4890    1.0000 </r>
       <r>   -7.4103    1.0000 </r>
       <r>   -7.3231    1.0000 </r>
       <r>   -7.1993    1.0000 </r>
       <r>   -7.0291    1.0000 </r>
       <r>   -6.9917    1.0000 </r>
       <r>   -6.9194    1.0000 </r>
       <r>   -6.7508    1.0000 </r>
       <r>   -6.7110    1.0000 </r>
       <r>   -6.6422    1.0000 </r>
       <r>   -6.6124    1.0000 </r>
       <r>   -6.5327    1.0000 </r>
       <r>   -6.4737    1.0000 </r>
       <r>   -6.4355    1.0000 </r>
       <r>   -6.3529    1.0000 </r>
       <r>   -6.3232    1.0000 </r>
       <r>   -6.2680    1.0000 </r>
       <r>   -6.1722    1.0000 </r>
       <r>   -6.0540    1.0000 </r>
       <r>   -6.0200    1.0000 </r>
       <r>   -5.8252    1.0000 </r>
       <r>   -5.8109    1.0000 </r>
       <r>   -5.7194    1.0000 </r>
       <r>   -5.6884    1.0000 </r>
       <r>   -5.5550    1.0000 </r>
       <r>   -5.5429    1.0000 </r>
       <r>   -5.4008    1.0000 </r>
       <r>   -5.2193    1.0000 </r>
       <r>   -5.0655    1.0000 </r>
       <r>   -5.0324    1.0000 </r>
       <r>   -4.9423    1.0000 </r>
       <r>   -4.8370    1.0000 </r>
       <r>   -4.6434    1.0000 </r>
       <r>   -4.5396    1.0000 </r>
       <r>   -4.4541    1.0000 </r>
       <r>   -4.3230    1.0000 </r>
       <r>   -4.2693    1.0000 </r>
       <r>   -4.2011    1.0000 </r>
       <r>   -3.9876    1.0000 </r>
       <r>   -3.8530    1.0000 </r>
       <r>   -3.7720    1.0000 </r>
       <r>   -3.6109    0.9971 </r>
       <r>   -3.0970    0.1918 </r>
       <r>   -3.0131    0.0716 </r>
       <r>   -2.9176    0.0162 </r>
       <r>   -2.6617    0.0000 </r>
       <r>   -2.6157    0.0000 </r>
       <r>   -2.4813    0.0000 </r>
       <r>   -2.3870    0.0000 </r>
       <r>   -2.1967    0.0000 </r>
       <r>   -2.1362    0.0000 </r>
       <r>   -2.0731    0.0000 </r>
       <r>   -1.9242    0.0000 </r>
       <r>   -1.6628    0.0000 </r>
       <r>   -1.4275    0.0000 </r>
       <r>   -1.4008    0.0000 </r>
       <r>   -1.2963    0.0000 </r>
       <r>   -1.2485    0.0000 </r>
       <r>   -1.1844    0.0000 </r>
       <r>   -1.0897    0.0000 </r>
       <r>   -0.9905    0.0000 </r>
       <r>   -0.9387    0.0000 </r>
       <r>   -0.8848    0.0000 </r>
       <r>   -0.8479    0.0000 </r>
       <r>   -0.7916    0.0000 </r>
       <r>   -0.5945    0.0000 </r>
       <r>   -0.5539    0.0000 </r>
       <r>   -0.4437    0.0000 </r>
       <r>   -0.3687    0.0000 </r>
       <r>   -0.3111    0.0000 </r>
       <r>   -0.1312    0.0000 </r>
       <r>   -0.0368    0.0000 </r>
       <r>    0.0853    0.0000 </r>
       <r>    0.3771    0.0000 </r>
       <r>    0.6223    0.0000 </r>
       <r>    0.7081    0.0000 </r>
       <r>    0.9815    0.0000 </r>
       <r>    1.2087    0.0000 </r>
       <r>    1.3270    0.0000 </r>
       <r>    1.6545    0.0000 </r>
       <r>    2.2276    0.0000 </r>
       <r>    2.2573    0.0000 </r>
       <r>    2.3977    0.0000 </r>
      </set>
     </set>
    </set>
   </array>
  </eigenvalues>
  <separator name="orbital magnetization" >
   <v name="MAGDIPOLOUT">      0.00000000      0.00000000      0.00000000</v>
  </separator>
 </calculation>
 <structure name="finalpos" >
  <crystal>
   <varray name="basis" >
    <v>       8.32978518       4.82397543       0.00000000 </v>
    <v>      -8.31190364       4.79310821       0.00000000 </v>
    <v>       0.00000000       0.00000000      30.00000000 </v>
   </varray>
   <i name="volume">   2400.65941872 </i>
   <varray name="rec_basis" >
    <v>       0.05989740       0.10387026       0.00000000 </v>
    <v>      -0.06028313       0.10409371       0.00000000 </v>
    <v>       0.00000000       0.00000000       0.03333333 </v>
   </varray>
  </crystal>
  <varray name="positions" >
   <v>       0.29438962      -0.01997582       0.00277522 </v>
   <v>       0.70656741       0.68590199      -0.00270717 </v>
   <v>       0.69896500       0.34918522      -0.00159173 </v>
   <v>       0.00392544       0.64970054      -0.00011860 </v>
   <v>       1.00507678       0.33394027      -0.00026008 </v>
   <v>      -0.00028666       0.01986637      -0.00006172 </v>
   <v>       0.29815639       0.31837173       0.00152334 </v>
   <v>       0.29659583       0.64449345       0.00179618 </v>
   <v>       0.70245527       0.02064035      -0.00142298 </v>
   <v>       0.10788153       0.22299121       0.94344074 </v>
   <v>       0.21939538       0.10851183       0.05514860 </v>
   <v>       0.10816610       0.55119784       0.94366098 </v>
   <v>       0.21915406       0.44272217       0.05731784 </v>
   <v>       0.10754023       0.88721825       0.94965033 </v>
   <v>       0.21911680       0.77648373       0.05557521 </v>
   <v>       0.44319335       0.21832415       0.95776667 </v>
   <v>       0.55288571       0.11230488       0.04366871 </v>
   <v>       0.44847422       0.55766644       0.95516992 </v>
   <v>       0.55881806       0.44760798       0.04226272 </v>
   <v>       0.44208261       0.89063448       0.95731937 </v>
   <v>       0.55753180       0.77475534       0.04296031 </v>
   <v>       0.77764137       0.22638118       0.94511316 </v>
   <v>       0.89237058       0.11627061       0.05611258 </v>
   <v>       0.77836029       0.55308941       0.94624732 </v>
   <v>       0.88511077       0.44051638       0.05382365 </v>
   <v>       0.78125201       0.88963744       0.94480055 </v>
   <v>       0.89339449       0.77977706       0.05002879 </v>
  </varray>
 </structure>
</modeling>
