unknown system                          
           1
     8.855870    5.109239    0.000000
    -8.852433    5.103327    0.000000
     0.000000    0.000000   30.000000
   V    Mo   W    S 
   3   3   3  18
Direct configuration=     1
   0.33333334  0.00000000  0.00000000
   0.66666669  0.66666669  0.00000000
   0.66666669  0.33333334  0.00000000
   0.00000000  0.66666669  0.00000000
   1.00000000  0.33333334  0.00000000
   0.00000000  0.00000000  0.00000000
   0.33333334  0.33333334  0.00000000
   0.33333334  0.66666669  0.00000000
   0.66666669  0.00000000  0.00000000
   0.11068511  0.22244981  0.95539999
   0.22244981  0.11068511  0.04460000
   0.11068511  0.55578315  0.95539999
   0.22244981  0.44401845  0.04460000
   0.11068511  0.88911647  0.95539999
   0.22244981  0.77735180  0.04460000
   0.44401845  0.22244981  0.95539999
   0.55578315  0.11068511  0.04460000
   0.44401845  0.55578315  0.95539999
   0.55578315  0.44401845  0.04460000
   0.44401845  0.88911647  0.95539999
   0.55578315  0.77735180  0.04460000
   0.77735180  0.22244981  0.95539999
   0.88911647  0.11068511  0.04460000
   0.77735180  0.55578315  0.95539999
   0.88911647  0.44401845  0.04460000
   0.77735180  0.88911647  0.95539999
   0.88911647  0.77735180  0.04460000
unknown system                          
           1
     8.668173    5.002963    0.000000
    -8.665103    4.997684    0.000000
     0.000000    0.000000   30.000000
   V    Mo   W    S 
   3   3   3  18
Direct configuration=     2
   0.33134764 -0.00075809  0.00013300
   0.66898475  0.66740383 -0.00015243
   0.66857750  0.33443698  0.00001739
  -0.00024857  0.66659742 -0.00001685
   1.00006429  0.33340908  0.00004773
   0.00000116 -0.00009121 -0.00019529
   0.33113995  0.33178003 -0.00002192
   0.33035435  0.66528044  0.00019452
   0.66932154  0.00167166  0.00006389
   0.11191197  0.22253242  0.95073218
   0.22517736  0.10953349  0.04803168
   0.11187859  0.55583326  0.95072935
   0.22295531  0.44492322  0.04932841
   0.11538888  0.89101199  0.95194643
   0.22498573  0.78185612  0.04813786
   0.44607041  0.22039450  0.95307720
   0.55362587  0.11264586  0.04694384
   0.44826926  0.55730738  0.95193467
   0.55898396  0.44589466  0.04683548
   0.44242317  0.89080943  0.95206952
   0.55737221  0.77568422  0.04792887
   0.77485275  0.22360349  0.95197194
   0.88783800  0.11065734  0.04923220
   0.77319024  0.55354379  0.95307986
   0.88436096  0.44215179  0.04804204
   0.77501285  0.88463399  0.95185807
   0.88437432  0.77546737  0.04805022
unknown system                          
           1
     8.487653    4.901902    0.000000
    -8.485526    4.898252    0.000000
     0.000000    0.000000   30.000000
   V    Mo   W    S 
   3   3   3  18
Direct configuration=     3
   0.33071888 -0.00105607  0.00009421
   0.66976084  0.66778498 -0.00012508
   0.66915151  0.33471602  0.00006694
   0.00000901  0.66660433 -0.00001402
   1.00045487  0.33348249  0.00005493
  -0.00008842  0.00010988 -0.00021759
   0.33010752  0.33142059 -0.00007799
   0.32915099  0.66450924  0.00015903
   0.67039633  0.00223450  0.00011019
   0.11214576  0.22265715  0.95063594
   0.22532869  0.10971074  0.04807685
   0.11211313  0.55595664  0.95065299
   0.22316276  0.44501061  0.04941099
   0.11553193  0.89109730  0.95191065
   0.22517074  0.78186321  0.04819357
   0.44597047  0.22050033  0.95321822
   0.55374398  0.11255560  0.04682185
   0.44810429  0.55724645  0.95206734
   0.55878324  0.44580666  0.04669686
   0.44252670  0.89072975  0.95222295
   0.55727044  0.77575803  0.04779464
   0.77470362  0.22342100  0.95193332
   0.88761687  0.11052887  0.04930986
   0.77311485  0.55347182  0.95305794
   0.88419020  0.44207048  0.04807369
   0.77483810  0.88464370  0.95180615
   0.88423713  0.77538014  0.04806548
unknown system                          
           1
     8.276999    4.787168    0.000000
    -8.268375    4.772264    0.000000
     0.000000    0.000000   30.000000
   V    Mo   W    S 
   3   3   3  18
Direct configuration=     4
   0.32817468 -0.00252840 -0.00009610
   0.67273086  0.66967880  0.00004792
   0.67131670  0.33554395  0.00024563
   0.00160869  0.66672695  0.00001450
   1.00247487  0.33381435  0.00005951
  -0.00071195  0.00114165 -0.00021275
   0.32581655  0.33042229 -0.00024290
   0.32432815  0.66120302 -0.00003396
   0.67458287  0.00414510  0.00023284
   0.11204927  0.22264469  0.94861890
   0.22572969  0.10915184  0.04970552
   0.11198490  0.55593207  0.94873236
   0.22313426  0.44489458  0.05142803
   0.11672812  0.89171321  0.95037236
   0.22569223  0.78301538  0.04991335
   0.44643422  0.22016309  0.95244711
   0.55336102  0.11295506  0.04766753
   0.44893441  0.55778108  0.95113765
   0.55935790  0.44614480  0.04744752
   0.44240832  0.89118875  0.95143546
   0.55746539  0.77528434  0.04866231
   0.77429171  0.22396509  0.95032160
   0.88778109  0.11054283  0.05123122
   0.77221645  0.55286352  0.95165789
   0.88293189  0.44148422  0.04959958
   0.77426034  0.88358470  0.95009903
   0.88313183  0.77475748  0.04950777
unknown system                          
           1
     8.280215    4.794495    0.000000
    -8.265082    4.768321    0.000000
     0.000000    0.000000   30.000000
   V    Mo   W    S 
   3   3   3  18
Direct configuration=     5
   0.32289067 -0.00545571 -0.00043721
   0.67945915  0.67402256  0.00037199
   0.67541206  0.33695210  0.00046415
   0.00508258  0.66699912  0.00007242
   1.00699576  0.33449679  0.00000906
  -0.00218309  0.00339605 -0.00009716
   0.31722522  0.32852300 -0.00034603
   0.31379873  0.65381634 -0.00023198
   0.68372093  0.00848932  0.00026417
   0.11096569  0.22201060  0.94556376
   0.22548665  0.10853252  0.05185647
   0.11050163  0.55513756  0.94581238
   0.22241188  0.44447541  0.05448311
   0.11716514  0.89203925  0.94822320
   0.22575024  0.78389918  0.05242842
   0.44662272  0.22003390  0.95161479
   0.55311458  0.11334233  0.04873111
   0.44947156  0.55808587  0.95012815
   0.55917095  0.44612901  0.04819763
   0.44272934  0.89140136  0.95090550
   0.55707900  0.77480326  0.04936196
   0.77471835  0.22492019  0.94815863
   0.88900101  0.11131885  0.05406446
   0.77202978  0.55246503  0.94960711
   0.88233284  0.44119387  0.05173459
   0.77436344  0.88270717  0.94754258
   0.88289765  0.77447953  0.05151665
unknown system                          
           1
     8.282259    4.798210    0.000000
    -8.265261    4.768800    0.000000
     0.000000    0.000000   30.000000
   V    Mo   W    S 
   3   3   3  18
Direct configuration=     6
   0.32034089 -0.00650244 -0.00042044
   0.68291869  0.67598317  0.00029158
   0.67738200  0.33761505  0.00049261
   0.00548282  0.66669654 -0.00001245
   1.00734007  0.33430858 -0.00011537
  -0.00245614  0.00404218 -0.00011706
   0.31461918  0.32769024 -0.00027555
   0.31090683  0.65185756 -0.00004474
   0.68706234  0.01028081  0.00015652
   0.11027228  0.22150860  0.94517009
   0.22502081  0.10864091  0.05199158
   0.10923531  0.55428495  0.94536896
   0.22199373  0.44429238  0.05493859
   0.11625738  0.89176550  0.94811577
   0.22552224  0.78341825  0.05265089
   0.44598440  0.22035298  0.95188911
   0.55341944  0.11294061  0.04848798
   0.44878191  0.55787501  0.95047588
   0.55829706  0.44587543  0.04782248
   0.44327825  0.89074284  0.95148632
   0.55617435  0.77486550  0.04879893
   0.77551236  0.22516320  0.94799435
   0.88998653  0.11214283  0.05447958
   0.77261660  0.55279768  0.94953037
   0.88322502  0.44150772  0.05186449
   0.77493836  0.88305830  0.94728130
   0.88410176  0.77501007  0.05169813
unknown system                          
           1
     8.290235    4.813418    0.000000
    -8.263361    4.766895    0.000000
     0.000000    0.000000   30.000000
   V    Mo   W    S 
   3   3   3  18
Direct configuration=     7
   0.31749949 -0.00755257 -0.00042411
   0.68652809  0.67792795  0.00028008
   0.67976602  0.33843252  0.00060062
   0.00578358  0.66619843 -0.00006711
   1.00751338  0.33411824 -0.00016690
  -0.00251287  0.00487203 -0.00006704
   0.31177527  0.32659340 -0.00024472
   0.30763168  0.64981221 -0.00000529
   0.69055918  0.01214732  0.00015176
   0.10970536  0.22109246  0.94483126
   0.22466726  0.10860422  0.05217312
   0.10842339  0.55372983  0.94506956
   0.22146265  0.44396918  0.05532828
   0.11557113  0.89154121  0.94800973
   0.22518901  0.78307103  0.05286516
   0.44546482  0.22054172  0.95227751
   0.55367303  0.11256251  0.04810762
   0.44832910  0.55781553  0.95092733
   0.55768317  0.44579076  0.04732196
   0.44379478  0.89034113  0.95216003
   0.55555661  0.77488957  0.04815597
   0.77598897  0.22538655  0.94773713
   0.89078571  0.11272788  0.05479684
   0.77296263  0.55300988  0.94940866
   0.88385116  0.44175154  0.05196580
   0.77547609  0.88336410  0.94698378
   0.88508577  0.77547580  0.05182287
unknown system                          
           1
     8.296553    4.828954    0.000000
    -8.257908    4.762043    0.000000
     0.000000    0.000000   30.000000
   V    Mo   W    S 
   3   3   3  18
Direct configuration=     8
   0.31277524 -0.00919783 -0.00037472
   0.69216149  0.68091647  0.00015340
   0.68415239  0.34000306  0.00065708
   0.00587122  0.66504292 -0.00017701
   1.00727975  0.33363288 -0.00029769
  -0.00235790  0.00642415 -0.00005000
   0.30727086  0.32460037 -0.00010213
   0.30306461  0.64710885  0.00024609
   0.69566128  0.01478036 -0.00004739
   0.10861648  0.22040707  0.94427661
   0.22428795  0.10858056  0.05254805
   0.10691394  0.55276105  0.94452016
   0.22067791  0.44350789  0.05589093
   0.11440971  0.89107978  0.94780791
   0.22462561  0.78252480  0.05319534
   0.44474306  0.22078619  0.95298516
   0.55406119  0.11201773  0.04744582
   0.44779690  0.55778740  0.95169987
   0.55687709  0.44574376  0.04644381
   0.44457498  0.88988926  0.95328945
   0.55473037  0.77487192  0.04708216
   0.77645370  0.22566748  0.94732633
   0.89230379  0.11373604  0.05541260
   0.77333447  0.55318304  0.94918947
   0.88479765  0.44217917  0.05224981
   0.77635186  0.88389364  0.94655669
   0.88677886  0.77628645  0.05207208
unknown system                          
           1
     8.310020    4.832037    0.000000
    -8.273652    4.769103    0.000000
     0.000000    0.000000   30.000000
   V    Mo   W    S 
   3   3   3  18
Direct configuration=     9
   0.30504874 -0.01194541 -0.00008565
   0.70008106  0.68497450 -0.00020395
   0.69154827  0.34298837  0.00058826
   0.00583334  0.66231433 -0.00035426
   1.00640204  0.33272901 -0.00042507
  -0.00143032  0.00994656  0.00007196
   0.30063790  0.32089085  0.00024742
   0.29696225  0.64410657  0.00064943
   0.70229941  0.01792942 -0.00034548
   0.10670244  0.21943763  0.94348948
   0.22374746  0.10841840  0.05320274
   0.10481375  0.55147432  0.94387119
   0.21921803  0.44259069  0.05662777
   0.11233263  0.89008259  0.94751753
   0.22340307  0.78177393  0.05366303
   0.44375064  0.22101213  0.95437221
   0.55461226  0.11120394  0.04610793
   0.44719760  0.55775003  0.95317230
   0.55575524  0.44577426  0.04480185
   0.44573257  0.88967317  0.95527358
   0.55384588  0.77479054  0.04522349
   0.77690156  0.22612432  0.94659294
   0.89461040  0.11515316  0.05613823
   0.77389793  0.55333287  0.94876385
   0.88643263  0.44299019  0.05281006
   0.77805782  0.88489443  0.94588471
   0.88981987  0.77780367  0.05234435
unknown system                          
           1
     8.313685    4.830086    0.000000
    -8.279163    4.770382    0.000000
     0.000000    0.000000   30.000000
   V    Mo   W    S 
   3   3   3  18
Direct configuration=    10
   0.30425902 -0.01252986  0.00009336
   0.70028992  0.68496129 -0.00036634
   0.69240223  0.34365976  0.00037162
   0.00565393  0.66121959 -0.00035999
   1.00607580  0.33265872 -0.00042949
  -0.00114410  0.01086307  0.00001339
   0.30041988  0.32051584  0.00039096
   0.29716207  0.64447279  0.00079657
   0.70197792  0.01767241 -0.00051752
   0.10639074  0.21944312  0.94344125
   0.22361029  0.10834993  0.05341911
   0.10471839  0.55135410  0.94382601
   0.21906725  0.44253868  0.05664095
   0.11182269  0.88983998  0.94753011
   0.22311125  0.78172770  0.05377849
   0.44388436  0.22096387  0.95466275
   0.55451614  0.11125473  0.04583889
   0.44733142  0.55773489  0.95344004
   0.55573006  0.44579496  0.04450213
   0.44569687  0.88993157  0.95551876
   0.55396134  0.77466267  0.04500916
   0.77677348  0.22610587  0.94649578
   0.89484042  0.11530548  0.05619996
   0.77400750  0.55323474  0.94861644
   0.88675454  0.44313557  0.05300020
   0.77852586  0.88520582  0.94581547
   0.89037519  0.77813717  0.05227184
unknown system                          
           1
     8.320168    4.830941    0.000000
    -8.288265    4.775781    0.000000
     0.000000    0.000000   30.000000
   V    Mo   W    S 
   3   3   3  18
Direct configuration=    11
   0.30071113 -0.01430488  0.00044572
   0.70325954  0.68621624 -0.00066098
   0.69591575  0.34567359  0.00006599
   0.00532299  0.65840908 -0.00038754
   1.00543744  0.33243073 -0.00042916
  -0.00060436  0.01342958  0.00002787
   0.29792057  0.31876486  0.00066477
   0.29519484  0.64382613  0.00105972
   0.70402706  0.01864523 -0.00072378
   0.10564885  0.21941349  0.94323034
   0.22314494  0.10825335  0.05385736
   0.10433268  0.55094272  0.94367270
   0.21850432  0.44227167  0.05683825
   0.11051082  0.88917300  0.94760461
   0.22229856  0.78128890  0.05407813
   0.44378745  0.22095531  0.95554251
   0.55458124  0.11118050  0.04501310
   0.44728927  0.55768671  0.95428481
   0.55548317  0.44584579  0.04357844
   0.44579838  0.89014456  0.95641571
   0.55398971  0.77450472  0.04416532
   0.77671936  0.22613678  0.94615313
   0.89544623  0.11572716  0.05631796
   0.77444534  0.55321022  0.94826305
   0.88755217  0.44346720  0.05333679
   0.77965333  0.88595894  0.94552871
   0.89184366  0.77896288  0.05205638
unknown system                          
           1
     8.328017    4.832582    0.000000
    -8.299145    4.782676    0.000000
     0.000000    0.000000   30.000000
   V    Mo   W    S 
   3   3   3  18
Direct configuration=    12
   0.30053544 -0.01471678  0.00057022
   0.70290766  0.68587007 -0.00075789
   0.69586767  0.34596632 -0.00009525
   0.00520684  0.65755239 -0.00035216
   1.00529922  0.33263751 -0.00040933
  -0.00045369  0.01390724 -0.00000644
   0.29831722  0.31884301  0.00073177
   0.29573399  0.64424291  0.00111258
   0.70341536  0.01847747 -0.00079381
   0.10574380  0.21970793  0.94326228
   0.22294498  0.10822264  0.05394713
   0.10462998  0.55095735  0.94367175
   0.21859239  0.44237280  0.05683516
   0.11028312  0.88902340  0.94777057
   0.22212836  0.78116379  0.05417327
   0.44396569  0.22084001  0.95569242
   0.55443176  0.11135664  0.04490769
   0.44739930  0.55768358  0.95434315
   0.55572571  0.44588586  0.04350990
   0.44546163  0.89025955  0.95640329
   0.55429125  0.77449867  0.04418120
   0.77662351  0.22602716  0.94609753
   0.89520370  0.11568653  0.05629053
   0.77463959  0.55318012  0.94810918
   0.88752551  0.44334604  0.05342057
   0.77979930  0.88615382  0.94550009
   0.89199517  0.77906842  0.05188448
unknown system                          
           1
     8.320372    4.828460    0.000000
    -8.291144    4.777936    0.000000
     0.000000    0.000000   30.000000
   V    Mo   W    S 
   3   3   3  18
Direct configuration=    13
   0.29964700 -0.01545122  0.00079169
   0.70335083  0.68582967 -0.00092473
   0.69664572  0.34671717 -0.00030588
   0.00488228  0.65601428 -0.00031853
   1.00503377  0.33280995 -0.00037762
  -0.00029666  0.01491672 -0.00001687
   0.29809943  0.31851386  0.00083571
   0.29573978  0.64441529  0.00120907
   0.70340650  0.01869867 -0.00086553
   0.10587354  0.22009924  0.94329889
   0.22265207  0.10819543  0.05406181
   0.10500247  0.55095154  0.94367344
   0.21865949  0.44247115  0.05684428
   0.10987643  0.88875675  0.94799307
   0.22185746  0.78090305  0.05430038
   0.44411376  0.22069895  0.95600487
   0.55429471  0.11155055  0.04465500
   0.44750712  0.55769546  0.95453632
   0.55601420  0.44595821  0.04329631
   0.44509232  0.89036282  0.95652668
   0.55463383  0.77449626  0.04404531
   0.77653663  0.22596529  0.94600917
   0.89493096  0.11567555  0.05622251
   0.77493702  0.55315657  0.94793047
   0.88741426  0.44314687  0.05349360
   0.78004241  0.88643119  0.94546160
   0.89226714  0.77923518  0.05161890
unknown system                          
           1
     8.324303    4.829521    0.000000
    -8.296441    4.781364    0.000000
     0.000000    0.000000   30.000000
   V    Mo   W    S 
   3   3   3  18
Direct configuration=    14
   0.29930304 -0.01570321  0.00084403
   0.70359171  0.68590921 -0.00098061
   0.69686422  0.34691122 -0.00036080
   0.00489228  0.65558135 -0.00031546
   1.00506955  0.33287702 -0.00038092
  -0.00027172  0.01530348 -0.00003653
   0.29796542  0.31845329  0.00086729
   0.29564335  0.64436599  0.00123919
   0.70345512  0.01874973 -0.00090634
   0.10585766  0.22018586  0.94329609
   0.22251910  0.10822029  0.05411687
   0.10506271  0.55091323  0.94366194
   0.21865208  0.44247788  0.05685847
   0.10966600  0.88862229  0.94806367
   0.22171360  0.78072380  0.05435105
   0.44406918  0.22065761  0.95612581
   0.55429038  0.11156492  0.04456282
   0.44747957  0.55767081  0.95462915
   0.55605197  0.44598606  0.04320561
   0.44501189  0.89035285  0.95661394
   0.55472331  0.77453072  0.04395142
   0.77655544  0.22592288  0.94596246
   0.89491978  0.11573762  0.05623850
   0.77508645  0.55318565  0.94784943
   0.88745427  0.44310957  0.05354953
   0.78014551  0.88658394  0.94544381
   0.89244259  0.77932039  0.05154951
unknown system                          
           1
     8.340961    4.833777    0.000000
    -8.319025    4.795888    0.000000
     0.000000    0.000000   30.000000
   V    Mo   W    S 
   3   3   3  18
Direct configuration=    15
   0.29876460 -0.01619145  0.00099955
   0.70384529  0.68587238 -0.00110213
   0.69723528  0.34733121 -0.00049782
   0.00473256  0.65460434 -0.00028830
   1.00497578  0.33303615 -0.00035875
  -0.00019791  0.01596934 -0.00004226
   0.29790176  0.31833891  0.00093748
   0.29570249  0.64446050  0.00130107
   0.70338365  0.01888488 -0.00095123
   0.10597149  0.22048085  0.94329763
   0.22227387  0.10821144  0.05420959
   0.10534347  0.55090044  0.94363812
   0.21871391  0.44254716  0.05688977
   0.10934340  0.88840086  0.94821618
   0.22149853  0.78047045  0.05446217
   0.44413519  0.22053793  0.95631520
   0.55416901  0.11167561  0.04442498
   0.44757105  0.55768749  0.95472629
   0.55626281  0.44605856  0.04309794
   0.44474548  0.89040208  0.95667081
   0.55496598  0.77454423  0.04387509
   0.77654035  0.22588483  0.94587477
   0.89470732  0.11575952  0.05621653
   0.77534981  0.55320175  0.94769111
   0.88735095  0.44292717  0.05362460
   0.78028262  0.88678969  0.94539554
   0.89264568  0.77942813  0.05137599
unknown system                          
           1
     8.336428    4.830243    0.000000
    -8.315746    4.794525    0.000000
     0.000000    0.000000   30.000000
   V    Mo   W    S 
   3   3   3  18
Direct configuration=    16
   0.29692623 -0.01779464  0.00151804
   0.70499207  0.68584390 -0.00154674
   0.69861893  0.34874215 -0.00096557
   0.00395900  0.65152106 -0.00022368
   1.00463368  0.33342205 -0.00032437
  -0.00012834  0.01796198 -0.00009928
   0.29776915  0.31809807  0.00115540
   0.29597659  0.64469533  0.00149360
   0.70305561  0.01941146 -0.00114817
   0.10644492  0.22149732  0.94334795
   0.22139872  0.10823356  0.05448863
   0.10632537  0.55084531  0.94360359
   0.21894068  0.44275772  0.05699083
   0.10834724  0.88770817  0.94879449
   0.22076863  0.77947465  0.05480235
   0.44430731  0.22012084  0.95697113
   0.55379998  0.11209107  0.04396804
   0.44787673  0.55774284  0.95505470
   0.55706072  0.44636128  0.04271683
   0.44385571  0.89050811  0.95689759
   0.55579701  0.77459362  0.04356722
   0.77657058  0.22586499  0.94565289
   0.89402381  0.11594370  0.05617476
   0.77625603  0.55321882  0.94724381
   0.88674684  0.44214590  0.05380173
   0.78067988  0.88749312  0.94529738
   0.89321135  0.77971207  0.05076675
unknown system                          
           1
     8.326165    4.821739    0.000000
    -8.308769    4.791712    0.000000
     0.000000    0.000000   30.000000
   V    Mo   W    S 
   3   3   3  18
Direct configuration=    17
   0.29643853 -0.01822521  0.00167295
   0.70525214  0.68580464 -0.00167883
   0.69889714  0.34905323 -0.00107976
   0.00385886  0.65077831 -0.00019981
   1.00462998  0.33353290 -0.00030592
  -0.00009849  0.01856038 -0.00010416
   0.29774528  0.31805805  0.00121475
   0.29601609  0.64470856  0.00154422
   0.70297709  0.01958516 -0.00118196
   0.10659774  0.22179059  0.94337523
   0.22111791  0.10825962  0.05455032
   0.10661503  0.55084016  0.94361471
   0.21900127  0.44281108  0.05700103
   0.10804744  0.88749119  0.94897014
   0.22052367  0.77911167  0.05488125
   0.44427981  0.21997479  0.95716369
   0.55371289  0.11219098  0.04383519
   0.44792845  0.55773523  0.95514993
   0.55729974  0.44646498  0.04260667
   0.44357699  0.89051057  0.95697603
   0.55606042  0.77464688  0.04345911
   0.77662024  0.22585431  0.94558687
   0.89379707  0.11599645  0.05613901
   0.77655971  0.55323736  0.94710448
   0.88657409  0.44190361  0.05383938
   0.78077440  0.88773780  0.94526990
   0.89341095  0.77980116  0.05059549
unknown system                          
           1
     8.331037    4.826783    0.000000
    -8.311237    4.792591    0.000000
     0.000000    0.000000   30.000000
   V    Mo   W    S 
   3   3   3  18
Direct configuration=    18
   0.29565236 -0.01901485  0.00204138
   0.70555741  0.68562954 -0.00200995
   0.69916426  0.34934812 -0.00130816
   0.00385794  0.64975328 -0.00015099
   1.00477924  0.33376906 -0.00026903
  -0.00004847  0.01962144 -0.00010287
   0.29782996  0.31822377  0.00134472
   0.29617964  0.64458575  0.00164595
   0.70275141  0.02004035 -0.00126584
   0.10694586  0.22240333  0.94334259
   0.22038388  0.10833894  0.05477649
   0.10719015  0.55079290  0.94357403
   0.21910012  0.44287131  0.05713007
   0.10727776  0.88696302  0.94926767
   0.21987787  0.77811217  0.05514928
   0.44412851  0.21960712  0.95748370
   0.55347296  0.11237604  0.04366207
   0.44808235  0.55772793  0.95524031
   0.55783264  0.44671431  0.04245897
   0.44298268  0.89050031  0.95709183
   0.55660801  0.77476161  0.04327233
   0.77685150  0.22590369  0.94534908
   0.89330345  0.11618848  0.05616472
   0.77735694  0.55324916  0.94669506
   0.88614337  0.44128989  0.05397441
   0.78097857  0.88842028  0.94510425
   0.89397407  0.78003754  0.05033782
unknown system                          
           1
     8.334801    4.830323    0.000000
    -8.313638    4.793767    0.000000
     0.000000    0.000000   30.000000
   V    Mo   W    S 
   3   3   3  18
Direct configuration=    19
   0.29568998 -0.01891465  0.00200869
   0.70560604  0.68570477 -0.00198133
   0.69901950  0.34917839 -0.00126523
   0.00393195  0.65019910 -0.00015590
   1.00479000  0.33372174 -0.00027438
  -0.00005563  0.01929317 -0.00009172
   0.29784216  0.31819643  0.00132895
   0.29616635  0.64460077  0.00163559
   0.70279252  0.02000333 -0.00125538
   0.10695829  0.22232349  0.94334037
   0.22048412  0.10834041  0.05475163
   0.10712164  0.55081229  0.94357910
   0.21908548  0.44284019  0.05713713
   0.10747654  0.88709833  0.94922861
   0.21997443  0.77819721  0.05512384
   0.44404775  0.21956875  0.95741204
   0.55343545  0.11230241  0.04372700
   0.44811887  0.55774336  0.95518070
   0.55781090  0.44674935  0.04250521
   0.44303410  0.89050528  0.95707018
   0.55656099  0.77475191  0.04330043
   0.77688940  0.22593924  0.94536468
   0.89332572  0.11617267  0.05616696
   0.77726030  0.55323766  0.94673853
   0.88613881  0.44133201  0.05393703
   0.78089931  0.88835452  0.94510645
   0.89380948  0.77996232  0.05038072
unknown system                          
           1
     8.333518    4.828967    0.000000
    -8.312863    4.793293    0.000000
     0.000000    0.000000   30.000000
   V    Mo   W    S 
   3   3   3  18
Direct configuration=    20
   0.29552082 -0.01901378  0.00208972
   0.70584388  0.68577000 -0.00206693
   0.69898023  0.34913449 -0.00127793
   0.00390256  0.65027179 -0.00015839
   1.00481526  0.33374204 -0.00027716
  -0.00013134  0.01920282 -0.00009330
   0.29790061  0.31821614  0.00133262
   0.29620821  0.64459043  0.00163349
   0.70275728  0.02006479 -0.00127027
   0.10711867  0.22239247  0.94337637
   0.22040925  0.10834771  0.05477435
   0.10724814  0.55088537  0.94362033
   0.21909448  0.44280649  0.05714593
   0.10756269  0.88716761  0.94927279
   0.21992502  0.77804793  0.05515220
   0.44387933  0.21937060  0.95744206
   0.55331228  0.11225891  0.04372927
   0.44819649  0.55774892  0.95517432
   0.55795225  0.44690566  0.04248269
   0.44291318  0.89052112  0.95710477
   0.55667837  0.77474722  0.04325100
   0.77702688  0.22602643  0.94535892
   0.89319999  0.11617555  0.05614505
   0.77736128  0.55325297  0.94672794
   0.88598854  0.44123704  0.05388153
   0.78087492  0.88844454  0.94510329
   0.89367519  0.77989920  0.05034524
unknown system                          
           1
     8.332452    4.828355    0.000000
    -8.311701    4.792514    0.000000
     0.000000    0.000000   30.000000
   V    Mo   W    S 
   3   3   3  18
Direct configuration=    21
   0.29539557 -0.01914074  0.00215671
   0.70589469  0.68577489 -0.00212638
   0.69892366  0.34913100 -0.00131527
   0.00397916  0.65019583 -0.00014852
   1.00490949  0.33377141 -0.00027037
  -0.00014076  0.01936066 -0.00009020
   0.29791174  0.31824451  0.00135680
   0.29623339  0.64456350  0.00165813
   0.70272993  0.02010604 -0.00128301
   0.10717261  0.22246708  0.94337875
   0.22028789  0.10837463  0.05480747
   0.10733507  0.55089670  0.94361776
   0.21909907  0.44281214  0.05715605
   0.10747287  0.88711208  0.94931465
   0.21981936  0.77786247  0.05519215
   0.44380884  0.21928581  0.95748241
   0.55327096  0.11225481  0.04371281
   0.44821656  0.55773965  0.95518592
   0.55801487  0.44696428  0.04246167
   0.44283108  0.89052550  0.95712789
   0.55675831  0.77476041  0.04321616
   0.77708388  0.22602538  0.94532625
   0.89311616  0.11618971  0.05613902
   0.77749261  0.55326161  0.94666240
   0.88595225  0.44117366  0.05389936
   0.78092204  0.88858038  0.94507409
   0.89372317  0.77992104  0.05030720
unknown system                          
           1
     8.331356    4.826554    0.000000
    -8.311637    4.792502    0.000000
     0.000000    0.000000   30.000000
   V    Mo   W    S 
   3   3   3  18
Direct configuration=    22
   0.29535740 -0.01917424  0.00218880
   0.70593320  0.68579684 -0.00215753
   0.69884057  0.34908886 -0.00132123
   0.00404092  0.65024081 -0.00014593
   1.00498314  0.33377740 -0.00026779
  -0.00016827  0.01938394 -0.00008784
   0.29792530  0.31826264  0.00136196
   0.29623679  0.64454065  0.00166419
   0.70272543  0.02010980 -0.00128324
   0.10721084  0.22247970  0.94339366
   0.22024497  0.10838914  0.05481269
   0.10737257  0.55092550  0.94363218
   0.21909375  0.44280376  0.05714789
   0.10748018  0.88712268  0.94932738
   0.21978244  0.77777920  0.05519878
   0.44373227  0.21921981  0.95749289
   0.55324662  0.11222695  0.04371203
   0.44822114  0.55772910  0.95519064
   0.55803806  0.44701393  0.04245183
   0.44279892  0.89052753  0.95714489
   0.55679257  0.77476423  0.04319294
   0.77713489  0.22603488  0.94532362
   0.89307376  0.11618280  0.05612343
   0.77754456  0.55327561  0.94664914
   0.88594064  0.44116449  0.05388825
   0.78093462  0.88863955  0.94506944
   0.89369719  0.77990889  0.05029684
unknown system                          
           1
     8.330997    4.825593    0.000000
    -8.312164    4.793077    0.000000
     0.000000    0.000000   30.000000
   V    Mo   W    S 
   3   3   3  18
Direct configuration=    23
   0.29522270 -0.01930639  0.00227588
   0.70603828  0.68577882 -0.00224206
   0.69894159  0.34913999 -0.00136195
   0.00390843  0.65003560 -0.00014249
   1.00493526  0.33380843 -0.00027277
  -0.00020977  0.01943458 -0.00008283
   0.29798622  0.31831005  0.00139059
   0.29634376  0.64456146  0.00167798
   0.70264108  0.02022548 -0.00132004
   0.10732181  0.22257172  0.94337887
   0.22008129  0.10840977  0.05487927
   0.10749253  0.55094939  0.94362200
   0.21910629  0.44277944  0.05720219
   0.10745799  0.88713287  0.94937674
   0.21967196  0.77756281  0.05527990
   0.44367445  0.21908535  0.95753603
   0.55317692  0.11226115  0.04370552
   0.44829686  0.55773978  0.95517867
   0.55818440  0.44711091  0.04241972
   0.44268951  0.89054935  0.95716808
   0.55689869  0.77474238  0.04315842
   0.77722322  0.22612161  0.94529970
   0.89298512  0.11622646  0.05614711
   0.77769926  0.55322644  0.94659045
   0.88576877  0.44104047  0.05386710
   0.78099650  0.88880652  0.94501404
   0.89368134  0.77991003  0.05025377
unknown system                          
           1
     8.330535    4.824583    0.000000
    -8.312642    4.793695    0.000000
     0.000000    0.000000   30.000000
   V    Mo   W    S 
   3   3   3  18
Direct configuration=    24
   0.29499607 -0.01947158  0.00238256
   0.70616395  0.68580518 -0.00233928
   0.69895617  0.34915999 -0.00141750
   0.00391814  0.64997976 -0.00013926
   1.00495849  0.33383957 -0.00026854
  -0.00021264  0.01953461 -0.00007883
   0.29800943  0.31830383  0.00142002
   0.29638685  0.64454678  0.00171294
   0.70262363  0.02031813 -0.00133026
   0.10744856  0.22266902  0.94338859
   0.21993384  0.10841885  0.05493490
   0.10763695  0.55099689  0.94362019
   0.21911912  0.44277518  0.05723058
   0.10747850  0.88715104  0.94944010
   0.21955586  0.77733439  0.05534256
   0.44358303  0.21891472  0.95758508
   0.55308369  0.11227256  0.04369905
   0.44837422  0.55774354  0.95517102
   0.55833481  0.44722769  0.04239061
   0.44255036  0.89058054  0.95719270