   27   27  100    1
  0.9710400E+02  0.1002848E-08  0.1002848E-08  0.3000000E-08  0.5000000E-15
  1.000000000000000E-004
  CAR 
 unknown system                          
    159     34    120
 
  0.0000000E+00  0.0000000E+00  0.0000000E+00  0.1562500E-01
    1      -17.826146   1.000000
    2      -16.686021   1.000000
    3      -16.669773   1.000000
    4      -16.592186   1.000000
    5      -16.511281   1.000000
    6      -16.471208   1.000000
    7      -16.393982   1.000000
    8      -16.324112   1.000000
    9      -16.171885   1.000000
   10      -16.111827   1.000000
   11      -16.039206   1.000000
   12      -15.954033   1.000000
   13      -15.879809   1.000000
   14      -15.837892   1.000000
   15      -15.590454   1.000000
   16      -15.504216   1.000000
   17      -15.313771   1.000000
   18      -15.210923   1.000000
   19       -9.386863   1.000000
   20       -9.041027   1.000000
   21       -8.873685   1.000000
   22       -8.862592   1.000000
   23       -8.754764   1.000000
   24       -8.691608   1.000000
   25       -8.646945   1.000000
   26       -8.560629   1.000000
   27       -8.477742   1.000000
   28       -8.424096   1.000000
   29       -8.398737   1.000000
   30       -8.337938   1.000000
   31       -8.255572   1.000000
   32       -8.171814   1.000000
   33       -8.149237   1.000000
   34       -8.097925   1.000000
   35       -7.872122   1.000000
   36       -7.812281   1.000000
   37       -7.690990   1.000000
   38       -7.574828   1.000000
   39       -7.498497   1.000000
   40       -7.471140   1.000000
   41       -7.352188   1.000000
   42       -7.169791   1.000000
   43       -7.125148   1.000000
   44       -6.902585   1.000000
   45       -6.871106   1.000000
   46       -6.845087   1.000000
   47       -6.768032   1.000000
   48       -6.726882   1.000000
   49       -6.620222   1.000000
   50       -6.497451   1.000000
   51       -6.463587   1.000000
   52       -6.360222   1.000000
   53       -6.237513   1.000000
   54       -6.220176   1.000000
   55       -6.159589   1.000000
   56       -5.998796   1.000000
   57       -5.952521   1.000000
   58       -5.888242   1.000000
   59       -5.741365   1.000000
   60       -5.733274   1.000000
   61       -5.466057   1.000000
   62       -5.355371   1.000000
   63       -5.302184   1.000000
   64       -5.163739   1.000000
   65       -5.027748   1.000000
   66       -4.921181   1.000000
   67       -4.901630   1.000000
   68       -4.822168   1.000000
   69       -4.774708   1.000000
   70       -4.687171   1.000000
   71       -4.538729   1.000000
   72       -4.532884   1.000000
   73       -4.481585   1.000000
   74       -4.388232   1.000000
   75       -4.266395   1.000000
   76       -3.930061   0.999979
   77       -3.672585   0.988513
   78       -3.641923   0.980159
   79       -3.512212   0.872825
   80       -3.395089   0.622351
   81       -3.238991   0.214144
   82       -2.787461   0.000034
   83       -2.654321   0.000000
   84       -2.567163   0.000000
   85       -2.515167   0.000000
   86       -2.421102   0.000000
   87       -2.401564   0.000000
   88       -2.243553   0.000000
   89       -2.152458   0.000000
   90       -2.065589   0.000000
   91       -1.850681   0.000000
   92       -1.531263   0.000000
   93       -1.475105   0.000000
   94       -1.349613   0.000000
   95       -1.304168   0.000000
   96       -1.223167   0.000000
   97       -1.111944   0.000000
   98       -0.839610   0.000000
   99       -0.792697   0.000000
  100       -0.642459   0.000000
  101       -0.607253   0.000000
  102       -0.549820   0.000000
  103       -0.350270   0.000000
  104       -0.333726   0.000000
  105       -0.087245   0.000000
  106        0.012474   0.000000
  107        0.098381   0.000000
  108        0.164184   0.000000
  109        0.211279   0.000000
  110        0.314845   0.000000
  111        0.388190   0.000000
  112        0.429155   0.000000
  113        0.468982   0.000000
  114        0.721697   0.000000
  115        0.908140   0.000000
  116        0.940903   0.000000
  117        1.085544   0.000000
  118        1.644923   0.000000
  119        1.835405   0.000000
  120        2.164735   0.000000
 
  0.1250000E+00  0.2775558E-16  0.0000000E+00  0.3125000E-01
    1      -17.801112   1.000000
    2      -16.816787   1.000000
    3      -16.664496   1.000000
    4      -16.596748   1.000000
    5      -16.543310   1.000000
    6      -16.408261   1.000000
    7      -16.385234   1.000000
    8      -16.317722   1.000000
    9      -16.170522   1.000000
   10      -16.068230   1.000000
   11      -16.037177   1.000000
   12      -15.941192   1.000000
   13      -15.855527   1.000000
   14      -15.820456   1.000000
   15      -15.604017   1.000000
   16      -15.512300   1.000000
   17      -15.317973   1.000000
   18      -15.216485   1.000000
   19       -9.388700   1.000000
   20       -9.194634   1.000000
   21       -8.990235   1.000000
   22       -8.898966   1.000000
   23       -8.799092   1.000000
   24       -8.675598   1.000000
   25       -8.657526   1.000000
   26       -8.563034   1.000000
   27       -8.483331   1.000000
   28       -8.459218   1.000000
   29       -8.364389   1.000000
   30       -8.266843   1.000000
   31       -8.179194   1.000000
   32       -8.121064   1.000000
   33       -8.074465   1.000000
   34       -7.953604   1.000000
   35       -7.837718   1.000000
   36       -7.760909   1.000000
   37       -7.686201   1.000000
   38       -7.561062   1.000000
   39       -7.509159   1.000000
   40       -7.479928   1.000000
   41       -7.321941   1.000000
   42       -7.172055   1.000000
   43       -7.125780   1.000000
   44       -6.991403   1.000000
   45       -6.935582   1.000000
   46       -6.851471   1.000000
   47       -6.771426   1.000000
   48       -6.656318   1.000000
   49       -6.588512   1.000000
   50       -6.498829   1.000000
   51       -6.404592   1.000000
   52       -6.373732   1.000000
   53       -6.282824   1.000000
   54       -6.216011   1.000000
   55       -6.188166   1.000000
   56       -6.061300   1.000000
   57       -5.944602   1.000000
   58       -5.832605   1.000000
   59       -5.748511   1.000000
   60       -5.671312   1.000000
   61       -5.452075   1.000000
   62       -5.411010   1.000000
   63       -5.326908   1.000000
   64       -5.251029   1.000000
   65       -5.159564   1.000000
   66       -5.015896   1.000000
   67       -4.878606   1.000000
   68       -4.801983   1.000000
   69       -4.748355   1.000000
   70       -4.649031   1.000000
   71       -4.618430   1.000000
   72       -4.440482   1.000000
   73       -4.365892   1.000000
   74       -4.318332   1.000000
   75       -4.204716   1.000000
   76       -3.962266   0.999992
   77       -3.772110   0.998547
   78       -3.696688   0.992743
   79       -3.597015   0.959026
   80       -3.339116   0.466476
   81       -3.170480   0.100878
   82       -2.778645   0.000026
   83       -2.651317   0.000000
   84       -2.569774   0.000000
   85       -2.494551   0.000000
   86       -2.416254   0.000000
   87       -2.351548   0.000000
   88       -2.233119   0.000000
   89       -2.140025   0.000000
   90       -2.049432   0.000000
   91       -1.840447   0.000000
   92       -1.549978   0.000000
   93       -1.465960   0.000000
   94       -1.356784   0.000000
   95       -1.298187   0.000000
   96       -1.223200   0.000000
   97       -1.105767   0.000000
   98       -0.858239   0.000000
   99       -0.803837   0.000000
  100       -0.745324   0.000000
  101       -0.647749   0.000000
  102       -0.579117   0.000000
  103       -0.459497   0.000000
  104       -0.332484   0.000000
  105       -0.152669   0.000000
  106        0.014663   0.000000
  107        0.048578   0.000000
  108        0.105463   0.000000
  109        0.224807   0.000000
  110        0.282332   0.000000
  111        0.351310   0.000000
  112        0.462599   0.000000
  113        0.657191   0.000000
  114        0.763603   0.000000
  115        0.828225   0.000000
  116        1.024012   0.000000
  117        1.072148   0.000000
  118        1.687883   0.000000
  119        1.875262   0.000000
  120        2.199511   0.000000
 
  0.2500000E+00  0.5551115E-16  0.0000000E+00  0.3125000E-01
    1      -17.727084   1.000000
    2      -17.025485   1.000000
    3      -16.683472   1.000000
    4      -16.630851   1.000000
    5      -16.565281   1.000000
    6      -16.400807   1.000000
    7      -16.320782   1.000000
    8      -16.301615   1.000000
    9      -16.148740   1.000000
   10      -16.032541   1.000000
   11      -16.010667   1.000000
   12      -15.896927   1.000000
   13      -15.817037   1.000000
   14      -15.765530   1.000000
   15      -15.632961   1.000000
   16      -15.530765   1.000000
   17      -15.328451   1.000000
   18      -15.231350   1.000000
   19       -9.542218   1.000000
   20       -9.271830   1.000000
   21       -9.156696   1.000000
   22       -8.997615   1.000000
   23       -8.896468   1.000000
   24       -8.759799   1.000000
   25       -8.607240   1.000000
   26       -8.527179   1.000000
   27       -8.446159   1.000000
   28       -8.423783   1.000000
   29       -8.300341   1.000000
   30       -8.215746   1.000000
   31       -8.167343   1.000000
   32       -8.137186   1.000000
   33       -7.856087   1.000000
   34       -7.819062   1.000000
   35       -7.725382   1.000000
   36       -7.709461   1.000000
   37       -7.615117   1.000000
   38       -7.539421   1.000000
   39       -7.477082   1.000000
   40       -7.396666   1.000000
   41       -7.268146   1.000000
   42       -7.173941   1.000000
   43       -7.121802   1.000000
   44       -7.035907   1.000000
   45       -6.984490   1.000000
   46       -6.869373   1.000000
   47       -6.786562   1.000000
   48       -6.639791   1.000000
   49       -6.587068   1.000000
   50       -6.425962   1.000000
   51       -6.404630   1.000000
   52       -6.377915   1.000000
   53       -6.238775   1.000000
   54       -6.230616   1.000000
   55       -6.163008   1.000000
   56       -6.071709   1.000000
   57       -5.993444   1.000000
   58       -5.847111   1.000000
   59       -5.722497   1.000000
   60       -5.688973   1.000000
   61       -5.621565   1.000000
   62       -5.506202   1.000000
   63       -5.448872   1.000000
   64       -5.332070   1.000000
   65       -5.264352   1.000000
   66       -5.088185   1.000000
   67       -4.854209   1.000000
   68       -4.796312   1.000000
   69       -4.695898   1.000000
   70       -4.629906   1.000000
   71       -4.490436   1.000000
   72       -4.365805   1.000000
   73       -4.326793   1.000000
   74       -4.225523   1.000000
   75       -4.169514   1.000000
   76       -4.001480   0.999998
   77       -3.958181   0.999991
   78       -3.766798   0.998359
   79       -3.601224   0.961574
   80       -3.312582   0.392905
   81       -3.072285   0.024367
   82       -2.756904   0.000013
   83       -2.644913   0.000000
   84       -2.563667   0.000000
   85       -2.479167   0.000000
   86       -2.377471   0.000000
   87       -2.261254   0.000000
   88       -2.187940   0.000000
   89       -2.089119   0.000000
   90       -2.004438   0.000000
   91       -1.812816   0.000000
   92       -1.578620   0.000000
   93       -1.467844   0.000000
   94       -1.382873   0.000000
   95       -1.293948   0.000000
   96       -1.239797   0.000000
   97       -1.099953   0.000000
   98       -0.964212   0.000000
   99       -0.910172   0.000000
  100       -0.849797   0.000000
  101       -0.748453   0.000000
  102       -0.637660   0.000000
  103       -0.539567   0.000000
  104       -0.377933   0.000000
  105       -0.279024   0.000000
  106       -0.170171   0.000000
  107       -0.048844   0.000000
  108        0.074406   0.000000
  109        0.178597   0.000000
  110        0.286330   0.000000
  111        0.402866   0.000000
  112        0.528555   0.000000
  113        0.719556   0.000000
  114        0.804419   0.000000
  115        0.910844   0.000000
  116        1.088589   0.000000
  117        1.137400   0.000000
  118        1.808205   0.000000
  119        1.988674   0.000000
  120        2.302679   0.000000
 
  0.3750000E+00  0.0000000E+00  0.0000000E+00  0.3125000E-01
    1      -17.608130   1.000000
    2      -17.238640   1.000000
    3      -16.713299   1.000000
    4      -16.650936   1.000000
    5      -16.568945   1.000000
    6      -16.422577   1.000000
    7      -16.288874   1.000000
    8      -16.267865   1.000000
    9      -16.136037   1.000000
   10      -16.007861   1.000000
   11      -15.954782   1.000000
   12      -15.867160   1.000000
   13      -15.771291   1.000000
   14      -15.758233   1.000000
   15      -15.649271   1.000000
   16      -15.530386   1.000000
   17      -15.339301   1.000000
   18      -15.248958   1.000000
   19       -9.733251   1.000000
   20       -9.314214   1.000000
   21       -9.209751   1.000000
   22       -9.061068   1.000000
   23       -8.948313   1.000000
   24       -8.830543   1.000000
   25       -8.543229   1.000000
   26       -8.517619   1.000000
   27       -8.406050   1.000000
   28       -8.371953   1.000000
   29       -8.277082   1.000000
   30       -8.221642   1.000000
   31       -8.155281   1.000000
   32       -8.115142   1.000000
   33       -7.913903   1.000000
   34       -7.775443   1.000000
   35       -7.715978   1.000000
   36       -7.614617   1.000000
   37       -7.589752   1.000000
   38       -7.464408   1.000000
   39       -7.362115   1.000000
   40       -7.315287   1.000000
   41       -7.225184   1.000000
   42       -7.120875   1.000000
   43       -7.095246   1.000000
   44       -7.011035   1.000000
   45       -6.900745   1.000000
   46       -6.827169   1.000000
   47       -6.741371   1.000000
   48       -6.644960   1.000000
   49       -6.560824   1.000000
   50       -6.436332   1.000000
   51       -6.398708   1.000000
   52       -6.362046   1.000000
   53       -6.244705   1.000000
   54       -6.219268   1.000000
   55       -6.123321   1.000000
   56       -6.059955   1.000000
   57       -5.998917   1.000000
   58       -5.911142   1.000000
   59       -5.841698   1.000000
   60       -5.803248   1.000000
   61       -5.722435   1.000000
   62       -5.677470   1.000000
   63       -5.538970   1.000000
   64       -5.417375   1.000000
   65       -5.221918   1.000000
   66       -5.015373   1.000000
   67       -4.856125   1.000000
   68       -4.798391   1.000000
   69       -4.734219   1.000000
   70       -4.617871   1.000000
   71       -4.541264   1.000000
   72       -4.346500   1.000000
   73       -4.318381   1.000000
   74       -4.197278   1.000000
   75       -4.140089   1.000000
   76       -4.084655   1.000000
   77       -3.883126   0.999916
   78       -3.742893   0.997206
   79       -3.582748   0.949353
   80       -3.326353   0.430785
   81       -3.005350   0.007258
   82       -2.731961   0.000006
   83       -2.645858   0.000000
   84       -2.576474   0.000000
   85       -2.415792   0.000000
   86       -2.366507   0.000000
   87       -2.201754   0.000000
   88       -2.110825   0.000000
   89       -2.010621   0.000000
   90       -1.921910   0.000000
   91       -1.776570   0.000000
   92       -1.612667   0.000000
   93       -1.515953   0.000000
   94       -1.405117   0.000000
   95       -1.317001   0.000000
   96       -1.302684   0.000000
   97       -1.138500   0.000000
   98       -1.099335   0.000000
   99       -0.996937   0.000000
  100       -0.919497   0.000000
  101       -0.780413   0.000000
  102       -0.704362   0.000000
  103       -0.539148   0.000000
  104       -0.433665   0.000000
  105       -0.369896   0.000000
  106       -0.300760   0.000000
  107       -0.176043   0.000000
  108        0.001548   0.000000
  109        0.113756   0.000000
  110        0.292287   0.000000
  111        0.447228   0.000000
  112        0.569375   0.000000
  113        0.697375   0.000000
  114        0.820908   0.000000
  115        1.023134   0.000000
  116        1.192824   0.000000
  117        1.218559   0.000000
  118        1.989358   0.000000
  119        2.162103   0.000000
  120        2.468637   0.000000
 
  0.5000000E+00  0.1110223E-15  0.0000000E+00  0.1562500E-01
    1      -17.483495   1.000000
    2      -17.396468   1.000000
    3      -16.725123   1.000000
    4      -16.660395   1.000000
    5      -16.563661   1.000000
    6      -16.435488   1.000000
    7      -16.285694   1.000000
    8      -16.248745   1.000000
    9      -16.132987   1.000000
   10      -15.995681   1.000000
   11      -15.921452   1.000000
   12      -15.847404   1.000000
   13      -15.792947   1.000000
   14      -15.739293   1.000000
   15      -15.665156   1.000000
   16      -15.515662   1.000000
   17      -15.343711   1.000000
   18      -15.257498   1.000000
   19       -9.804838   1.000000
   20       -9.350032   1.000000
   21       -9.220178   1.000000
   22       -9.072016   1.000000
   23       -8.937042   1.000000
   24       -8.859354   1.000000
   25       -8.581891   1.000000
   26       -8.490253   1.000000
   27       -8.389511   1.000000
   28       -8.339709   1.000000
   29       -8.256207   1.000000
   30       -8.205665   1.000000
   31       -8.154523   1.000000
   32       -8.082350   1.000000
   33       -7.971971   1.000000
   34       -7.792625   1.000000
   35       -7.760374   1.000000
   36       -7.630598   1.000000
   37       -7.574112   1.000000
   38       -7.412566   1.000000
   39       -7.358342   1.000000
   40       -7.247287   1.000000
   41       -7.174229   1.000000
   42       -7.085406   1.000000
   43       -7.018283   1.000000
   44       -6.964610   1.000000
   45       -6.896613   1.000000
   46       -6.830674   1.000000
   47       -6.683457   1.000000
   48       -6.556886   1.000000
   49       -6.529354   1.000000
   50       -6.466948   1.000000
   51       -6.435340   1.000000
   52       -6.392550   1.000000
   53       -6.315399   1.000000
   54       -6.220515   1.000000
   55       -6.125776   1.000000
   56       -6.040586   1.000000
   57       -6.021662   1.000000
   58       -5.938532   1.000000
   59       -5.916927   1.000000
   60       -5.813632   1.000000
   61       -5.714576   1.000000
   62       -5.670161   1.000000
   63       -5.543415   1.000000
   64       -5.481255   1.000000
   65       -5.181909   1.000000
   66       -5.115127   1.000000
   67       -4.928206   1.000000
   68       -4.820243   1.000000
   69       -4.730233   1.000000
   70       -4.585333   1.000000
   71       -4.539744   1.000000
   72       -4.322147   1.000000
   73       -4.310330   1.000000
   74       -4.209527   1.000000
   75       -4.163085   1.000000
   76       -4.062901   1.000000
   77       -3.840034   0.999728
   78       -3.723162   0.995749
   79       -3.564216   0.934167
   80       -3.343281   0.478196
   81       -2.981684   0.004507
   82       -2.719309   0.000004
   83       -2.648164   0.000000
   84       -2.584915   0.000000
   85       -2.388427   0.000000
   86       -2.352672   0.000000
   87       -2.185203   0.000000
   88       -2.079052   0.000000
   89       -1.963078   0.000000
   90       -1.863995   0.000000
   91       -1.743657   0.000000
   92       -1.659212   0.000000
   93       -1.548165   0.000000
   94       -1.417047   0.000000
   95       -1.370799   0.000000
   96       -1.319820   0.000000
   97       -1.175194   0.000000
   98       -1.138838   0.000000
   99       -1.023108   0.000000
  100       -0.926209   0.000000
  101       -0.793372   0.000000
  102       -0.727274   0.000000
  103       -0.550309   0.000000
  104       -0.450640   0.000000
  105       -0.391833   0.000000
  106       -0.335623   0.000000
  107       -0.244472   0.000000
  108       -0.035386   0.000000
  109        0.094036   0.000000
  110        0.286832   0.000000
  111        0.457307   0.000000
  112        0.585187   0.000000
  113        0.689160   0.000000
  114        0.829662   0.000000
  115        1.059149   0.000000
  116        1.236436   0.000000
  117        1.255797   0.000000
  118        2.199240   0.000000
  119        2.241190   0.000000
  120        2.368866   0.000000
 
  0.0000000E+00  0.1250000E+00  0.0000000E+00  0.3125000E-01
    1      -17.802546   1.000000
    2      -16.767333   1.000000
    3      -16.675792   1.000000
    4      -16.641725   1.000000
    5      -16.545552   1.000000
    6      -16.421525   1.000000
    7      -16.395885   1.000000
    8      -16.269886   1.000000
    9      -16.174509   1.000000
   10      -16.123407   1.000000
   11      -16.018003   1.000000
   12      -15.927395   1.000000
   13      -15.861781   1.000000
   14      -15.799949   1.000000
   15      -15.598554   1.000000
   16      -15.509660   1.000000
   17      -15.321723   1.000000
   18      -15.221432   1.000000
   19       -9.396887   1.000000
   20       -9.119579   1.000000
   21       -9.026028   1.000000
   22       -8.929867   1.000000
   23       -8.799737   1.000000
   24       -8.723971   1.000000
   25       -8.662212   1.000000
   26       -8.588946   1.000000
   27       -8.493869   1.000000
   28       -8.430982   1.000000
   29       -8.331263   1.000000
   30       -8.247439   1.000000
   31       -8.211210   1.000000
   32       -8.144086   1.000000
   33       -8.037384   1.000000
   34       -7.923539   1.000000
   35       -7.832644   1.000000
   36       -7.793483   1.000000
   37       -7.664911   1.000000
   38       -7.585469   1.000000
   39       -7.486711   1.000000
   40       -7.389600   1.000000
   41       -7.345368   1.000000
   42       -7.195700   1.000000
   43       -7.139208   1.000000
   44       -6.987960   1.000000
   45       -6.917393   1.000000
   46       -6.845213   1.000000
   47       -6.813151   1.000000
   48       -6.734319   1.000000
   49       -6.579653   1.000000
   50       -6.499868   1.000000
   51       -6.456655   1.000000
   52       -6.326922   1.000000
   53       -6.276415   1.000000
   54       -6.204398   1.000000
   55       -6.162902   1.000000
   56       -6.024915   1.000000
   57       -5.896612   1.000000
   58       -5.867620   1.000000
   59       -5.738710   1.000000
   60       -5.672510   1.000000
   61       -5.449816   1.000000
   62       -5.372884   1.000000
   63       -5.312263   1.000000
   64       -5.213848   1.000000
   65       -5.167831   1.000000
   66       -5.041740   1.000000
   67       -4.971534   1.000000
   68       -4.866213   1.000000
   69       -4.767815   1.000000
   70       -4.702292   1.000000
   71       -4.543645   1.000000
   72       -4.433137   1.000000
   73       -4.348652   1.000000
   74       -4.306798   1.000000
   75       -4.168928   1.000000
   76       -3.913992   0.999966
   77       -3.822084   0.999567
   78       -3.681675   0.990310
   79       -3.548455   0.918661
   80       -3.408153   0.656907
   81       -3.138731   0.066669
   82       -2.784494   0.000031
   83       -2.661084   0.000001
   84       -2.603264   0.000000
   85       -2.534623   0.000000
   86       -2.429939   0.000000
   87       -2.363778   0.000000
   88       -2.260234   0.000000
   89       -2.110543   0.000000
   90       -2.049478   0.000000
   91       -1.775872   0.000000
   92       -1.553057   0.000000
   93       -1.477868   0.000000
   94       -1.357037   0.000000
   95       -1.288985   0.000000
   96       -1.198465   0.000000
   97       -1.111833   0.000000
   98       -0.869151   0.000000
   99       -0.779315   0.000000
  100       -0.721614   0.000000
  101       -0.630279   0.000000
  102       -0.600004   0.000000
  103       -0.504401   0.000000
  104       -0.290905   0.000000
  105       -0.120417   0.000000
  106       -0.067539   0.000000
  107        0.041197   0.000000
  108        0.097690   0.000000
  109        0.203005   0.000000
  110        0.296286   0.000000
  111        0.379357   0.000000
  112        0.457255   0.000000
  113        0.509911   0.000000
  114        0.812544   0.000000
  115        0.945589   0.000000
  116        0.987517   0.000000
  117        1.106945   0.000000
  118        1.689230   0.000000
  119        1.872511   0.000000
  120        2.199911   0.000000
 
  0.1250000E+00  0.1250000E+00  0.0000000E+00  0.3125000E-01
    1      -17.755150   1.000000
    2      -16.912129   1.000000
    3      -16.761849   1.000000
    4      -16.636564   1.000000
    5      -16.510699   1.000000
    6      -16.401940   1.000000
    7      -16.355022   1.000000
    8      -16.268103   1.000000
    9      -16.161600   1.000000
   10      -16.097701   1.000000
   11      -15.995479   1.000000
   12      -15.930456   1.000000
   13      -15.807989   1.000000
   14      -15.759972   1.000000
   15      -15.613046   1.000000
   16      -15.529638   1.000000
   17      -15.327065   1.000000
   18      -15.233134   1.000000
   19       -9.439321   1.000000
   20       -9.330254   1.000000
   21       -9.088843   1.000000
   22       -9.035927   1.000000
   23       -8.829346   1.000000
   24       -8.717875   1.000000
   25       -8.647854   1.000000
   26       -8.554587   1.000000
   27       -8.484216   1.000000
   28       -8.374483   1.000000
   29       -8.327887   1.000000
   30       -8.242571   1.000000
   31       -8.166510   1.000000
   32       -8.084308   1.000000
   33       -7.998881   1.000000
   34       -7.818901   1.000000
   35       -7.774831   1.000000
   36       -7.729843   1.000000
   37       -7.618271   1.000000
   38       -7.500904   1.000000
   39       -7.448616   1.000000
   40       -7.331846   1.000000
   41       -7.276262   1.000000
   42       -7.229985   1.000000
   43       -7.145377   1.000000
   44       -7.062206   1.000000
   45       -6.961935   1.000000
   46       -6.908373   1.000000
   47       -6.773956   1.000000
   48       -6.698433   1.000000
   49       -6.584114   1.000000
   50       -6.478926   1.000000
   51       -6.429514   1.000000
   52       -6.359706   1.000000
   53       -6.255321   1.000000
   54       -6.221150   1.000000
   55       -6.130538   1.000000
   56       -6.050501   1.000000
   57       -5.941118   1.000000
   58       -5.838047   1.000000
   59       -5.734540   1.000000
   60       -5.619838   1.000000
   61       -5.552552   1.000000
   62       -5.458809   1.000000
   63       -5.364975   1.000000
   64       -5.314320   1.000000
   65       -5.236630   1.000000
   66       -5.120519   1.000000
   67       -5.016371   1.000000
   68       -4.825995   1.000000
   69       -4.766185   1.000000
   70       -4.595913   1.000000
   71       -4.512412   1.000000
   72       -4.341602   1.000000
   73       -4.305533   1.000000
   74       -4.255651   1.000000
   75       -4.080956   1.000000
   76       -4.046646   1.000000
   77       -3.943508   0.999986
   78       -3.695566   0.992582
   79       -3.604117   0.963250
   80       -3.272495   0.289376
   81       -3.150972   0.078606
   82       -2.772765   0.000022
   83       -2.655717   0.000000
   84       -2.574121   0.000000
   85       -2.520573   0.000000
   86       -2.436617   0.000000
   87       -2.304529   0.000000
   88       -2.224203   0.000000
   89       -2.073016   0.000000
   90       -2.013060   0.000000
   91       -1.765038   0.000000
   92       -1.583701   0.000000
   93       -1.458646   0.000000
   94       -1.368876   0.000000
   95       -1.287725   0.000000
   96       -1.210632   0.000000
   97       -1.105256   0.000000
   98       -0.905168   0.000000
   99       -0.892108   0.000000
  100       -0.806325   0.000000
  101       -0.730429   0.000000
  102       -0.643820   0.000000
  103       -0.562114   0.000000
  104       -0.340088   0.000000
  105       -0.222170   0.000000
  106       -0.079912   0.000000
  107       -0.019783   0.000000
  108        0.078104   0.000000
  109        0.128344   0.000000
  110        0.234061   0.000000
  111        0.398124   0.000000
  112        0.475398   0.000000
  113        0.669032   0.000000
  114        0.849352   0.000000
  115        0.952380   0.000000
  116        1.073936   0.000000
  117        1.120356   0.000000
  118        1.771002   0.000000
  119        1.948679   0.000000
  120        2.268846   0.000000
 
  0.2500000E+00  0.1250000E+00  0.0000000E+00  0.3125000E-01
    1      -17.661004   1.000000
    2      -17.113852   1.000000
    3      -16.844905   1.000000
    4      -16.617207   1.000000
    5      -16.493414   1.000000
    6      -16.379174   1.000000
    7      -16.319926   1.000000
    8      -16.262544   1.000000
    9      -16.155425   1.000000
   10      -16.044707   1.000000
   11      -15.982896   1.000000
   12      -15.915955   1.000000
   13      -15.767474   1.000000
   14      -15.724655   1.000000
   15      -15.619270   1.000000
   16      -15.542716   1.000000
   17      -15.338044   1.000000
   18      -15.246501   1.000000
   19       -9.621665   1.000000
   20       -9.436327   1.000000
   21       -9.219564   1.000000
   22       -9.051845   1.000000
   23       -8.881855   1.000000
   24       -8.702515   1.000000
   25       -8.570854   1.000000
   26       -8.482335   1.000000
   27       -8.408797   1.000000
   28       -8.370768   1.000000
   29       -8.311247   1.000000
   30       -8.236616   1.000000
   31       -8.192062   1.000000
   32       -8.126655   1.000000
   33       -7.931247   1.000000
   34       -7.864327   1.000000
   35       -7.783564   1.000000
   36       -7.598296   1.000000
   37       -7.516819   1.000000
   38       -7.435482   1.000000
   39       -7.367226   1.000000
   40       -7.289500   1.000000
   41       -7.265579   1.000000
   42       -7.163151   1.000000
   43       -7.095525   1.000000
   44       -7.044715   1.000000
   45       -6.941315   1.000000
   46       -6.863074   1.000000
   47       -6.792258   1.000000