<?xml version="1.0" encoding="ISO-8859-1"?>
<modeling>
 <generator>
  <i name="program" type="string">vasp </i>
  <i name="version" type="string">5.4.1  </i>
  <i name="subversion" type="string">05Feb16 (build Jul 05 2020 17:13:04) complex                          parallel </i>
  <i name="platform" type="string">IFC91_ompi </i>
  <i name="date" type="string">2024 05 08 </i>
  <i name="time" type="string">10:16:19 </i>
 </generator>
 <incar>
  <i type="int" name="ISTART">     0</i>
  <i type="string" name="PREC">normal</i>
  <i type="string" name="ALGO"> Normal</i>
  <i type="int" name="ISPIN">     1</i>
  <i type="int" name="ICHARG">     2</i>
  <i type="int" name="IBRION">     1</i>
  <i type="int" name="NSW">   100</i>
  <i type="int" name="ISIF">     3</i>
  <i type="int" name="ISYM">     0</i>
  <i name="SYMPREC">      0.00000001</i>
  <i name="POTIM">      0.50000000</i>
  <i type="logical" name="LREAL"> F  </i>
  <i type="logical" name="LPLANE"> F  </i>
  <i type="int" name="ISMEAR">     0</i>
  <i type="logical" name="LWAVE"> F  </i>
  <i type="logical" name="LCHARG"> F  </i>
  <v type="int" name="KPOINT_BSE">    -1     0     0     0</v>
 </incar>
 <kpoints>
  <generation param="Gamma">
   <v type="int" name="divisions">       8        8        1 </v>
   <v name="usershift">      0.00000000       0.00000000       0.00000000 </v>
   <v name="genvec1">      0.12500000       0.00000000       0.00000000 </v>
   <v name="genvec2">     -0.00000000       0.12500000       0.00000000 </v>
   <v name="genvec3">      0.00000000       0.00000000       1.00000000 </v>
   <v name="shift">      0.00000000       0.00000000       0.00000000 </v>
  </generation>
  <varray name="kpointlist" >
   <v>       0.00000000       0.00000000       0.00000000 </v>
   <v>       0.12500000       0.00000000       0.00000000 </v>
   <v>       0.25000000       0.00000000       0.00000000 </v>
   <v>       0.37500000       0.00000000       0.00000000 </v>
   <v>       0.50000000       0.00000000       0.00000000 </v>
   <v>       0.00000000       0.12500000       0.00000000 </v>
   <v>       0.12500000       0.12500000       0.00000000 </v>
   <v>       0.25000000       0.12500000       0.00000000 </v>
   <v>       0.37500000       0.12500000       0.00000000 </v>
   <v>       0.50000000       0.12500000       0.00000000 </v>
   <v>      -0.37500000       0.12500000       0.00000000 </v>
   <v>      -0.25000000       0.12500000       0.00000000 </v>
   <v>      -0.12500000       0.12500000       0.00000000 </v>
   <v>       0.00000000       0.25000000       0.00000000 </v>
   <v>       0.12500000       0.25000000       0.00000000 </v>
   <v>       0.25000000       0.25000000       0.00000000 </v>
   <v>       0.37500000       0.25000000       0.00000000 </v>
   <v>       0.50000000       0.25000000       0.00000000 </v>
   <v>      -0.37500000       0.25000000       0.00000000 </v>
   <v>      -0.25000000       0.25000000       0.00000000 </v>
   <v>      -0.12500000       0.25000000       0.00000000 </v>
   <v>      -0.00000000       0.37500000       0.00000000 </v>
   <v>       0.12500000       0.37500000       0.00000000 </v>
   <v>       0.25000000       0.37500000       0.00000000 </v>
   <v>       0.37500000       0.37500000       0.00000000 </v>
   <v>       0.50000000       0.37500000       0.00000000 </v>
   <v>      -0.37500000       0.37500000       0.00000000 </v>
   <v>      -0.25000000       0.37500000       0.00000000 </v>
   <v>      -0.12500000       0.37500000       0.00000000 </v>
   <v>       0.00000000       0.50000000       0.00000000 </v>
   <v>       0.12500000       0.50000000       0.00000000 </v>
   <v>       0.25000000       0.50000000       0.00000000 </v>
   <v>       0.37500000       0.50000000       0.00000000 </v>
   <v>       0.50000000       0.50000000       0.00000000 </v>
  </varray>
  <varray name="weights" >
   <v>       0.01562500 </v>
   <v>       0.03125000 </v>
   <v>       0.03125000 </v>
   <v>       0.03125000 </v>
   <v>       0.01562500 </v>
   <v>       0.03125000 </v>
   <v>       0.03125000 </v>
   <v>       0.03125000 </v>
   <v>       0.03125000 </v>
   <v>       0.03125000 </v>
   <v>       0.03125000 </v>
   <v>       0.03125000 </v>
   <v>       0.03125000 </v>
   <v>       0.03125000 </v>
   <v>       0.03125000 </v>
   <v>       0.03125000 </v>
   <v>       0.03125000 </v>
   <v>       0.03125000 </v>
   <v>       0.03125000 </v>
   <v>       0.03125000 </v>
   <v>       0.03125000 </v>
   <v>       0.03125000 </v>
   <v>       0.03125000 </v>
   <v>       0.03125000 </v>
   <v>       0.03125000 </v>
   <v>       0.03125000 </v>
   <v>       0.03125000 </v>
   <v>       0.03125000 </v>
   <v>       0.03125000 </v>
   <v>       0.01562500 </v>
   <v>       0.03125000 </v>
   <v>       0.03125000 </v>
   <v>       0.03125000 </v>
   <v>       0.01562500 </v>
  </varray>
 </kpoints>
 <parameters>
  <separator name="general" >
   <i type="string" name="SYSTEM">unknown system</i>
   <i type="logical" name="LCOMPAT"> F  </i>
  </separator>
  <separator name="electronic" >
   <i type="string" name="PREC">normal</i>
   <i name="ENMAX">    280.00000000</i>
   <i name="ENAUG">    373.43800000</i>
   <i name="EDIFF">      0.00010000</i>
   <i type="int" name="IALGO">    38</i>
   <i type="int" name="IWAVPR">    11</i>
   <i type="int" name="NBANDS">   120</i>
   <i name="NELECT">    159.00000000</i>
   <i type="int" name="TURBO">     0</i>
   <i type="int" name="IRESTART">     0</i>
   <i type="int" name="NREBOOT">     0</i>
   <i type="int" name="NMIN">     0</i>
   <i name="EREF">      0.00000000</i>
   <separator name="electronic smearing" >
    <i type="int" name="ISMEAR">     0</i>
    <i name="SIGMA">      0.20000000</i>
    <i name="KSPACING">      0.50000000</i>
    <i type="logical" name="KGAMMA"> T  </i>
   </separator>
   <separator name="electronic projectors" >
    <i type="logical" name="LREAL"> F  </i>
    <v name="ROPT">      0.00000000      0.00000000      0.00000000      0.00000000</v>
    <i type="int" name="LMAXPAW">  -100</i>
    <i type="int" name="LMAXMIX">     2</i>
    <i type="logical" name="NLSPLINE"> F  </i>
   </separator>
   <separator name="electronic startup" >
    <i type="int" name="ISTART">     0</i>
    <i type="int" name="ICHARG">     2</i>
    <i type="int" name="INIWAV">     1</i>
   </separator>
   <separator name="electronic spin" >
    <i type="int" name="ISPIN">     1</i>
    <i type="logical" name="LNONCOLLINEAR"> F  </i>
    <v name="MAGMOM">      1.00000000      1.00000000      1.00000000      1.00000000      1.00000000      1.00000000      1.00000000      1.00000000      1.00000000      1.00000000      1.00000000      1.00000000      1.00000000      1.00000000      1.00000000      1.00000000      1.00000000      1.00000000      1.00000000      1.00000000
      1.00000000      1.00000000      1.00000000      1.00000000      1.00000000      1.00000000      1.00000000</v>
    <i name="NUPDOWN">     -1.00000000</i>
    <i type="logical" name="LSORBIT"> F  </i>
    <v name="SAXIS">      0.00000000      0.00000000      1.00000000</v>
    <i type="logical" name="LSPIRAL"> F  </i>
    <v name="QSPIRAL">      0.00000000      0.00000000      0.00000000</v>
    <i type="logical" name="LZEROZ"> F  </i>
   </separator>
   <separator name="electronic exchange-correlation" >
    <i type="logical" name="LASPH"> F  </i>
    <i type="logical" name="LMETAGGA"> F  </i>
   </separator>
   <separator name="electronic convergence" >
    <i type="int" name="NELM">    60</i>
    <i type="int" name="NELMDL">    -5</i>
    <i type="int" name="NELMIN">     2</i>
    <i name="ENINI">    280.00000000</i>
    <separator name="electronic convergence detail" >
     <i type="logical" name="LDIAG"> T  </i>
     <i type="logical" name="LSUBROT"> F  </i>
     <i name="WEIMIN">      0.00100000</i>
     <i name="EBREAK">      0.00000021</i>
     <i name="DEPER">      0.30000000</i>
     <i type="int" name="NRMM">     4</i>
     <i name="TIME">      0.40000000</i>
    </separator>
   </separator>
   <separator name="electronic mixer" >
    <i name="AMIX">      0.40000000</i>
    <i name="BMIX">      1.00000000</i>
    <i name="AMIN">      0.10000000</i>
    <i name="AMIX_MAG">      1.60000000</i>
    <i name="BMIX_MAG">      1.00000000</i>
    <separator name="electronic mixer details" >
     <i type="int" name="IMIX">     4</i>
     <i type="logical" name="MIXFIRST"> F  </i>
     <i type="int" name="MAXMIX">   -45</i>
     <i name="WC">    100.00000000</i>
     <i type="int" name="INIMIX">     1</i>
     <i type="int" name="MIXPRE">     1</i>
     <i type="int" name="MREMOVE">     5</i>
    </separator>
   </separator>
   <separator name="electronic dipolcorrection" >
    <i type="logical" name="LDIPOL"> F  </i>
    <i type="logical" name="LMONO"> F  </i>
    <i type="int" name="IDIPOL">     0</i>
    <i name="EPSILON">      1.00000000</i>
    <v name="DIPOL">   -100.00000000   -100.00000000   -100.00000000</v>
    <i name="EFIELD">      0.00000000</i>
   </separator>
  </separator>
  <separator name="grids" >
   <i type="int" name="NGX">    42</i>
   <i type="int" name="NGY">    42</i>
   <i type="int" name="NGZ">   126</i>
   <i type="int" name="NGXF">    84</i>
   <i type="int" name="NGYF">    84</i>
   <i type="int" name="NGZF">   252</i>
   <i type="logical" name="ADDGRID"> F  </i>
  </separator>
  <separator name="ionic" >
   <i type="int" name="NSW">   100</i>
   <i type="int" name="IBRION">     1</i>
   <i type="int" name="ISIF">     3</i>
   <i name="PSTRESS">      0.00000000</i>
   <i name="EDIFFG">      0.00100000</i>
   <i type="int" name="NFREE">     0</i>
   <i name="POTIM">      0.50000000</i>
   <i name="SMASS">     -3.00000000</i>
   <i name="SCALEE">      1.00000000</i>
  </separator>
  <separator name="ionic md" >
   <i name="TEBEG">      0.00010000</i>
   <i name="TEEND">      0.00010000</i>
   <i type="int" name="NBLOCK">     1</i>
   <i type="int" name="KBLOCK">   100</i>
   <i type="int" name="NPACO">   256</i>
   <i name="APACO">     16.00000000</i>
  </separator>
  <separator name="symmetry" >
   <i type="int" name="ISYM">     0</i>
   <i name="SYMPREC">      0.00000001</i>
  </separator>
  <separator name="dos" >
   <i type="logical" name="LORBIT"> F  </i>
   <v name="RWIGS">     -1.00000000     -1.00000000     -1.00000000     -1.00000000</v>
   <i type="int" name="NEDOS">   301</i>
   <i name="EMIN">     10.00000000</i>
   <i name="EMAX">    -10.00000000</i>
   <i name="EFERMI">      0.00000000</i>
  </separator>
  <separator name="writing" >
   <i type="int" name="NWRITE">     2</i>
   <i type="logical" name="LWAVE"> F  </i>
   <i type="logical" name="LCHARG"> F  </i>
   <i type="logical" name="LPARD"> F  </i>
   <i type="logical" name="LVTOT"> F  </i>
   <i type="logical" name="LVHAR"> F  </i>
   <i type="logical" name="LELF"> F  </i>
   <i type="logical" name="LOPTICS"> F  </i>
   <v name="STM">      0.00000000      0.00000000      0.00000000      0.00000000      0.00000000      0.00000000      0.00000000</v>
  </separator>
  <separator name="performance" >
   <i type="int" name="NPAR">    40</i>
   <i type="int" name="NSIM">     4</i>
   <i type="int" name="NBLK">    -1</i>
   <i type="logical" name="LPLANE"> F  </i>
   <i type="logical" name="LSCALAPACK"> T  </i>
   <i type="logical" name="LSCAAWARE"> F  </i>
   <i type="logical" name="LSCALU"> F  </i>
   <i type="logical" name="LASYNC"> F  </i>
   <i type="logical" name="LORBITALREAL"> F  </i>
  </separator>
  <separator name="miscellaneous" >
   <i type="int" name="IDIOT">     3</i>
   <i type="logical" name="LMUSIC"> F  </i>
   <v name="POMASS">     50.94100000     95.94000000    183.85000000     32.06600000</v>
   <v name="DARWINR">      0.00000000      0.00000000      0.00000000      0.00000000</v>
   <v name="DARWINV">      1.00000000      1.00000000      1.00000000      1.00000000</v>
   <i type="logical" name="LCORR"> T  </i>
  </separator>
  <i type="logical" name="GGA_COMPAT"> T  </i>
  <i type="logical" name="LBERRY"> F  </i>
  <i type="int" name="ICORELEVEL">     0</i>
  <i type="logical" name="LDAU"> F  </i>
  <i type="int" name="I_CONSTRAINED_M">     0</i>
  <separator name="electronic exchange-correlation" >
   <i type="string" name="GGA">--</i>
   <i type="int" name="VOSKOWN">     0</i>
   <i type="logical" name="LHFCALC"> F  </i>
   <i type="string" name="PRECFOCK"></i>
   <i type="logical" name="LSYMGRAD"> F  </i>
   <i type="logical" name="LHFONE"> F  </i>
   <i type="logical" name="LRHFCALC"> F  </i>
   <i type="logical" name="LTHOMAS"> F  </i>
   <i type="logical" name="LMODELHF"> F  </i>
   <i name="ENCUT4O">     -1.00000000</i>
   <i type="int" name="EXXOEP">     0</i>
   <i type="int" name="FOURORBIT">     0</i>
   <i name="AEXX">      0.00000000</i>
   <i name="HFALPHA">      0.00000000</i>
   <i name="MCALPHA">      0.00000000</i>
   <i name="ALDAX">      1.00000000</i>
   <i name="AGGAX">      1.00000000</i>
   <i name="ALDAC">      1.00000000</i>
   <i name="AGGAC">      1.00000000</i>
   <i type="int" name="NKREDX">     1</i>
   <i type="int" name="NKREDY">     1</i>
   <i type="int" name="NKREDZ">     1</i>
   <i type="logical" name="SHIFTRED"> F  </i>
   <i type="logical" name="ODDONLY"> F  </i>
   <i type="logical" name="EVENONLY"> F  </i>
   <i type="int" name="LMAXFOCK">     0</i>
   <i type="int" name="NMAXFOCKAE">     0</i>
   <i type="logical" name="LFOCKAEDFT"> F  </i>
   <i name="HFSCREEN">      0.00000000</i>
   <i name="HFSCREENC">      0.00000000</i>
   <i type="int" name="NBANDSGWLOW">     0</i>
  </separator>
  <separator name="vdW DFT" >
   <i type="logical" name="LUSE_VDW"> F  </i>
   <i name="Zab_VDW">     -0.84910000</i>
   <i name="PARAM1">      0.12340000</i>
   <i name="PARAM2">      1.00000000</i>
   <i name="PARAM3">      0.00000000</i>
  </separator>
  <separator name="model GW" >
   <i type="int" name="MODEL_GW">     0</i>
   <i name="MODEL_EPS0">     58.26239943</i>
   <i name="MODEL_ALPHA">      1.00000000</i>
  </separator>
  <separator name="linear response parameters" >
   <i type="logical" name="LEPSILON"> F  </i>
   <i type="logical" name="LRPA"> F  </i>
   <i type="logical" name="LNABLA"> F  </i>
   <i type="logical" name="LVEL"> F  </i>
   <i type="int" name="KINTER">     0</i>
   <i name="CSHIFT">      0.10000000</i>
   <i name="OMEGAMAX">     -1.00000000</i>
   <i name="DEG_THRESHOLD">      0.00200000</i>
  </separator>
  <separator name="orbital magnetization" >
   <i type="logical" name="NUCIND"> F  </i>
   <v name="MAGPOS">      0.00000000      0.00000000      0.00000000</v>
   <i type="logical" name="LNICSALL"> T  </i>
   <i type="logical" name="ORBITALMAG"> F  </i>
   <i type="logical" name="LMAGBLOCH"> F  </i>
   <i type="logical" name="LCHIMAG"> F  </i>
   <i type="logical" name="LGAUGE"> T  </i>
   <i type="int" name="MAGATOM">     0</i>
   <v name="MAGDIPOL">      0.00000000      0.00000000      0.00000000</v>
   <v name="AVECCONST">      0.00000000      0.00000000      0.00000000</v>
  </separator>
  <separator name="response functions" >
   <i type="logical" name="LADDER"> F  </i>
   <i type="logical" name="LFXC"> F  </i>
   <i type="logical" name="LHARTREE"> T  </i>
   <i type="int" name="IBSE">     0</i>
   <v type="int" name="KPOINT">    -1     0     0     0</v>
   <i type="logical" name="LTCTE"> F  </i>
   <i type="logical" name="LTETE"> F  </i>
   <i type="logical" name="LTRIPLET"> F  </i>
   <i type="logical" name="LFXCEPS"> F  </i>
   <i type="logical" name="LFXHEG"> F  </i>
   <i type="int" name="NATURALO">     0</i>
   <i type="logical" name="L2ORDER"> F  </i>
   <i type="logical" name="LUSEW"> F  </i>
   <i name="ENCUTGW">     -2.00000000</i>
   <i name="ENCUTGWSOFT">     -2.00000000</i>
   <i name="ENCUTLF">     -1.00000000</i>
   <i type="int" name="LMAXMP2">    -1</i>
   <i name="SCISSOR">      0.00000000</i>
   <i type="int" name="NOMEGA">     0</i>
   <i type="int" name="NOMEGAR">     0</i>
   <i type="int" name="NBANDSGW">    -1</i>
   <i type="int" name="NBANDSO">    -1</i>
   <i type="int" name="NBANDSV">    -1</i>
   <i type="int" name="NELM">     1</i>
   <i type="int" name="NELMHF">     1</i>
   <i type="int" name="DIM">     3</i>
   <i type="int" name="ANTIRES">     0</i>
   <i name="OMEGAMAX">    -30.00000000</i>
   <i name="OMEGAMIN">    -30.00000000</i>
   <i name="OMEGATL">   -200.00000000</i>
   <i type="int" name="OMEGAGRID">     0</i>
   <i name="CSHIFT">     -0.10000000</i>
   <i type="logical" name="SELFENERGY"> F  </i>
   <i type="logical" name="LSPECTRAL"> F  </i>
   <i type="logical" name="LSPECTRALGW"> F  </i>
   <i type="logical" name="LSINGLES"> F  </i>
   <i type="logical" name="LFERMIGW"> F  </i>
   <i type="logical" name="ODDONLYGW"> F  </i>
   <i type="logical" name="EVENONLYGW"> F  </i>
   <i type="int" name="NKREDLFX">     1</i>
   <i type="int" name="NKREDLFY">     1</i>
   <i type="int" name="NKREDLFZ">     1</i>
   <i type="int" name="MAXMEM">  1800</i>
   <i type="int" name="TELESCOPE">     0</i>
   <i type="int" name="TAUPAR">     1</i>
   <i type="int" name="OMEGAPAR">    -1</i>
   <i name="LAMBDA">      1.00000000</i>
  </separator>
  <separator name="External order field" >
   <i name="OFIELD_KAPPA">      0.00000000</i>
   <v name="OFIELD_K">      0.00000000      0.00000000      0.00000000</v>
   <i name="OFIELD_Q6_NEAR">      0.00000000</i>
   <i name="OFIELD_Q6_FAR">      0.00000000</i>
   <i name="OFIELD_A">      0.00000000</i>
  </separator>
 </parameters>
 <atominfo>
  <atoms>      27 </atoms>
  <types>       4 </types>
  <array name="atoms" >
   <dimension dim="1">ion</dimension>
   <field type="string">element</field>
   <field type="int">atomtype</field>
   <set>
    <rc><c>V </c><c>   1</c></rc>
    <rc><c>V </c><c>   1</c></rc>
    <rc><c>V </c><c>   1</c></rc>
    <rc><c>Mo</c><c>   2</c></rc>
    <rc><c>Mo</c><c>   2</c></rc>
    <rc><c>Mo</c><c>   2</c></rc>
    <rc><c>W </c><c>   3</c></rc>
    <rc><c>W </c><c>   3</c></rc>
    <rc><c>W </c><c>   3</c></rc>
    <rc><c>S </c><c>   4</c></rc>
    <rc><c>S </c><c>   4</c></rc>
    <rc><c>S </c><c>   4</c></rc>
    <rc><c>S </c><c>   4</c></rc>
    <rc><c>S </c><c>   4</c></rc>
    <rc><c>S </c><c>   4</c></rc>
    <rc><c>S </c><c>   4</c></rc>
    <rc><c>S </c><c>   4</c></rc>
    <rc><c>S </c><c>   4</c></rc>
    <rc><c>S </c><c>   4</c></rc>
    <rc><c>S </c><c>   4</c></rc>
    <rc><c>S </c><c>   4</c></rc>
    <rc><c>S </c><c>   4</c></rc>
    <rc><c>S </c><c>   4</c></rc>
    <rc><c>S </c><c>   4</c></rc>
    <rc><c>S </c><c>   4</c></rc>
    <rc><c>S </c><c>   4</c></rc>
    <rc><c>S </c><c>   4</c></rc>
   </set>
  </array>
  <array name="atomtypes" >
   <dimension dim="1">type</dimension>
   <field type="int">atomspertype</field>
   <field type="string">element</field>
   <field>mass</field>
   <field>valence</field>
   <field type="string">pseudopotential</field>
   <set>
    <rc><c>   3</c><c>V </c><c>     50.94100000</c><c>      5.00000000</c><c> PAW_PBE V 08Apr2002                    </c></rc>
    <rc><c>   3</c><c>Mo</c><c>     95.94000000</c><c>      6.00000000</c><c> PAW_PBE Mo 08Apr2002                   </c></rc>
    <rc><c>   3</c><c>W </c><c>    183.85000000</c><c>      6.00000000</c><c> PAW_PBE W 08Apr2002                    </c></rc>
    <rc><c>  18</c><c>S </c><c>     32.06600000</c><c>      6.00000000</c><c>  PAW_PBE S 17Jan2003                   </c></rc>
   </set>
  </array>
 </atominfo>
 <structure name="initialpos" >
  <crystal>
   <varray name="basis" >
    <v>       8.66999996       5.03999989       0.00000000 </v>
    <v>      -8.66999982       5.04000013       0.00000000 </v>
    <v>       0.00000000       0.00000000      30.00000000 </v>
   </varray>
   <i name="volume">   2621.80797419 </i>
   <varray name="rec_basis" >
    <v>       0.05767013       0.09920635       0.00000000 </v>
    <v>      -0.05767013       0.09920635       0.00000000 </v>
    <v>       0.00000000       0.00000000       0.03333333 </v>
   </varray>
  </crystal>
  <varray name="positions" >
   <v>       0.33333334       0.33333334       0.00000000 </v>
   <v>       0.33333334       0.00000000       0.00000000 </v>
   <v>       1.00000000       0.33333334       0.00000000 </v>
   <v>       0.66666669       0.00000000       0.00000000 </v>
   <v>       0.66666669       0.33333334       0.00000000 </v>
   <v>       0.00000000       0.00000000       0.00000000 </v>
   <v>       0.00000000       0.66666669       0.00000000 </v>
   <v>       0.33333334       0.66666669       0.00000000 </v>
   <v>       0.66666669       0.66666669       0.00000000 </v>
   <v>       0.11068511       0.22244981       0.95539999 </v>
   <v>       0.22244981       0.11068511       0.04460000 </v>
   <v>       0.11068511       0.55578315       0.95539999 </v>
   <v>       0.22244981       0.44401845       0.04460000 </v>
   <v>       0.11068511       0.88911647       0.95539999 </v>
   <v>       0.22244981       0.77735180       0.04460000 </v>
   <v>       0.44401845       0.22244981       0.95539999 </v>
   <v>       0.55578315       0.11068511       0.04460000 </v>
   <v>       0.44401845       0.55578315       0.95539999 </v>
   <v>       0.55578315       0.44401845       0.04460000 </v>
   <v>       0.44401845       0.88911647       0.95539999 </v>
   <v>       0.55578315       0.77735180       0.04460000 </v>
   <v>       0.77735180       0.22244981       0.95539999 </v>
   <v>       0.88911647       0.11068511       0.04460000 </v>
   <v>       0.77735180       0.55578315       0.95539999 </v>
   <v>       0.88911647       0.44401845       0.04460000 </v>
   <v>       0.77735180       0.88911647       0.95539999 </v>
   <v>       0.88911647       0.77735180       0.04460000 </v>
  </varray>
 </structure>
 <calculation>
  <scstep>
   <time name="dav">   21.70   21.76</time>
   <time name="total">   21.75   21.81</time>
   <energy>
    <i name="alphaZ">     81.65567618 </i>
    <i name="ewald">  41890.25211673 </i>
    <i name="hartreedc"> -47722.89517081 </i>
    <i name="XCdc">   -242.92702708 </i>
    <i name="pawpsdc">   3467.42045192 </i>
    <i name="pawaedc">  -2871.19716117 </i>
    <i name="eentropy">     -0.52280905 </i>
    <i name="bandstr">   -239.10688700 </i>
    <i name="atom">   6761.44252427 </i>
    <i name="e_fr_energy">   1124.12171398 </i>
    <i name="e_wo_entrp">   1124.64452303 </i>
    <i name="e_0_energy">   1124.38311851 </i>
   </energy>
  </scstep>
  <scstep>
   <time name="dav">   28.25   28.32</time>
   <time name="total">   28.25   28.33</time>
   <energy>
    <i name="e_fr_energy">     -3.89560672 </i>
    <i name="e_wo_entrp">     -3.68881084 </i>
    <i name="e_0_energy">     -3.79220878 </i>
   </energy>
  </scstep>
  <scstep>
   <time name="dav">   27.35   27.41</time>
   <time name="total">   27.35   27.42</time>
   <energy>
    <i name="e_fr_energy">   -199.88280617 </i>
    <i name="e_wo_entrp">   -199.60616232 </i>
    <i name="e_0_energy">   -199.74448424 </i>
   </energy>
  </scstep>
  <scstep>
   <time name="dav">   29.73   29.80</time>
   <time name="total">   29.73   29.81</time>
   <energy>
    <i name="e_fr_energy">   -208.98786502 </i>
    <i name="e_wo_entrp">   -208.68256151 </i>
    <i name="e_0_energy">   -208.83521327 </i>
   </energy>
  </scstep>
  <scstep>
   <time name="dav">   28.31   28.38</time>
   <time name="total">   28.77   28.85</time>
   <energy>
    <i name="e_fr_energy">   -209.32220074 </i>
    <i name="e_wo_entrp">   -209.01983005 </i>
    <i name="e_0_energy">   -209.17101539 </i>
   </energy>
  </scstep>
  <scstep>
   <time name="dav">   30.68   30.76</time>
   <time name="total">   31.18   31.27</time>
   <energy>
    <i name="e_fr_energy">   -237.07353440 </i>
    <i name="e_wo_entrp">   -236.79487150 </i>
    <i name="e_0_energy">   -236.93420295 </i>
   </energy>
  </scstep>
  <scstep>
   <time name="dav">   32.51   32.59</time>
   <time name="total">   33.02   33.10</time>
   <energy>
    <i name="e_fr_energy">   -196.44608571 </i>
    <i name="e_wo_entrp">   -196.12936357 </i>
    <i name="e_0_energy">   -196.28772464 </i>
   </energy>
  </scstep>
  <scstep>
   <time name="dav">   29.67   29.74</time>
   <time name="total">   30.18   30.26</time>
   <energy>
    <i name="e_fr_energy">   -189.40308990 </i>
    <i name="e_wo_entrp">   -189.11143197 </i>
    <i name="e_0_energy">   -189.25726094 </i>
   </energy>
  </scstep>
  <scstep>
   <time name="dav">   31.62   31.69</time>
   <time name="total">   32.13   32.22</time>
   <energy>
    <i name="e_fr_energy">   -188.16943763 </i>
    <i name="e_wo_entrp">   -187.83021343 </i>
    <i name="e_0_energy">   -187.99982553 </i>
   </energy>
  </scstep>
  <scstep>
   <time name="dav">   32.76   32.84</time>
   <time name="total">   33.29   33.38</time>
   <energy>
    <i name="e_fr_energy">   -186.99920756 </i>
    <i name="e_wo_entrp">   -186.65164249 </i>
    <i name="e_0_energy">   -186.82542502 </i>
   </energy>
  </scstep>
  <scstep>
   <time name="dav">   32.20   32.28</time>
   <time name="total">   32.73   32.82</time>
   <energy>
    <i name="e_fr_energy">   -186.96737881 </i>
    <i name="e_wo_entrp">   -186.61759325 </i>
    <i name="e_0_energy">   -186.79248603 </i>
   </energy>
  </scstep>
  <scstep>
   <time name="dav">   30.09   30.16</time>
   <time name="total">   30.62   30.70</time>
   <energy>
    <i name="e_fr_energy">   -187.09071675 </i>
    <i name="e_wo_entrp">   -186.75085762 </i>
    <i name="e_0_energy">   -186.92078719 </i>
   </energy>
  </scstep>
  <scstep>
   <time name="dav">   31.35   31.42</time>
   <time name="total">   31.88   31.96</time>
   <energy>
    <i name="e_fr_energy">   -186.88136451 </i>
    <i name="e_wo_entrp">   -186.54453349 </i>
    <i name="e_0_energy">   -186.71294900 </i>
   </energy>
  </scstep>
  <scstep>
   <time name="dav">   32.27   32.35</time>
   <time name="total">   32.81   32.90</time>
   <energy>
    <i name="e_fr_energy">   -186.85692202 </i>
    <i name="e_wo_entrp">   -186.51227273 </i>
    <i name="e_0_energy">   -186.68459738 </i>
   </energy>
  </scstep>
  <scstep>
   <time name="dav">   29.27   29.34</time>
   <time name="total">   29.80   29.88</time>
   <energy>
    <i name="e_fr_energy">   -186.83721041 </i>
    <i name="e_wo_entrp">   -186.49042564 </i>
    <i name="e_0_energy">   -186.66381803 </i>
   </energy>
  </scstep>
  <scstep>
   <time name="dav">   29.25   29.32</time>
   <time name="total">   29.78   29.86</time>
   <energy>
    <i name="e_fr_energy">   -186.82957147 </i>
    <i name="e_wo_entrp">   -186.48279785 </i>
    <i name="e_0_energy">   -186.65618466 </i>
   </energy>
  </scstep>
  <scstep>
   <time name="dav">   31.08   31.16</time>
   <time name="total">   31.61   31.70</time>
   <energy>
    <i name="e_fr_energy">   -186.82768593 </i>
    <i name="e_wo_entrp">   -186.48287533 </i>
    <i name="e_0_energy">   -186.65528063 </i>
   </energy>
  </scstep>
  <scstep>
   <time name="dav">   28.55   28.62</time>
   <time name="total">   29.09   29.17</time>
   <energy>
    <i name="e_fr_energy">   -186.82723005 </i>
    <i name="e_wo_entrp">   -186.48217819 </i>
    <i name="e_0_energy">   -186.65470412 </i>
   </energy>
  </scstep>
  <scstep>
   <time name="dav">   27.44   27.51</time>
   <time name="total">   27.98   28.05</time>
   <energy>
    <i name="e_fr_energy">   -186.82687457 </i>
    <i name="e_wo_entrp">   -186.48153514 </i>
    <i name="e_0_energy">   -186.65420485 </i>
   </energy>
  </scstep>
  <scstep>
   <time name="dav">   23.69   23.75</time>
   <time name="total">   24.23   24.51</time>
   <energy>
    <i name="e_fr_energy">   -186.82761326 </i>
    <i name="e_wo_entrp">   -186.48244984 </i>
    <i name="e_0_energy">   -186.65503155 </i>
   </energy>
  </scstep>
  <scstep>
   <time name="dav">   21.13   21.19</time>
   <time name="total">   21.67   21.73</time>
   <energy>
    <i name="e_fr_energy">   -186.82820372 </i>
    <i name="e_wo_entrp">   -186.48320879 </i>
    <i name="e_0_energy">   -186.65570625 </i>
   </energy>
  </scstep>
  <scstep>
   <time name="dav">   20.53   20.58</time>
   <time name="total">   21.06   21.12</time>
   <energy>
    <i name="e_fr_energy">   -186.82936945 </i>
    <i name="e_wo_entrp">   -186.48421353 </i>
    <i name="e_0_energy">   -186.65679149 </i>
   </energy>
  </scstep>
  <scstep>
   <time name="dav">   20.14   20.19</time>
   <time name="total">   20.68   20.73</time>
   <energy>
    <i name="e_fr_energy">   -186.83059572 </i>
    <i name="e_wo_entrp">   -186.48554794 </i>
    <i name="e_0_energy">   -186.65807183 </i>
   </energy>
  </scstep>
  <scstep>
   <time name="dav">   18.61   18.66</time>
   <time name="total">   19.15   19.20</time>
   <energy>
    <i name="e_fr_energy">   -186.83118337 </i>
    <i name="e_wo_entrp">   -186.48611790 </i>
    <i name="e_0_energy">   -186.65865063 </i>
   </energy>
  </scstep>
  <scstep>
   <time name="dav">   16.74   16.78</time>
   <time name="total">   17.27   17.32</time>
   <energy>
    <i name="e_fr_energy">   -186.83154899 </i>
    <i name="e_wo_entrp">   -186.48644418 </i>
    <i name="e_0_energy">   -186.65899659 </i>
   </energy>
  </scstep>
  <scstep>
   <time name="dav">   18.76   18.81</time>
   <time name="total">   19.29   19.35</time>
   <energy>
    <i name="e_fr_energy">   -186.83178392 </i>
    <i name="e_wo_entrp">   -186.48669532 </i>
    <i name="e_0_energy">   -186.65923962 </i>
   </energy>
  </scstep>
  <scstep>
   <time name="dav">   19.73   19.78</time>
   <time name="total">   20.27   20.33</time>
   <energy>
    <i name="e_fr_energy">   -186.83188695 </i>
    <i name="e_wo_entrp">   -186.48679632 </i>
    <i name="e_0_energy">   -186.65934163 </i>
   </energy>
  </scstep>
  <scstep>
   <time name="dav">   19.88   19.93</time>
   <time name="total">   19.92   19.98</time>
   <energy>
    <i name="alphaZ">     81.65567618 </i>
    <i name="ewald">  41890.25211673 </i>
    <i name="hartreedc"> -47832.89586813 </i>
    <i name="XCdc">   -231.61130974 </i>
    <i name="pawpsdc">   4192.00792423 </i>
    <i name="pawaedc">  -3610.01038052 </i>
    <i name="eentropy">     -0.34508798 </i>
    <i name="bandstr">  -1437.32752258 </i>
    <i name="atom">   6761.44252427 </i>
    <i name="e_fr_energy">   -186.83192755 </i>
    <i name="e_wo_entrp">   -186.48683957 </i>
    <i name="e_0_energy">   -186.65938356 </i>
   </energy>
  </scstep>
  <structure>
   <crystal>
    <varray name="basis" >
     <v>       8.66999996       5.03999989       0.00000000 </v>
     <v>      -8.66999982       5.04000013       0.00000000 </v>
     <v>       0.00000000       0.00000000      30.00000000 </v>
    </varray>
    <i name="volume">   2621.80797419 </i>
    <varray name="rec_basis" >
     <v>       0.05767013       0.09920635       0.00000000 </v>
     <v>      -0.05767013       0.09920635       0.00000000 </v>
     <v>       0.00000000       0.00000000       0.03333333 </v>
    </varray>
   </crystal>
   <varray name="positions" >
    <v>       0.33333334       0.33333334       0.00000000 </v>
    <v>       0.33333334       0.00000000       0.00000000 </v>
    <v>       1.00000000       0.33333334       0.00000000 </v>
    <v>       0.66666669       0.00000000       0.00000000 </v>
    <v>       0.66666669       0.33333334       0.00000000 </v>
    <v>       0.00000000       0.00000000       0.00000000 </v>
    <v>       0.00000000       0.66666669       0.00000000 </v>
    <v>       0.33333334       0.66666669       0.00000000 </v>
    <v>       0.66666669       0.66666669       0.00000000 </v>
    <v>       0.11068511       0.22244981       0.95539999 </v>
    <v>       0.22244981       0.11068511       0.04460000 </v>
    <v>       0.11068511       0.55578315       0.95539999 </v>
    <v>       0.22244981       0.44401845       0.04460000 </v>
    <v>       0.11068511       0.88911647       0.95539999 </v>
    <v>       0.22244981       0.77735180       0.04460000 </v>
    <v>       0.44401845       0.22244981       0.95539999 </v>
    <v>       0.55578315       0.11068511       0.04460000 </v>
    <v>       0.44401845       0.55578315       0.95539999 </v>
    <v>       0.55578315       0.44401845       0.04460000 </v>
    <v>       0.44401845       0.88911647       0.95539999 </v>
    <v>       0.55578315       0.77735180       0.04460000 </v>
    <v>       0.77735180       0.22244981       0.95539999 </v>
    <v>       0.88911647       0.11068511       0.04460000 </v>
    <v>       0.77735180       0.55578315       0.95539999 </v>
    <v>       0.88911647       0.44401845       0.04460000 </v>
    <v>       0.77735180       0.88911647       0.95539999 </v>
    <v>       0.88911647       0.77735180       0.04460000 </v>
   </varray>
  </structure>
  <varray name="forces" >
   <v>       0.19799815      -0.20416291       0.01160825 </v>
   <v>      -0.06695253       0.28427037      -0.09893647 </v>
   <v>       0.07612899      -0.44186011       0.08838390 </v>
   <v>      -0.01783725       0.28634561      -0.09320904 </v>
   <v>       0.25276754      -0.15798000       0.00430207 </v>
   <v>      -0.24692598      -0.08870851      -0.01506143 </v>
   <v>      -0.25154736      -0.13432251       0.09483775 </v>
   <v>       0.01670421       0.23049850       0.02647047 </v>
   <v>       0.00972946       0.27600145       0.02466250 </v>
   <v>      -0.31550565       0.66351592      -1.41862036 </v>
   <v>       0.31623854       0.66814153       1.41637934 </v>
   <v>       0.47913623      -0.56965583      -2.12098611 </v>
   <v>       0.22279061      -0.53315138       1.41005843 </v>
   <v>       0.62486271       0.57673704      -2.14041300 </v>
   <v>      -0.46379040       0.55311676       2.15201678 </v>
   <v>      -0.30952738      -0.69685432      -1.44806519 </v>
   <v>      -0.53405314      -0.69277191       2.14413594 </v>
   <v>       0.46990607      -0.56029925      -2.16519390 </v>
   <v>      -0.61611817      -0.53822598       2.10965863 </v>
   <v>      -0.68196927      -0.14756651      -2.14093049 </v>
   <v>      -0.03891866      -0.14140244       2.88575887 </v>
   <v>       0.52230155       0.67555374      -2.17929096 </v>
   <v>      -0.52597513       0.73162297       2.18668457 </v>
   <v>       0.04043442       0.11094757      -2.90994226 </v>
   <v>       0.69029001       0.16654962       2.13415186 </v>
   <v>       0.18498748      -0.16757664      -2.91086639 </v>
   <v>      -0.03515505      -0.14876276       2.95240621 </v>
  </varray>
  <varray name="stress" >
   <v>       7.30468793       0.13857974      -1.63163896 </v>
   <v>       0.13857959       4.42462656       0.14743508 </v>
   <v>      -1.63163883       0.14743510      30.32924846 </v>
  </varray>
  <energy>
   <i name="e_fr_energy">   -186.83192755 </i>
   <i name="e_wo_entrp">   -186.65938356 </i>
   <i name="e_0_energy">     -0.34508798 </i>
  </energy>
  <time name="totalsc">  797.32  799.68</time>
 </calculation>
 <calculation>
  <scstep>
   <time name="dav">   21.65   21.70</time>
   <time name="total">   22.19   22.25</time>
   <energy>
    <i name="alphaZ">     78.92707945 </i>
    <i name="ewald">  39382.16372180 </i>
    <i name="hartreedc"> -45339.65143256 </i>
    <i name="XCdc">   -239.06724360 </i>
    <i name="pawpsdc">   4192.00806858 </i>
    <i name="pawaedc">  -3610.01051929 </i>
    <i name="eentropy">     -0.28732109 </i>
    <i name="bandstr">  -1412.98421991 </i>
    <i name="atom">   6761.44252427 </i>
    <i name="e_fr_energy">   -187.45934233 </i>
    <i name="e_wo_entrp">   -187.17202124 </i>
    <i name="e_0_energy">   -187.31568179 </i>
   </energy>
  </scstep>
  <scstep>
   <time name="dav">   30.16   30.23</time>
   <time name="total">   30.70   30.78</time>
   <energy>
    <i name="e_fr_energy">   -189.25931951 </i>
    <i name="e_wo_entrp">   -188.94391812 </i>
    <i name="e_0_energy">   -189.10161881 </i>
   </energy>
  </scstep>
  <scstep>
   <time name="dav">   30.31   30.38</time>
   <time name="total">   30.85   30.94</time>
   <energy>
    <i name="e_fr_energy">   -189.36715672 </i>
    <i name="e_wo_entrp">   -189.08610637 </i>
    <i name="e_0_energy">   -189.22663155 </i>
   </energy>
  </scstep>
  <scstep>
   <time name="dav">   30.62   30.70</time>
   <time name="total">   31.16   31.25</time>
   <energy>
    <i name="e_fr_energy">   -188.72454255 </i>
    <i name="e_wo_entrp">   -188.43834358 </i>
    <i name="e_0_energy">   -188.58144307 </i>
   </energy>
  </scstep>
  <scstep>
   <time name="dav">   25.72   25.78</time>
   <time name="total">   26.26   26.34</time>
   <energy>
    <i name="e_fr_energy">   -188.72045049 </i>
    <i name="e_wo_entrp">   -188.43258903 </i>
    <i name="e_0_energy">   -188.57651976 </i>
   </energy>
  </scstep>
  <scstep>
   <time name="dav">   27.21   27.27</time>
   <time name="total">   27.75   27.83</time>
   <energy>
    <i name="e_fr_energy">   -188.66026543 </i>
    <i name="e_wo_entrp">   -188.37372027 </i>
    <i name="e_0_energy">   -188.51699285 </i>
   </energy>
  </scstep>
  <scstep>
   <time name="dav">   29.38   29.46</time>
   <time name="total">   29.93   30.01</time>
   <energy>
    <i name="e_fr_energy">   -188.64471164 </i>
    <i name="e_wo_entrp">   -188.35959344 </i>
    <i name="e_0_energy">   -188.50215254 </i>
   </energy>
  </scstep>
  <scstep>
   <time name="dav">   29.52   29.59</time>
   <time name="total">   30.06   30.14</time>
   <energy>
    <i name="e_fr_energy">   -188.63878791 </i>
    <i name="e_wo_entrp">   -188.35316342 </i>
    <i name="e_0_energy">   -188.49597566 </i>
   </energy>
  </scstep>
  <scstep>
   <time name="dav">   31.63   31.71</time>
   <time name="total">   32.17   32.26</time>
   <energy>
    <i name="e_fr_energy">   -188.63373146 </i>
    <i name="e_wo_entrp">   -188.34859035 </i>
    <i name="e_0_energy">   -188.49116090 </i>
   </energy>
  </scstep>
  <scstep>
   <time name="dav">   31.43   31.51</time>
   <time name="total">   31.98   32.06</time>
   <energy>
    <i name="e_fr_energy">   -188.63357061 </i>
    <i name="e_wo_entrp">   -188.34860967 </i>
    <i name="e_0_energy">   -188.49109014 </i>
   </energy>
  </scstep>
  <scstep>
   <time name="dav">   32.61   32.69</time>
   <time name="total">   33.15   33.24</time>
   <energy>
    <i name="e_fr_energy">   -188.63352257 </i>
    <i name="e_wo_entrp">   -188.34927069 </i>
    <i name="e_0_energy">   -188.49139663 </i>
   </energy>
  </scstep>
  <scstep>
   <time name="dav">   25.05   25.11</time>
   <time name="total">   25.59   25.66</time>
   <energy>
    <i name="e_fr_energy">   -188.63330541 </i>
    <i name="e_wo_entrp">   -188.34885990 </i>
    <i name="e_0_energy">   -188.49108266 </i>
   </energy>
  </scstep>
  <scstep>
   <time name="dav">   19.64   19.68</time>
   <time name="total">   19.67   19.73</time>
   <energy>
    <i name="alphaZ">     78.92707945 </i>
    <i name="ewald">  39382.16372180 </i>
    <i name="hartreedc"> -45350.41759709 </i>
    <i name="XCdc">   -237.98169932 </i>
    <i name="pawpsdc">   3950.20886416 </i>
    <i name="pawaedc">  -3364.71050411 </i>
    <i name="eentropy">     -0.28455439 </i>
    <i name="bandstr">  -1407.98109756 </i>
    <i name="atom">   6761.44252427 </i>
    <i name="e_fr_energy">   -188.63326278 </i>
    <i name="e_wo_entrp">   -188.34870839 </i>
    <i name="e_0_energy">   -188.49098558 </i>
   </energy>
  </scstep>
  <structure>
   <crystal>
    <varray name="basis" >
     <v>       8.85721547       5.10871548       0.00000000 </v>
     <v>      -8.85313103       5.10168975       0.00000000 </v>
     <v>       0.00000000       0.00000000      30.00000000 </v>
    </varray>
    <i name="volume">   2712.44678527 </i>
    <varray name="rec_basis" >
     <v>       0.05642533       0.09791673       0.00000000 </v>
     <v>      -0.05650303       0.09796191       0.00000000 </v>
     <v>       0.00000000       0.00000000       0.03333333 </v>
    </varray>
   </crystal>
   <varray name="positions" >
    <v>       0.33290709       0.33180536       0.00001867 </v>
    <v>       0.33450758       0.00154678      -0.00015910 </v>
    <v>       0.99809707       0.33100681       0.00014213 </v>
    <v>       0.66798750       0.00142007      -0.00014989 </v>
    <v>       0.66661384       0.33187401       0.00000692 </v>
    <v>      -0.00111154       0.00026243      -0.00002422 </v>
    <v>      -0.00134271       0.66672367       0.00015251 </v>
    <v>       0.33448298       0.66772337       0.00004257 </v>
    <v>       0.66801469       0.66796055       0.00003966 </v>
    <v>       0.11298290       0.22650317       0.95311872 </v>
    <v>       0.22652735       0.11300299       0.04687766 </v>
    <v>       0.10929178       0.55172376       0.95198926 </v>
    <v>       0.22051800       0.44084696       0.04686750 </v>
    <v>       0.11518383       0.89013825       0.95195802 </v>
    <v>       0.22380667       0.78128934       0.04806063 </v>
    <v>       0.43982217       0.21997583       0.95307137 </v>
    <v>       0.55098174       0.10885534       0.04804796 </v>
    <v>       0.44264423       0.55179422       0.95191817 </v>
    <v>       0.55149308       0.44315666       0.04799252 </v>
    <v>       0.44141486       0.89030756       0.95195718 </v>
    <v>       0.55499813       0.77678333       0.04924055 </v>
    <v>       0.78203811       0.22422987       0.95189550 </v>
    <v>       0.89115465       0.11564999       0.04811638 </v>
    <v>       0.77799528       0.55620165       0.95072055 </v>
    <v>       0.89183407       0.44289506       0.04803190 </v>
    <v>       0.77706444       0.88779978       0.95071906 </v>
    <v>       0.88830668       0.77673763       0.04934773 </v>
   </varray>
  </structure>
  <varray name="forces" >
   <v>       0.13882818      -0.12067619       0.07303565 </v>
   <v>       0.01718962       0.24245508      -0.02142842 </v>
   <v>       0.02204983      -0.40638379       0.01447333 </v>
   <v>       0.09078891       0.14853787      -0.02483368 </v>
   <v>       0.23260023      -0.00016098       0.06981644 </v>
   <v>      -0.16977608      -0.43171838      -0.06623724 </v>
   <v>      -0.37395453      -0.21338090      -0.06489807 </v>
   <v>       0.04674758       0.30701719      -0.01341651 </v>
   <v>       0.03538897       0.41532099       0.00420156 </v>
   <v>      -0.00830876       0.04404874       0.06978522 </v>
   <v>      -0.00537568       0.04270637      -0.08858380 </v>
   <v>      -0.04342194       0.06225090       0.27124232 </v>
   <v>      -0.05928813       0.07289469      -0.18850854 </v>
   <v>       0.08143046      -0.05378978       0.10232781 </v>
   <v>       0.04064946      -0.05306829      -0.14268078 </v>
   <v>       0.00070820      -0.05862586      -0.03128060 </v>
   <v>      -0.02979494      -0.06895361       0.03866980 </v>
   <v>      -0.05414168       0.05737643       0.14662897 </v>
   <v>      -0.07616967       0.04172268      -0.13333420 </v>
   <v>       0.01254994      -0.09586649      -0.03390604 </v>
   <v>       0.06649640      -0.08727040       0.00588358 </v>
   <v>       0.03825764       0.07363807      -0.15428531 </v>
   <v>      -0.04257242       0.08880643       0.16123765 </v>
   <v>      -0.07161010       0.09859380       0.00876017 </v>
   <v>       0.00097081       0.10877396       0.02843124 </v>
   <v>       0.03733431      -0.10956416      -0.18086432 </v>
   <v>       0.07242338      -0.10468435       0.14976376 </v>
  </varray>
  <varray name="stress" >
   <v>     -19.91056377      -0.01388829      -0.02513808 </v>
   <v>      -0.01388822     -19.50454017       0.00951975 </v>
   <v>      -0.02513801       0.00951978      -1.74386276 </v>
  </varray>
  <energy>
   <i name="e_fr_energy">   -188.63326278 </i>
   <i name="e_wo_entrp">   -188.49098558 </i>
   <i name="e_0_energy">     -0.28455439 </i>
  </energy>
  <time name="totalsc">  413.71  414.81</time>
 </calculation>
 <calculation>
  <scstep>
   <time name="dav">   23.82   23.87</time>
   <time name="total">   24.35   24.42</time>
   <energy>
    <i name="alphaZ">     82.35512953 </i>
    <i name="ewald">  41307.65752099 </i>
    <i name="hartreedc"> -47306.38832870 </i>
    <i name="XCdc">   -233.85574237 </i>
    <i name="pawpsdc">   3949.24380651 </i>
    <i name="pawaedc">  -3363.73677812 </i>
    <i name="eentropy">     -0.23673705 </i>
    <i name="bandstr">  -1387.03210133 </i>
    <i name="atom">   6761.44252427 </i>
    <i name="e_fr_energy">   -190.55070626 </i>
    <i name="e_wo_entrp">   -190.31396921 </i>
    <i name="e_0_energy">   -190.43233773 </i>
   </energy>
  </scstep>
  <scstep>
   <time name="dav">   28.44   28.51</time>
   <time name="total">   28.96   29.04</time>
   <energy>
    <i name="e_fr_energy">   -190.54340759 </i>
    <i name="e_wo_entrp">   -190.30386966 </i>
    <i name="e_0_energy">   -190.42363863 </i>
   </energy>
  </scstep>
  <scstep>
   <time name="dav">   30.04   30.12</time>
   <time name="total">   30.57   30.65</time>
   <energy>
    <i name="e_fr_energy">   -190.02416570 </i>
    <i name="e_wo_entrp">   -189.77554431 </i>
    <i name="e_0_energy">   -189.89985500 </i>
   </energy>
  </scstep>
  <scstep>
   <time name="dav">   31.28   31.35</time>
   <time name="total">   31.81   31.89</time>
   <energy>
    <i name="e_fr_energy">   -189.81926889 </i>
    <i name="e_wo_entrp">   -189.58169894 </i>
    <i name="e_0_energy">   -189.70048392 </i>
   </energy>
  </scstep>
  <scstep>
   <time name="dav">   28.17   28.24</time>
   <time name="total">   28.70   28.78</time>
   <energy>
    <i name="e_fr_energy">   -189.73715656 </i>
    <i name="e_wo_entrp">   -189.49512368 </i>
    <i name="e_0_energy">   -189.61614012 </i>
   </energy>
  </scstep>
  <scstep>
   <time name="dav">   29.30   29.37</time>
   <time name="total">   29.83   29.91</time>
   <energy>
    <i name="e_fr_energy">   -189.72215349 </i>
    <i name="e_wo_entrp">   -189.48322133 </i>
    <i name="e_0_energy">   -189.60268741 </i>
   </energy>
  </scstep>
  <scstep>
   <time name="dav">   30.12   30.19</time>
   <time name="total">   30.65   30.74</time>
   <energy>
    <i name="e_fr_energy">   -189.71635475 </i>
    <i name="e_wo_entrp">   -189.47643325 </i>
    <i name="e_0_energy">   -189.59639400 </i>
   </energy>
  </scstep>
  <scstep>
   <time name="dav">   26.87   26.93</time>
   <time name="total">   27.39   27.47</time>
   <energy>
    <i name="e_fr_energy">   -189.71623343 </i>
    <i name="e_wo_entrp">   -189.47673291 </i>
    <i name="e_0_energy">   -189.59648317 </i>
   </energy>
  </scstep>
  <scstep>
   <time name="dav">   26.74   26.80</time>
   <time name="total">   27.27   27.34</time>
   <energy>
    <i name="e_fr_energy">   -189.71632938 </i>
    <i name="e_wo_entrp">   -189.47651980 </i>
    <i name="e_0_energy">   -189.59642459 </i>
   </energy>
  </scstep>
  <scstep>
   <time name="dav">   26.01   26.07</time>
   <time name="total">   26.54   26.62</time>
   <energy>
    <i name="e_fr_energy">   -189.71688133 </i>
    <i name="e_wo_entrp">   -189.47713699 </i>
    <i name="e_0_energy">   -189.59700916 </i>
   </energy>
  </scstep>
  <scstep>
   <time name="dav">   25.18   25.24</time>
   <time name="total">   25.71   25.78</time>
   <energy>
    <i name="e_fr_energy">   -189.71622970 </i>
    <i name="e_wo_entrp">   -189.47644944 </i>
    <i name="e_0_energy">   -189.59633957 </i>
   </energy>
  </scstep>
  <scstep>
   <time name="dav">   16.81   16.85</time>
   <time name="total">   16.85   16.90</time>
   <energy>
    <i name="alphaZ">     82.35512953 </i>
    <i name="ewald">  41307.65752099 </i>
    <i name="hartreedc"> -47279.91799342 </i>
    <i name="XCdc">   -235.24849213 </i>
    <i name="pawpsdc">   4038.68628190 </i>
    <i name="pawaedc">  -3454.38520108 </i>
    <i name="eentropy">     -0.23971491 </i>
    <i name="bandstr">  -1410.06630525 </i>
    <i name="atom">   6761.44252427 </i>
    <i name="e_fr_energy">   -189.71625009 </i>
    <i name="e_wo_entrp">   -189.47653518 </i>
    <i name="e_0_energy">   -189.59639264 </i>
   </energy>
  </scstep>
  <structure>
   <crystal>
    <varray name="basis" >
     <v>       8.66891977       5.00223544       0.00000000 </v>
     <v>      -8.66507347       4.99561848       0.00000000 </v>
     <v>       0.00000000       0.00000000      30.00000000 </v>
    </varray>
    <i name="volume">   2599.54060137 </i>
    <varray name="rec_basis" >
     <v>       0.05765194       0.09999929       0.00000000 </v>
     <v>      -0.05772830       0.10004367       0.00000000 </v>
     <v>       0.00000000       0.00000000       0.03333333 </v>
    </varray>
   </crystal>
   <varray name="positions" >
    <v>       0.33283929       0.33147062       0.00006011 </v>
    <v>       0.33492819       0.00193454      -0.00017126 </v>
    <v>       0.99744093       0.33030797       0.00015034 </v>
    <v>       0.66832227       0.00158043      -0.00016398 </v>
    <v>       0.66683697       0.33165004       0.00004653 </v>
    <v>      -0.00199415      -0.00029416      -0.00006180 </v>
    <v>      -0.00205751       0.66672752       0.00011569 </v>
    <v>       0.33503958       0.66819035       0.00003495 </v>
    <v>       0.66874089       0.66861905       0.00004204 </v>
    <v>       0.11304833       0.22658461       0.95315832 </v>
    <v>       0.22659336       0.11307938       0.04682740 </v>
    <v>       0.10935383       0.55186932       0.95214316 </v>
    <v>       0.22058255       0.44102553       0.04676054 </v>
    <v>       0.11517239       0.88997024       0.95201608 </v>
    <v>       0.22375727       0.78116176       0.04797968 </v>
    <v>       0.43972514       0.21987740       0.95305363 </v>
    <v>       0.55083820       0.10876902       0.04806990 </v>
    <v>       0.44268786       0.55194196       0.95200136 </v>
    <v>       0.55148946       0.44329948       0.04791686 </v>
    <v>       0.44126713       0.89013564       0.95193795 </v>
    <v>       0.55491654       0.77657385       0.04924389 </v>
    <v>       0.78219758       0.22431586       0.95180796 </v>
    <v>       0.89126177       0.11583901       0.04820786 </v>
    <v>       0.77809083       0.55643492       0.95072552 </v>
    <v>       0.89201629       0.44307550       0.04804804 </v>
    <v>       0.77691769       0.88758118       0.95061644 </v>
    <v>       0.88820177       0.77649342       0.04943270 </v>
   </varray>
  </structure>
  <varray name="forces" >
   <v>       0.12018966      -0.07902731       0.07428802 </v>
   <v>       0.06596153       0.21721808       0.00315397 </v>
   <v>      -0.01212217      -0.40216742      -0.00596522 </v>
   <v>       0.12895603       0.09553042      -0.00201062 </v>
   <v>       0.22104866       0.05268444       0.06846830 </v>
   <v>      -0.13816442      -0.54448697      -0.05584991 </v>
   <v>      -0.42840270      -0.23626360      -0.08203363 </v>
   <v>       0.05463104       0.33402325      -0.01877615 </v>
   <v>       0.04403613       0.46817015       0.00291995 </v>
   <v>      -0.04354916       0.10420865      -0.37250418 </v>
   <v>       0.02599021       0.08502833       0.34559042 </v>
   <v>       0.03141841      -0.06131027      -0.20951767 </v>
   <v>       0.01441039      -0.06183792       0.26292838 </v>
   <v>       0.07169852       0.08120559      -0.38941536 </v>
   <v>      -0.04665859       0.07184468       0.35274976 </v>
   <v>      -0.03486052      -0.11009305      -0.49063907 </v>
   <v>      -0.05840165      -0.13574187       0.52590268 </v>
   <v>       0.03504492      -0.06207785      -0.35630691 </v>
   <v>      -0.07551333      -0.07853750       0.34482990 </v>
   <v>      -0.10352427      -0.00658170      -0.54614513 </v>
   <v>       0.02942949      -0.00527090       0.56902274 </v>
   <v>       0.07916050       0.14116959      -0.65798083 </v>
   <v>      -0.07669027       0.14341340       0.66443190 </v>
   <v>      -0.03505667       0.01512367      -0.55569890 </v>
   <v>       0.11713470       0.04541726       0.53657388 </v>
   <v>      -0.00941375      -0.04339473      -0.75444502 </v>
   <v>       0.02324733      -0.02824643       0.74642867 </v>
  </varray>
  <varray name="stress" >
   <v>     -10.17747364      -0.03966099      -0.03599383 </v>
   <v>      -0.03966093      -9.83143834      -0.02349673 </v>
   <v>      -0.03599375      -0.02349671       6.51789944 </v>
  </varray>
  <energy>
   <i name="e_fr_energy">   -189.71625009 </i>
   <i name="e_wo_entrp">   -189.59639264 </i>
   <i name="e_0_energy">     -0.23971491 </i>
  </energy>
  <time name="totalsc">  370.48  371.46</time>
 </calculation>
 <calculation>
  <scstep>
   <time name="dav">   21.63   21.69</time>
   <time name="total">   22.15   22.21</time>
   <energy>
    <i name="alphaZ">     85.83949697 </i>
    <i name="ewald">  42840.56538364 </i>
    <i name="hartreedc"> -48857.43164546 </i>
    <i name="XCdc">   -232.96155035 </i>
    <i name="pawpsdc">   4038.69763498 </i>
    <i name="pawaedc">  -3454.39378851 </i>
    <i name="eentropy">     -0.19621676 </i>
    <i name="bandstr">  -1372.82905447 </i>
    <i name="atom">   6761.44252427 </i>
    <i name="e_fr_energy">   -191.26721569 </i>
    <i name="e_wo_entrp">   -191.07099893 </i>
    <i name="e_0_energy">   -191.16910731 </i>
   </energy>
  </scstep>
  <scstep>
   <time name="dav">   32.29   32.37</time>
   <time name="total">   32.81   32.90</time>
   <energy>
    <i name="e_fr_energy">   -191.14768048 </i>
    <i name="e_wo_entrp">   -190.94500624 </i>
    <i name="e_0_energy">   -191.04634336 </i>
   </energy>
  </scstep>
  <scstep>
   <time name="dav">   29.86   29.93</time>
   <time name="total">   30.37   30.45</time>
   <energy>
    <i name="e_fr_energy">   -191.18859996 </i>
    <i name="e_wo_entrp">   -190.97204681 </i>
    <i name="e_0_energy">   -191.08032339 </i>
   </energy>
  </scstep>
  <scstep>
   <time name="dav">   30.66   30.73</time>
   <time name="total">   31.17   31.26</time>
   <energy>
    <i name="e_fr_energy">   -190.83254226 </i>
    <i name="e_wo_entrp">   -190.62827371 </i>
    <i name="e_0_energy">   -190.73040798 </i>
   </energy>
  </scstep>
  <scstep>
   <time name="dav">   29.40   29.47</time>
   <time name="total">   29.91   29.99</time>
   <energy>
    <i name="e_fr_energy">   -190.82858078 </i>
    <i name="e_wo_entrp">   -190.63055236 </i>
    <i name="e_0_energy">   -190.72956657 </i>
   </energy>
  </scstep>
  <scstep>
   <time name="dav">   29.72   29.79</time>
   <time name="total">   30.24   30.32</time>
   <energy>
    <i name="e_fr_energy">   -190.68510395 </i>
    <i name="e_wo_entrp">   -190.48091546 </i>
    <i name="e_0_energy">   -190.58300971 </i>
   </energy>
  </scstep>
  <scstep>
   <time name="dav">   30.14   30.21</time>
   <time name="total">   30.66   30.74</time>
   <energy>
    <i name="e_fr_energy">   -190.67970056 </i>
    <i name="e_wo_entrp">   -190.47757071 </i>
    <i name="e_0_energy">   -190.57863564 </i>
   </energy>
  </scstep>
  <scstep>
   <time name="dav">   28.80   28.87</time>
   <time name="total">   29.32   29.41</time>
   <energy>
    <i name="e_fr_energy">   -190.67797161 </i>
    <i name="e_wo_entrp">   -190.47562475 </i>
    <i name="e_0_energy">   -190.57679818 </i>
   </energy>
  </scstep>
  <scstep>
   <time name="dav">   28.20   28.26</time>
   <time name="total">   28.71   28.79</time>
   <energy>
    <i name="e_fr_energy">   -190.67603551 </i>
    <i name="e_wo_entrp">   -190.47358551 </i>
    <i name="e_0_energy">   -190.57481051 </i>
   </energy>
  </scstep>
  <scstep>
   <time name="dav">   26.42   26.48</time>
   <time name="total">   26.94   27.01</time>
   <energy>
    <i name="e_fr_energy">   -190.67629458 </i>
    <i name="e_wo_entrp">   -190.47356180 </i>
    <i name="e_0_energy">   -190.57492819 </i>
   </energy>
  </scstep>
  <scstep>
   <time name="dav">   26.48   26.55</time>
   <time name="total">   27.00   27.08</time>
   <energy>
    <i name="e_fr_energy">   -190.67613676 </i>
    <i name="e_wo_entrp">   -190.47362972 </i>
    <i name="e_0_energy">   -190.57488324 </i>
   </energy>
  </scstep>
  <scstep>
   <time name="dav">   19.87   19.92</time>
   <time name="total">   19.91   19.96</time>
   <energy>
    <i name="alphaZ">     85.83949697 </i>
    <i name="ewald">  42840.56538364 </i>
    <i name="hartreedc"> -48828.77031028 </i>
    <i name="XCdc">   -234.29868875 </i>
    <i name="pawpsdc">   4063.08500469 </i>
    <i name="pawaedc">  -3478.95280700 </i>
    <i name="eentropy">     -0.20252542 </i>
    <i name="bandstr">  -1399.38420781 </i>
    <i name="atom">   6761.44252427 </i>
    <i name="e_fr_energy">   -190.67612969 </i>
    <i name="e_wo_entrp">   -190.47360427 </i>
    <i name="e_0_energy">   -190.57486698 </i>
   </energy>
  </scstep>
  <structure>
   <crystal>
    <varray name="basis" >
     <v>       8.48526360       4.90091429       0.00000000 </v>
     <v>      -8.48335498       4.89764816       0.00000000 </v>
     <v>       0.00000000       0.00000000      30.00000000 </v>
    </varray>
    <i name="volume">   2494.02094011 </i>
    <varray name="rec_basis" >
     <v>       0.05891267       0.10204431       0.00000000 </v>
     <v>      -0.05895196       0.10206727       0.00000000 </v>
     <v>       0.00000000       0.00000000       0.03333333 </v>
    </varray>
   </crystal>
   <varray name="positions" >
    <v>       0.33285552       0.33067107       0.00021505 </v>
    <v>       0.33653508       0.00292452      -0.00014383 </v>
    <v>       0.99483802       0.32789002       0.00012062 </v>
    <v>       0.66930959       0.00152541      -0.00014875 </v>
    <v>       0.66808129       0.33132911       0.00018721 </v>
    <v>      -0.00614190      -0.00353528      -0.00016866 </v>
    <v>      -0.00522186       0.66681765      -0.00006880 </v>
    <v>       0.33740916       0.67014307      -0.00000849 </v>
    <v>       0.67197853       0.67151464       0.00004700 </v>
    <v>       0.11364353       0.22759659       0.95201086 </v>
    <v>       0.22737095       0.11357897       0.04791221 </v>
    <v>       0.10888234       0.55095483       0.95130061 </v>
    <v>       0.22001676       0.44014302       0.04768880 </v>
    <v>       0.11626342       0.89057111       0.95079156 </v>
    <v>       0.22422514       0.78221878       0.04913138 </v>
    <v>       0.43872954       0.21923596       0.95164696 </v>
    <v>       0.54956855       0.10800366       0.04957330 </v>
    <v>       0.44225555       0.55099912       0.95083592 </v>
    <v>       0.55042509       0.44277902       0.04903749 </v>
    <v>       0.44090766       0.89085917       0.95037137 </v>
    <v>       0.55514123       0.77669249       0.05090112 </v>
    <v>       0.78359582       0.22502428       0.95001698 </v>
    <v>       0.89197067       0.11720124       0.05001178 </v>
    <v>       0.77790314       0.55639549       0.94909477 </v>
    <v>       0.89273319       0.44261084       0.04959131 </v>
    <v>       0.77670964       0.88757576       0.94856626 </v>
    <v>       0.88822882       0.77649393       0.05148589 </v>
   </varray>
  </structure>
  <varray name="forces" >
   <v>       0.07235388      -0.06191985       0.04842373 </v>
   <v>       0.15206016       0.21636241       0.04794208 </v>
   <v>      -0.02053935      -0.37361060      -0.05223043 </v>
   <v>       0.15011749       0.02030040       0.02448802 </v>
   <v>       0.22589467       0.06531154       0.03184544 </v>
   <v>      -0.09609403      -0.61306916      -0.01047373 </v>
   <v>      -0.53326649      -0.26398879      -0.05191379 </v>
   <v>       0.10847960       0.37773214      -0.02821239 </v>
   <v>       0.03328676       0.52920086      -0.00631474 </v>
   <v>       0.01005624      -0.03781694      -0.24600788 </v>
   <v>      -0.02992601      -0.04699156       0.21514377 </v>
   <v>       0.00073712      -0.01605207      -0.01791679 </v>
   <v>      -0.01447845      -0.02328965       0.17370787 </v>
   <v>      -0.02838892       0.03019479      -0.25076687 </v>
   <v>      -0.05460079       0.01969970       0.15243925 </v>
   <v>       0.01715899      -0.00217888      -0.37421106 </v>
   <v>       0.00238039      -0.01545802       0.36351848 </v>
   <v>       0.05352644       0.01594207      -0.20718778 </v>
   <v>      -0.01099588       0.01532370       0.18947652 </v>
   <v>      -0.04275865       0.08127696      -0.41272763 </v>
   <v>       0.01635262       0.06461609       0.40488216 </v>
   <v>       0.04756779       0.03264734      -0.45839877 </v>
   <v>      -0.01203524       0.02030084       0.47679311 </v>
   <v>      -0.02381052      -0.06799960      -0.39983891 </v>
   <v>       0.04517308       0.02594980       0.38102665 </v>
   <v>      -0.04839311      -0.00896222      -0.61096804 </v>
   <v>      -0.01985779       0.01647868       0.61748176 </v>
  </varray>
  <varray name="stress" >
   <v>      -5.85609346       0.07856152      -0.05363905 </v>
   <v>       0.07856132      -5.79136937       0.05244200 </v>
   <v>      -0.05363895       0.05244221       4.50898246 </v>
  </varray>
  <energy>
   <i name="e_fr_energy">   -190.67612969 </i>
   <i name="e_wo_entrp">   -190.57486698 </i>
   <i name="e_0_energy">     -0.20252542 </i>
  </energy>
  <time name="totalsc">  381.06  382.08</time>
 </calculation>
 <calculation>
  <scstep>
   <time name="dav">   21.60   21.65</time>
   <time name="total">   22.11   22.17</time>
   <energy>
    <i name="alphaZ">     90.31425890 </i>
    <i name="ewald">  44727.81941171 </i>
    <i name="hartreedc"> -50772.69677176 </i>
    <i name="XCdc">   -231.75566657 </i>
    <i name="pawpsdc">   4063.03239483 </i>
    <i name="pawaedc">  -3478.89506226 </i>
    <i name="eentropy">     -0.17965333 </i>
    <i name="bandstr">  -1351.18861455 </i>
    <i name="atom">   6761.44252427 </i>
    <i name="e_fr_energy">   -192.10717875 </i>
    <i name="e_wo_entrp">   -191.92752541 </i>
    <i name="e_0_energy">   -192.01735208 </i>
   </energy>
  </scstep>
  <scstep>
   <time name="dav">   29.47   29.54</time>
   <time name="total">   29.97   30.05</time>
   <energy>
    <i name="e_fr_energy">   -191.86821320 </i>
    <i name="e_wo_entrp">   -191.67645149 </i>
    <i name="e_0_energy">   -191.77233234 </i>
   </energy>
  </scstep>
  <scstep>
   <time name="dav">   29.78   29.85</time>
   <time name="total">   30.28   30.36</time>
   <energy>
    <i name="e_fr_energy">   -192.25919713 </i>
    <i name="e_wo_entrp">   -192.05757423 </i>
    <i name="e_0_energy">   -192.15838568 </i>
   </energy>
  </scstep>
  <scstep>
   <time name="dav">   29.80   29.87</time>
   <time name="total">   30.31   30.39</time>
   <energy>
    <i name="e_fr_energy">   -191.57639024 </i>
    <i name="e_wo_entrp">   -191.38883791 </i>
    <i name="e_0_energy">   -191.48261407 </i>
   </energy>
  </scstep>
  <scstep>
   <time name="dav">   29.84   29.91</time>
   <time name="total">   30.35   30.43</time>
   <energy>
    <i name="e_fr_energy">   -191.40346476 </i>
    <i name="e_wo_entrp">   -191.21874683 </i>
    <i name="e_0_energy">   -191.31110580 </i>
   </energy>
  </scstep>
  <scstep>
   <time name="dav">   30.31   30.38</time>
   <time name="total">   30.81   30.89</time>
   <energy>
    <i name="e_fr_energy">   -191.37098858 </i>
    <i name="e_wo_entrp">   -191.17760052 </i>
    <i name="e_0_energy">   -191.27429455 </i>
   </energy>
  </scstep>
  <scstep>
   <time name="dav">   29.84   29.91</time>
   <time name="total">   30.34   30.42</time>
   <energy>
    <i name="e_fr_energy">   -191.34937335 </i>
    <i name="e_wo_entrp">   -191.16282200 </i>
    <i name="e_0_energy">   -191.25609768 </i>
   </energy>
  </scstep>
  <scstep>
   <time name="dav">   26.94   27.00</time>
   <time name="total">   27.44   27.52</time>
   <energy>
    <i name="e_fr_energy">   -191.34212567 </i>
    <i name="e_wo_entrp">   -191.15411009 </i>
    <i name="e_0_energy">   -191.24811788 </i>
   </energy>
  </scstep>
  <scstep>
   <time name="dav">   30.46   30.53</time>
   <time name="total">   30.98   31.05</time>
   <energy>
    <i name="e_fr_energy">   -191.34361660 </i>
    <i name="e_wo_entrp">   -191.15532793 </i>
    <i name="e_0_energy">   -191.24947227 </i>
   </energy>
  </scstep>
  <scstep>
   <time name="dav">   28.36   28.43</time>
   <time name="total">   28.86   28.94</time>
   <energy>
    <i name="e_fr_energy">   -191.34243507 </i>
    <i name="e_wo_entrp">   -191.15417202 </i>
    <i name="e_0_energy">   -191.24830355 </i>
   </energy>
  </scstep>
  <scstep>
   <time name="dav">   26.07   26.13</time>
   <time name="total">   26.58   26.65</time>
   <energy>
    <i name="e_fr_energy">   -191.34226831 </i>
    <i name="e_wo_entrp">   -191.15393875 </i>
    <i name="e_0_energy">   -191.24810353 </i>
   </energy>
  </scstep>
  <scstep>
   <time name="dav">   20.33   20.38</time>
   <time name="total">   20.36   20.42</time>
   <energy>
    <i name="alphaZ">     90.31425890 </i>
    <i name="ewald">  44727.81941171 </i>
    <i name="hartreedc"> -50737.72229462 </i>
    <i name="XCdc">   -233.33450203 </i>
    <i name="pawpsdc">   4085.34673993 </i>
    <i name="pawaedc">  -3501.29429098 </i>
    <i name="eentropy">     -0.18828909 </i>
    <i name="bandstr">  -1383.72578946 </i>
    <i name="atom">   6761.44252427 </i>
    <i name="e_fr_energy">   -191.34223136 </i>
    <i name="e_wo_entrp">   -191.15394228 </i>
    <i name="e_0_energy">   -191.24808682 </i>
   </energy>
  </scstep>
  <structure>
   <crystal>
    <varray name="basis" >
     <v>       8.27197242       4.78265082       0.00000000 </v>
     <v>      -8.26625763       4.77279170       0.00000000 </v>
     <v>       0.00000000       0.00000000      30.00000000 </v>
    </varray>
    <i name="volume">   2370.45075221 </i>
    <varray name="rec_basis" >
     <v>       0.06040360       0.10461628       0.00000000 </v>
     <v>      -0.06052837       0.10468860       0.00000000 </v>
     <v>       0.00000000       0.00000000       0.03333333 </v>
    </varray>
   </crystal>
   <varray name="positions" >
    <v>       0.33271379       0.32945834       0.00042687 </v>
    <v>       0.34024560       0.00445345       0.00005078 </v>
    <v>       0.98995449       0.32340024      -0.00008642 </v>
    <v>       0.67065677       0.00062654      -0.00004101 </v>
    <v>       0.67062709       0.33067684       0.00033507 </v>
    <v>      -0.01466584      -0.01070462      -0.00022556 </v>
    <v>      -0.01234839       0.66733462      -0.00031306 </v>
    <v>       0.34285530       0.67411023      -0.00012314 </v>
    <v>       0.67888113       0.67788985       0.00002516 </v>
    <v>       0.11355213       0.22758615       0.95049963 </v>
    <v>       0.22702940       0.11345079       0.04929228 </v>
    <v>       0.10840359       0.55015018       0.95064023 </v>
    <v>       0.21931339       0.43933986       0.04889556 </v>
    <v>       0.11700241       0.89155453       0.94920471 </v>
    <v>       0.22439484       0.78345503       0.05035688 </v>
    <v>       0.43837820       0.21886126       0.94960411 </v>
    <v>       0.54888268       0.10750037       0.05162594 </v>
    <v>       0.44248653       0.55019346       0.94940885 </v>
    <v>       0.54995961       0.44259623       0.05037126 </v>
    <v>       0.44146847       0.89254950       0.94810989 </v>
    <v>       0.55613550       0.77755232       0.05319871 </v>
    <v>       0.78482880       0.22537238       0.94754261 </v>
    <v>       0.89238627       0.11803347       0.05255371 </v>
    <v>       0.77683234       0.55556447       0.94682083 </v>
    <v>       0.89349528       0.44218668       0.05173221 </v>
    <v>       0.77634577       0.88798987       0.94543361 </v>
    <v>       0.88839928       0.77703239       0.05466019 </v>
   </varray>
  </structure>
  <varray name="forces" >
   <v>      -0.01152673      -0.10945428       0.05225876 </v>
   <v>       0.25149576       0.30481575       0.01223424 </v>
   <v>       0.02655075      -0.34288145      -0.00403634 </v>
   <v>       0.00894802      -0.08950177      -0.03982984 </v>
   <v>       0.18325401       0.00559785      -0.02548563 </v>
   <v>      -0.03252205      -0.29099532       0.02424958 </v>
   <v>      -0.46185566      -0.22301774       0.05750644 </v>
   <v>       0.24803092       0.45105926      -0.04606207 </v>
   <v>      -0.07430731       0.26858027      -0.06669603 </v>
   <v>       0.06562078      -0.20128533       0.01340286 </v>
   <v>      -0.04553440      -0.18681307      -0.09482324 </v>
   <v>      -0.11894247       0.07828254       0.31710971 </v>
   <v>      -0.06616050       0.03170049      -0.10218229 </v>
   <v>      -0.13669124      -0.07275982       0.07397644 </v>
   <v>      -0.03326534      -0.08090055      -0.18889647 </v>
   <v>       0.06596078       0.06985702      -0.02505207 </v>
   <v>       0.08259276       0.10946531       0.11569870 </v>
   <v>       0.07558816       0.15873972       0.02290961 </v>
   <v>       0.04416866       0.17955011      -0.12295517 </v>
   <v>       0.01794106       0.12734877      -0.13095509 </v>
   <v>       0.07575162       0.09938454       0.19570036 </v>
   <v>       0.02293894      -0.07881277      -0.12740604 </v>
   <v>       0.07081653      -0.10322936       0.12182602 </v>
   <v>      -0.09588560      -0.13969239      -0.15363412 </v>
   <v>      -0.04095052       0.04719079       0.04576038 </v>
   <v>      -0.09189660      -0.01407930      -0.27991386 </v>
   <v>      -0.03012033       0.00185073       0.35529515 </v>
  </varray>
  <varray name="stress" >
   <v>      -0.15234596       0.19005148       0.28427277 </v>
   <v>       0.19005153       0.27770384       0.19278192 </v>
   <v>       0.28427268       0.19278203      -0.47966237 </v>
  </varray>
  <energy>
   <i name="e_fr_energy">   -191.34223136 </i>
   <i name="e_wo_entrp">   -191.24808682 </i>
   <i name="e_0_energy">     -0.18828909 </i>
  </energy>
  <time name="totalsc">  380.39  381.39</time>
 </calculation>
 <calculation>
  <scstep>
   <time name="dav">   21.61   21.66</time>
   <time name="total">   22.12   22.18</time>
   <energy>
    <i name="alphaZ">     90.28504506 </i>
    <i name="ewald">  44693.56843461 </i>
    <i name="hartreedc"> -50703.90010124 </i>
    <i name="XCdc">   -233.44139966 </i>
    <i name="pawpsdc">   4085.23326084 </i>
    <i name="pawaedc">  -3501.17551059 </i>
    <i name="eentropy">     -0.18954510 </i>
    <i name="bandstr">  -1383.24651577 </i>
    <i name="atom">   6761.44252427 </i>
    <i name="e_fr_energy">   -191.42380759 </i>
    <i name="e_wo_entrp">   -191.23426249 </i>
    <i name="e_0_energy">   -191.32903504 </i>
   </energy>
  </scstep>
  <scstep>
   <time name="dav">   32.85   32.93</time>
   <time name="total">   33.35   33.44</time>
   <energy>
    <i name="e_fr_energy">   -191.48937362 </i>
    <i name="e_wo_entrp">   -191.28877292 </i>
    <i name="e_0_energy">   -191.38907327 </i>
   </energy>
  </scstep>
  <scstep>
   <time name="dav">   29.97   30.05</time>
   <time name="total">   30.48   30.56</time>
   <energy>
    <i name="e_fr_energy">   -191.43792113 </i>
    <i name="e_wo_entrp">   -191.24765303 </i>
    <i name="e_0_energy">   -191.34278708 </i>
   </energy>
  </scstep>
  <scstep>
   <time name="dav">   28.60   28.67</time>
   <time name="total">   29.10   29.18</time>
   <energy>
    <i name="e_fr_energy">   -191.43867708 </i>
    <i name="e_wo_entrp">   -191.24733671 </i>
    <i name="e_0_energy">   -191.34300690 </i>
   </energy>
  </scstep>
  <scstep>
   <time name="dav">   29.26   29.33</time>
   <time name="total">   29.76   29.84</time>
   <energy>
    <i name="e_fr_energy">   -191.43392600 </i>
    <i name="e_wo_entrp">   -191.24246269 </i>
    <i name="e_0_energy">   -191.33819434 </i>
   </energy>
  </scstep>
  <scstep>
   <time name="dav">   27.15   27.21</time>
   <time name="total">   27.65   27.72</time>
   <energy>
    <i name="e_fr_energy">   -191.43359537 </i>
    <i name="e_wo_entrp">   -191.24197989 </i>
    <i name="e_0_energy">   -191.33778763 </i>
   </energy>
  </scstep>
  <scstep>
   <time name="dav">   26.19   26.25</time>
   <time name="total">   26.70   26.77</time>
   <energy>
    <i name="e_fr_energy">   -191.43335887 </i>
    <i name="e_wo_entrp">   -191.24166402 </i>
    <i name="e_0_energy">   -191.33751145 </i>
   </energy>
  </scstep>
  <scstep>
   <time name="dav">   22.20   22.25</time>
   <time name="total">   22.24   22.30</time>
   <energy>
    <i name="alphaZ">     90.28504506 </i>
    <i name="ewald">  44693.56843461 </i>
    <i name="hartreedc"> -50705.09837752 </i>
    <i name="XCdc">   -233.40624148 </i>
    <i name="pawpsdc">   4082.90775774 </i>
    <i name="pawaedc">  -3498.81143838 </i>
    <i name="eentropy">     -0.19152935 </i>
    <i name="bandstr">  -1382.12948499 </i>
    <i name="atom">   6761.44252427 </i>
    <i name="e_fr_energy">   -191.43331004 </i>
    <i name="e_wo_entrp">   -191.24178069 </i>
    <i name="e_0_energy">   -191.33754537 </i>
   </energy>
  </scstep>
  <structure>
   <crystal>
    <varray name="basis" >
     <v>       8.27101258       4.79030421       0.00000000 </v>
     <v>      -8.26049670       4.77212430       0.00000000 </v>
     <v>       0.00000000       0.00000000      30.00000000 </v>
    </varray>
    <i name="volume">   2371.21776699 </i>
    <varray name="rec_basis" >
     <v>       0.06037561       0.10450955       0.00000000 </v>
     <v>      -0.06060562       0.10464259       0.00000000 </v>
     <v>       0.00000000       0.00000000       0.03333333 </v>
    </varray>
   </crystal>
   <varray name="positions" >
    <v>       0.33212753       0.32893871       0.00051100 </v>
    <v>       0.34251868       0.00525922       0.00007051 </v>
    <v>       0.98829946       0.32158917      -0.00009297 </v>
    <v>       0.67023129       0.00014796      -0.00010506 </v>
    <v>       0.67119022       0.33016966       0.00029411 </v>
    <v>      -0.01623201      -0.01208166      -0.00018656 </v>
    <v>      -0.01482257       0.66755713      -0.00022061 </v>
    <v>       0.34585709       0.67566563      -0.00019727 </v>
    <v>       0.68002228       0.67946550      -0.00008214 </v>
    <v>       0.11272717       0.22637754       0.95052074 </v>
    <v>       0.22595343       0.11263994       0.04914015 </v>
    <v>       0.10845193       0.55089287       0.95115012 </v>
    <v>       0.21928035       0.43969301       0.04873155 </v>
    <v>       0.11623683       0.89158653       0.94932324 </v>
    <v>       0.22388949       0.78314386       0.05005339 </v>
    <v>       0.43892304       0.21902140       0.94956322 </v>
    <v>       0.54967590       0.10781200       0.05181266 </v>
    <v>       0.44350836       0.55077438       0.94944526 </v>
    <v>       0.55099472       0.44337426       0.05017387 </v>
    <v>       0.44216388       0.89314100       0.94789856 </v>
    <v>       0.55685838       0.77783341       0.05351421 </v>
    <v>       0.78449812       0.22490730       0.94733695 </v>
    <v>       0.89207166       0.11730531       0.05275042 </v>
    <v>       0.77584724       0.55513855       0.94657302 </v>
    <v>       0.89361437       0.44254456       0.05180645 </v>
    <v>       0.77600671       0.88818731       0.94498243 </v>
    <v>       0.88832088       0.77712990       0.05523265 </v>
   </varray>
  </structure>
  <varray name="forces" >
   <v>      -0.03202435      -0.16202208       0.10290743 </v>
   <v>       0.25102706       0.34128924       0.02219657 </v>
   <v>       0.07323397      -0.38868956       0.00083163 </v>
   <v>      -0.02329768      -0.08774665      -0.01104250 </v>
   <v>       0.21967180       0.00755460      -0.00444610 </v>
   <v>      -0.08094733      -0.30446109       0.00134906 </v>
   <v>      -0.50296437      -0.28061873       0.00018637 </v>
   <v>       0.32712925       0.52079008      -0.02502374 </v>
   <v>      -0.09834965       0.29142645      -0.00997381 </v>
   <v>       0.03483793      -0.13022170       0.02778502 </v>
   <v>      -0.00853346      -0.12466943      -0.12540726 </v>
   <v>      -0.08449469       0.09032069       0.39471822 </v>
   <v>      -0.06916899       0.03145664      -0.15675494 </v>
   <v>      -0.07480240      -0.05031899       0.12749776 </v>
   <v>      -0.00601845      -0.06429712      -0.24066024 </v>
   <v>       0.04700723       0.04231403      -0.00364187 </v>
   <v>       0.05451077       0.08161175       0.10119453 </v>
   <v>       0.06034209       0.10418988      -0.00850187 </v>
   <v>       0.02317944       0.11998024      -0.18280850 </v>
   <v>       0.00670192       0.08897068      -0.15121331 </v>
   <v>       0.05154678       0.08003502       0.17421777 </v>
   <v>       0.03059118      -0.04352211      -0.11654872 </v>
   <v>       0.02325442      -0.07669828       0.09612063 </v>
   <v>      -0.07395565      -0.09452978      -0.08256108 </v>
   <v>      -0.01947297       0.02983765       0.01360168 </v>
   <v>      -0.07486571       0.00673226      -0.19962723 </v>
   <v>      -0.05413817      -0.02871370       0.25560449 </v>
  </varray>
  <varray name="stress" >
   <v>      -0.05315842       0.05431986       0.13412274 </v>
   <v>       0.05431969      -0.02105360       0.03989961 </v>
   <v>       0.13412264       0.03989941      -1.23696887 </v>
  </varray>
  <energy>
   <i name="e_fr_energy">   -191.43331004 </i>
   <i name="e_wo_entrp">   -191.33754537 </i>
   <i name="e_0_energy">     -0.19152935 </i>
  </energy>
  <time name="totalsc">  263.34  264.04</time>
 </calculation>
 <calculation>
  <scstep>
   <time name="dav">   21.62   21.67</time>
   <time name="total">   22.13   22.18</time>
   <energy>
    <i name="alphaZ">     90.28729612 </i>
    <i name="ewald">  44695.23807483 </i>
    <i name="hartreedc"> -50706.76701093 </i>
    <i name="XCdc">   -233.40247198 </i>
    <i name="pawpsdc">   4082.87108652 </i>
    <i name="pawaedc">  -3498.77429289 </i>
    <i name="eentropy">     -0.19123989 </i>
    <i name="bandstr">  -1382.15428134 </i>
    <i name="atom">   6761.44252427 </i>
    <i name="e_fr_energy">   -191.45031528 </i>
    <i name="e_wo_entrp">   -191.25907539 </i>
    <i name="e_0_energy">   -191.35469534 </i>
   </energy>
  </scstep>
  <scstep>
   <time name="dav">   32.74   32.82</time>
   <time name="total">   33.24   33.33</time>
   <energy>
    <i name="e_fr_energy">   -191.45204935 </i>
    <i name="e_wo_entrp">   -191.25889211 </i>
    <i name="e_0_energy">   -191.35547073 </i>
   </energy>
  </scstep>
  <scstep>
   <time name="dav">   27.43   27.50</time>
   <time name="total">   27.94   28.01</time>
   <energy>
    <i name="e_fr_energy">   -191.45067457 </i>
    <i name="e_wo_entrp">   -191.25934335 </i>
    <i name="e_0_energy">   -191.35500896 </i>
   </energy>
  </scstep>
  <scstep>
   <time name="dav">   22.53   22.58</time>
   <time name="total">   22.56   22.62</time>
   <energy>
    <i name="alphaZ">     90.28729612 </i>
    <i name="ewald">  44695.23807483 </i>
    <i name="hartreedc"> -50706.99051990 </i>
    <i name="XCdc">   -233.40055393 </i>
    <i name="pawpsdc">   4083.09597093 </i>
    <i name="pawaedc">  -3499.00540516 </i>
    <i name="eentropy">     -0.19145585 </i>
    <i name="bandstr">  -1381.92668365 </i>
    <i name="atom">   6761.44252427 </i>
    <i name="e_fr_energy">   -191.45075233 </i>
    <i name="e_wo_entrp">   -191.25929648 </i>
    <i name="e_0_energy">   -191.35502441 </i>
   </energy>
  </scstep>
  <structure>
   <crystal>
    <varray name="basis" >
     <v>       8.27097173       4.79048893       0.00000000 </v>
     <v>      -8.26021323       4.77188930       0.00000000 </v>
     <v>       0.00000000       0.00000000      30.00000000 </v>
    </varray>
    <i name="volume">   2371.15864741 </i>
    <varray name="rec_basis" >
     <v>       0.06037415       0.10450857       0.00000000 </v>
     <v>      -0.06060947       0.10464469       0.00000000 </v>
[...]
      <set comment="kpoint 31">
       <r>  -17.5699    1.0000 </r>
       <r>  -17.2098    1.0000 </r>
       <r>  -16.9353    1.0000 </r>
       <r>  -16.5794    1.0000 </r>
       <r>  -16.5297    1.0000 </r>
       <r>  -16.4506    1.0000 </r>
       <r>  -16.3013    1.0000 </r>
       <r>  -16.1869    1.0000 </r>
       <r>  -16.1256    1.0000 </r>
       <r>  -16.0670    1.0000 </r>
       <r>  -15.9641    1.0000 </r>
       <r>  -15.9208    1.0000 </r>
       <r>  -15.7558    1.0000 </r>
       <r>  -15.6586    1.0000 </r>
       <r>  -15.6258    1.0000 </r>
       <r>  -15.4836    1.0000 </r>
       <r>  -15.3470    1.0000 </r>
       <r>  -15.2924    1.0000 </r>
       <r>   -9.7593    1.0000 </r>
       <r>   -9.5175    1.0000 </r>
       <r>   -9.2625    1.0000 </r>
       <r>   -9.0281    1.0000 </r>
       <r>   -8.8835    1.0000 </r>
       <r>   -8.7442    1.0000 </r>
       <r>   -8.6146    1.0000 </r>
       <r>   -8.5003    1.0000 </r>
       <r>   -8.4033    1.0000 </r>
       <r>   -8.3153    1.0000 </r>
       <r>   -8.2683    1.0000 </r>
       <r>   -8.2071    1.0000 </r>
       <r>   -8.1239    1.0000 </r>
       <r>   -8.0596    1.0000 </r>
       <r>   -7.9513    1.0000 </r>
       <r>   -7.9069    1.0000 </r>
       <r>   -7.7823    1.0000 </r>
       <r>   -7.6538    1.0000 </r>
       <r>   -7.5902    1.0000 </r>
       <r>   -7.4975    1.0000 </r>
       <r>   -7.3629    1.0000 </r>
       <r>   -7.2643    1.0000 </r>
       <r>   -7.2367    1.0000 </r>
       <r>   -7.0697    1.0000 </r>
       <r>   -7.0157    1.0000 </r>
       <r>   -6.9314    1.0000 </r>
       <r>   -6.7802    1.0000 </r>
       <r>   -6.7256    1.0000 </r>
       <r>   -6.6551    1.0000 </r>
       <r>   -6.6167    1.0000 </r>
       <r>   -6.5578    1.0000 </r>
       <r>   -6.5082    1.0000 </r>
       <r>   -6.4279    1.0000 </r>
       <r>   -6.3626    1.0000 </r>
       <r>   -6.3055    1.0000 </r>
       <r>   -6.1828    1.0000 </r>
       <r>   -6.0413    1.0000 </r>
       <r>   -5.9944    1.0000 </r>
       <r>   -5.9687    1.0000 </r>
       <r>   -5.8924    1.0000 </r>
       <r>   -5.8527    1.0000 </r>
       <r>   -5.7590    1.0000 </r>
       <r>   -5.7084    1.0000 </r>
       <r>   -5.6470    1.0000 </r>
       <r>   -5.5338    1.0000 </r>
       <r>   -5.4155    1.0000 </r>
       <r>   -5.3496    1.0000 </r>
       <r>   -5.1564    1.0000 </r>
       <r>   -5.0952    1.0000 </r>
       <r>   -4.8648    1.0000 </r>
       <r>   -4.7852    1.0000 </r>
       <r>   -4.6867    1.0000 </r>
       <r>   -4.6337    1.0000 </r>
       <r>   -4.4165    1.0000 </r>
       <r>   -4.2881    1.0000 </r>
       <r>   -4.1811    1.0000 </r>
       <r>   -4.0277    1.0000 </r>
       <r>   -3.8098    0.9994 </r>
       <r>   -3.7274    0.9961 </r>
       <r>   -3.6147    0.9689 </r>
       <r>   -3.5180    0.8811 </r>
       <r>   -3.4587    0.7767 </r>
       <r>   -3.0618    0.0204 </r>
       <r>   -2.8209    0.0001 </r>
       <r>   -2.7524    0.0000 </r>
       <r>   -2.6103    0.0000 </r>
       <r>   -2.5726    0.0000 </r>
       <r>   -2.4662    0.0000 </r>
       <r>   -2.2488    0.0000 </r>
       <r>   -2.1569    0.0000 </r>
       <r>   -1.9978    0.0000 </r>
       <r>   -1.8645    0.0000 </r>
       <r>   -1.6752    0.0000 </r>
       <r>   -1.5534    0.0000 </r>
       <r>   -1.4512    0.0000 </r>
       <r>   -1.3626    0.0000 </r>
       <r>   -1.2955    0.0000 </r>
       <r>   -1.2295    0.0000 </r>
       <r>   -1.0963    0.0000 </r>
       <r>   -1.0484    0.0000 </r>
       <r>   -0.9874    0.0000 </r>
       <r>   -0.8862    0.0000 </r>
       <r>   -0.8288    0.0000 </r>
       <r>   -0.7213    0.0000 </r>
       <r>   -0.6594    0.0000 </r>
       <r>   -0.5774    0.0000 </r>
       <r>   -0.3466    0.0000 </r>
       <r>   -0.2734    0.0000 </r>
       <r>   -0.2075    0.0000 </r>
       <r>   -0.1034    0.0000 </r>
       <r>    0.0298    0.0000 </r>
       <r>    0.0883    0.0000 </r>
       <r>    0.3317    0.0000 </r>
       <r>    0.5605    0.0000 </r>
       <r>    0.6791    0.0000 </r>
       <r>    0.9906    0.0000 </r>
       <r>    1.1626    0.0000 </r>
       <r>    1.2461    0.0000 </r>
       <r>    1.3664    0.0000 </r>
       <r>    2.1402    0.0000 </r>
       <r>    2.2814    0.0000 </r>
       <r>    2.3978    0.0000 </r>
      </set>
      <set comment="kpoint 32">
       <r>  -17.5602    1.0000 </r>
       <r>  -17.1816    1.0000 </r>
       <r>  -17.0306    1.0000 </r>
       <r>  -16.5792    1.0000 </r>
       <r>  -16.4846    1.0000 </r>
       <r>  -16.3452    1.0000 </r>
       <r>  -16.3004    1.0000 </r>
       <r>  -16.2395    1.0000 </r>
       <r>  -16.1506    1.0000 </r>
       <r>  -16.0430    1.0000 </r>
       <r>  -15.9879    1.0000 </r>
       <r>  -15.9514    1.0000 </r>
       <r>  -15.7711    1.0000 </r>
       <r>  -15.6637    1.0000 </r>
       <r>  -15.6046    1.0000 </r>
       <r>  -15.4734    1.0000 </r>
       <r>  -15.3478    1.0000 </r>
       <r>  -15.2880    1.0000 </r>
       <r>   -9.6995    1.0000 </r>
       <r>   -9.6223    1.0000 </r>
       <r>   -9.3352    1.0000 </r>
       <r>   -8.9840    1.0000 </r>
       <r>   -8.7567    1.0000 </r>
       <r>   -8.6735    1.0000 </r>
       <r>   -8.5500    1.0000 </r>
       <r>   -8.4780    1.0000 </r>
       <r>   -8.4110    1.0000 </r>
       <r>   -8.3304    1.0000 </r>
       <r>   -8.3047    1.0000 </r>
       <r>   -8.2679    1.0000 </r>
       <r>   -8.1748    1.0000 </r>
       <r>   -8.0876    1.0000 </r>
       <r>   -8.0175    1.0000 </r>
       <r>   -7.9146    1.0000 </r>
       <r>   -7.8455    1.0000 </r>
       <r>   -7.5961    1.0000 </r>
       <r>   -7.5357    1.0000 </r>
       <r>   -7.4909    1.0000 </r>
       <r>   -7.3311    1.0000 </r>
       <r>   -7.2854    1.0000 </r>
       <r>   -7.2108    1.0000 </r>
       <r>   -7.0864    1.0000 </r>
       <r>   -6.9998    1.0000 </r>
       <r>   -6.9644    1.0000 </r>
       <r>   -6.8120    1.0000 </r>
       <r>   -6.7731    1.0000 </r>
       <r>   -6.6759    1.0000 </r>
       <r>   -6.6256    1.0000 </r>
       <r>   -6.5538    1.0000 </r>
       <r>   -6.5232    1.0000 </r>
       <r>   -6.4098    1.0000 </r>
       <r>   -6.3804    1.0000 </r>
       <r>   -6.2981    1.0000 </r>
       <r>   -6.1415    1.0000 </r>
       <r>   -6.0515    1.0000 </r>
       <r>   -5.9706    1.0000 </r>
       <r>   -5.9469    1.0000 </r>
       <r>   -5.9185    1.0000 </r>
       <r>   -5.8125    1.0000 </r>
       <r>   -5.7317    1.0000 </r>
       <r>   -5.6629    1.0000 </r>
       <r>   -5.6025    1.0000 </r>
       <r>   -5.5123    1.0000 </r>
       <r>   -5.4044    1.0000 </r>
       <r>   -5.3550    1.0000 </r>
       <r>   -5.2400    1.0000 </r>
       <r>   -5.0295    1.0000 </r>
       <r>   -4.8978    1.0000 </r>
       <r>   -4.8528    1.0000 </r>
       <r>   -4.6994    1.0000 </r>
       <r>   -4.6035    1.0000 </r>
       <r>   -4.4514    1.0000 </r>
       <r>   -4.3060    1.0000 </r>
       <r>   -4.1659    1.0000 </r>
       <r>   -4.0130    1.0000 </r>
       <r>   -3.8563    0.9998 </r>
       <r>   -3.7299    0.9963 </r>
       <r>   -3.6356    0.9779 </r>
       <r>   -3.4887    0.8348 </r>
       <r>   -3.4478    0.7532 </r>
       <r>   -3.0816    0.0284 </r>
       <r>   -2.8227    0.0001 </r>
       <r>   -2.7057    0.0000 </r>
       <r>   -2.5903    0.0000 </r>
       <r>   -2.5599    0.0000 </r>
       <r>   -2.4560    0.0000 </r>
       <r>   -2.2576    0.0000 </r>
       <r>   -2.1312    0.0000 </r>
       <r>   -2.0147    0.0000 </r>
       <r>   -1.9097    0.0000 </r>
       <r>   -1.6945    0.0000 </r>
       <r>   -1.5484    0.0000 </r>
       <r>   -1.4602    0.0000 </r>
       <r>   -1.3604    0.0000 </r>
       <r>   -1.2854    0.0000 </r>
       <r>   -1.2327    0.0000 </r>
       <r>   -1.0743    0.0000 </r>
       <r>   -1.0086    0.0000 </r>
       <r>   -0.9734    0.0000 </r>
       <r>   -0.9045    0.0000 </r>
       <r>   -0.8282    0.0000 </r>
       <r>   -0.7313    0.0000 </r>
       <r>   -0.6460    0.0000 </r>
       <r>   -0.5726    0.0000 </r>
       <r>   -0.3467    0.0000 </r>
       <r>   -0.2805    0.0000 </r>
       <r>   -0.2215    0.0000 </r>
       <r>   -0.1018    0.0000 </r>
       <r>    0.0582    0.0000 </r>
       <r>    0.1425    0.0000 </r>
       <r>    0.2837    0.0000 </r>
       <r>    0.5606    0.0000 </r>
       <r>    0.7181    0.0000 </r>
       <r>    0.9315    0.0000 </r>
       <r>    1.1044    0.0000 </r>
       <r>    1.2705    0.0000 </r>
       <r>    1.3706    0.0000 </r>
       <r>    2.1090    0.0000 </r>
       <r>    2.2529    0.0000 </r>
       <r>    2.5792    0.0000 </r>
      </set>
      <set comment="kpoint 33">
       <r>  -17.5239    1.0000 </r>
       <r>  -17.3029    1.0000 </r>
       <r>  -16.8970    1.0000 </r>
       <r>  -16.5904    1.0000 </r>
       <r>  -16.4844    1.0000 </r>
       <r>  -16.4669    1.0000 </r>
       <r>  -16.2986    1.0000 </r>
       <r>  -16.1705    1.0000 </r>
       <r>  -16.1502    1.0000 </r>
       <r>  -16.0373    1.0000 </r>
       <r>  -15.9940    1.0000 </r>
       <r>  -15.8981    1.0000 </r>
       <r>  -15.7930    1.0000 </r>
       <r>  -15.6845    1.0000 </r>
       <r>  -15.5915    1.0000 </r>
       <r>  -15.4842    1.0000 </r>
       <r>  -15.3488    1.0000 </r>
       <r>  -15.2866    1.0000 </r>
       <r>   -9.8026    1.0000 </r>
       <r>   -9.4503    1.0000 </r>
       <r>   -9.3198    1.0000 </r>
       <r>   -8.9645    1.0000 </r>
       <r>   -8.8111    1.0000 </r>
       <r>   -8.7661    1.0000 </r>
       <r>   -8.6134    1.0000 </r>
       <r>   -8.5554    1.0000 </r>
       <r>   -8.4072    1.0000 </r>
       <r>   -8.3408    1.0000 </r>
       <r>   -8.2728    1.0000 </r>
       <r>   -8.2178    1.0000 </r>
       <r>   -8.1311    1.0000 </r>
       <r>   -8.0681    1.0000 </r>
       <r>   -7.9678    1.0000 </r>
       <r>   -7.8995    1.0000 </r>
       <r>   -7.7889    1.0000 </r>
       <r>   -7.6341    1.0000 </r>
       <r>   -7.5594    1.0000 </r>
       <r>   -7.4986    1.0000 </r>
       <r>   -7.3538    1.0000 </r>
       <r>   -7.2568    1.0000 </r>
       <r>   -7.1304    1.0000 </r>
       <r>   -7.0764    1.0000 </r>
       <r>   -7.0424    1.0000 </r>
       <r>   -6.9259    1.0000 </r>
       <r>   -6.8773    1.0000 </r>
       <r>   -6.7617    1.0000 </r>
       <r>   -6.6747    1.0000 </r>
       <r>   -6.6365    1.0000 </r>
       <r>   -6.5747    1.0000 </r>
       <r>   -6.5380    1.0000 </r>
       <r>   -6.4248    1.0000 </r>
       <r>   -6.3398    1.0000 </r>
       <r>   -6.2640    1.0000 </r>
       <r>   -6.1826    1.0000 </r>
       <r>   -6.0846    1.0000 </r>
       <r>   -6.0190    1.0000 </r>
       <r>   -5.9287    1.0000 </r>
       <r>   -5.8892    1.0000 </r>
       <r>   -5.8632    1.0000 </r>
       <r>   -5.7414    1.0000 </r>
       <r>   -5.7121    1.0000 </r>
       <r>   -5.6511    1.0000 </r>
       <r>   -5.5110    1.0000 </r>
       <r>   -5.3935    1.0000 </r>
       <r>   -5.3144    1.0000 </r>
       <r>   -5.1348    1.0000 </r>
       <r>   -5.0568    1.0000 </r>
       <r>   -4.9093    1.0000 </r>
       <r>   -4.7709    1.0000 </r>
       <r>   -4.6623    1.0000 </r>
       <r>   -4.5656    1.0000 </r>
       <r>   -4.4544    1.0000 </r>
       <r>   -4.3074    1.0000 </r>
       <r>   -4.1898    1.0000 </r>
       <r>   -4.0094    1.0000 </r>
       <r>   -3.8900    0.9999 </r>
       <r>   -3.7990    0.9992 </r>
       <r>   -3.6568    0.9847 </r>
       <r>   -3.4837    0.8260 </r>
       <r>   -3.4409    0.7374 </r>
       <r>   -3.1227    0.0532 </r>
       <r>   -2.8201    0.0001 </r>
       <r>   -2.6636    0.0000 </r>
       <r>   -2.5926    0.0000 </r>
       <r>   -2.5156    0.0000 </r>
       <r>   -2.4530    0.0000 </r>
       <r>   -2.2537    0.0000 </r>
       <r>   -2.1030    0.0000 </r>
       <r>   -2.0171    0.0000 </r>
       <r>   -1.9228    0.0000 </r>
       <r>   -1.7098    0.0000 </r>
       <r>   -1.5692    0.0000 </r>
       <r>   -1.4449    0.0000 </r>
       <r>   -1.3594    0.0000 </r>
       <r>   -1.2818    0.0000 </r>
       <r>   -1.2049    0.0000 </r>
       <r>   -1.0946    0.0000 </r>
       <r>   -1.0268    0.0000 </r>
       <r>   -0.9396    0.0000 </r>
       <r>   -0.8932    0.0000 </r>
       <r>   -0.8133    0.0000 </r>
       <r>   -0.7467    0.0000 </r>
       <r>   -0.6475    0.0000 </r>
       <r>   -0.5349    0.0000 </r>
       <r>   -0.4182    0.0000 </r>
       <r>   -0.3427    0.0000 </r>
       <r>   -0.2373    0.0000 </r>
       <r>   -0.1033    0.0000 </r>
       <r>    0.0854    0.0000 </r>
       <r>    0.2424    0.0000 </r>
       <r>    0.2837    0.0000 </r>
       <r>    0.5650    0.0000 </r>
       <r>    0.6953    0.0000 </r>
       <r>    0.9209    0.0000 </r>
       <r>    1.0902    0.0000 </r>
       <r>    1.3066    0.0000 </r>
       <r>    1.3736    0.0000 </r>
       <r>    2.1409    0.0000 </r>
       <r>    2.2894    0.0000 </r>
       <r>    2.3999    0.0000 </r>
      </set>
      <set comment="kpoint 34">
       <r>  -17.4825    1.0000 </r>
       <r>  -17.3809    1.0000 </r>
       <r>  -16.7390    1.0000 </r>
       <r>  -16.6843    1.0000 </r>
       <r>  -16.5444    1.0000 </r>
       <r>  -16.4813    1.0000 </r>
       <r>  -16.2951    1.0000 </r>
       <r>  -16.1772    1.0000 </r>
       <r>  -16.1167    1.0000 </r>
       <r>  -16.0376    1.0000 </r>
       <r>  -15.9901    1.0000 </r>
       <r>  -15.8367    1.0000 </r>
       <r>  -15.8061    1.0000 </r>
       <r>  -15.7133    1.0000 </r>
       <r>  -15.5869    1.0000 </r>
       <r>  -15.4950    1.0000 </r>
       <r>  -15.3492    1.0000 </r>
       <r>  -15.2868    1.0000 </r>
       <r>   -9.8408    1.0000 </r>
       <r>   -9.3305    1.0000 </r>
       <r>   -9.2654    1.0000 </r>
       <r>   -9.0170    1.0000 </r>
       <r>   -8.8928    1.0000 </r>
       <r>   -8.8195    1.0000 </r>
       <r>   -8.6774    1.0000 </r>
       <r>   -8.5757    1.0000 </r>
       <r>   -8.4055    1.0000 </r>
       <r>   -8.3514    1.0000 </r>
       <r>   -8.2366    1.0000 </r>
       <r>   -8.1877    1.0000 </r>
       <r>   -8.1526    1.0000 </r>
       <r>   -7.9842    1.0000 </r>
       <r>   -7.9543    1.0000 </r>
       <r>   -7.8938    1.0000 </r>
       <r>   -7.6795    1.0000 </r>
       <r>   -7.6489    1.0000 </r>
       <r>   -7.5518    1.0000 </r>
       <r>   -7.5373    1.0000 </r>
       <r>   -7.3581    1.0000 </r>
       <r>   -7.3465    1.0000 </r>
       <r>   -7.1620    1.0000 </r>
       <r>   -7.0061    1.0000 </r>
       <r>   -6.9855    1.0000 </r>
       <r>   -6.9415    1.0000 </r>
       <r>   -6.8677    1.0000 </r>
       <r>   -6.7517    1.0000 </r>
       <r>   -6.6836    1.0000 </r>
       <r>   -6.6352    1.0000 </r>
       <r>   -6.5903    1.0000 </r>
       <r>   -6.4836    1.0000 </r>
       <r>   -6.4539    1.0000 </r>
       <r>   -6.3724    1.0000 </r>
       <r>   -6.2709    1.0000 </r>
       <r>   -6.2081    1.0000 </r>
       <r>   -6.0811    1.0000 </r>
       <r>   -6.0469    1.0000 </r>
       <r>   -5.9864    1.0000 </r>
       <r>   -5.8770    1.0000 </r>
       <r>   -5.8509    1.0000 </r>
       <r>   -5.7438    1.0000 </r>
       <r>   -5.7180    1.0000 </r>
       <r>   -5.6324    1.0000 </r>
       <r>   -5.5750    1.0000 </r>
       <r>   -5.4356    1.0000 </r>
       <r>   -5.3307    1.0000 </r>
       <r>   -5.0329    1.0000 </r>
       <r>   -4.9651    1.0000 </r>
       <r>   -4.9229    1.0000 </r>
       <r>   -4.8022    1.0000 </r>
       <r>   -4.6533    1.0000 </r>
       <r>   -4.5095    1.0000 </r>
       <r>   -4.4164    1.0000 </r>
       <r>   -4.3036    1.0000 </r>
       <r>   -4.2144    1.0000 </r>
       <r>   -4.0083    1.0000 </r>
       <r>   -3.8993    0.9999 </r>
       <r>   -3.8655    0.9999 </r>
       <r>   -3.6688    0.9877 </r>
       <r>   -3.4865    0.8310 </r>
       <r>   -3.4368    0.7279 </r>
       <r>   -3.1444    0.0720 </r>
       <r>   -2.8182    0.0001 </r>
       <r>   -2.6529    0.0000 </r>
       <r>   -2.5939    0.0000 </r>
       <r>   -2.4914    0.0000 </r>
       <r>   -2.4511    0.0000 </r>
       <r>   -2.2529    0.0000 </r>
       <r>   -2.0920    0.0000 </r>
       <r>   -2.0073    0.0000 </r>
       <r>   -1.9159    0.0000 </r>
       <r>   -1.7215    0.0000 </r>
       <r>   -1.5855    0.0000 </r>
       <r>   -1.4319    0.0000 </r>
       <r>   -1.3599    0.0000 </r>
       <r>   -1.2802    0.0000 </r>
       <r>   -1.1674    0.0000 </r>
       <r>   -1.1388    0.0000 </r>
       <r>   -1.0314    0.0000 </r>
       <r>   -0.9237    0.0000 </r>
       <r>   -0.8772    0.0000 </r>
       <r>   -0.8073    0.0000 </r>
       <r>   -0.7699    0.0000 </r>
       <r>   -0.6295    0.0000 </r>
       <r>   -0.5228    0.0000 </r>
       <r>   -0.4531    0.0000 </r>
       <r>   -0.4037    0.0000 </r>
       <r>   -0.2260    0.0000 </r>
       <r>   -0.1052    0.0000 </r>
       <r>    0.0761    0.0000 </r>
       <r>    0.2807    0.0000 </r>
       <r>    0.3242    0.0000 </r>
       <r>    0.5595    0.0000 </r>
       <r>    0.6728    0.0000 </r>
       <r>    0.9231    0.0000 </r>
       <r>    1.1007    0.0000 </r>
       <r>    1.3267    0.0000 </r>
       <r>    1.3738    0.0000 </r>
       <r>    2.2215    0.0000 </r>
       <r>    2.2551    0.0000 </r>
       <r>    2.3713    0.0000 </r>
      </set>
     </set>
    </set>
   </array>
  </eigenvalues>
  <separator name="orbital magnetization" >
   <v name="MAGDIPOLOUT">      0.00000000      0.00000000      0.00000000</v>
  </separator>
 </calculation>
 <structure name="finalpos" >
  <crystal>
   <varray name="basis" >
    <v>       8.34487649       4.84980362       0.00000000 </v>
    <v>      -8.31828841       4.80389596       0.00000000 </v>
    <v>       0.00000000       0.00000000      30.00000000 </v>
   </varray>
   <i name="volume">   2412.89951170 </i>
   <varray name="rec_basis" >
    <v>       0.05972768       0.10342273       0.00000000 </v>
    <v>      -0.06029845       0.10375330       0.00000000 </v>
    <v>       0.00000000       0.00000000       0.03333333 </v>
   </varray>
  </crystal>
  <varray name="positions" >
   <v>       0.36763291       0.33845274      -0.00119232 </v>
   <v>       0.37117502       0.02450845      -0.00102273 </v>
   <v>       0.96869038       0.30256217       0.00123966 </v>
   <v>       0.67591645       0.00291938      -0.00063914 </v>
   <v>       0.67124322       0.33433212       0.00005695 </v>
   <v>      -0.03695621      -0.02031874       0.00213936 </v>
   <v>      -0.02434877       0.66381949       0.00087028 </v>
   <v>       0.31715983       0.68547782       0.00012861 </v>
   <v>       0.69201434       0.67238153      -0.00110054 </v>
   <v>       0.11145487       0.22170809       0.95564805 </v>
   <v>       0.22596212       0.11308539       0.04405990 </v>
   <v>       0.09818162       0.54480268       0.95196620 </v>
   <v>       0.21970892       0.43769509       0.04290687 </v>
   <v>       0.11792574       0.89709297       0.95513299 </v>
   <v>       0.22321717       0.79758273       0.05077599 </v>
   <v>       0.45119920       0.22261272       0.94606014 </v>
   <v>       0.55948197       0.11259602       0.05272249 </v>
   <v>       0.44346964       0.55675681       0.95264485 </v>
   <v>       0.55989442       0.44600692       0.05208338 </v>
   <v>       0.44288989       0.89354485       0.94667210 </v>
   <v>       0.54797191       0.76728146       0.04786129 </v>
   <v>       0.78190514       0.21937408       0.94619536 </v>
   <v>       0.88410426       0.11066982       0.05582389 </v>
   <v>       0.77750692       0.55255067       0.94428049 </v>
   <v>       0.89715034       0.44413756       0.05235312 </v>
   <v>       0.77020463       0.88187516       0.94439381 </v>
   <v>       0.88345851       0.77470646       0.05793887 </v>
  </varray>
 </structure>
</modeling>
