   27   27  100    1
  0.9710400E+02  0.1002848E-08  0.1002848E-08  0.3000000E-08  0.5000000E-15
  1.000000000000000E-004
  CAR 
 unknown system                          
    159     34    120
 
  0.0000000E+00  0.0000000E+00  0.0000000E+00  0.1562500E-01
    1      -17.793477   1.000000
    2      -16.694059   1.000000
    3      -16.585949   1.000000
    4      -16.565815   1.000000
    5      -16.501929   1.000000
    6      -16.422418   1.000000
    7      -16.367111   1.000000
    8      -16.309620   1.000000
    9      -16.159130   1.000000
   10      -16.093448   1.000000
   11      -16.080388   1.000000
   12      -16.018555   1.000000
   13      -15.826660   1.000000
   14      -15.735173   1.000000
   15      -15.614083   1.000000
   16      -15.515418   1.000000
   17      -15.478160   1.000000
   18      -15.365461   1.000000
   19       -9.202259   1.000000
   20       -8.924885   1.000000
   21       -8.845178   1.000000
   22       -8.823059   1.000000
   23       -8.751791   1.000000
   24       -8.667096   1.000000
   25       -8.601273   1.000000
   26       -8.553111   1.000000
   27       -8.509639   1.000000
   28       -8.388302   1.000000
   29       -8.379128   1.000000
   30       -8.336872   1.000000
   31       -8.294369   1.000000
   32       -8.217732   1.000000
   33       -8.195357   1.000000
   34       -8.045502   1.000000
   35       -7.875600   1.000000
   36       -7.816006   1.000000
   37       -7.712596   1.000000
   38       -7.549187   1.000000
   39       -7.447862   1.000000
   40       -7.358187   1.000000
   41       -7.316837   1.000000
   42       -7.302445   1.000000
   43       -7.154610   1.000000
   44       -6.981373   1.000000
   45       -6.841303   1.000000
   46       -6.774563   1.000000
   47       -6.749222   1.000000
   48       -6.645759   1.000000
   49       -6.534999   1.000000
   50       -6.518927   1.000000
   51       -6.479156   1.000000
   52       -6.381007   1.000000
   53       -6.339298   1.000000
   54       -6.297719   1.000000
   55       -6.175974   1.000000
   56       -6.065422   1.000000
   57       -6.026286   1.000000
   58       -5.905137   1.000000
   59       -5.695839   1.000000
   60       -5.587002   1.000000
   61       -5.564861   1.000000
   62       -5.407681   1.000000
   63       -5.350669   1.000000
   64       -5.123492   1.000000
   65       -5.098518   1.000000
   66       -4.996909   1.000000
   67       -4.865426   1.000000
   68       -4.793962   1.000000
   69       -4.723028   1.000000
   70       -4.669469   1.000000
   71       -4.589449   1.000000
   72       -4.567684   1.000000
   73       -4.536369   1.000000
   74       -4.250907   1.000000
   75       -4.175478   1.000000
   76       -4.038893   1.000000
   77       -3.627750   0.998546
   78       -3.543546   0.991388
   79       -3.449831   0.957212
   80       -3.385289   0.896674
   81       -3.271460   0.676501
   82       -2.865891   0.007979
   83       -2.695738   0.000151
   84       -2.601584   0.000009
   85       -2.556245   0.000002
   86       -2.436901   0.000000
   87       -2.259833   0.000000
   88       -2.225108   0.000000
   89       -2.086721   0.000000
   90       -1.921045   0.000000
   91       -1.781059   0.000000
   92       -1.718134   0.000000
   93       -1.581808   0.000000
   94       -1.399415   0.000000
   95       -1.327423   0.000000
   96       -1.108239   0.000000
   97       -1.014448   0.000000
   98       -0.954235   0.000000
   99       -0.714124   0.000000
  100       -0.694742   0.000000
  101       -0.525414   0.000000
  102       -0.464776   0.000000
  103       -0.343716   0.000000
  104       -0.329796   0.000000
  105       -0.156110   0.000000
  106       -0.094582   0.000000
  107        0.025414   0.000000
  108        0.057719   0.000000
  109        0.187516   0.000000
  110        0.200779   0.000000
  111        0.254388   0.000000
  112        0.390962   0.000000
  113        0.557517   0.000000
  114        0.696432   0.000000
  115        1.128122   0.000000
  116        1.233645   0.000000
  117        1.311352   0.000000
  118        1.646959   0.000000
  119        1.832903   0.000000
  120        2.163065   0.000000
 
  0.1250000E+00  0.2775558E-16  0.0000000E+00  0.3125000E-01
    1      -17.767796   1.000000
    2      -16.717342   1.000000
    3      -16.699794   1.000000
    4      -16.600527   1.000000
    5      -16.543010   1.000000
    6      -16.387914   1.000000
    7      -16.289128   1.000000
    8      -16.276223   1.000000
    9      -16.178153   1.000000
   10      -16.090091   1.000000
   11      -16.030223   1.000000
   12      -15.986401   1.000000
   13      -15.821878   1.000000
   14      -15.713044   1.000000
   15      -15.631104   1.000000
   16      -15.516388   1.000000
   17      -15.494971   1.000000
   18      -15.370442   1.000000
   19       -9.180830   1.000000
   20       -9.118690   1.000000
   21       -8.961633   1.000000
   22       -8.928667   1.000000
   23       -8.796025   1.000000
   24       -8.701132   1.000000
   25       -8.588942   1.000000
   26       -8.531816   1.000000
   27       -8.465134   1.000000
   28       -8.437005   1.000000
   29       -8.326861   1.000000
   30       -8.295116   1.000000
   31       -8.220240   1.000000
   32       -8.126363   1.000000
   33       -8.050836   1.000000
   34       -7.971018   1.000000
   35       -7.814964   1.000000
   36       -7.733714   1.000000
   37       -7.656644   1.000000
   38       -7.588139   1.000000
   39       -7.507279   1.000000
   40       -7.425404   1.000000
   41       -7.296758   1.000000
   42       -7.198948   1.000000
   43       -7.133060   1.000000
   44       -7.039703   1.000000
   45       -6.925959   1.000000
   46       -6.824407   1.000000
   47       -6.726686   1.000000
   48       -6.602641   1.000000
   49       -6.552976   1.000000
   50       -6.483862   1.000000
   51       -6.451124   1.000000
   52       -6.401650   1.000000
   53       -6.312587   1.000000
   54       -6.295673   1.000000
   55       -6.216708   1.000000
   56       -6.126474   1.000000
   57       -5.942808   1.000000
   58       -5.923233   1.000000
   59       -5.685346   1.000000
   60       -5.569552   1.000000
   61       -5.525767   1.000000
   62       -5.482407   1.000000
   63       -5.327350   1.000000
   64       -5.215484   1.000000
   65       -5.109874   1.000000
   66       -5.032594   1.000000
   67       -4.922544   1.000000
   68       -4.870800   1.000000
   69       -4.756640   1.000000
   70       -4.695316   1.000000
   71       -4.620293   1.000000
   72       -4.572926   1.000000
   73       -4.401366   1.000000
   74       -4.151086   1.000000
   75       -4.052814   1.000000
   76       -3.986119   1.000000
   77       -3.790125   0.999981
   78       -3.698086   0.999744
   79       -3.474502   0.970865
   80       -3.302078   0.749983
   81       -3.148023   0.339110
   82       -2.846730   0.005458
   83       -2.712131   0.000235
   84       -2.617002   0.000015
   85       -2.559863   0.000002
   86       -2.406292   0.000000
   87       -2.277259   0.000000
   88       -2.205228   0.000000
   89       -2.057613   0.000000
   90       -1.928287   0.000000
   91       -1.769614   0.000000
   92       -1.731681   0.000000
   93       -1.582028   0.000000
   94       -1.375621   0.000000
   95       -1.329040   0.000000
   96       -1.114656   0.000000
   97       -0.979239   0.000000
   98       -0.937891   0.000000
   99       -0.763772   0.000000
  100       -0.708280   0.000000
  101       -0.605292   0.000000
  102       -0.527896   0.000000
  103       -0.465215   0.000000
  104       -0.300168   0.000000
  105       -0.248415   0.000000
  106       -0.198098   0.000000
  107       -0.031302   0.000000
  108        0.045052   0.000000
  109        0.184368   0.000000
  110        0.246500   0.000000
  111        0.293679   0.000000
  112        0.444411   0.000000
  113        0.628492   0.000000
  114        0.801982   0.000000
  115        1.119559   0.000000
  116        1.191862   0.000000
  117        1.320231   0.000000
  118        1.691586   0.000000
  119        1.872009   0.000000
  120        2.198388   0.000000
 
  0.2500000E+00  0.5551115E-16  0.0000000E+00  0.3125000E-01
    1      -17.691925   1.000000
    2      -16.947638   1.000000
    3      -16.722758   1.000000
    4      -16.647132   1.000000
    5      -16.567284   1.000000
    6      -16.355301   1.000000
    7      -16.287119   1.000000
    8      -16.190664   1.000000
    9      -16.145001   1.000000
   10      -16.074998   1.000000
   11      -15.987872   1.000000
   12      -15.885486   1.000000
   13      -15.806030   1.000000
   14      -15.685444   1.000000
   15      -15.647591   1.000000
   16      -15.548276   1.000000
   17      -15.509165   1.000000
   18      -15.384410   1.000000
   19       -9.455119   1.000000
   20       -9.156848   1.000000
   21       -9.110037   1.000000
   22       -8.986629   1.000000
   23       -8.880238   1.000000
   24       -8.818796   1.000000
   25       -8.576430   1.000000
   26       -8.502106   1.000000
   27       -8.451714   1.000000
   28       -8.370721   1.000000
   29       -8.274787   1.000000
   30       -8.224332   1.000000
   31       -8.135184   1.000000
   32       -8.079579   1.000000
   33       -7.906081   1.000000
   34       -7.841856   1.000000
   35       -7.771543   1.000000
   36       -7.660086   1.000000
   37       -7.599299   1.000000
   38       -7.506186   1.000000
   39       -7.440949   1.000000
   40       -7.401239   1.000000
   41       -7.267492   1.000000
   42       -7.156633   1.000000
   43       -7.115801   1.000000
   44       -7.002466   1.000000
   45       -6.957822   1.000000
   46       -6.847809   1.000000
   47       -6.763323   1.000000
   48       -6.617235   1.000000
   49       -6.584878   1.000000
   50       -6.489077   1.000000
   51       -6.446830   1.000000
   52       -6.383062   1.000000
   53       -6.295239   1.000000
   54       -6.241689   1.000000
   55       -6.176830   1.000000
   56       -6.119265   1.000000
   57       -5.976522   1.000000
   58       -5.860467   1.000000
   59       -5.731233   1.000000
   60       -5.667385   1.000000
   61       -5.599095   1.000000
   62       -5.527733   1.000000
   63       -5.396132   1.000000
   64       -5.327930   1.000000
   65       -5.256821   1.000000
   66       -5.078719   1.000000
   67       -4.942532   1.000000
   68       -4.915692   1.000000
   69       -4.773870   1.000000
   70       -4.696111   1.000000
   71       -4.553074   1.000000
   72       -4.454547   1.000000
   73       -4.305078   1.000000
   74       -4.247055   1.000000
   75       -4.028187   1.000000
   76       -3.930082   1.000000
   77       -3.862643   0.999998
   78       -3.746073   0.999932
   79       -3.485911   0.975828
   80       -3.180683   0.427027
   81       -3.036862   0.114892
   82       -2.820696   0.003172
   83       -2.754676   0.000696
   84       -2.619782   0.000017
   85       -2.544290   0.000001
   86       -2.407756   0.000000
   87       -2.289227   0.000000
   88       -2.142301   0.000000
   89       -1.999749   0.000000
   90       -1.927465   0.000000
   91       -1.796687   0.000000
   92       -1.705083   0.000000
   93       -1.584137   0.000000
   94       -1.341822   0.000000
   95       -1.326581   0.000000
   96       -1.115721   0.000000
   97       -0.958799   0.000000
   98       -0.902726   0.000000
   99       -0.863326   0.000000
  100       -0.800979   0.000000
  101       -0.708650   0.000000
  102       -0.664844   0.000000
  103       -0.571876   0.000000
  104       -0.490107   0.000000
  105       -0.324588   0.000000
  106       -0.273830   0.000000
  107       -0.135669   0.000000
  108       -0.086165   0.000000
  109        0.151018   0.000000
  110        0.286965   0.000000
  111        0.424452   0.000000
  112        0.516442   0.000000
  113        0.769304   0.000000
  114        0.903656   0.000000
  115        1.078148   0.000000
  116        1.221545   0.000000
  117        1.363716   0.000000
  118        1.815247   0.000000
  119        1.984580   0.000000
  120        2.303264   0.000000
 
  0.3750000E+00  0.0000000E+00  0.0000000E+00  0.3125000E-01
    1      -17.570828   1.000000
    2      -17.173994   1.000000
    3      -16.746858   1.000000
    4      -16.684906   1.000000
    5      -16.563788   1.000000
    6      -16.367270   1.000000
    7      -16.287951   1.000000
    8      -16.146239   1.000000
    9      -16.103347   1.000000
   10      -16.025921   1.000000
   11      -15.930657   1.000000
   12      -15.839575   1.000000
   13      -15.766760   1.000000
   14      -15.727490   1.000000
   15      -15.636553   1.000000
   16      -15.583988   1.000000
   17      -15.500440   1.000000
   18      -15.396388   1.000000
   19       -9.685581   1.000000
   20       -9.263264   1.000000
   21       -9.173386   1.000000
   22       -8.951215   1.000000
   23       -8.927419   1.000000
   24       -8.869317   1.000000
   25       -8.541836   1.000000
   26       -8.469217   1.000000
   27       -8.389546   1.000000
   28       -8.347822   1.000000
   29       -8.294907   1.000000
   30       -8.211337   1.000000
   31       -8.143916   1.000000
   32       -8.022398   1.000000
   33       -7.915184   1.000000
   34       -7.883286   1.000000
   35       -7.703596   1.000000
   36       -7.636411   1.000000
   37       -7.549197   1.000000
   38       -7.463001   1.000000
   39       -7.350754   1.000000
   40       -7.281651   1.000000
   41       -7.213548   1.000000
   42       -7.114585   1.000000
   43       -7.048267   1.000000
   44       -6.945975   1.000000
   45       -6.867050   1.000000
   46       -6.827352   1.000000
   47       -6.689897   1.000000
   48       -6.638669   1.000000
   49       -6.601175   1.000000
   50       -6.505172   1.000000
   51       -6.408366   1.000000
   52       -6.316588   1.000000
   53       -6.277205   1.000000
   54       -6.225986   1.000000
   55       -6.090009   1.000000
   56       -6.054205   1.000000
   57       -6.016428   1.000000
   58       -5.938486   1.000000
   59       -5.861147   1.000000
   60       -5.788522   1.000000
   61       -5.738425   1.000000
   62       -5.669420   1.000000
   63       -5.539215   1.000000
   64       -5.423502   1.000000
   65       -5.236068   1.000000
   66       -5.049918   1.000000
   67       -4.913061   1.000000
   68       -4.888017   1.000000
   69       -4.774492   1.000000
   70       -4.721742   1.000000
   71       -4.616553   1.000000
   72       -4.511478   1.000000
   73       -4.314567   1.000000
   74       -4.245770   1.000000
   75       -4.136646   1.000000
   76       -3.894737   0.999999
   77       -3.784333   0.999978
   78       -3.541901   0.991112
   79       -3.499490   0.980790
   80       -3.123849   0.278995
   81       -2.976200   0.051565
   82       -2.827555   0.003671
   83       -2.773473   0.001094
   84       -2.590116   0.000007
   85       -2.520781   0.000001
   86       -2.446049   0.000000
   87       -2.286602   0.000000
   88       -2.081583   0.000000
   89       -1.978512   0.000000
   90       -1.871902   0.000000
   91       -1.816216   0.000000
   92       -1.681865   0.000000
   93       -1.584979   0.000000
   94       -1.345516   0.000000
   95       -1.314130   0.000000
   96       -1.125349   0.000000
   97       -1.038296   0.000000
   98       -0.982955   0.000000
   99       -0.905798   0.000000
  100       -0.842299   0.000000
  101       -0.776146   0.000000
  102       -0.711813   0.000000
  103       -0.651029   0.000000
  104       -0.586324   0.000000
  105       -0.448787   0.000000
  106       -0.335641   0.000000
  107       -0.213945   0.000000
  108       -0.169260   0.000000
  109        0.104824   0.000000
  110        0.306569   0.000000
  111        0.453184   0.000000
  112        0.562438   0.000000
  113        0.890499   0.000000
  114        0.930688   0.000000
  115        1.029971   0.000000
  116        1.314475   0.000000
  117        1.453910   0.000000
  118        1.999656   0.000000
  119        2.160641   0.000000
  120        2.474835   0.000000
 
  0.5000000E+00  0.1110223E-15  0.0000000E+00  0.1562500E-01
    1      -17.453638   1.000000
    2      -17.327746   1.000000
    3      -16.756605   1.000000
    4      -16.698818   1.000000
    5      -16.558003   1.000000
    6      -16.379866   1.000000
    7      -16.285988   1.000000
    8      -16.143705   1.000000
    9      -16.073402   1.000000
   10      -16.002388   1.000000
   11      -15.887940   1.000000
   12      -15.836956   1.000000
   13      -15.773666   1.000000
   14      -15.712493   1.000000
   15      -15.675328   1.000000
   16      -15.582276   1.000000
   17      -15.494672   1.000000
   18      -15.396359   1.000000
   19       -9.767594   1.000000
   20       -9.304566   1.000000
   21       -9.205422   1.000000
   22       -8.973209   1.000000
   23       -8.946802   1.000000
   24       -8.780146   1.000000
   25       -8.552760   1.000000
   26       -8.494361   1.000000
   27       -8.402755   1.000000
   28       -8.325864   1.000000
   29       -8.279388   1.000000
   30       -8.209366   1.000000
   31       -8.123533   1.000000
   32       -7.994908   1.000000
   33       -7.924769   1.000000
   34       -7.894582   1.000000
   35       -7.772185   1.000000
   36       -7.625472   1.000000
   37       -7.575959   1.000000
   38       -7.408091   1.000000
   39       -7.378037   1.000000
   40       -7.209508   1.000000
   41       -7.119965   1.000000
   42       -7.088904   1.000000
   43       -6.946206   1.000000
   44       -6.908543   1.000000
   45       -6.879702   1.000000
   46       -6.762805   1.000000
   47       -6.739657   1.000000
   48       -6.627689   1.000000
   49       -6.568600   1.000000
   50       -6.421101   1.000000
   51       -6.388329   1.000000
   52       -6.337336   1.000000
   53       -6.330215   1.000000
   54       -6.187961   1.000000
   55       -6.162184   1.000000
   56       -6.052043   1.000000
   57       -6.018894   1.000000
   58       -5.923229   1.000000
   59       -5.909240   1.000000
   60       -5.840165   1.000000
   61       -5.769713   1.000000
   62       -5.620888   1.000000
   63       -5.531086   1.000000
   64       -5.482779   1.000000
   65       -5.353154   1.000000
   66       -5.148070   1.000000
   67       -4.911836   1.000000
   68       -4.872645   1.000000
   69       -4.827782   1.000000
   70       -4.712489   1.000000
   71       -4.569787   1.000000
   72       -4.511292   1.000000
   73       -4.358756   1.000000
   74       -4.248251   1.000000
   75       -4.132427   1.000000
   76       -3.871549   0.999999
   77       -3.726929   0.999883
   78       -3.533505   0.989580
   79       -3.440958   0.951187
   80       -3.119926   0.269750
   81       -2.957512   0.039034
   82       -2.835860   0.004368
   83       -2.774130   0.001111
   84       -2.570082   0.000003
   85       -2.506038   0.000000
   86       -2.465470   0.000000
   87       -2.288062   0.000000
   88       -2.068163   0.000000
   89       -1.955239   0.000000
   90       -1.870216   0.000000
   91       -1.796814   0.000000
   92       -1.680216   0.000000
   93       -1.579607   0.000000
   94       -1.341325   0.000000
   95       -1.325457   0.000000
   96       -1.152715   0.000000
   97       -1.084972   0.000000
   98       -1.016504   0.000000
   99       -0.934582   0.000000
  100       -0.845828   0.000000
  101       -0.778688   0.000000
  102       -0.723668   0.000000
  103       -0.684710   0.000000
  104       -0.596290   0.000000
  105       -0.517582   0.000000
  106       -0.353382   0.000000
  107       -0.236674   0.000000
  108       -0.205365   0.000000
  109        0.086872   0.000000
  110        0.310445   0.000000
  111        0.440304   0.000000
  112        0.580723   0.000000
  113        0.923840   0.000000
  114        0.960573   0.000000
  115        1.009114   0.000000
  116        1.344429   0.000000
  117        1.502882   0.000000
  118        2.209589   0.000000
  119        2.264305   0.000000
  120        2.373064   0.000000
 
  0.0000000E+00  0.1250000E+00  0.0000000E+00  0.3125000E-01
    1      -17.768019   1.000000
    2      -16.765381   1.000000
    3      -16.651618   1.000000
    4      -16.609852   1.000000
    5      -16.508330   1.000000
    6      -16.381687   1.000000
    7      -16.317985   1.000000
    8      -16.271124   1.000000
    9      -16.164824   1.000000
   10      -16.147093   1.000000
   11      -16.024285   1.000000
   12      -15.947006   1.000000
   13      -15.816798   1.000000
   14      -15.730801   1.000000
   15      -15.627548   1.000000
   16      -15.532579   1.000000
   17      -15.479285   1.000000
   18      -15.370720   1.000000
   19       -9.218691   1.000000
   20       -9.080550   1.000000
   21       -8.959632   1.000000
   22       -8.872815   1.000000
   23       -8.815830   1.000000
   24       -8.697807   1.000000
   25       -8.665580   1.000000
   26       -8.530280   1.000000
   27       -8.506556   1.000000
   28       -8.407125   1.000000
   29       -8.311472   1.000000
   30       -8.251856   1.000000
   31       -8.197169   1.000000
   32       -8.148998   1.000000
   33       -8.021995   1.000000
   34       -7.976762   1.000000
   35       -7.820712   1.000000
   36       -7.759225   1.000000
   37       -7.676444   1.000000
   38       -7.591036   1.000000
   39       -7.510132   1.000000
   40       -7.406100   1.000000
   41       -7.299775   1.000000
   42       -7.208375   1.000000
   43       -7.127173   1.000000
   44       -7.033208   1.000000
   45       -6.889344   1.000000
   46       -6.808684   1.000000
   47       -6.738030   1.000000
   48       -6.621470   1.000000
   49       -6.570135   1.000000
   50       -6.523482   1.000000
   51       -6.446889   1.000000
   52       -6.376144   1.000000
   53       -6.326994   1.000000
   54       -6.292659   1.000000
   55       -6.193578   1.000000
   56       -6.106672   1.000000
   57       -5.982697   1.000000
   58       -5.904436   1.000000
   59       -5.727332   1.000000
   60       -5.572848   1.000000
   61       -5.507530   1.000000
   62       -5.434674   1.000000
   63       -5.344399   1.000000
   64       -5.229342   1.000000
   65       -5.145780   1.000000
   66       -5.016333   1.000000
   67       -4.942250   1.000000
   68       -4.840018   1.000000
   69       -4.771007   1.000000
   70       -4.701671   1.000000
   71       -4.603041   1.000000
   72       -4.548369   1.000000
   73       -4.357434   1.000000
   74       -4.185536   1.000000
   75       -4.059937   1.000000
   76       -4.004052   1.000000
   77       -3.767409   0.999963
   78       -3.697502   0.999740
   79       -3.517907   0.986117
   80       -3.258731   0.643537
   81       -3.155839   0.359564
   82       -2.869717   0.008590
   83       -2.686431   0.000117
   84       -2.627513   0.000021
   85       -2.547997   0.000002
   86       -2.448049   0.000000
   87       -2.245916   0.000000
   88       -2.207967   0.000000
   89       -2.065969   0.000000
   90       -1.922565   0.000000
   91       -1.767633   0.000000
   92       -1.704886   0.000000
   93       -1.581550   0.000000
   94       -1.400265   0.000000
   95       -1.317295   0.000000
   96       -1.102437   0.000000
   97       -1.014444   0.000000
   98       -0.937690   0.000000
   99       -0.741426   0.000000
  100       -0.714074   0.000000
  101       -0.594509   0.000000
  102       -0.536340   0.000000
  103       -0.399625   0.000000
  104       -0.371237   0.000000
  105       -0.278818   0.000000
  106       -0.244168   0.000000
  107       -0.047685   0.000000
  108        0.099133   0.000000
  109        0.206587   0.000000
  110        0.249556   0.000000
  111        0.316555   0.000000
  112        0.440927   0.000000
  113        0.651203   0.000000
  114        0.790667   0.000000
  115        1.138863   0.000000
  116        1.214224   0.000000
  117        1.252527   0.000000
  118        1.690293   0.000000
  119        1.872725   0.000000
  120        2.197967   0.000000
 
  0.1250000E+00  0.1250000E+00  0.0000000E+00  0.3125000E-01
    1      -17.717436   1.000000
    2      -16.856394   1.000000
    3      -16.797120   1.000000
    4      -16.627174   1.000000
    5      -16.471127   1.000000
    6      -16.379896   1.000000
    7      -16.268530   1.000000
    8      -16.238731   1.000000
    9      -16.166481   1.000000
   10      -16.100888   1.000000
   11      -15.999800   1.000000
   12      -15.901899   1.000000
   13      -15.793742   1.000000
   14      -15.698360   1.000000
   15      -15.652273   1.000000
   16      -15.548090   1.000000
   17      -15.503730   1.000000
   18      -15.372155   1.000000
   19       -9.342856   1.000000
   20       -9.230738   1.000000
   21       -9.065094   1.000000
   22       -9.010603   1.000000
   23       -8.802611   1.000000
   24       -8.719643   1.000000
   25       -8.621938   1.000000
   26       -8.512973   1.000000
   27       -8.465154   1.000000
   28       -8.375570   1.000000
   29       -8.295778   1.000000
   30       -8.221908   1.000000
   31       -8.136366   1.000000
   32       -8.049341   1.000000
   33       -7.976706   1.000000
   34       -7.884348   1.000000
   35       -7.776100   1.000000
   36       -7.716389   1.000000
   37       -7.639385   1.000000
   38       -7.521640   1.000000
   39       -7.458696   1.000000
   40       -7.380952   1.000000
   41       -7.323086   1.000000
   42       -7.135015   1.000000
   43       -7.092211   1.000000
   44       -7.028587   1.000000
   45       -6.979188   1.000000
   46       -6.842308   1.000000
   47       -6.744151   1.000000
   48       -6.624393   1.000000
   49       -6.551706   1.000000
   50       -6.482622   1.000000
   51       -6.446107   1.000000
   52       -6.396064   1.000000
   53       -6.301923   1.000000
   54       -6.246012   1.000000
   55       -6.216667   1.000000
   56       -6.155313   1.000000
   57       -5.968375   1.000000
   58       -5.887715   1.000000
   59       -5.740803   1.000000
   60       -5.646216   1.000000
   61       -5.508393   1.000000
   62       -5.441474   1.000000
   63       -5.383734   1.000000
   64       -5.311701   1.000000
   65       -5.186129   1.000000
   66       -5.091910   1.000000
   67       -5.038864   1.000000
   68       -4.927288   1.000000
   69       -4.800619   1.000000
   70       -4.611645   1.000000
   71       -4.558327   1.000000
   72       -4.455119   1.000000
   73       -4.340891   1.000000
   74       -4.214874   1.000000
   75       -3.983237   1.000000
   76       -3.954577   1.000000
   77       -3.870472   0.999999
   78       -3.770147   0.999966
   79       -3.519855   0.986598
   80       -3.165498   0.385400
   81       -3.055729   0.142870
   82       -2.852517   0.006132
   83       -2.731873   0.000393
   84       -2.623367   0.000019
   85       -2.550690   0.000002
   86       -2.431601   0.000000
   87       -2.259519   0.000000
   88       -2.157990   0.000000
   89       -2.021493   0.000000
   90       -1.928481   0.000000
   91       -1.763351   0.000000
   92       -1.702525   0.000000
   93       -1.574991   0.000000
   94       -1.379103   0.000000
   95       -1.324420   0.000000
   96       -1.121420   0.000000
   97       -0.954416   0.000000
   98       -0.916152   0.000000
   99       -0.819990   0.000000
  100       -0.737270   0.000000
  101       -0.697407   0.000000
  102       -0.634945   0.000000
  103       -0.558012   0.000000
  104       -0.457636   0.000000
  105       -0.377644   0.000000
  106       -0.286265   0.000000
  107       -0.097197   0.000000
  108       -0.009847   0.000000
  109        0.191300   0.000000
  110        0.289574   0.000000
  111        0.429982   0.000000
  112        0.478426   0.000000
  113        0.788784   0.000000
  114        0.928454   0.000000
  115        1.103701   0.000000
  116        1.142805   0.000000
  117        1.267093   0.000000
  118        1.773292   0.000000
  119        1.948883   0.000000
  120        2.267686   0.000000
 
  0.2500000E+00  0.1250000E+00  0.0000000E+00  0.3125000E-01
    1      -17.618600   1.000000
    2      -17.051267   1.000000
    3      -16.896073   1.000000
    4      -16.612294   1.000000
    5      -16.465618   1.000000
    6      -16.363438   1.000000
    7      -16.285492   1.000000
    8      -16.194410   1.000000
    9      -16.116101   1.000000
   10      -16.058378   1.000000
   11      -15.951564   1.000000
   12      -15.867333   1.000000
   13      -15.758431   1.000000
   14      -15.707718   1.000000
   15      -15.641101   1.000000
   16      -15.597722   1.000000
   17      -15.496944   1.000000
   18      -15.380269   1.000000
   19       -9.582415   1.000000
   20       -9.357703   1.000000
   21       -9.195513   1.000000
   22       -8.967547   1.000000
   23       -8.849491   1.000000
   24       -8.715605   1.000000
   25       -8.538162   1.000000
   26       -8.452141   1.000000
   27       -8.415286   1.000000
   28       -8.359643   1.000000
   29       -8.282654   1.000000
   30       -8.209993   1.000000
   31       -8.174268   1.000000
   32       -8.092252   1.000000
   33       -7.939608   1.000000
   34       -7.874463   1.000000
   35       -7.785188   1.000000
   36       -7.606884   1.000000
   37       -7.539759   1.000000
   38       -7.446777   1.000000
   39       -7.407520   1.000000
   40       -7.299367   1.000000
   41       -7.225803   1.000000
   42       -7.113012   1.000000
   43       -7.061510   1.000000
   44       -6.986936   1.000000
   45       -6.888862   1.000000
   46       -6.806482   1.000000
   47       -6.747747   1.000000