unknown system                          
           1
     8.854460    5.104207    0.000000
    -8.855823    5.106552    0.000000
     0.000000    0.000000   30.000000
   V    Mo   W    S 
   3   3   3  18
Direct configuration=     1
   0.66666669  0.66666669  0.00000000
   0.00000000  0.00000000  0.00000000
   0.33333334  0.00000000  0.00000000
   0.33333334  0.66666669  0.00000000
   0.33333334  0.33333334  0.00000000
   0.00000000  0.66666669  0.00000000
   1.00000000  0.33333334  0.00000000
   0.66666669  0.00000000  0.00000000
   0.66666669  0.33333334  0.00000000
   0.11068511  0.22244981  0.95539999
   0.22244981  0.11068511  0.04460000
   0.11068511  0.55578315  0.95539999
   0.22244981  0.44401845  0.04460000
   0.11068511  0.88911647  0.95539999
   0.22244981  0.77735180  0.04460000
   0.44401845  0.22244981  0.95539999
   0.55578315  0.11068511  0.04460000
   0.44401845  0.55578315  0.95539999
   0.55578315  0.44401845  0.04460000
   0.44401845  0.88911647  0.95539999
   0.55578315  0.77735180  0.04460000
   0.77735180  0.22244981  0.95539999
   0.88911647  0.11068511  0.04460000
   0.77735180  0.55578315  0.95539999
   0.88911647  0.44401845  0.04460000
   0.77735180  0.88911647  0.95539999
   0.88911647  0.77735180  0.04460000
unknown system                          
           1
     8.666416    4.998126    0.000000
    -8.667652    5.000253    0.000000
     0.000000    0.000000   30.000000
   V    Mo   W    S 
   3   3   3  18
Direct configuration=     2
   0.66595600  0.66592752 -0.00013058
   0.00118414 -0.00048156  0.00005555
   0.33185131 -0.00106896  0.00016553
   0.33195936  0.66527164 -0.00019433
   0.33327202  0.33460526 -0.00003547
   0.00128911  0.66694033  0.00011943
   1.00317930  0.33621711 -0.00003348
   0.66520467 -0.00188651 -0.00006874
   0.66630496  0.33490267  0.00013864
   0.10830110  0.21805958  0.95193789
   0.22017548  0.10648998  0.04689588
   0.11059138  0.55448332  0.95065749
   0.22106528  0.44372438  0.04931186
   0.11296645  0.89320878  0.95308535
   0.22433601  0.78230018  0.04806406
   0.44306568  0.21807191  0.95199704
   0.55166208  0.10922391  0.04813279
   0.44889554  0.55774563  0.95190942
   0.55813244  0.44829162  0.04809771
   0.44292191  0.89161382  0.95201915
   0.55837924  0.77626955  0.04796985
   0.77788391  0.22207681  0.95079320
   0.89075252  0.10910316  0.04795341
   0.77475129  0.55702447  0.95196415
   0.88817899  0.44332822  0.04927997
   0.77929853  0.88693894  0.95301129
   0.88665575  0.77983267  0.04690284
unknown system                          
           1
     8.484723    4.898261    0.000000
    -8.485754    4.900035    0.000000
     0.000000    0.000000   30.000000
   V    Mo   W    S 
   3   3   3  18
Direct configuration=     3
   0.66569219  0.66565304 -0.00014550
   0.00146467 -0.00056785  0.00011155
   0.33157908 -0.00133705  0.00019270
   0.33115560  0.66445079 -0.00021198
   0.33320345  0.33519996 -0.00008373
   0.00164651  0.66643678  0.00017057
   1.00431959  0.33746263 -0.00003902
   0.66473361 -0.00226689 -0.00006897
   0.66634361  0.33526761  0.00009872
   0.10810341  0.21805957  0.95195803
   0.22010777  0.10641061  0.04686681
   0.11049278  0.55427607  0.95049849
   0.22085094  0.44362646  0.04944617
   0.11302465  0.89327969  0.95308897
   0.22444289  0.78245432  0.04811213
   0.44322855  0.21807790  0.95207884
   0.55177496  0.10925606  0.04807589
   0.44905059  0.55784894  0.95183881
   0.55833727  0.44831552  0.04813033
   0.44310437  0.89176342  0.95201959
   0.55853528  0.77646816  0.04794521
   0.77789155  0.22210804  0.95093912
   0.89064400  0.10919042  0.04781831
   0.77460308  0.55686406  0.95196969
   0.88806293  0.44303571  0.04929820
   0.77918342  0.88700191  0.95308148
   0.88663768  0.77987858  0.04680948
unknown system                          
           1
     8.275300    4.778307    0.000000
    -8.279900    4.786263    0.000000
     0.000000    0.000000   30.000000
   V    Mo   W    S 
   3   3   3  18
Direct configuration=     4
   0.66451166  0.66438116 -0.00013871
   0.00223998 -0.00071200  0.00029589
   0.33123500 -0.00211371  0.00021756
   0.32766749  0.66092169 -0.00019519
   0.33298484  0.33774351 -0.00023092
   0.00276616  0.66353454  0.00029028
   1.00843961  0.34245965 -0.00004028
   0.66298227 -0.00326621 -0.00002863
   0.66677849  0.33639101 -0.00009460
   0.10737946  0.21689464  0.95057688
   0.21961647  0.10561777  0.04805876
   0.11057777  0.55444986  0.94818924
   0.22102761  0.44377641  0.05162244
   0.11354367  0.89413555  0.95180835
   0.22530895  0.78369325  0.04973780
   0.44257855  0.21697241  0.95096381
   0.55071056  0.10876256  0.04936106
   0.45040373  0.55872619  0.95011148
   0.55895563  0.44961081  0.04973326
   0.44239143  0.89209521  0.95055558
   0.55886836  0.77585868  0.04929470
   0.77809053  0.22229274  0.94992620
   0.89105371  0.10899364  0.04871328
   0.77429988  0.55763762  0.95053327
   0.88798725  0.44260814  0.05102254
   0.77965438  0.88642762  0.95197656
   0.88616103  0.78032172  0.04773927
unknown system                          
           1
     8.271398    4.777069    0.000000
    -8.281066    4.793805    0.000000
     0.000000    0.000000   30.000000
   V    Mo   W    S 
   3   3   3  18
Direct configuration=     5
   0.66241748  0.66205434  0.00000289
   0.00331655 -0.00112877  0.00050942
   0.33150680 -0.00316542  0.00008420
   0.32069860  0.65414813 -0.00009286
   0.33241256  0.34258344 -0.00039972
   0.00487481  0.65744798  0.00034917
   1.01641343  0.35236894 -0.00003446
   0.65896523 -0.00594113  0.00005105
   0.66765109  0.33860201 -0.00038360
   0.10701268  0.21631858  0.94882419
   0.21965973  0.10570103  0.04971878
   0.11122205  0.55521865  0.94467488
   0.22174984  0.44431058  0.05477565
   0.11384177  0.89414726  0.95017489
   0.22590213  0.78419261  0.05199257
   0.44136573  0.21620163  0.94967936
   0.54910829  0.10852962  0.05109604
   0.45136283  0.55986292  0.94760135
   0.55920899  0.45102064  0.05178040
   0.44080356  0.89138883  0.94867781
   0.55818019  0.77460395  0.05095093
   0.77928041  0.22291438  0.94893048
   0.89192693  0.10978728  0.04954047
   0.77486356  0.55914972  0.94866146
   0.88818995  0.44220724  0.05343805
   0.78020416  0.88564437  0.95045572
   0.88607514  0.78004564  0.04894076
unknown system                          
           1
     8.267393    4.773357    0.000000
    -8.277755    4.791289    0.000000
     0.000000    0.000000   30.000000
   V    Mo   W    S 
   3   3   3  18
Direct configuration=     6
   0.66181935  0.66148333 -0.00005724
   0.00365404 -0.00149144  0.00055751
   0.33188035 -0.00337401  0.00009683
   0.32047307  0.65411492 -0.00014865
   0.33251442  0.34365032 -0.00036395
   0.00505667  0.65636265  0.00026070
   1.01743686  0.35365031  0.00002746
   0.65702550 -0.00781920  0.00005917
   0.66808218  0.33967784 -0.00037423
   0.10718091  0.21726746  0.94883093
   0.22022697  0.10641917  0.04967781
   0.11163116  0.55556158  0.94412488
   0.22199286  0.44442909  0.05521845
   0.11364573  0.89339718  0.95019000
   0.22545370  0.78320410  0.05209793
   0.44111722  0.21692883  0.94977793
   0.54896035  0.10885968  0.05109947
   0.45081260  0.56007164  0.94741259
   0.55898986  0.45092730  0.05187679
   0.44016012  0.89045668  0.94857506
   0.55717572  0.77409192  0.05101472
   0.78028961  0.22328404  0.94928148
   0.89218163  0.11107902  0.04913986
   0.77552056  0.55949672  0.94862474
   0.88837565  0.44184354  0.05365534
   0.77999386  0.88552038  0.95048835
   0.88656352  0.77912143  0.04885596
unknown system                          
           1
     8.270690    4.775112    0.000000
    -8.281660    4.794097    0.000000
     0.000000    0.000000   30.000000
   V    Mo   W    S 
   3   3   3  18
Direct configuration=     7
   0.66110543  0.66092254 -0.00011784
   0.00422663 -0.00186490  0.00062899
   0.33206688 -0.00382899  0.00013741
   0.32004844  0.65381617 -0.00014937
   0.33248822  0.34489089 -0.00033764
   0.00524342  0.65496661  0.00020181
   1.01933629  0.35587821  0.00003288
   0.65463474 -0.01030350  0.00008609
   0.66865785  0.34107779 -0.00038924
   0.10731694  0.21789581  0.94886251
   0.22069247  0.10694577  0.04960785
   0.11192074  0.55564698  0.94375135
   0.22222282  0.44472082  0.05551814
   0.11357409  0.89294503  0.95019883
   0.22512336  0.78260646  0.05217790
   0.44099849  0.21745692  0.94991636
   0.54882789  0.10909244  0.05106040
   0.45054585  0.56023526  0.94722656
   0.55895375  0.45104283  0.05199718
   0.43961786  0.88993508  0.94836943
   0.55657562  0.77369912  0.05115564
   0.78084816  0.22333595  0.94969514
   0.89217662  0.11191751  0.04872307
   0.77591588  0.55977111  0.94855395
   0.88844380  0.44159262  0.05383098
   0.77977811  0.88534974  0.95053377
   0.88687410  0.77847016  0.04872775
unknown system                          
           1
     8.263212    4.773836    0.000000
    -8.272766    4.790379    0.000000
     0.000000    0.000000   30.000000
   V    Mo   W    S 
   3   3   3  18
Direct configuration=     8
   0.66094757  0.66084396 -0.00013706
   0.00441691 -0.00196550  0.00065187
   0.33205552 -0.00399891  0.00014420
   0.32018236  0.65397876 -0.00016079
   0.33250300  0.34512303 -0.00033625
   0.00522321  0.65475963  0.00018666
   1.01965910  0.35621283  0.00004641
   0.65398525 -0.01107622  0.00009049
   0.66880804  0.34150431 -0.00039201
   0.10734419  0.21802553  0.94890044
   0.22080054  0.10705232  0.04956416
   0.11200457  0.55568681  0.94371098
   0.22227454  0.44479959  0.05554804
   0.11356879  0.89288179  0.95022198
   0.22504216  0.78250041  0.05216714
   0.44100375  0.21757580  0.94998558
   0.54883436  0.10912975  0.05101147
   0.45050140  0.56026098  0.94721934
   0.55896273  0.45107141  0.05200121
   0.43951066  0.88987997  0.94832699
   0.55648572  0.77359634  0.05119602
   0.78091328  0.22328668  0.94984052
   0.89211627  0.11205805  0.04858476
   0.77598620  0.55983917  0.94855550
   0.88845150  0.44152623  0.05383366
   0.77971160  0.88531928  0.95057027
   0.88692125  0.77834248  0.04866829
unknown system                          
           1
     8.258149    4.768694    0.000000
    -8.270025    4.789248    0.000000
     0.000000    0.000000   30.000000
   V    Mo   W    S 
   3   3   3  18
Direct configuration=     9
   0.66095513  0.66050986 -0.00010170
   0.00372046 -0.00193227  0.00060244
   0.33243771 -0.00332589  0.00012374
   0.31997542  0.65342729 -0.00015284
   0.33295829  0.34512119 -0.00033862
   0.00528251  0.65521627  0.00021377
   1.01892824  0.35539495  0.00005770
   0.65530965 -0.00926318  0.00007688
   0.66819274  0.34041055 -0.00040178
   0.10736781  0.21791922  0.94873218
   0.22067406  0.10687100  0.04968087
   0.11191785  0.55572269  0.94356364
   0.22218855  0.44459004  0.05566665
   0.11365146  0.89288501  0.95015058
   0.22522025  0.78266268  0.05225100
   0.44083806  0.21738165  0.94978663
   0.54861553  0.10907448  0.05121869
   0.45070131  0.56036571  0.94718222
   0.55898601  0.45118729  0.05204033
   0.43952338  0.88980783  0.94840307
   0.55654779  0.77369919  0.05107432
   0.78101626  0.22359561  0.94944260
   0.89240799  0.11203317  0.04894904
   0.77583334  0.55979040  0.94854605
   0.88845853  0.44158350  0.05394908
   0.77976291  0.88515862  0.95048350
   0.88674322  0.77832761  0.04879985
unknown system                          
           1
     8.265326    4.772105    0.000000
    -8.277913    4.793887    0.000000
     0.000000    0.000000   30.000000
   V    Mo   W    S 
   3   3   3  18
Direct configuration=    10
   0.66036164  0.65995935 -0.00015466
   0.00386674 -0.00235854  0.00064677
   0.33268450 -0.00347337  0.00017463
   0.31965240  0.65313248 -0.00017313
   0.33314353  0.34607470 -0.00029058
   0.00540010  0.65431408  0.00017809
   1.02013750  0.35677427  0.00002764
   0.65402434 -0.01050420  0.00006177
   0.66837174  0.34110841 -0.00039124
   0.10756348  0.21837400  0.94883566
   0.22090458  0.10721201  0.04956828
   0.11209983  0.55569589  0.94349677
   0.22229765  0.44473785  0.05576504
   0.11362746  0.89266663  0.95020278
   0.22502910  0.78229309  0.05222009
   0.44080211  0.21775816  0.94985753
   0.54861156  0.10923397  0.05119238
   0.45066683  0.56053458  0.94705589
   0.55901490  0.45128761  0.05213320
   0.43929303  0.88957130  0.94832036
   0.55628228  0.77351597  0.05112615
   0.78129360  0.22359327  0.94974698
   0.89228331  0.11245892  0.04866613
   0.77599938  0.55990210  0.94853389
   0.88843587  0.44140982  0.05394879
   0.77955166  0.88504376  0.95057130
   0.88681534  0.77789834  0.04867939
unknown system                          
           1
     8.273146    4.775853    0.000000
    -8.287503    4.800698    0.000000
     0.000000    0.000000   30.000000
   V    Mo   W    S 
   3   3   3  18
Direct configuration=    11
   0.66032348  0.66014285 -0.00017417
   0.00435907 -0.00236969  0.00068443
   0.33245492 -0.00391524  0.00017210
   0.31990090  0.65356133 -0.00018114
   0.33290970  0.34612002 -0.00030644
   0.00534867  0.65406978  0.00015999
   1.02055139  0.35721182  0.00005228
   0.65303125 -0.01182396  0.00008025
   0.66875097  0.34187349 -0.00039801
   0.10752175  0.21842782  0.94888736
   0.22102034  0.10731678  0.04953212
   0.11219371  0.55575849  0.94346185
   0.22237718  0.44488235  0.05577996
   0.11359772  0.89265475  0.95021514
   0.22492622  0.78221381  0.05222197
   0.44086222  0.21785340  0.94997719
   0.54868296  0.10924967  0.05108822
   0.45054494  0.56048575  0.94705508
   0.55900546  0.45125765  0.05213228
   0.43919644  0.88958933  0.94822992
   0.55620873  0.77338551  0.05123965
   0.78127128  0.22342231  0.94997186
   0.89214842  0.11252779  0.04845135
   0.77611410  0.55999233  0.94850874
   0.88845476  0.44135038  0.05394815
   0.77952786  0.88510124  0.95059421
   0.88693005  0.77787469  0.04861555
unknown system                          
           1
     8.273397    4.775905    0.000000
    -8.288015    4.801201    0.000000
     0.000000    0.000000   30.000000
   V    Mo   W    S 
   3   3   3  18
Direct configuration=    12
   0.65972458  0.65987842 -0.00023353
   0.00510323 -0.00276348  0.00077520
   0.33239512 -0.00458113  0.00018736
   0.32027290  0.65409344 -0.00020075
   0.33300592  0.34695420 -0.00031662
   0.00533306  0.65331970  0.00011231
   1.02173890  0.35844412  0.00010572
   0.65074940 -0.01452943  0.00011006
   0.66917313  0.34339414 -0.00041280
   0.10761691  0.21879146  0.94898554
   0.22137808  0.10767461  0.04942900
   0.11247791  0.55591385  0.94325315
   0.22259232  0.44519830  0.05594117
   0.11360848  0.89253467  0.95023893
   0.22470778  0.78195049  0.05223755
   0.44085772  0.21817039  0.95018303
   0.54870900  0.10933469  0.05095352
   0.45042522  0.56055846  0.94694673
   0.55905084  0.45136574  0.05222441
   0.43880710  0.88947962  0.94801025
   0.55596867  0.77303725  0.05145344
   0.78141529  0.22319716  0.95045267
   0.89190938  0.11291026  0.04799418
   0.77634423  0.56022691  0.94844654
   0.88847399  0.44113106  0.05400126
   0.77932233  0.88501983  0.95065839
   0.88705296  0.77750973  0.04846318
unknown system                          
           1
     8.264843    4.772012    0.000000
    -8.278876    4.796301    0.000000
     0.000000    0.000000   30.000000
   V    Mo   W    S 
   3   3   3  18
Direct configuration=    13
   0.65957366  0.65984764 -0.00024792
   0.00534036 -0.00284683  0.00079959
   0.33228460 -0.00485900  0.00019332
   0.32039843  0.65426492 -0.00020925
   0.33300097  0.34715876 -0.00031724
   0.00533313  0.65316346  0.00009756
   1.02205869  0.35877126  0.00011069
   0.65016492 -0.01532635  0.00011384
   0.66933169  0.34389412 -0.00041423
   0.10762392  0.21886071  0.94901586
   0.22146724  0.10775392  0.04940233
   0.11254008  0.55594218  0.94322951
   0.22265526  0.44528940  0.05596274
   0.11360628  0.89251727  0.95024108
   0.22464773  0.78190283  0.05223825
   0.44087283  0.21824057  0.95024492
   0.54873547  0.10934508  0.05089784
   0.45040180  0.56056791  0.94693629
   0.55906503  0.45140002  0.05223348
   0.43871988  0.88947021  0.94795312
   0.55592438  0.77292659  0.05151599
   0.78141046  0.22310864  0.95059351
   0.89183132  0.11296997  0.04786935
   0.77639616  0.56030614  0.94843507
   0.88848011  0.44109200  0.05400515
   0.77927398  0.88500346  0.95067983
   0.88707607  0.77744958  0.04841919
unknown system                          
           1
     8.276304    4.776843    0.000000
    -8.292431    4.804751    0.000000
     0.000000    0.000000   30.000000
   V    Mo   W    S 
   3   3   3  18
Direct configuration=    14
   0.65953217  0.65960330 -0.00024857
   0.00509453 -0.00285831  0.00077387
   0.33269919 -0.00423422  0.00019573
   0.32021817  0.65385624 -0.00020689
   0.33313693  0.34721497 -0.00030654
   0.00538971  0.65317956  0.00010699
   1.02209405  0.35870187  0.00009966
   0.65038574 -0.01465516  0.00011377
   0.66892188  0.34318615 -0.00041699
   0.10767966  0.21890311  0.94902342
   0.22142211  0.10773218  0.04937742
   0.11248444  0.55587374  0.94325780
   0.22260549  0.44520532  0.05593352
   0.11364071  0.89251704  0.95029333
   0.22471607  0.78193510  0.05218791
   0.44082904  0.21824206  0.95020183
   0.54866161  0.10937428  0.05096749
   0.45042916  0.56056423  0.94696818
   0.55908040  0.45136747  0.05219265
   0.43877438  0.88949915  0.94803058
   0.55598695  0.77312854  0.05140505
   0.78148523  0.22327991  0.95049114
   0.89191887  0.11301793  0.04795540
   0.77630426  0.56011645  0.94849930
   0.88843143  0.44105617  0.05397453
   0.77925534  0.88499066  0.95071580
   0.88703693  0.77741673  0.04841353
unknown system                          
           1
     8.280713    4.779125    0.000000
    -8.298223    4.809424    0.000000
     0.000000    0.000000   30.000000
   V    Mo   W    S 
   3   3   3  18
Direct configuration=    15
   0.65888938  0.65966884 -0.00031060
   0.00628562 -0.00326130  0.00090334
   0.33186364 -0.00602002  0.00021977
   0.32090040  0.65497491 -0.00024432
   0.33305605  0.34805895 -0.00031497
   0.00536270  0.65252983  0.00003547
   1.02335269  0.36009699  0.00013484
   0.64781454 -0.01851170  0.00012229
   0.66992184  0.34592852 -0.00041573
   0.10768088  0.21916922  0.94913196
   0.22184917  0.10810505  0.04929955
   0.11281509  0.55607438  0.94310279
   0.22292855  0.44566994  0.05608383
   0.11359911  0.89243555  0.95023554
   0.22439623  0.78168303  0.05225600
   0.44091709  0.21854381  0.95048109
   0.54884420  0.10939474  0.05068635
   0.45031912  0.56064117  0.94684977
   0.55912474  0.45155895  0.05231454
   0.43833119  0.88940201  0.94770291
   0.55570851  0.77243498  0.05179320
   0.78139843  0.22274285  0.95117329
   0.89149697  0.11322306  0.04735518
   0.77663148  0.56066009  0.94836414
   0.88849874  0.44092119  0.05403322
   0.77906318  0.88492510  0.95075597
   0.88716491  0.77716434  0.04825049
unknown system                          
           1
     8.279426    4.778514    0.000000
    -8.296573    4.808188    0.000000
     0.000000    0.000000   30.000000
   V    Mo   W    S 
   3   3   3  18
Direct configuration=    16
   0.65816786  0.65944785 -0.00035262
   0.00712187 -0.00361987  0.00099755
   0.33134201 -0.00730507  0.00023913
   0.32145663  0.65567324 -0.00026514
   0.33321822  0.34887312 -0.00031392
   0.00546801  0.65225894 -0.00002055
   1.02427839  0.36096068  0.00016792
   0.64604347 -0.02108686  0.00012002
   0.67036101  0.34778128 -0.00041002
   0.10773770  0.21940807  0.94921268
   0.22222992  0.10840000  0.04922698
   0.11304414  0.55621606  0.94297862
   0.22318031  0.44600545  0.05619006
   0.11363028  0.89240030  0.95018909
   0.22420347  0.78156008  0.05229257
   0.44095679  0.21876226  0.95069651
   0.54894975  0.10940213  0.05047697
   0.45028297  0.56071211  0.94676674
   0.55916759  0.45172917  0.05241072
   0.43794951  0.88934651  0.94747502
   0.55550667  0.77189561  0.05205936
   0.78128337  0.22239923  0.95166752
   0.89119765  0.11335089  0.04693830
   0.77683369  0.56106202  0.94827171
   0.88851180  0.44079565  0.05406486
   0.77890023  0.88483978  0.95079721
   0.88719115  0.77694581  0.04812261
unknown system                          
           1
     8.278601    4.780421    0.000000
    -8.294772    4.808421    0.000000
     0.000000    0.000000   30.000000
   V    Mo   W    S 
   3   3   3  18
Direct configuration=    17
   0.65846819  0.65957189 -0.00034180
   0.00687888 -0.00347216  0.00096536
   0.33158147 -0.00675658  0.00023505
   0.32128737  0.65546754 -0.00025680
   0.33310265  0.34857384 -0.00031858
   0.00537922  0.65225144  0.00000125
   1.02401481  0.36072733  0.00016574
   0.64646384 -0.02040824  0.00013157
   0.67026607  0.34717278 -0.00041519
   0.10769889  0.21932589  0.94918303
   0.22209123  0.10830150  0.04925330
   0.11298020  0.55618626  0.94300118
   0.22309813  0.44590501  0.05616069
   0.11360711  0.89239668  0.95021510
   0.22425540  0.78158983  0.05227542
   0.44093840  0.21869889  0.95062208
   0.54890266  0.10940037  0.05055446
   0.45028574  0.56067698  0.94679848
   0.55916186  0.45166595  0.05236623
   0.43807465  0.88937722  0.94754092
   0.55557581  0.77209342  0.05197857
   0.78136468  0.22250808  0.95150639
   0.89129484  0.11335677  0.04706189
   0.77677320  0.56090746  0.94830409
   0.88851065  0.44081656  0.05406529
   0.77895544  0.88487406  0.95078320
   0.88720306  0.77700568  0.04816296
unknown system                          
           1
     8.273527    4.775575    0.000000
    -8.291525    4.806729    0.000000
     0.000000    0.000000   30.000000
   V    Mo   W    S 
   3   3   3  18
Direct configuration=    18
   0.66011370  0.65993839 -0.00031048
   0.00595543 -0.00268792  0.00076749
   0.33332104 -0.00315732  0.00023398
   0.32049134  0.65453501 -0.00024841
   0.33248535  0.34714323 -0.00034444
   0.00462292  0.65174158  0.00010579
   1.02290194  0.35982057  0.00012841
   0.64770754 -0.01775217  0.00017511
   0.66990801  0.34427195 -0.00044545
   0.10747986  0.21899281  0.94903730
   0.22149878  0.10787690  0.04938722
   0.11283894  0.55615760  0.94305525
   0.22291986  0.44558652  0.05609531
   0.11354668  0.89237935  0.95042656
   0.22443335  0.78184555  0.05210945
   0.44077979  0.21844405  0.95026576
   0.54852269  0.10936108  0.05095126
   0.45042649  0.56048587  0.94697772
   0.55917923  0.45144655  0.05208893
   0.43839555  0.88959556  0.94779306
   0.55583242  0.77266007  0.05172770
   0.78187970  0.22282239  0.95085966
   0.89161530  0.11356848  0.04750967
   0.77645344  0.56024041  0.94843935
   0.88845937  0.44073360  0.05414028
   0.77916172  0.88495693  0.95077534
   0.88728405  0.77720741  0.04829808
unknown system                          
           1
     8.278715    4.778381    0.000000
    -8.297142    4.810276    0.000000
     0.000000    0.000000   30.000000
   V    Mo   W    S 
   3   3   3  18
Direct configuration=    19
   0.65974243  0.65997698 -0.00032470
   0.00680376 -0.00296704  0.00084929
   0.33349443 -0.00334706  0.00024063
   0.32080226  0.65488456 -0.00023058
   0.33228601  0.34761451 -0.00032927
   0.00441659  0.65102151  0.00005617
   1.02390670  0.36089676  0.00018671
   0.64612845 -0.01989538  0.00018620
   0.67041803  0.34560138 -0.00041077
   0.10756205  0.21929104  0.94913099
   0.22174517  0.10824625  0.04935033
   0.11303641  0.55629160  0.94301447
   0.22313864  0.44592733  0.05610430
   0.11351991  0.89229229  0.95045698
   0.22415450  0.78166961  0.05201616
   0.44099708  0.21886503  0.95041498
   0.54875425  0.10939682  0.05077920
   0.45037050  0.56050593  0.94694704
   0.55920496  0.45146304  0.05211463
   0.43799690  0.88952853  0.94764955
   0.55559408  0.77216307  0.05188620
   0.78162644  0.22225202  0.95137048
   0.89112001  0.11355544  0.04704172
   0.77666553  0.56042725  0.94834261
   0.88843225  0.44053804  0.05412533
   0.77887575  0.88492308  0.95087400
   0.88742137  0.77709188  0.04815723
unknown system                          
           1
     8.282162    4.779452    0.000000
    -8.302297    4.814300    0.000000
     0.000000    0.000000   30.000000
   V    Mo   W    S 
   3   3   3  18
Direct configuration=    20
   0.65923323  0.65985281 -0.00034421
   0.00724295 -0.00320578  0.00090594
   0.33301753 -0.00437756  0.00024124
   0.32114515  0.65528959 -0.00025063
   0.33245536  0.34808100 -0.00032891
   0.00456410  0.65109230  0.00001035
   1.02426071  0.36119967  0.00018917
   0.64546303 -0.02107340  0.00016832
   0.67063228  0.34670044 -0.00040610
   0.10760071  0.21940116  0.94917147
   0.22196732  0.10839965  0.04932052
   0.11312560  0.55633817  0.94296509
   0.22325643  0.44607921  0.05617036
   0.11354177  0.89230426  0.95039310
   0.22406888  0.78161622  0.05206903
   0.44103616  0.21897006  0.95053484
   0.54885422  0.10939964  0.05065498
   0.45034612  0.56056449  0.94688737
   0.55920877  0.45156222  0.05220471
   0.43780258  0.88946233  0.94753251
   0.55547594  0.77184661  0.05203008
   0.78148595  0.22208787  0.95161922
   0.89099058  0.11353013  0.04685525
   0.77677018  0.56068841  0.94828155
   0.88845000  0.44052794  0.05414295
   0.77880845  0.88487023  0.95087465
   0.88741045  0.77700677  0.04810706
unknown system                          
           1
     8.280633    4.778810    0.000000
    -8.300402    4.813026    0.000000
     0.000000    0.000000   30.000000
   V    Mo   W    S 
   3   3   3  18
Direct configuration=    21
   0.65818529  0.65957471 -0.00038702
   0.00846327 -0.00364448  0.00102791
   0.33231828 -0.00622340  0.00024539
   0.32180545  0.65613852 -0.00028189
   0.33264989  0.34906559 -0.00032449
   0.00467582  0.65084421 -0.00008830
   1.02522809  0.36213042  0.00021686
   0.64360567 -0.02403183  0.00013960
   0.67129580  0.34927028 -0.00038747
   0.10768580  0.21971742  0.94927777
   0.22251172  0.10882647  0.04925951
   0.11335782  0.55646371  0.94285969
   0.22354414  0.44647211  0.05628586
   0.11360570  0.89230854  0.95028810
   0.22380792  0.78150578  0.05211396
   0.44119623  0.21932631  0.95082445
   0.54910160  0.10939994  0.05035795
   0.45026032  0.56063713  0.94677901
   0.55921004  0.45172704  0.05236282
   0.43727701  0.88933078  0.94727018
   0.55515950  0.77105505  0.05236609
   0.78113602  0.22157760  0.95226437
   0.89057918  0.11349209  0.04634074
   0.77701522  0.56123068  0.94813541
   0.88848877  0.44045128  0.05417782
   0.77858913  0.88476061  0.95090458
   0.88746079  0.77680788  0.04797099
unknown system                          
           1
     8.273342    4.774406    0.000000
    -8.294345    4.810760    0.000000
     0.000000    0.000000   30.000000
   V    Mo   W    S 
   3   3   3  18
Direct configuration=    22
   0.65859436  0.65967102 -0.00037824
   0.00805173 -0.00346990  0.00098028
   0.33271413 -0.00535696  0.00024359
   0.32154289  0.65581063 -0.00027626
   0.33255452  0.34868423 -0.00033034
   0.00457087  0.65081252 -0.00005230
   1.02492821  0.36184118  0.00020408
   0.64415706 -0.02302817  0.00015144
   0.67104276  0.34830930 -0.00040243
   0.10765685  0.21962574  0.94923898
   0.22231447  0.10869552  0.04928792
   0.11328882  0.55642924  0.94289267
   0.22345825  0.44634302  0.05625351
   0.11357991  0.89229402  0.95033583
   0.22389942  0.78155058  0.05208709
   0.44113492  0.21921981  0.95071114
   0.54899928  0.10939891  0.05048100
   0.45028883  0.56060006  0.94681849
   0.55921219  0.45165189  0.05230201
   0.43744955  0.88938705  0.94736229
   0.55527282  0.77134677  0.05225473
   0.78129747  0.22175208  0.95204049
   0.89070601  0.11354357  0.04651249
   0.77692410  0.56098936  0.94819274
   0.88846808  0.44045073  0.05416920
   0.77865052  0.88480312  0.95089533
   0.88745641  0.77685912  0.04802418
unknown system                          
           1
     8.284239    4.780288    0.000000
    -8.305192    4.816552    0.000000
     0.000000    0.000000   30.000000
   V    Mo   W    S 
   3   3   3  18
Direct configuration=    23
   0.65903173  0.65986971 -0.00036070
   0.00796703 -0.00340678  0.00092735
   0.33338207 -0.00379525  0.00026555
   0.32142169  0.65539753 -0.00025298
   0.33229497  0.34856292 -0.00030983
   0.00392454  0.64994067 -0.00003331
   1.02512087  0.36211578  0.00023232
   0.64402944 -0.02346874  0.00019360
   0.67120780  0.34827293 -0.00037077
   0.10757197  0.21954820  0.94922949
   0.22209593  0.10882276  0.04935854
   0.11336126  0.55648127  0.94284745
   0.22353855  0.44643141  0.05627184
   0.11329635  0.89217501  0.95039440
   0.22373435  0.78132357  0.05203167
   0.44117620  0.21948063  0.95055808
   0.54916621  0.10950775  0.05061277
   0.45028395  0.56058596  0.94680520
   0.55925903  0.45157842  0.05226295
   0.43741894  0.88932349  0.94729679
   0.55528852  0.77136363  0.05226675
   0.78141612  0.22161384  0.95207557
   0.89063276  0.11362173  0.04642077
   0.77696099  0.56087500  0.94815960
   0.88841624  0.44023823  0.05419662
   0.77864983  0.88484993  0.95092856
   0.88756711  0.77690486  0.04799162
unknown system                          
           1
     8.286468    4.780689    0.000000
    -8.308786    4.819310    0.000000
     0.000000    0.000000   30.000000
   V    Mo   W    S 
   3   3   3  18
Direct configuration=    24
   0.65767938  0.65949011 -0.00039626
   0.00907271 -0.00389442  0.00108637
   0.33190197 -0.00713182  0.00025176
   0.32218763  0.65655089 -0.00028745
   0.33272698  0.34959503 -0.00031242
   0.00468099  0.65070254 -0.00014077
   1.02570053  0.36260808  0.00024093
   0.64274088 -0.02563727  0.00012822
   0.67171536  0.35068826 -0.00035706
   0.10770669  0.21983668  0.94933093
   0.22275627  0.10904952  0.04923675
   0.11347962  0.55653163  0.94279697
   0.22369551  0.44668831  0.05634529
   0.11358256  0.89230543  0.95023112
   0.22362990  0.78139278  0.05213881
   0.44130036  0.21954887  0.95095665
   0.54929189  0.10942408  0.05020508
   0.45022177  0.56069082  0.94671671
   0.55921674  0.45182641  0.05244703
   0.43700093  0.88923249  0.94711882