   27   27  100    1
  0.9710400E+02  0.1002848E-08  0.1002848E-08  0.3000000E-08  0.5000000E-15
  1.000000000000000E-004
  CAR 
 unknown system                          
    159     34    120
 
  0.0000000E+00  0.0000000E+00  0.0000000E+00  0.1562500E-01
    1      -17.804830   1.000000
    2      -16.730676   1.000000
    3      -16.678723   1.000000
    4      -16.578476   1.000000
    5      -16.535688   1.000000
    6      -16.462870   1.000000
    7      -16.426108   1.000000
    8      -16.313920   1.000000
    9      -16.157544   1.000000
   10      -16.099230   1.000000
   11      -16.076484   1.000000
   12      -15.942862   1.000000
   13      -15.914580   1.000000
   14      -15.672162   1.000000
   15      -15.586236   1.000000
   16      -15.528269   1.000000
   17      -15.317908   1.000000
   18      -15.265396   1.000000
   19       -9.286367   1.000000
   20       -9.003409   1.000000
   21       -8.927836   1.000000
   22       -8.823830   1.000000
   23       -8.769239   1.000000
   24       -8.706353   1.000000
   25       -8.652632   1.000000
   26       -8.609456   1.000000
   27       -8.560552   1.000000
   28       -8.420681   1.000000
   29       -8.403619   1.000000
   30       -8.346404   1.000000
   31       -8.292778   1.000000
   32       -8.197598   1.000000
   33       -8.114446   1.000000
   34       -8.030451   1.000000
   35       -7.874731   1.000000
   36       -7.771954   1.000000
   37       -7.692466   1.000000
   38       -7.515910   1.000000
   39       -7.502216   1.000000
   40       -7.426286   1.000000
   41       -7.315307   1.000000
   42       -7.211400   1.000000
   43       -7.130786   1.000000
   44       -6.902316   1.000000
   45       -6.812089   1.000000
   46       -6.803330   1.000000
   47       -6.690815   1.000000
   48       -6.647656   1.000000
   49       -6.548957   1.000000
   50       -6.535053   1.000000
   51       -6.486066   1.000000
   52       -6.423380   1.000000
   53       -6.316725   1.000000
   54       -6.226013   1.000000
   55       -6.165672   1.000000
   56       -6.060953   1.000000
   57       -6.032503   1.000000
   58       -5.839247   1.000000
   59       -5.822560   1.000000
   60       -5.575074   1.000000
   61       -5.508398   1.000000
   62       -5.461826   1.000000
   63       -5.257835   1.000000
   64       -5.112733   1.000000
   65       -5.057909   1.000000
   66       -4.993075   1.000000
   67       -4.955012   1.000000
   68       -4.816197   1.000000
   69       -4.787476   1.000000
   70       -4.697395   1.000000
   71       -4.592665   1.000000
   72       -4.558714   1.000000
   73       -4.534356   1.000000
   74       -4.370489   1.000000
   75       -4.160322   1.000000
   76       -4.029283   1.000000
   77       -3.766239   0.999148
   78       -3.628163   0.984663
   79       -3.546321   0.943240
   80       -3.352736   0.584616
   81       -3.255212   0.317078
   82       -2.835922   0.000290
   83       -2.753870   0.000029
   84       -2.545695   0.000000
   85       -2.475331   0.000000
   86       -2.364921   0.000000
   87       -2.309938   0.000000
   88       -2.195804   0.000000
   89       -2.128634   0.000000
   90       -2.037270   0.000000
   91       -1.780837   0.000000
   92       -1.560115   0.000000
   93       -1.482333   0.000000
   94       -1.367617   0.000000
   95       -1.254194   0.000000
   96       -1.008353   0.000000
   97       -0.955065   0.000000
   98       -0.844532   0.000000
   99       -0.814912   0.000000
  100       -0.639565   0.000000
  101       -0.523271   0.000000
  102       -0.470307   0.000000
  103       -0.466551   0.000000
  104       -0.309606   0.000000
  105       -0.284772   0.000000
  106       -0.163138   0.000000
  107       -0.078457   0.000000
  108       -0.037282   0.000000
  109        0.076231   0.000000
  110        0.188718   0.000000
  111        0.366746   0.000000
  112        0.489008   0.000000
  113        0.683924   0.000000
  114        0.820035   0.000000
  115        0.836300   0.000000
  116        1.093827   0.000000
  117        1.311981   0.000000
  118        1.645269   0.000000
  119        1.835446   0.000000
  120        2.149575   0.000000
 
  0.1250000E+00  0.2775558E-16  0.0000000E+00  0.3125000E-01
    1      -17.779989   1.000000
    2      -16.783656   1.000000
    3      -16.725501   1.000000
    4      -16.626228   1.000000
    5      -16.542280   1.000000
    6      -16.472720   1.000000
    7      -16.387408   1.000000
    8      -16.267333   1.000000
    9      -16.182920   1.000000
   10      -16.069839   1.000000
   11      -16.015652   1.000000
   12      -15.936295   1.000000
   13      -15.892117   1.000000
   14      -15.674145   1.000000
   15      -15.601453   1.000000
   16      -15.524208   1.000000
   17      -15.329564   1.000000
   18      -15.269332   1.000000
   19       -9.279104   1.000000
   20       -9.156273   1.000000
   21       -9.027304   1.000000
   22       -8.945982   1.000000
   23       -8.802741   1.000000
   24       -8.722721   1.000000
   25       -8.647536   1.000000
   26       -8.579045   1.000000
   27       -8.519317   1.000000
   28       -8.409063   1.000000
   29       -8.373913   1.000000
   30       -8.328408   1.000000
   31       -8.227167   1.000000
   32       -8.107312   1.000000
   33       -8.003446   1.000000
   34       -7.940931   1.000000
   35       -7.826169   1.000000
   36       -7.758501   1.000000
   37       -7.618921   1.000000
   38       -7.586897   1.000000
   39       -7.494421   1.000000
   40       -7.430661   1.000000
   41       -7.275391   1.000000
   42       -7.218294   1.000000
   43       -7.146688   1.000000
   44       -6.956418   1.000000
   45       -6.888778   1.000000
   46       -6.784073   1.000000
   47       -6.697290   1.000000
   48       -6.635853   1.000000
   49       -6.580055   1.000000
   50       -6.541700   1.000000
   51       -6.468891   1.000000
   52       -6.391263   1.000000
   53       -6.281324   1.000000
   54       -6.230812   1.000000
   55       -6.184307   1.000000
   56       -6.087411   1.000000
   57       -5.983943   1.000000
   58       -5.844788   1.000000
   59       -5.766661   1.000000
   60       -5.561330   1.000000
   61       -5.539024   1.000000
   62       -5.463957   1.000000
   63       -5.323238   1.000000
   64       -5.197125   1.000000
   65       -5.144243   1.000000
   66       -5.064736   1.000000
   67       -4.923732   1.000000
   68       -4.865049   1.000000
   69       -4.782804   1.000000
   70       -4.667587   1.000000
   71       -4.609838   1.000000
   72       -4.520576   1.000000
   73       -4.411856   1.000000
   74       -4.299986   1.000000
   75       -4.137590   1.000000
   76       -4.015276   1.000000
   77       -3.790801   0.999536
   78       -3.741096   0.998461
   79       -3.525216   0.924118
   80       -3.453852   0.823482
   81       -3.115099   0.071238
   82       -2.837688   0.000304
   83       -2.734634   0.000016
   84       -2.569081   0.000000
   85       -2.448281   0.000000
   86       -2.379772   0.000000
   87       -2.292489   0.000000
   88       -2.160248   0.000000
   89       -2.129471   0.000000
   90       -2.007443   0.000000
   91       -1.797414   0.000000
   92       -1.551697   0.000000
   93       -1.486467   0.000000
   94       -1.360810   0.000000
   95       -1.253827   0.000000
   96       -1.010337   0.000000
   97       -0.958739   0.000000
   98       -0.876996   0.000000
   99       -0.820006   0.000000
  100       -0.717655   0.000000
  101       -0.612831   0.000000
  102       -0.530719   0.000000
  103       -0.460407   0.000000
  104       -0.336952   0.000000
  105       -0.309973   0.000000
  106       -0.210059   0.000000
  107       -0.125351   0.000000
  108       -0.050014   0.000000
  109        0.083132   0.000000
  110        0.139315   0.000000
  111        0.420894   0.000000
  112        0.555673   0.000000
  113        0.720363   0.000000
  114        0.823888   0.000000
  115        0.888018   0.000000
  116        1.111402   0.000000
  117        1.282774   0.000000
  118        1.690102   0.000000
  119        1.874002   0.000000
  120        2.184797   0.000000
 
  0.2500000E+00  0.5551115E-16  0.0000000E+00  0.3125000E-01
    1      -17.707062   1.000000
    2      -16.978606   1.000000
    3      -16.748305   1.000000
    4      -16.665286   1.000000
    5      -16.601919   1.000000
    6      -16.447271   1.000000
    7      -16.342799   1.000000
    8      -16.223746   1.000000
    9      -16.163242   1.000000
   10      -16.026049   1.000000
   11      -15.958541   1.000000
   12      -15.911830   1.000000
   13      -15.805417   1.000000
   14      -15.694021   1.000000
   15      -15.613964   1.000000
   16      -15.528362   1.000000
   17      -15.367734   1.000000
   18      -15.268826   1.000000
   19       -9.487666   1.000000
   20       -9.227806   1.000000
   21       -9.161490   1.000000
   22       -9.039984   1.000000
   23       -8.896979   1.000000
   24       -8.776914   1.000000
   25       -8.681964   1.000000
   26       -8.518768   1.000000
   27       -8.436833   1.000000
   28       -8.353675   1.000000
   29       -8.307277   1.000000
   30       -8.269283   1.000000
   31       -8.148105   1.000000
   32       -8.044258   1.000000
   33       -7.951146   1.000000
   34       -7.843559   1.000000
   35       -7.750330   1.000000
   36       -7.643129   1.000000
   37       -7.595690   1.000000
   38       -7.529899   1.000000
   39       -7.430892   1.000000
   40       -7.387629   1.000000
   41       -7.256163   1.000000
   42       -7.209427   1.000000
   43       -7.134162   1.000000
   44       -6.967173   1.000000
   45       -6.936309   1.000000
   46       -6.797394   1.000000
   47       -6.748484   1.000000
   48       -6.658741   1.000000
   49       -6.581257   1.000000
   50       -6.514162   1.000000
   51       -6.461377   1.000000
   52       -6.383163   1.000000
   53       -6.238850   1.000000
   54       -6.213068   1.000000
   55       -6.122489   1.000000
   56       -6.081933   1.000000
   57       -5.966837   1.000000
   58       -5.839077   1.000000
   59       -5.740137   1.000000
   60       -5.709723   1.000000
   61       -5.600427   1.000000
   62       -5.574731   1.000000
   63       -5.410522   1.000000
   64       -5.339028   1.000000
   65       -5.180401   1.000000
   66       -5.092571   1.000000
   67       -5.013180   1.000000
   68       -4.865941   1.000000
   69       -4.814215   1.000000
   70       -4.591037   1.000000
   71       -4.516822   1.000000
   72       -4.406370   1.000000
   73       -4.311684   1.000000
   74       -4.241153   1.000000
   75       -4.131936   1.000000
   76       -4.073478   1.000000
   77       -4.006423   0.999999
   78       -3.700262   0.996220
   79       -3.512685   0.910643
   80       -3.426513   0.768953
   81       -3.007173   0.012881
   82       -2.828957   0.000242
   83       -2.700093   0.000005
   84       -2.583988   0.000000
   85       -2.434866   0.000000
   86       -2.406841   0.000000
   87       -2.254756   0.000000
   88       -2.161001   0.000000
   89       -2.032497   0.000000
   90       -1.947272   0.000000
   91       -1.822721   0.000000
   92       -1.545157   0.000000
   93       -1.493780   0.000000
   94       -1.334555   0.000000
   95       -1.250885   0.000000
   96       -1.075720   0.000000
   97       -0.997465   0.000000
   98       -0.944275   0.000000
   99       -0.858302   0.000000
  100       -0.826865   0.000000
  101       -0.724302   0.000000
  102       -0.632430   0.000000
  103       -0.525981   0.000000
  104       -0.425143   0.000000
  105       -0.381008   0.000000
  106       -0.305187   0.000000
  107       -0.162310   0.000000
  108       -0.094162   0.000000
  109        0.006935   0.000000
  110        0.140378   0.000000
  111        0.494528   0.000000
  112        0.585168   0.000000
  113        0.729727   0.000000
  114        0.932001   0.000000
  115        1.008447   0.000000
  116        1.186520   0.000000
  117        1.241838   0.000000
  118        1.813351   0.000000
  119        1.984623   0.000000
  120        2.289108   0.000000
 
  0.3750000E+00  0.0000000E+00  0.0000000E+00  0.3125000E-01
    1      -17.593524   1.000000
    2      -17.185557   1.000000
    3      -16.779064   1.000000
    4      -16.676377   1.000000
    5      -16.635544   1.000000
    6      -16.436168   1.000000
    7      -16.340665   1.000000
    8      -16.208867   1.000000
    9      -16.082114   1.000000
   10      -15.985131   1.000000
   11      -15.944841   1.000000
   12      -15.876496   1.000000
   13      -15.754718   1.000000
   14      -15.706493   1.000000
   15      -15.598658   1.000000
   16      -15.539058   1.000000
   17      -15.425410   1.000000
   18      -15.255831   1.000000
   19       -9.703559   1.000000
   20       -9.333923   1.000000
   21       -9.149595   1.000000
   22       -9.103573   1.000000
   23       -8.944074   1.000000
   24       -8.806750   1.000000
   25       -8.660152   1.000000
   26       -8.463518   1.000000
   27       -8.410048   1.000000
   28       -8.311136   1.000000
   29       -8.274818   1.000000
   30       -8.192938   1.000000
   31       -8.135457   1.000000
   32       -8.062310   1.000000
   33       -7.921172   1.000000
   34       -7.847834   1.000000
   35       -7.769673   1.000000
   36       -7.680934   1.000000
   37       -7.546556   1.000000
   38       -7.443140   1.000000
   39       -7.340059   1.000000
   40       -7.298656   1.000000
   41       -7.202008   1.000000
   42       -7.160660   1.000000
   43       -7.060340   1.000000
   44       -6.932919   1.000000
   45       -6.905009   1.000000
   46       -6.851477   1.000000
   47       -6.691767   1.000000
   48       -6.594794   1.000000
   49       -6.545955   1.000000
   50       -6.531261   1.000000
   51       -6.400773   1.000000
   52       -6.311626   1.000000
   53       -6.227324   1.000000
   54       -6.193494   1.000000
   55       -6.127388   1.000000
   56       -6.104237   1.000000
   57       -5.994624   1.000000
   58       -5.907810   1.000000
   59       -5.857407   1.000000
   60       -5.785188   1.000000
   61       -5.732335   1.000000
   62       -5.659380   1.000000
   63       -5.535363   1.000000
   64       -5.324933   1.000000
   65       -5.217455   1.000000
   66       -5.106971   1.000000
   67       -5.024722   1.000000
   68       -4.920983   1.000000
   69       -4.741891   1.000000
   70       -4.680479   1.000000
   71       -4.454519   1.000000
   72       -4.406123   1.000000
   73       -4.296671   1.000000
   74       -4.242521   1.000000
   75       -4.152986   1.000000
   76       -4.071490   1.000000
   77       -3.963397   0.999997
   78       -3.646508   0.989018
   79       -3.540692   0.938557
   80       -3.344335   0.561318
   81       -2.929410   0.002721
   82       -2.799697   0.000109
   83       -2.713638   0.000008
   84       -2.554531   0.000000
   85       -2.473626   0.000000
   86       -2.409839   0.000000
   87       -2.214226   0.000000
   88       -2.169853   0.000000
   89       -1.988082   0.000000
   90       -1.876227   0.000000
   91       -1.775835   0.000000
   92       -1.557734   0.000000
   93       -1.496951   0.000000
   94       -1.307953   0.000000
   95       -1.246815   0.000000
   96       -1.195435   0.000000
   97       -1.094406   0.000000
   98       -1.026808   0.000000
   99       -0.920030   0.000000
  100       -0.835347   0.000000
  101       -0.771615   0.000000
  102       -0.711060   0.000000
  103       -0.616505   0.000000
  104       -0.522929   0.000000
  105       -0.422940   0.000000
  106       -0.356620   0.000000
  107       -0.229460   0.000000
  108       -0.144300   0.000000
  109       -0.066037   0.000000
  110        0.158936   0.000000
  111        0.487931   0.000000
  112        0.587750   0.000000
  113        0.761616   0.000000
  114        0.998923   0.000000
  115        1.132380   0.000000
  116        1.212552   0.000000
  117        1.312676   0.000000
  118        1.996424   0.000000
  119        2.157525   0.000000
  120        2.458746   0.000000
 
  0.5000000E+00  0.1110223E-15  0.0000000E+00  0.1562500E-01
    1      -17.497638   1.000000
    2      -17.314893   1.000000
    3      -16.791841   1.000000
    4      -16.682207   1.000000
    5      -16.641459   1.000000
    6      -16.435422   1.000000
    7      -16.343380   1.000000
    8      -16.204097   1.000000
    9      -16.035273   1.000000
   10      -15.969295   1.000000
   11      -15.947058   1.000000
   12      -15.850420   1.000000
   13      -15.779982   1.000000
   14      -15.688944   1.000000
   15      -15.593834   1.000000
   16      -15.517196   1.000000
   17      -15.472666   1.000000
   18      -15.246924   1.000000
   19       -9.781959   1.000000
   20       -9.375455   1.000000
   21       -9.169504   1.000000
   22       -9.108880   1.000000
   23       -8.950817   1.000000
   24       -8.785986   1.000000
   25       -8.631878   1.000000
   26       -8.510638   1.000000
   27       -8.418533   1.000000
   28       -8.280355   1.000000
   29       -8.250998   1.000000
   30       -8.127063   1.000000
   31       -8.122430   1.000000
   32       -8.066301   1.000000
   33       -7.930850   1.000000
   34       -7.839829   1.000000
   35       -7.821802   1.000000
   36       -7.738395   1.000000
   37       -7.561435   1.000000
   38       -7.417708   1.000000
   39       -7.319551   1.000000
   40       -7.277578   1.000000
   41       -7.169484   1.000000
   42       -7.054283   1.000000
   43       -6.963330   1.000000
   44       -6.933196   1.000000
   45       -6.900806   1.000000
   46       -6.757294   1.000000
   47       -6.717360   1.000000
   48       -6.580504   1.000000
   49       -6.540123   1.000000
   50       -6.514667   1.000000
   51       -6.431422   1.000000
   52       -6.346484   1.000000
   53       -6.262469   1.000000
   54       -6.213001   1.000000
   55       -6.100903   1.000000
   56       -6.046063   1.000000
   57       -5.969367   1.000000
   58       -5.924332   1.000000
   59       -5.879671   1.000000
   60       -5.867219   1.000000
   61       -5.758412   1.000000
   62       -5.634625   1.000000
   63       -5.514679   1.000000
   64       -5.411879   1.000000
   65       -5.330587   1.000000
   66       -5.105512   1.000000
   67       -5.061318   1.000000
   68       -4.971603   1.000000
   69       -4.747591   1.000000
   70       -4.617638   1.000000
   71       -4.469593   1.000000
   72       -4.370522   1.000000
   73       -4.350962   1.000000
   74       -4.242828   1.000000
   75       -4.130151   1.000000
   76       -4.044644   1.000000
   77       -3.920427   0.999988
   78       -3.625765   0.983996
   79       -3.557406   0.951638
   80       -3.320629   0.494687
   81       -2.845651   0.000373
   82       -2.815803   0.000170
   83       -2.742988   0.000021
   84       -2.530176   0.000000
   85       -2.487006   0.000000
   86       -2.421247   0.000000
   87       -2.188556   0.000000
   88       -2.180390   0.000000
   89       -1.984691   0.000000
   90       -1.863941   0.000000
   91       -1.707239   0.000000
   92       -1.580097   0.000000
   93       -1.482872   0.000000
   94       -1.326564   0.000000
   95       -1.252116   0.000000
   96       -1.232470   0.000000
   97       -1.124681   0.000000
   98       -1.077445   0.000000
   99       -0.949447   0.000000
  100       -0.829849   0.000000
  101       -0.783533   0.000000
  102       -0.731661   0.000000
  103       -0.656502   0.000000
  104       -0.572742   0.000000
  105       -0.438276   0.000000
  106       -0.362129   0.000000
  107       -0.261273   0.000000
  108       -0.174540   0.000000
  109       -0.090329   0.000000
  110        0.166298   0.000000
  111        0.477359   0.000000
  112        0.582786   0.000000
  113        0.783401   0.000000
  114        1.017582   0.000000
  115        1.161949   0.000000
  116        1.232450   0.000000
  117        1.358299   0.000000
  118        2.211267   0.000000
  119        2.247092   0.000000
  120        2.380434   0.000000
 
  0.0000000E+00  0.1250000E+00  0.0000000E+00  0.3125000E-01
    1      -17.779945   1.000000
    2      -16.797453   1.000000
    3      -16.714921   1.000000
    4      -16.634993   1.000000
    5      -16.555048   1.000000
    6      -16.430806   1.000000
    7      -16.369113   1.000000
    8      -16.302223   1.000000
    9      -16.150560   1.000000
   10      -16.090486   1.000000
   11      -16.043710   1.000000
   12      -15.930810   1.000000
   13      -15.877495   1.000000
   14      -15.681301   1.000000
   15      -15.592417   1.000000
   16      -15.539651   1.000000
   17      -15.322235   1.000000
   18      -15.267909   1.000000
   19       -9.286758   1.000000
   20       -9.169446   1.000000
   21       -9.017358   1.000000
   22       -8.914216   1.000000
   23       -8.809750   1.000000
   24       -8.748540   1.000000
   25       -8.676882   1.000000
   26       -8.570374   1.000000
   27       -8.458774   1.000000
   28       -8.393962   1.000000
   29       -8.371154   1.000000
   30       -8.298280   1.000000
   31       -8.193784   1.000000
   32       -8.123780   1.000000
   33       -8.105296   1.000000
   34       -7.954721   1.000000
   35       -7.830555   1.000000
   36       -7.715685   1.000000
   37       -7.636789   1.000000
   38       -7.576353   1.000000
   39       -7.515031   1.000000
   40       -7.448642   1.000000
   41       -7.290975   1.000000
   42       -7.237531   1.000000
   43       -7.119952   1.000000
   44       -6.959438   1.000000
   45       -6.861461   1.000000
   46       -6.763906   1.000000
   47       -6.675660   1.000000
   48       -6.620357   1.000000
   49       -6.562126   1.000000
   50       -6.532580   1.000000
   51       -6.455306   1.000000
   52       -6.413781   1.000000
   53       -6.323089   1.000000
   54       -6.252591   1.000000
   55       -6.186555   1.000000
   56       -6.074146   1.000000
   57       -5.972788   1.000000
   58       -5.864640   1.000000
   59       -5.779956   1.000000
   60       -5.583875   1.000000
   61       -5.540528   1.000000
   62       -5.460347   1.000000
   63       -5.369654   1.000000
   64       -5.274826   1.000000
   65       -5.035219   1.000000
   66       -4.969059   1.000000
   67       -4.928106   1.000000
   68       -4.885390   1.000000
   69       -4.713924   1.000000
   70       -4.650393   1.000000
   71       -4.605077   1.000000
   72       -4.543657   1.000000
   73       -4.458819   1.000000
   74       -4.329108   1.000000
   75       -4.132662   1.000000
   76       -4.089853   1.000000
   77       -3.799846   0.999631
   78       -3.697174   0.995967
   79       -3.593227   0.972206
   80       -3.306064   0.453705
   81       -3.234608   0.267111
   82       -2.800281   0.000111
   83       -2.720663   0.000010
   84       -2.539087   0.000000
   85       -2.467500   0.000000
   86       -2.353040   0.000000
   87       -2.289252   0.000000
   88       -2.162542   0.000000
   89       -2.132707   0.000000
   90       -2.011909   0.000000
   91       -1.792840   0.000000
   92       -1.562331   0.000000
   93       -1.480042   0.000000
   94       -1.363045   0.000000
   95       -1.250068   0.000000
   96       -1.023570   0.000000
   97       -0.951154   0.000000
   98       -0.883738   0.000000
   99       -0.837261   0.000000
  100       -0.695080   0.000000
  101       -0.596759   0.000000
  102       -0.511498   0.000000
  103       -0.462460   0.000000
  104       -0.447154   0.000000
  105       -0.331166   0.000000
  106       -0.191053   0.000000
  107       -0.116895   0.000000
  108        0.048606   0.000000
  109        0.097890   0.000000
  110        0.193314   0.000000
  111        0.357616   0.000000
  112        0.565372   0.000000
  113        0.666141   0.000000
  114        0.822662   0.000000
  115        0.896189   0.000000
  116        1.111667   0.000000
  117        1.271507   0.000000
  118        1.686975   0.000000
  119        1.876632   0.000000
  120        2.184327   0.000000
 
  0.1250000E+00  0.1250000E+00  0.0000000E+00  0.3125000E-01
    1      -17.731374   1.000000
    2      -16.879324   1.000000
    3      -16.831193   1.000000
    4      -16.675773   1.000000
    5      -16.499864   1.000000
    6      -16.420426   1.000000
    7      -16.369598   1.000000
    8      -16.273033   1.000000
    9      -16.155607   1.000000
   10      -16.043053   1.000000
   11      -15.999374   1.000000
   12      -15.871731   1.000000
   13      -15.846827   1.000000
   14      -15.701799   1.000000
   15      -15.612486   1.000000
   16      -15.544803   1.000000
   17      -15.335961   1.000000
   18      -15.269690   1.000000
   19       -9.363329   1.000000
   20       -9.326642   1.000000
   21       -9.120282   1.000000
   22       -9.056822   1.000000
   23       -8.795174   1.000000
   24       -8.741964   1.000000
   25       -8.627149   1.000000
   26       -8.557583   1.000000
   27       -8.461020   1.000000
   28       -8.359058   1.000000
   29       -8.329973   1.000000
   30       -8.249421   1.000000
   31       -8.147544   1.000000
   32       -8.096792   1.000000
   33       -7.982423   1.000000
   34       -7.898599   1.000000
   35       -7.769859   1.000000
   36       -7.712566   1.000000
   37       -7.576724   1.000000
   38       -7.530069   1.000000
   39       -7.468571   1.000000
   40       -7.362658   1.000000
   41       -7.311353   1.000000
   42       -7.227992   1.000000
   43       -7.148746   1.000000
   44       -6.973739   1.000000
   45       -6.855755   1.000000
   46       -6.780763   1.000000
   47       -6.727963   1.000000
   48       -6.638307   1.000000
   49       -6.618412   1.000000
   50       -6.486497   1.000000
   51       -6.444830   1.000000
   52       -6.381722   1.000000
   53       -6.327338   1.000000
   54       -6.262691   1.000000
   55       -6.142765   1.000000
   56       -6.086296   1.000000
   57       -5.946425   1.000000
   58       -5.849633   1.000000
   59       -5.751858   1.000000
   60       -5.684658   1.000000
   61       -5.576223   1.000000
   62       -5.497432   1.000000
   63       -5.421250   1.000000
   64       -5.332024   1.000000
   65       -5.160505   1.000000
   66       -5.082408   1.000000
   67       -4.944099   1.000000
   68       -4.843360   1.000000
   69       -4.736168   1.000000
   70       -4.604461   1.000000
   71       -4.532134   1.000000
   72       -4.487490   1.000000
   73       -4.364492   1.000000
   74       -4.242455   1.000000
   75       -4.177140   1.000000
   76       -4.078789   1.000000
   77       -3.920514   0.999988
   78       -3.756386   0.998922
   79       -3.537695   0.935942
   80       -3.364287   0.616155
   81       -3.127459   0.083911
   82       -2.780820   0.000064
   83       -2.677512   0.000003
   84       -2.561852   0.000000
   85       -2.430042   0.000000
   86       -2.386736   0.000000
   87       -2.258093   0.000000
   88       -2.139969   0.000000
   89       -2.072825   0.000000
   90       -1.965755   0.000000
   91       -1.795758   0.000000
   92       -1.554212   0.000000
   93       -1.492755   0.000000
   94       -1.374026   0.000000
   95       -1.249583   0.000000
   96       -1.058830   0.000000
   97       -0.972879   0.000000
   98       -0.939639   0.000000
   99       -0.865321   0.000000
  100       -0.805556   0.000000
  101       -0.646582   0.000000
  102       -0.613238   0.000000
  103       -0.541195   0.000000
  104       -0.439717   0.000000
  105       -0.396102   0.000000
  106       -0.247831   0.000000
  107       -0.207551   0.000000
  108        0.008983   0.000000
  109        0.091120   0.000000
  110        0.214318   0.000000
  111        0.392007   0.000000
  112        0.599985   0.000000
  113        0.738715   0.000000
  114        0.923252   0.000000
  115        0.968533   0.000000
  116        1.114519   0.000000
  117        1.204560   0.000000
  118        1.770136   0.000000
  119        1.952430   0.000000
  120        2.253763   0.000000
 
  0.2500000E+00  0.1250000E+00  0.0000000E+00  0.3125000E-01
    1      -17.637507   1.000000
    2      -17.067410   1.000000
    3      -16.916020   1.000000
    4      -16.662481   1.000000
    5      -16.492125   1.000000
    6      -16.431161   1.000000
    7      -16.350969   1.000000
    8      -16.222605   1.000000
    9      -16.142777   1.000000
   10      -16.002298   1.000000
   11      -15.963457   1.000000
   12      -15.838799   1.000000
   13      -15.772903   1.000000
   14      -15.717337   1.000000
   15      -15.624150   1.000000
   16      -15.560640   1.000000
   17      -15.368428   1.000000
   18      -15.262494   1.000000
   19       -9.596425   1.000000
   20       -9.416906   1.000000
   21       -9.214169   1.000000
   22       -9.095283   1.000000
   23       -8.810450   1.000000
   24       -8.704158   1.000000
   25       -8.638334   1.000000
   26       -8.473979   1.000000
   27       -8.395827   1.000000
   28       -8.328185   1.000000
   29       -8.296027   1.000000
   30       -8.240545   1.000000
   31       -8.143511   1.000000
   32       -8.072732   1.000000
   33       -7.995524   1.000000
   34       -7.922628   1.000000
   35       -7.757854   1.000000
   36       -7.630721   1.000000
   37       -7.504792   1.000000
   38       -7.466975   1.000000
   39       -7.383607   1.000000
   40       -7.316851   1.000000
   41       -7.257423   1.000000
   42       -7.173801   1.000000
   43       -7.037944   1.000000
   44       -6.980579   1.000000
   45       -6.892963   1.000000
   46       -6.805469   1.000000
   47       -6.754319   1.000000