<?xml version="1.0" encoding="ISO-8859-1"?>
<modeling>
 <generator>
  <i name="program" type="string">vasp </i>
  <i name="version" type="string">5.4.1  </i>
  <i name="subversion" type="string">05Feb16 (build Jul 05 2020 17:13:04) complex                          parallel </i>
  <i name="platform" type="string">IFC91_ompi </i>
  <i name="date" type="string">2024 05 14 </i>
  <i name="time" type="string">21:00:35 </i>
 </generator>
 <incar>
  <i type="int" name="ISTART">     0</i>
  <i type="string" name="PREC">normal</i>
  <i type="string" name="ALGO"> Normal</i>
  <i type="int" name="ISPIN">     1</i>
  <i type="int" name="ICHARG">     2</i>
  <i type="int" name="IBRION">     1</i>
  <i type="int" name="NSW">   100</i>
  <i type="int" name="ISIF">     3</i>
  <i type="int" name="ISYM">     0</i>
  <i name="SYMPREC">      0.00000001</i>
  <i name="POTIM">      0.50000000</i>
  <i type="logical" name="LREAL"> F  </i>
  <i type="logical" name="LPLANE"> F  </i>
  <i type="int" name="ISMEAR">     0</i>
  <i type="logical" name="LWAVE"> F  </i>
  <i type="logical" name="LCHARG"> F  </i>
  <v type="int" name="KPOINT_BSE">    -1     0     0     0</v>
 </incar>
 <kpoints>
  <generation param="Gamma">
   <v type="int" name="divisions">       8        8        1 </v>
   <v name="usershift">      0.00000000       0.00000000       0.00000000 </v>
   <v name="genvec1">      0.12500000       0.00000000       0.00000000 </v>
   <v name="genvec2">     -0.00000000       0.12500000       0.00000000 </v>
   <v name="genvec3">      0.00000000       0.00000000       1.00000000 </v>
   <v name="shift">      0.00000000       0.00000000       0.00000000 </v>
  </generation>
  <varray name="kpointlist" >
   <v>       0.00000000       0.00000000       0.00000000 </v>
   <v>       0.12500000       0.00000000       0.00000000 </v>
   <v>       0.25000000       0.00000000       0.00000000 </v>
   <v>       0.37500000       0.00000000       0.00000000 </v>
   <v>       0.50000000       0.00000000       0.00000000 </v>
   <v>       0.00000000       0.12500000       0.00000000 </v>
   <v>       0.12500000       0.12500000       0.00000000 </v>
   <v>       0.25000000       0.12500000       0.00000000 </v>
   <v>       0.37500000       0.12500000       0.00000000 </v>
   <v>       0.50000000       0.12500000       0.00000000 </v>
   <v>      -0.37500000       0.12500000       0.00000000 </v>
   <v>      -0.25000000       0.12500000       0.00000000 </v>
   <v>      -0.12500000       0.12500000       0.00000000 </v>
   <v>       0.00000000       0.25000000       0.00000000 </v>
   <v>       0.12500000       0.25000000       0.00000000 </v>
   <v>       0.25000000       0.25000000       0.00000000 </v>
   <v>       0.37500000       0.25000000       0.00000000 </v>
   <v>       0.50000000       0.25000000       0.00000000 </v>
   <v>      -0.37500000       0.25000000       0.00000000 </v>
   <v>      -0.25000000       0.25000000       0.00000000 </v>
   <v>      -0.12500000       0.25000000       0.00000000 </v>
   <v>      -0.00000000       0.37500000       0.00000000 </v>
   <v>       0.12500000       0.37500000       0.00000000 </v>
   <v>       0.25000000       0.37500000       0.00000000 </v>
   <v>       0.37500000       0.37500000       0.00000000 </v>
   <v>       0.50000000       0.37500000       0.00000000 </v>
   <v>      -0.37500000       0.37500000       0.00000000 </v>
   <v>      -0.25000000       0.37500000       0.00000000 </v>
   <v>      -0.12500000       0.37500000       0.00000000 </v>
   <v>       0.00000000       0.50000000       0.00000000 </v>
   <v>       0.12500000       0.50000000       0.00000000 </v>
   <v>       0.25000000       0.50000000       0.00000000 </v>
   <v>       0.37500000       0.50000000       0.00000000 </v>
   <v>       0.50000000       0.50000000       0.00000000 </v>
  </varray>
  <varray name="weights" >
   <v>       0.01562500 </v>
   <v>       0.03125000 </v>
   <v>       0.03125000 </v>
   <v>       0.03125000 </v>
   <v>       0.01562500 </v>
   <v>       0.03125000 </v>
   <v>       0.03125000 </v>
   <v>       0.03125000 </v>
   <v>       0.03125000 </v>
   <v>       0.03125000 </v>
   <v>       0.03125000 </v>
   <v>       0.03125000 </v>
   <v>       0.03125000 </v>
   <v>       0.03125000 </v>
   <v>       0.03125000 </v>
   <v>       0.03125000 </v>
   <v>       0.03125000 </v>
   <v>       0.03125000 </v>
   <v>       0.03125000 </v>
   <v>       0.03125000 </v>
   <v>       0.03125000 </v>
   <v>       0.03125000 </v>
   <v>       0.03125000 </v>
   <v>       0.03125000 </v>
   <v>       0.03125000 </v>
   <v>       0.03125000 </v>
   <v>       0.03125000 </v>
   <v>       0.03125000 </v>
   <v>       0.03125000 </v>
   <v>       0.01562500 </v>
   <v>       0.03125000 </v>
   <v>       0.03125000 </v>
   <v>       0.03125000 </v>
   <v>       0.01562500 </v>
  </varray>
 </kpoints>
 <parameters>
  <separator name="general" >
   <i type="string" name="SYSTEM">unknown system</i>
   <i type="logical" name="LCOMPAT"> F  </i>
  </separator>
  <separator name="electronic" >
   <i type="string" name="PREC">normal</i>
   <i name="ENMAX">    280.00000000</i>
   <i name="ENAUG">    373.43800000</i>
   <i name="EDIFF">      0.00010000</i>
   <i type="int" name="IALGO">    38</i>
   <i type="int" name="IWAVPR">    11</i>
   <i type="int" name="NBANDS">   120</i>
   <i name="NELECT">    159.00000000</i>
   <i type="int" name="TURBO">     0</i>
   <i type="int" name="IRESTART">     0</i>
   <i type="int" name="NREBOOT">     0</i>
   <i type="int" name="NMIN">     0</i>
   <i name="EREF">      0.00000000</i>
   <separator name="electronic smearing" >
    <i type="int" name="ISMEAR">     0</i>
    <i name="SIGMA">      0.20000000</i>
    <i name="KSPACING">      0.50000000</i>
    <i type="logical" name="KGAMMA"> T  </i>
   </separator>
   <separator name="electronic projectors" >
    <i type="logical" name="LREAL"> F  </i>
    <v name="ROPT">      0.00000000      0.00000000      0.00000000      0.00000000</v>
    <i type="int" name="LMAXPAW">  -100</i>
    <i type="int" name="LMAXMIX">     2</i>
    <i type="logical" name="NLSPLINE"> F  </i>
   </separator>
   <separator name="electronic startup" >
    <i type="int" name="ISTART">     0</i>
    <i type="int" name="ICHARG">     2</i>
    <i type="int" name="INIWAV">     1</i>
   </separator>
   <separator name="electronic spin" >
    <i type="int" name="ISPIN">     1</i>
    <i type="logical" name="LNONCOLLINEAR"> F  </i>
    <v name="MAGMOM">      1.00000000      1.00000000      1.00000000      1.00000000      1.00000000      1.00000000      1.00000000      1.00000000      1.00000000      1.00000000      1.00000000      1.00000000      1.00000000      1.00000000      1.00000000      1.00000000      1.00000000      1.00000000      1.00000000      1.00000000
      1.00000000      1.00000000      1.00000000      1.00000000      1.00000000      1.00000000      1.00000000</v>
    <i name="NUPDOWN">     -1.00000000</i>
    <i type="logical" name="LSORBIT"> F  </i>
    <v name="SAXIS">      0.00000000      0.00000000      1.00000000</v>
    <i type="logical" name="LSPIRAL"> F  </i>
    <v name="QSPIRAL">      0.00000000      0.00000000      0.00000000</v>
    <i type="logical" name="LZEROZ"> F  </i>
   </separator>
   <separator name="electronic exchange-correlation" >
    <i type="logical" name="LASPH"> F  </i>
    <i type="logical" name="LMETAGGA"> F  </i>
   </separator>
   <separator name="electronic convergence" >
    <i type="int" name="NELM">    60</i>
    <i type="int" name="NELMDL">    -5</i>
    <i type="int" name="NELMIN">     2</i>
    <i name="ENINI">    280.00000000</i>
    <separator name="electronic convergence detail" >
     <i type="logical" name="LDIAG"> T  </i>
     <i type="logical" name="LSUBROT"> F  </i>
     <i name="WEIMIN">      0.00100000</i>
     <i name="EBREAK">      0.00000021</i>
     <i name="DEPER">      0.30000000</i>
     <i type="int" name="NRMM">     4</i>
     <i name="TIME">      0.40000000</i>
    </separator>
   </separator>
   <separator name="electronic mixer" >
    <i name="AMIX">      0.40000000</i>
    <i name="BMIX">      1.00000000</i>
    <i name="AMIN">      0.10000000</i>
    <i name="AMIX_MAG">      1.60000000</i>
    <i name="BMIX_MAG">      1.00000000</i>
    <separator name="electronic mixer details" >
     <i type="int" name="IMIX">     4</i>
     <i type="logical" name="MIXFIRST"> F  </i>
     <i type="int" name="MAXMIX">   -45</i>
     <i name="WC">    100.00000000</i>
     <i type="int" name="INIMIX">     1</i>
     <i type="int" name="MIXPRE">     1</i>
     <i type="int" name="MREMOVE">     5</i>
    </separator>
   </separator>
   <separator name="electronic dipolcorrection" >
    <i type="logical" name="LDIPOL"> F  </i>
    <i type="logical" name="LMONO"> F  </i>
    <i type="int" name="IDIPOL">     0</i>
    <i name="EPSILON">      1.00000000</i>
    <v name="DIPOL">   -100.00000000   -100.00000000   -100.00000000</v>
    <i name="EFIELD">      0.00000000</i>
   </separator>
  </separator>
  <separator name="grids" >
   <i type="int" name="NGX">    42</i>
   <i type="int" name="NGY">    42</i>
   <i type="int" name="NGZ">   126</i>
   <i type="int" name="NGXF">    84</i>
   <i type="int" name="NGYF">    84</i>
   <i type="int" name="NGZF">   252</i>
   <i type="logical" name="ADDGRID"> F  </i>
  </separator>
  <separator name="ionic" >
   <i type="int" name="NSW">   100</i>
   <i type="int" name="IBRION">     1</i>
   <i type="int" name="ISIF">     3</i>
   <i name="PSTRESS">      0.00000000</i>
   <i name="EDIFFG">      0.00100000</i>
   <i type="int" name="NFREE">     0</i>
   <i name="POTIM">      0.50000000</i>
   <i name="SMASS">     -3.00000000</i>
   <i name="SCALEE">      1.00000000</i>
  </separator>
  <separator name="ionic md" >
   <i name="TEBEG">      0.00010000</i>
   <i name="TEEND">      0.00010000</i>
   <i type="int" name="NBLOCK">     1</i>
   <i type="int" name="KBLOCK">   100</i>
   <i type="int" name="NPACO">   256</i>
   <i name="APACO">     16.00000000</i>
  </separator>
  <separator name="symmetry" >
   <i type="int" name="ISYM">     0</i>
   <i name="SYMPREC">      0.00000001</i>
  </separator>
  <separator name="dos" >
   <i type="logical" name="LORBIT"> F  </i>
   <v name="RWIGS">     -1.00000000     -1.00000000     -1.00000000     -1.00000000</v>
   <i type="int" name="NEDOS">   301</i>
   <i name="EMIN">     10.00000000</i>
   <i name="EMAX">    -10.00000000</i>
   <i name="EFERMI">      0.00000000</i>
  </separator>
  <separator name="writing" >
   <i type="int" name="NWRITE">     2</i>
   <i type="logical" name="LWAVE"> F  </i>
   <i type="logical" name="LCHARG"> F  </i>
   <i type="logical" name="LPARD"> F  </i>
   <i type="logical" name="LVTOT"> F  </i>
   <i type="logical" name="LVHAR"> F  </i>
   <i type="logical" name="LELF"> F  </i>
   <i type="logical" name="LOPTICS"> F  </i>
   <v name="STM">      0.00000000      0.00000000      0.00000000      0.00000000      0.00000000      0.00000000      0.00000000</v>
  </separator>
  <separator name="performance" >
   <i type="int" name="NPAR">    40</i>
   <i type="int" name="NSIM">     4</i>
   <i type="int" name="NBLK">    -1</i>
   <i type="logical" name="LPLANE"> F  </i>
   <i type="logical" name="LSCALAPACK"> T  </i>
   <i type="logical" name="LSCAAWARE"> F  </i>
   <i type="logical" name="LSCALU"> F  </i>
   <i type="logical" name="LASYNC"> F  </i>
   <i type="logical" name="LORBITALREAL"> F  </i>
  </separator>
  <separator name="miscellaneous" >
   <i type="int" name="IDIOT">     3</i>
   <i type="logical" name="LMUSIC"> F  </i>
   <v name="POMASS">     50.94100000     95.94000000    183.85000000     32.06600000</v>
   <v name="DARWINR">      0.00000000      0.00000000      0.00000000      0.00000000</v>
   <v name="DARWINV">      1.00000000      1.00000000      1.00000000      1.00000000</v>
   <i type="logical" name="LCORR"> T  </i>
  </separator>
  <i type="logical" name="GGA_COMPAT"> T  </i>
  <i type="logical" name="LBERRY"> F  </i>
  <i type="int" name="ICORELEVEL">     0</i>
  <i type="logical" name="LDAU"> F  </i>
  <i type="int" name="I_CONSTRAINED_M">     0</i>
  <separator name="electronic exchange-correlation" >
   <i type="string" name="GGA">--</i>
   <i type="int" name="VOSKOWN">     0</i>
   <i type="logical" name="LHFCALC"> F  </i>
   <i type="string" name="PRECFOCK"></i>
   <i type="logical" name="LSYMGRAD"> F  </i>
   <i type="logical" name="LHFONE"> F  </i>
   <i type="logical" name="LRHFCALC"> F  </i>
   <i type="logical" name="LTHOMAS"> F  </i>
   <i type="logical" name="LMODELHF"> F  </i>
   <i name="ENCUT4O">     -1.00000000</i>
   <i type="int" name="EXXOEP">     0</i>
   <i type="int" name="FOURORBIT">     0</i>
   <i name="AEXX">      0.00000000</i>
   <i name="HFALPHA">      0.00000000</i>
   <i name="MCALPHA">      0.00000000</i>
   <i name="ALDAX">      1.00000000</i>
   <i name="AGGAX">      1.00000000</i>
   <i name="ALDAC">      1.00000000</i>
   <i name="AGGAC">      1.00000000</i>
   <i type="int" name="NKREDX">     1</i>
   <i type="int" name="NKREDY">     1</i>
   <i type="int" name="NKREDZ">     1</i>
   <i type="logical" name="SHIFTRED"> F  </i>
   <i type="logical" name="ODDONLY"> F  </i>
   <i type="logical" name="EVENONLY"> F  </i>
   <i type="int" name="LMAXFOCK">     0</i>
   <i type="int" name="NMAXFOCKAE">     0</i>
   <i type="logical" name="LFOCKAEDFT"> F  </i>
   <i name="HFSCREEN">      0.00000000</i>
   <i name="HFSCREENC">      0.00000000</i>
   <i type="int" name="NBANDSGWLOW">     0</i>
  </separator>
  <separator name="vdW DFT" >
   <i type="logical" name="LUSE_VDW"> F  </i>
   <i name="Zab_VDW">     -0.84910000</i>
   <i name="PARAM1">      0.12340000</i>
   <i name="PARAM2">      1.00000000</i>
   <i name="PARAM3">      0.00000000</i>
  </separator>
  <separator name="model GW" >
   <i type="int" name="MODEL_GW">     0</i>
   <i name="MODEL_EPS0">     58.26239943</i>
   <i name="MODEL_ALPHA">      1.00000000</i>
  </separator>
  <separator name="linear response parameters" >
   <i type="logical" name="LEPSILON"> F  </i>
   <i type="logical" name="LRPA"> F  </i>
   <i type="logical" name="LNABLA"> F  </i>
   <i type="logical" name="LVEL"> F  </i>
   <i type="int" name="KINTER">     0</i>
   <i name="CSHIFT">      0.10000000</i>
   <i name="OMEGAMAX">     -1.00000000</i>
   <i name="DEG_THRESHOLD">      0.00200000</i>
  </separator>
  <separator name="orbital magnetization" >
   <i type="logical" name="NUCIND"> F  </i>
   <v name="MAGPOS">      0.00000000      0.00000000      0.00000000</v>
   <i type="logical" name="LNICSALL"> T  </i>
   <i type="logical" name="ORBITALMAG"> F  </i>
   <i type="logical" name="LMAGBLOCH"> F  </i>
   <i type="logical" name="LCHIMAG"> F  </i>
   <i type="logical" name="LGAUGE"> T  </i>
   <i type="int" name="MAGATOM">     0</i>
   <v name="MAGDIPOL">      0.00000000      0.00000000      0.00000000</v>
   <v name="AVECCONST">      0.00000000      0.00000000      0.00000000</v>
  </separator>
  <separator name="response functions" >
   <i type="logical" name="LADDER"> F  </i>
   <i type="logical" name="LFXC"> F  </i>
   <i type="logical" name="LHARTREE"> T  </i>
   <i type="int" name="IBSE">     0</i>
   <v type="int" name="KPOINT">    -1     0     0     0</v>
   <i type="logical" name="LTCTE"> F  </i>
   <i type="logical" name="LTETE"> F  </i>
   <i type="logical" name="LTRIPLET"> F  </i>
   <i type="logical" name="LFXCEPS"> F  </i>
   <i type="logical" name="LFXHEG"> F  </i>
   <i type="int" name="NATURALO">     0</i>
   <i type="logical" name="L2ORDER"> F  </i>
   <i type="logical" name="LUSEW"> F  </i>
   <i name="ENCUTGW">     -2.00000000</i>
   <i name="ENCUTGWSOFT">     -2.00000000</i>
   <i name="ENCUTLF">     -1.00000000</i>
   <i type="int" name="LMAXMP2">    -1</i>
   <i name="SCISSOR">      0.00000000</i>
   <i type="int" name="NOMEGA">     0</i>
   <i type="int" name="NOMEGAR">     0</i>
   <i type="int" name="NBANDSGW">    -1</i>
   <i type="int" name="NBANDSO">    -1</i>
   <i type="int" name="NBANDSV">    -1</i>
   <i type="int" name="NELM">     1</i>
   <i type="int" name="NELMHF">     1</i>
   <i type="int" name="DIM">     3</i>
   <i type="int" name="ANTIRES">     0</i>
   <i name="OMEGAMAX">    -30.00000000</i>
   <i name="OMEGAMIN">    -30.00000000</i>
   <i name="OMEGATL">   -200.00000000</i>
   <i type="int" name="OMEGAGRID">     0</i>
   <i name="CSHIFT">     -0.10000000</i>
   <i type="logical" name="SELFENERGY"> F  </i>
   <i type="logical" name="LSPECTRAL"> F  </i>
   <i type="logical" name="LSPECTRALGW"> F  </i>
   <i type="logical" name="LSINGLES"> F  </i>
   <i type="logical" name="LFERMIGW"> F  </i>
   <i type="logical" name="ODDONLYGW"> F  </i>
   <i type="logical" name="EVENONLYGW"> F  </i>
   <i type="int" name="NKREDLFX">     1</i>
   <i type="int" name="NKREDLFY">     1</i>
   <i type="int" name="NKREDLFZ">     1</i>
   <i type="int" name="MAXMEM">  1800</i>
   <i type="int" name="TELESCOPE">     0</i>
   <i type="int" name="TAUPAR">     1</i>
   <i type="int" name="OMEGAPAR">    -1</i>
   <i name="LAMBDA">      1.00000000</i>
  </separator>
  <separator name="External order field" >
   <i name="OFIELD_KAPPA">      0.00000000</i>
   <v name="OFIELD_K">      0.00000000      0.00000000      0.00000000</v>
   <i name="OFIELD_Q6_NEAR">      0.00000000</i>
   <i name="OFIELD_Q6_FAR">      0.00000000</i>
   <i name="OFIELD_A">      0.00000000</i>
  </separator>
 </parameters>
 <atominfo>
  <atoms>      27 </atoms>
  <types>       4 </types>
  <array name="atoms" >
   <dimension dim="1">ion</dimension>
   <field type="string">element</field>
   <field type="int">atomtype</field>
   <set>
    <rc><c>V </c><c>   1</c></rc>
    <rc><c>V </c><c>   1</c></rc>
    <rc><c>V </c><c>   1</c></rc>
    <rc><c>Mo</c><c>   2</c></rc>
    <rc><c>Mo</c><c>   2</c></rc>
    <rc><c>Mo</c><c>   2</c></rc>
    <rc><c>W </c><c>   3</c></rc>
    <rc><c>W </c><c>   3</c></rc>
    <rc><c>W </c><c>   3</c></rc>
    <rc><c>S </c><c>   4</c></rc>
    <rc><c>S </c><c>   4</c></rc>
    <rc><c>S </c><c>   4</c></rc>
    <rc><c>S </c><c>   4</c></rc>
    <rc><c>S </c><c>   4</c></rc>
    <rc><c>S </c><c>   4</c></rc>
    <rc><c>S </c><c>   4</c></rc>
    <rc><c>S </c><c>   4</c></rc>
    <rc><c>S </c><c>   4</c></rc>
    <rc><c>S </c><c>   4</c></rc>
    <rc><c>S </c><c>   4</c></rc>
    <rc><c>S </c><c>   4</c></rc>
    <rc><c>S </c><c>   4</c></rc>
    <rc><c>S </c><c>   4</c></rc>
    <rc><c>S </c><c>   4</c></rc>
    <rc><c>S </c><c>   4</c></rc>
    <rc><c>S </c><c>   4</c></rc>
    <rc><c>S </c><c>   4</c></rc>
   </set>
  </array>
  <array name="atomtypes" >
   <dimension dim="1">type</dimension>
   <field type="int">atomspertype</field>
   <field type="string">element</field>
   <field>mass</field>
   <field>valence</field>
   <field type="string">pseudopotential</field>
   <set>
    <rc><c>   3</c><c>V </c><c>     50.94100000</c><c>      5.00000000</c><c> PAW_PBE V 08Apr2002                    </c></rc>
    <rc><c>   3</c><c>Mo</c><c>     95.94000000</c><c>      6.00000000</c><c> PAW_PBE Mo 08Apr2002                   </c></rc>
    <rc><c>   3</c><c>W </c><c>    183.85000000</c><c>      6.00000000</c><c> PAW_PBE W 08Apr2002                    </c></rc>
    <rc><c>  18</c><c>S </c><c>     32.06600000</c><c>      6.00000000</c><c>  PAW_PBE S 17Jan2003                   </c></rc>
   </set>
  </array>
 </atominfo>
 <structure name="initialpos" >
  <crystal>
   <varray name="basis" >
    <v>       8.66999996       5.03999989       0.00000000 </v>
    <v>      -8.66999982       5.04000013       0.00000000 </v>
    <v>       0.00000000       0.00000000      30.00000000 </v>
   </varray>
   <i name="volume">   2621.80797419 </i>
   <varray name="rec_basis" >
    <v>       0.05767013       0.09920635       0.00000000 </v>
    <v>      -0.05767013       0.09920635       0.00000000 </v>
    <v>       0.00000000       0.00000000       0.03333333 </v>
   </varray>
  </crystal>
  <varray name="positions" >
   <v>       0.00000000       0.00000000       0.00000000 </v>
   <v>       0.66666669       0.66666669       0.00000000 </v>
   <v>       0.66666669       0.00000000       0.00000000 </v>
   <v>       0.66666669       0.33333334       0.00000000 </v>
   <v>       0.33333334       0.33333334       0.00000000 </v>
   <v>       0.33333334       0.66666669       0.00000000 </v>
   <v>       1.00000000       0.33333334       0.00000000 </v>
   <v>       0.00000000       0.66666669       0.00000000 </v>
   <v>       0.33333334       0.00000000       0.00000000 </v>
   <v>       0.11068511       0.22244981       0.95539999 </v>
   <v>       0.22244981       0.11068511       0.04460000 </v>
   <v>       0.11068511       0.55578315       0.95539999 </v>
   <v>       0.22244981       0.44401845       0.04460000 </v>
   <v>       0.11068511       0.88911647       0.95539999 </v>
   <v>       0.22244981       0.77735180       0.04460000 </v>
   <v>       0.44401845       0.22244981       0.95539999 </v>
   <v>       0.55578315       0.11068511       0.04460000 </v>
   <v>       0.44401845       0.55578315       0.95539999 </v>
   <v>       0.55578315       0.44401845       0.04460000 </v>
   <v>       0.44401845       0.88911647       0.95539999 </v>
   <v>       0.55578315       0.77735180       0.04460000 </v>
   <v>       0.77735180       0.22244981       0.95539999 </v>
   <v>       0.88911647       0.11068511       0.04460000 </v>
   <v>       0.77735180       0.55578315       0.95539999 </v>
   <v>       0.88911647       0.44401845       0.04460000 </v>
   <v>       0.77735180       0.88911647       0.95539999 </v>
   <v>       0.88911647       0.77735180       0.04460000 </v>
  </varray>
 </structure>
 <calculation>
  <scstep>
   <time name="dav">   32.21   32.67</time>
   <time name="total">   32.27   32.74</time>
   <energy>
    <i name="alphaZ">     81.65567618 </i>
    <i name="ewald">  41891.17176702 </i>
    <i name="hartreedc"> -47723.81657825 </i>
    <i name="XCdc">   -242.92514276 </i>
    <i name="pawpsdc">   3467.42045192 </i>
    <i name="pawaedc">  -2871.19716117 </i>
    <i name="eentropy">     -0.55069839 </i>
    <i name="bandstr">   -237.30177272 </i>
    <i name="atom">   6761.44252427 </i>
    <i name="e_fr_energy">   1125.89906611 </i>
    <i name="e_wo_entrp">   1126.44976449 </i>
    <i name="e_0_energy">   1126.17441530 </i>
   </energy>
  </scstep>
  <scstep>
   <time name="dav">   41.55   42.17</time>
   <time name="total">   41.56   42.18</time>
   <energy>
    <i name="e_fr_energy">     -2.72045718 </i>
    <i name="e_wo_entrp">     -2.53385380 </i>
    <i name="e_0_energy">     -2.62715549 </i>
   </energy>
  </scstep>
  <scstep>
   <time name="dav">   41.08   41.68</time>
   <time name="total">   41.08   41.69</time>
   <energy>
    <i name="e_fr_energy">   -199.83778305 </i>
    <i name="e_wo_entrp">   -199.59456817 </i>
    <i name="e_0_energy">   -199.71617561 </i>
   </energy>
  </scstep>
  <scstep>
   <time name="dav">   44.52   45.28</time>
   <time name="total">   44.53   45.29</time>
   <energy>
    <i name="e_fr_energy">   -209.02504658 </i>
    <i name="e_wo_entrp">   -208.73980374 </i>
    <i name="e_0_energy">   -208.88242516 </i>
   </energy>
  </scstep>
  <scstep>
   <time name="dav">   41.94   42.57</time>
   <time name="total">   42.55   43.21</time>
   <energy>
    <i name="e_fr_energy">   -209.32145965 </i>
    <i name="e_wo_entrp">   -209.03903216 </i>
    <i name="e_0_energy">   -209.18024591 </i>
   </energy>
  </scstep>
  <scstep>
   <time name="dav">   45.05   45.77</time>
   <time name="total">   45.72   46.46</time>
   <energy>
    <i name="e_fr_energy">   -237.93521789 </i>
    <i name="e_wo_entrp">   -237.67625355 </i>
    <i name="e_0_energy">   -237.80573572 </i>
   </energy>
  </scstep>
  <scstep>
   <time name="dav">   48.44   49.19</time>
   <time name="total">   49.12   49.89</time>
   <energy>
    <i name="e_fr_energy">   -196.57330750 </i>
    <i name="e_wo_entrp">   -196.23206219 </i>
    <i name="e_0_energy">   -196.40268485 </i>
   </energy>
  </scstep>
  <scstep>
   <time name="dav">   43.34   44.01</time>
   <time name="total">   44.02   44.71</time>
   <energy>
    <i name="e_fr_energy">   -189.48603628 </i>
    <i name="e_wo_entrp">   -189.17464772 </i>
    <i name="e_0_energy">   -189.33034200 </i>
   </energy>
  </scstep>
  <scstep>
   <time name="dav">   48.17   48.97</time>
   <time name="total">   48.86   49.68</time>
   <energy>
    <i name="e_fr_energy">   -188.16333691 </i>
    <i name="e_wo_entrp">   -187.84543164 </i>
    <i name="e_0_energy">   -188.00438427 </i>
   </energy>
  </scstep>
  <scstep>
   <time name="dav">   47.67   48.41</time>
   <time name="total">   48.36   49.13</time>
   <energy>
    <i name="e_fr_energy">   -186.95782215 </i>
    <i name="e_wo_entrp">   -186.60548424 </i>
    <i name="e_0_energy">   -186.78165319 </i>
   </energy>
  </scstep>
  <scstep>
   <time name="dav">   48.27   49.01</time>
   <time name="total">   48.96   49.73</time>
   <energy>
    <i name="e_fr_energy">   -187.05262853 </i>
    <i name="e_wo_entrp">   -186.71066974 </i>
    <i name="e_0_energy">   -186.88164914 </i>
   </energy>
  </scstep>
  <scstep>
   <time name="dav">   46.02   46.75</time>
   <time name="total">   46.71   47.47</time>
   <energy>
    <i name="e_fr_energy">   -186.99369929 </i>
    <i name="e_wo_entrp">   -186.66284057 </i>
    <i name="e_0_energy">   -186.82826993 </i>
   </energy>
  </scstep>
  <scstep>
   <time name="dav">   47.20   47.92</time>
   <time name="total">   47.90   48.63</time>
   <energy>
    <i name="e_fr_energy">   -186.88855891 </i>
    <i name="e_wo_entrp">   -186.55389868 </i>
    <i name="e_0_energy">   -186.72122880 </i>
   </energy>
  </scstep>
  <scstep>
   <time name="dav">   47.44   48.17</time>
   <time name="total">   48.14   48.89</time>
   <energy>
    <i name="e_fr_energy">   -186.85096145 </i>
    <i name="e_wo_entrp">   -186.50641979 </i>
    <i name="e_0_energy">   -186.67869062 </i>
   </energy>
  </scstep>
  <scstep>
   <time name="dav">   46.94   47.68</time>
   <time name="total">   47.64   48.39</time>
   <energy>
    <i name="e_fr_energy">   -186.84957346 </i>
    <i name="e_wo_entrp">   -186.50579708 </i>
    <i name="e_0_energy">   -186.67768527 </i>
   </energy>
  </scstep>
  <scstep>
   <time name="dav">   47.89   48.63</time>
   <time name="total">   48.58   49.35</time>
   <energy>
    <i name="e_fr_energy">   -186.84363434 </i>
    <i name="e_wo_entrp">   -186.50037422 </i>
    <i name="e_0_energy">   -186.67200428 </i>
   </energy>
  </scstep>
  <scstep>
   <time name="dav">   46.18   46.88</time>
   <time name="total">   46.87   47.60</time>
   <energy>
    <i name="e_fr_energy">   -186.84232366 </i>
    <i name="e_wo_entrp">   -186.50054230 </i>
    <i name="e_0_energy">   -186.67143298 </i>
   </energy>
  </scstep>
  <scstep>
   <time name="dav">   43.05   43.75</time>
   <time name="total">   43.74   44.47</time>
   <energy>
    <i name="e_fr_energy">   -186.84209107 </i>
    <i name="e_wo_entrp">   -186.49982549 </i>
    <i name="e_0_energy">   -186.67095828 </i>
   </energy>
  </scstep>
  <scstep>
   <time name="dav">   40.81   41.48</time>
   <time name="total">   41.50   42.19</time>
   <energy>
    <i name="e_fr_energy">   -186.84188682 </i>
    <i name="e_wo_entrp">   -186.49951579 </i>
    <i name="e_0_energy">   -186.67070131 </i>
   </energy>
  </scstep>
  <scstep>
   <time name="dav">   34.95   35.50</time>
   <time name="total">   35.65   36.23</time>
   <energy>
    <i name="e_fr_energy">   -186.84262732 </i>
    <i name="e_wo_entrp">   -186.50069429 </i>
    <i name="e_0_energy">   -186.67166080 </i>
   </energy>
  </scstep>
  <scstep>
   <time name="dav">   32.64   33.15</time>
   <time name="total">   33.33   33.86</time>
   <energy>
    <i name="e_fr_energy">   -186.84340578 </i>
    <i name="e_wo_entrp">   -186.50144501 </i>
    <i name="e_0_energy">   -186.67242539 </i>
   </energy>
  </scstep>
  <scstep>
   <time name="dav">   30.05   30.51</time>
   <time name="total">   30.74   31.23</time>
   <energy>
    <i name="e_fr_energy">   -186.84440519 </i>
    <i name="e_wo_entrp">   -186.50233494 </i>
    <i name="e_0_energy">   -186.67337007 </i>
   </energy>
  </scstep>
  <scstep>
   <time name="dav">   30.34   30.82</time>
   <time name="total">   31.04   31.54</time>
   <energy>
    <i name="e_fr_energy">   -186.84556702 </i>
    <i name="e_wo_entrp">   -186.50362008 </i>
    <i name="e_0_energy">   -186.67459355 </i>
   </energy>
  </scstep>
  <scstep>
   <time name="dav">   27.83   28.28</time>
   <time name="total">   28.53   29.00</time>
   <energy>
    <i name="e_fr_energy">   -186.84612429 </i>
    <i name="e_wo_entrp">   -186.50411617 </i>
    <i name="e_0_energy">   -186.67512023 </i>
   </energy>
  </scstep>
  <scstep>
   <time name="dav">   23.96   24.35</time>
   <time name="total">   24.68   25.09</time>
   <energy>
    <i name="e_fr_energy">   -186.84651765 </i>
    <i name="e_wo_entrp">   -186.50449393 </i>
    <i name="e_0_energy">   -186.67550579 </i>
   </energy>
  </scstep>
  <scstep>
   <time name="dav">   27.04   27.46</time>
   <time name="total">   27.76   28.20</time>
   <energy>
    <i name="e_fr_energy">   -186.84676171 </i>
    <i name="e_wo_entrp">   -186.50475510 </i>
    <i name="e_0_energy">   -186.67575841 </i>
   </energy>
  </scstep>
  <scstep>
   <time name="dav">   29.60   30.09</time>
   <time name="total">   29.66   30.15</time>
   <energy>
    <i name="alphaZ">     81.65567618 </i>
    <i name="ewald">  41891.17176702 </i>
    <i name="hartreedc"> -47833.66678501 </i>
    <i name="XCdc">   -231.60453937 </i>
    <i name="pawpsdc">   4192.08692183 </i>
    <i name="pawaedc">  -3610.08849026 </i>
    <i name="eentropy">     -0.34201239 </i>
    <i name="bandstr">  -1437.50191056 </i>
    <i name="atom">   6761.44252427 </i>
    <i name="e_fr_energy">   -186.84684828 </i>
    <i name="e_wo_entrp">   -186.50483589 </i>
    <i name="e_0_energy">   -186.67584208 </i>
   </energy>
  </scstep>
  <structure>
   <crystal>
    <varray name="basis" >
     <v>       8.66999996       5.03999989       0.00000000 </v>
     <v>      -8.66999982       5.04000013       0.00000000 </v>
     <v>       0.00000000       0.00000000      30.00000000 </v>
    </varray>
    <i name="volume">   2621.80797419 </i>
    <varray name="rec_basis" >
     <v>       0.05767013       0.09920635       0.00000000 </v>
     <v>      -0.05767013       0.09920635       0.00000000 </v>
     <v>       0.00000000       0.00000000       0.03333333 </v>
    </varray>
   </crystal>
   <varray name="positions" >
    <v>       0.00000000       0.00000000       0.00000000 </v>
    <v>       0.66666669       0.66666669       0.00000000 </v>
    <v>       0.66666669       0.00000000       0.00000000 </v>
    <v>       0.66666669       0.33333334       0.00000000 </v>
    <v>       0.33333334       0.33333334       0.00000000 </v>
    <v>       0.33333334       0.66666669       0.00000000 </v>
    <v>       1.00000000       0.33333334       0.00000000 </v>
    <v>       0.00000000       0.66666669       0.00000000 </v>
    <v>       0.33333334       0.00000000       0.00000000 </v>
    <v>       0.11068511       0.22244981       0.95539999 </v>
    <v>       0.22244981       0.11068511       0.04460000 </v>
    <v>       0.11068511       0.55578315       0.95539999 </v>
    <v>       0.22244981       0.44401845       0.04460000 </v>
    <v>       0.11068511       0.88911647       0.95539999 </v>
    <v>       0.22244981       0.77735180       0.04460000 </v>
    <v>       0.44401845       0.22244981       0.95539999 </v>
    <v>       0.55578315       0.11068511       0.04460000 </v>
    <v>       0.44401845       0.55578315       0.95539999 </v>
    <v>       0.55578315       0.44401845       0.04460000 </v>
    <v>       0.44401845       0.88911647       0.95539999 </v>
    <v>       0.55578315       0.77735180       0.04460000 </v>
    <v>       0.77735180       0.22244981       0.95539999 </v>
    <v>       0.88911647       0.11068511       0.04460000 </v>
    <v>       0.77735180       0.55578315       0.95539999 </v>
    <v>       0.88911647       0.44401845       0.04460000 </v>
    <v>       0.77735180       0.88911647       0.95539999 </v>
    <v>       0.88911647       0.77735180       0.04460000 </v>
   </varray>
  </structure>
  <varray name="forces" >
   <v>      -0.07856452       0.07944053      -0.02833786 </v>
   <v>      -0.10663368      -0.32786164      -0.01409947 </v>
   <v>      -0.01259714      -0.12518887      -0.04931430 </v>
   <v>      -0.26534257      -0.13484920       0.09242723 </v>
   <v>       0.00471728       0.32197637       0.11866211 </v>
   <v>       0.28241100      -0.14047199      -0.06595689 </v>
   <v>       0.06307180       0.21696468      -0.13581683 </v>
   <v>       0.14405656      -0.17921975      -0.06451103 </v>
   <v>       0.00034791       0.34382078       0.14720422 </v>
   <v>       0.33998131      -0.70415439      -2.13204289 </v>
   <v>      -0.35052253      -0.68579183       2.15300201 </v>
   <v>       0.04940654      -0.13707194      -2.98404258 </v>
   <v>      -0.17098751      -0.15372928       2.89353636 </v>
   <v>      -0.58931054      -0.02409974      -2.10460893 </v>
   <v>      -0.29213881       0.03018622       2.84038059 </v>
   <v>       0.20129877      -0.15650104      -2.88473760 </v>
   <v>       0.63978343      -0.16291448       2.14768067 </v>
   <v>       0.50495849       0.70506267      -2.17645573 </v>
   <v>      -0.51618558       0.67674751       2.18912745 </v>
   <v>       0.38067125       0.67542608      -2.15184494 </v>
   <v>       0.32798772       0.67280209       1.41980388 </v>
   <v>       0.62676186      -0.53177705      -2.09957959 </v>
   <v>       0.24011166      -0.53511348       1.41002704 </v>
   <v>      -0.65870353       0.17257645      -2.10517720 </v>
   <v>      -0.07664227       0.09756811       2.90403720 </v>
   <v>       0.05679705       0.00519653      -0.76264990 </v>
   <v>      -0.74473395       0.00097667       1.44328697 </v>
  </varray>
  <varray name="stress" >
   <v>       7.25787989      -0.04957329      -1.51381461 </v>
   <v>      -0.04957329       4.49774948      -0.05221725 </v>
   <v>      -1.51381449      -0.05221712      30.31641666 </v>
  </varray>
  <energy>
   <i name="e_fr_energy">   -186.84684828 </i>
   <i name="e_wo_entrp">   -186.67584208 </i>
   <i name="e_0_energy">     -0.34201239 </i>
  </energy>
  <time name="totalsc"> 1159.03 1177.60</time>
 </calculation>
 <calculation>
  <scstep>
   <time name="dav">   30.81   31.29</time>
   <time name="total">   31.54   32.03</time>
   <energy>
    <i name="alphaZ">     78.92098820 </i>
    <i name="ewald">  39378.93105118 </i>
    <i name="hartreedc"> -45336.23667657 </i>
    <i name="XCdc">   -239.06932941 </i>
    <i name="pawpsdc">   4192.07233380 </i>
    <i name="pawaedc">  -3610.07404023 </i>
    <i name="eentropy">     -0.27932163 </i>
    <i name="bandstr">  -1413.20652960 </i>
    <i name="atom">   6761.44252427 </i>
    <i name="e_fr_energy">   -187.49899999 </i>
    <i name="e_wo_entrp">   -187.21967835 </i>
    <i name="e_0_energy">   -187.35933917 </i>
   </energy>
  </scstep>
  <scstep>
   <time name="dav">   42.75   43.44</time>
   <time name="total">   43.47   44.17</time>
   <energy>
    <i name="e_fr_energy">   -189.37991628 </i>
    <i name="e_wo_entrp">   -189.05450315 </i>
    <i name="e_0_energy">   -189.21720972 </i>
   </energy>
  </scstep>
  <scstep>
   <time name="dav">   42.98   43.66</time>
   <time name="total">   43.70   44.40</time>
   <energy>
    <i name="e_fr_energy">   -189.35357817 </i>
    <i name="e_wo_entrp">   -189.09652899 </i>
    <i name="e_0_energy">   -189.22505358 </i>
   </energy>
  </scstep>
  <scstep>
   <time name="dav">   41.49   42.11</time>
   <time name="total">   42.22   42.86</time>
   <energy>
    <i name="e_fr_energy">   -188.75381377 </i>
    <i name="e_wo_entrp">   -188.47310496 </i>
    <i name="e_0_energy">   -188.61345936 </i>
   </energy>
  </scstep>
  <scstep>
   <time name="dav">   41.19   41.86</time>
   <time name="total">   41.91   42.61</time>
   <energy>
    <i name="e_fr_energy">   -188.86834790 </i>
    <i name="e_wo_entrp">   -188.58152328 </i>
    <i name="e_0_energy">   -188.72493559 </i>
   </energy>
  </scstep>
  <scstep>
   <time name="dav">   43.66   44.35</time>
   <time name="total">   44.40   45.10</time>
   <energy>
    <i name="e_fr_energy">   -188.73750101 </i>
    <i name="e_wo_entrp">   -188.45600113 </i>
    <i name="e_0_energy">   -188.59675107 </i>
   </energy>
  </scstep>
  <scstep>
   <time name="dav">   42.16   42.83</time>
   <time name="total">   42.89   43.58</time>
   <energy>
    <i name="e_fr_energy">   -188.68608021 </i>
    <i name="e_wo_entrp">   -188.40454055 </i>
    <i name="e_0_energy">   -188.54531038 </i>
   </energy>
  </scstep>
  <scstep>
   <time name="dav">   43.25   43.90</time>
   <time name="total">   43.98   44.66</time>
   <energy>
    <i name="e_fr_energy">   -188.68393693 </i>
    <i name="e_wo_entrp">   -188.40159629 </i>
    <i name="e_0_energy">   -188.54276661 </i>
   </energy>
  </scstep>
  <scstep>
   <time name="dav">   41.43   42.03</time>
   <time name="total">   42.16   42.78</time>
   <energy>
    <i name="e_fr_energy">   -188.65574558 </i>
    <i name="e_wo_entrp">   -188.37649126 </i>
    <i name="e_0_energy">   -188.51611842 </i>
   </energy>
  </scstep>
  <scstep>
   <time name="dav">   44.10   44.79</time>
   <time name="total">   44.82   45.53</time>
   <energy>
    <i name="e_fr_energy">   -188.65481208 </i>
    <i name="e_wo_entrp">   -188.37654938 </i>
    <i name="e_0_energy">   -188.51568073 </i>
   </energy>
  </scstep>
  <scstep>
   <time name="dav">   43.47   44.12</time>
   <time name="total">   44.19   44.86</time>
   <energy>
    <i name="e_fr_energy">   -188.65437441 </i>
    <i name="e_wo_entrp">   -188.37678696 </i>
    <i name="e_0_energy">   -188.51558069 </i>
   </energy>
  </scstep>
  <scstep>
   <time name="dav">   39.26   39.85</time>
   <time name="total">   39.31   39.92</time>
   <energy>
    <i name="alphaZ">     78.92098820 </i>
    <i name="ewald">  39378.93105118 </i>
    <i name="hartreedc"> -45347.21868846 </i>
    <i name="XCdc">   -237.97742881 </i>
    <i name="pawpsdc">   3952.40506972 </i>
    <i name="pawaedc">  -3366.93030789 </i>
    <i name="eentropy">     -0.27773783 </i>
    <i name="bandstr">  -1407.94985964 </i>
    <i name="atom">   6761.44252427 </i>
    <i name="e_fr_energy">   -188.65438925 </i>
    <i name="e_wo_entrp">   -188.37665142 </i>
    <i name="e_0_energy">   -188.51552034 </i>
   </energy>
  </scstep>
  <structure>
   <crystal>
    <varray name="basis" >
     <v>       8.85325620       5.10502337       0.00000000 </v>
     <v>      -8.85471711       5.10753697       0.00000000 </v>
     <v>       0.00000000       0.00000000      30.00000000 </v>
    </varray>
    <i name="volume">   2712.65613657 </i>
    <varray name="rec_basis" >
     <v>       0.05648564       0.09792672       0.00000000 </v>
     <v>      -0.05645784       0.09791056       0.00000000 </v>
     <v>       0.00000000       0.00000000       0.03333333 </v>
    </varray>
   </crystal>
   <varray name="positions" >
    <v>       0.00016162       0.00059878      -0.00004557 </v>
    <v>       0.66480088       0.66539422      -0.00002267 </v>
    <v>       0.66603249      -0.00056410      -0.00007930 </v>
    <v>       0.66528308       0.33342618       0.00014863 </v>
    <v>       0.33488744       0.33486119       0.00019082 </v>
    <v>       0.33344676       0.66520868      -0.00010606 </v>
    <v>       1.00121386       0.33419626      -0.00021841 </v>
    <v>      -0.00045695       0.66540816      -0.00010374 </v>
    <v>       0.33497983       0.00164455       0.00023672 </v>
    <v>       0.10826093       0.21813386       0.95197148 </v>
    <v>       0.21819242       0.10837814       0.04806222 </v>
    <v>       0.11016654       0.55498967       0.95060139 </v>
    <v>       0.22123835       0.44375842       0.04925306 </v>
    <v>       0.10893021       0.89064068       0.95201559 </v>
    <v>       0.22178150       0.77830904       0.04916758 </v>
    <v>       0.44382949       0.22114075       0.95076108 </v>
    <v>       0.55678343       0.10812543       0.04805366 </v>
    <v>       0.44879774       0.55775269       0.95190006 </v>
    <v>       0.55758594       0.44869346       0.04812031 </v>
    <v>       0.44831012       0.89128995       0.95193963 </v>
    <v>       0.55991568       0.77965930       0.04688317 </v>
    <v>       0.77655048       0.21816098       0.95202368 </v>
    <v>       0.88722345       0.10745604       0.04686745 </v>
    <v>       0.77634512       0.55844172       0.95201468 </v>
    <v>       0.88937019       0.44469864       0.04926995 </v>
    <v>       0.77753469       0.88898332       0.95417358 </v>
    <v>       0.88704917       0.77942844       0.04692093 </v>
   </varray>
  </structure>
  <varray name="forces" >
   <v>      -0.03253350       0.09810955      -0.00334551 </v>
   <v>      -0.05016544      -0.32846828       0.01147334 </v>
   <v>      -0.09947877      -0.11428897      -0.08463660 </v>
   <v>      -0.25516104      -0.21683397      -0.03902250 </v>
   <v>       0.05802497       0.27810508       0.03004268 </v>
   <v>       0.09279553      -0.43894643       0.03299615 </v>
   <v>      -0.12768668       0.48683893      -0.05891102 </v>
   <v>       0.42462942      -0.18583329       0.04713527 </v>
   <v>      -0.03733880       0.39713714       0.03542472 </v>
   <v>      -0.11264884      -0.04067020       0.04813446 </v>
   <v>       0.10995341      -0.04116462      -0.00864787 </v>
   <v>      -0.06069216      -0.10706180      -0.18060387 </v>
   <v>      -0.04943417      -0.12020848       0.13723000 </v>
   <v>       0.10381150      -0.00497902       0.14559816 </v>
   <v>      -0.11084452      -0.00186695      -0.10017490 </v>
   <v>       0.04685398      -0.11245023      -0.09081281 </v>
   <v>      -0.01239019      -0.10312188       0.11104973 </v>
   <v>       0.03675011       0.08616089      -0.15034765 </v>
   <v>      -0.04496288       0.08379202       0.19480252 </v>
   <v>      -0.10087906       0.04566234       0.06662912 </v>
   <v>       0.02613610       0.05745371      -0.07618714 </v>
   <v>       0.08017968       0.05442279       0.13491123 </v>
   <v>      -0.06030806       0.05473434      -0.15888113 </v>
   <v>       0.00587089       0.10980409       0.01692760 </v>
   <v>       0.07823497       0.08475525      -0.01387545 </v>
   <v>       0.00701390      -0.01139699       0.19566829 </v>
   <v>       0.08426965      -0.00968502      -0.24257682 </v>
  </varray>
  <varray name="stress" >
   <v>     -19.99240223      -0.01073404       0.01092988 </v>
   <v>      -0.01073419     -19.58187031      -0.01021699 </v>
   <v>       0.01092971      -0.01021709      -1.80499463 </v>
  </varray>
  <energy>
   <i name="e_fr_energy">   -188.65438925 </i>
   <i name="e_wo_entrp">   -188.51552034 </i>
   <i name="e_0_energy">     -0.27773783 </i>
  </energy>
  <time name="totalsc">  564.15  573.20</time>
 </calculation>
 <calculation>
  <scstep>
   <time name="dav">   33.62   34.16</time>
   <time name="total">   34.33   34.88</time>
   <energy>
    <i name="alphaZ">     82.34607177 </i>
    <i name="ewald">  41302.42519312 </i>
    <i name="hartreedc"> -47301.30283165 </i>
    <i name="XCdc">   -233.85654034 </i>
    <i name="pawpsdc">   3950.54987478 </i>
    <i name="pawaedc">  -3365.05337613 </i>
    <i name="eentropy">     -0.23210996 </i>
    <i name="bandstr">  -1386.89470611 </i>
    <i name="atom">   6761.44252427 </i>
    <i name="e_fr_energy">   -190.57590024 </i>
    <i name="e_wo_entrp">   -190.34379029 </i>
    <i name="e_0_energy">   -190.45984526 </i>
   </energy>
  </scstep>
  <scstep>
   <time name="dav">   40.60   41.24</time>
   <time name="total">   41.30   41.97</time>
   <energy>
    <i name="e_fr_energy">   -190.52523019 </i>
    <i name="e_wo_entrp">   -190.30797974 </i>
    <i name="e_0_energy">   -190.41660497 </i>
   </energy>
  </scstep>
  <scstep>
   <time name="dav">   42.89   43.55</time>
   <time name="total">   43.61   44.28</time>
   <energy>
    <i name="e_fr_energy">   -190.05948917 </i>
    <i name="e_wo_entrp">   -189.80972580 </i>
    <i name="e_0_energy">   -189.93460748 </i>
   </energy>
  </scstep>
  <scstep>
   <time name="dav">   44.62   45.33</time>
   <time name="total">   45.33   46.06</time>
   <energy>
    <i name="e_fr_energy">   -189.84832016 </i>
    <i name="e_wo_entrp">   -189.62563761 </i>
    <i name="e_0_energy">   -189.73697889 </i>
   </energy>
  </scstep>
  <scstep>
   <time name="dav">   42.34   43.03</time>
   <time name="total">   43.05   43.76</time>
   <energy>
    <i name="e_fr_energy">   -189.81086334 </i>
    <i name="e_wo_entrp">   -189.57010679 </i>
    <i name="e_0_energy">   -189.69048506 </i>
   </energy>
  </scstep>
  <scstep>
   <time name="dav">   43.86   44.51</time>
   <time name="total">   44.57   45.24</time>
   <energy>
    <i name="e_fr_energy">   -189.74723016 </i>
    <i name="e_wo_entrp">   -189.51616533 </i>
    <i name="e_0_energy">   -189.63169775 </i>
   </energy>
  </scstep>
  <scstep>
   <time name="dav">   40.79   41.44</time>
   <time name="total">   41.50   42.18</time>
   <energy>
    <i name="e_fr_energy">   -189.74241952 </i>
    <i name="e_wo_entrp">   -189.50948618 </i>
    <i name="e_0_energy">   -189.62595285 </i>
   </energy>
  </scstep>
  <scstep>
   <time name="dav">   43.45   44.18</time>
   <time name="total">   44.17   44.93</time>
   <energy>
    <i name="e_fr_energy">   -189.74270220 </i>
    <i name="e_wo_entrp">   -189.51033028 </i>
    <i name="e_0_energy">   -189.62651624 </i>
   </energy>
  </scstep>
  <scstep>
   <time name="dav">   40.23   40.87</time>
   <time name="total">   40.96   41.62</time>
   <energy>
    <i name="e_fr_energy">   -189.74166509 </i>
    <i name="e_wo_entrp">   -189.50916034 </i>
    <i name="e_0_energy">   -189.62541271 </i>
   </energy>
  </scstep>
  <scstep>
   <time name="dav">   35.86   36.43</time>
   <time name="total">   36.57   37.16</time>
   <energy>
    <i name="e_fr_energy">   -189.74192165 </i>
    <i name="e_wo_entrp">   -189.50915891 </i>
    <i name="e_0_energy">   -189.62554028 </i>
   </energy>
  </scstep>
  <scstep>
   <time name="dav">   30.47   30.94</time>
   <time name="total">   30.52   31.01</time>
   <energy>
    <i name="alphaZ">     82.34607177 </i>
    <i name="ewald">  41302.42519312 </i>
    <i name="hartreedc"> -47274.39409632 </i>
    <i name="XCdc">   -235.25049703 </i>
    <i name="pawpsdc">   4038.04354745 </i>
    <i name="pawaedc">  -3453.73717819 </i>
    <i name="eentropy">     -0.23272676 </i>
    <i name="bandstr">  -1410.38467837 </i>
    <i name="atom">   6761.44252427 </i>
    <i name="e_fr_energy">   -189.74184005 </i>
    <i name="e_wo_entrp">   -189.50911330 </i>
    <i name="e_0_energy">   -189.62547668 </i>
   </energy>
  </scstep>
  <structure>
   <crystal>
    <varray name="basis" >
     <v>       8.66519232       4.99873947       0.00000000 </v>
     <v>      -8.66673865       5.00140268       0.00000000 </v>
     <v>       0.00000000       0.00000000      30.00000000 </v>
    </varray>
    <i name="volume">   2599.82654111 </i>
    <varray name="rec_basis" >
     <v>       0.05771234       0.10000750       0.00000000 </v>
     <v>      -0.05768161       0.09998966       0.00000000 </v>
     <v>       0.00000000       0.00000000       0.03333333 </v>
    </varray>
   </crystal>
   <varray name="positions" >
    <v>       0.00029323       0.00079261      -0.00004746 </v>
    <v>       0.66420803       0.66489743      -0.00001620 </v>
    <v>       0.66574773      -0.00065852      -0.00012709 </v>
    <v>       0.66467926       0.33331058       0.00012660 </v>
    <v>       0.33540427       0.33526693       0.00020778 </v>
    <v>       0.33280744       0.66439195      -0.00008743 </v>
    <v>       1.00189924       0.33512578      -0.00025167 </v>
    <v>      -0.00035892       0.66469387      -0.00007713 </v>
    <v>       0.33560286       0.00233891       0.00025672 </v>
    <v>       0.10808568       0.21817414       0.95199865 </v>
    <v>       0.21822934       0.10820471       0.04805733 </v>
    <v>       0.10993088       0.55487015       0.95049941 </v>
    <v>       0.22099165       0.44360633       0.04933054 </v>
    <v>       0.10902128       0.89053315       0.95209780 </v>
    <v>       0.22167235       0.77841195       0.04911102 </v>
    <v>       0.44368779       0.22090945       0.95070980 </v>
    <v>       0.55660052       0.10796625       0.04811636 </v>
    <v>       0.44897583       0.55786044       0.95181517 </v>
    <v>       0.55768191       0.44887543       0.04823030 </v>
    <v>       0.44828934       0.89146216       0.95197725 </v>
    <v>       0.56003599       0.77972959       0.04684015 </v>
    <v>       0.77671747       0.21817457       0.95209985 </v>
    <v>       0.88725654       0.10760449       0.04677774 </v>
    <v>       0.77653288       0.55861821       0.95202424 </v>
    <v>       0.88958564       0.44476439       0.04926211 </v>
    <v>       0.77752249       0.88895771       0.95428406 </v>
    <v>       0.88711374       0.77933179       0.04678397 </v>
   </varray>
  </structure>
  <varray name="forces" >
   <v>       0.00688776       0.13537406       0.00481096 </v>
   <v>      -0.01070912      -0.35001132       0.01603022 </v>
   <v>      -0.15897510      -0.10553070      -0.07176767 </v>
   <v>      -0.25746109      -0.25156636      -0.05394231 </v>
   <v>       0.08562290       0.24508224       0.00073649 </v>
   <v>       0.02225650      -0.54470471       0.03985797 </v>
   <v>      -0.18073120       0.57854229      -0.02438458 </v>
   <v>       0.52133747      -0.16184708       0.05977359 </v>
   <v>      -0.06723044       0.39816394      -0.00307256 </v>
   <v>       0.01667781      -0.08808676      -0.44345665 </v>
   <v>      -0.01866172      -0.09753500       0.49338287 </v>
   <v>      -0.02438058      -0.03253180      -0.78800109 </v>
   <v>       0.00021177      -0.06056466       0.69629970 </v>
   <v>      -0.02875544      -0.00122628      -0.33473705 </v>
   <v>      -0.04114553       0.00549073       0.43527012 </v>
   <v>      -0.00426335      -0.04928355      -0.64641272 </v>
   <v>       0.11343073      -0.01877263       0.63227591 </v>
   <v>       0.07713005       0.14702606      -0.64485875 </v>
   <v>      -0.09069992       0.15804003       0.70702832 </v>
   <v>       0.01283473       0.09208201      -0.41383243 </v>
   <v>       0.05925872       0.11485451       0.36308878 </v>
   <v>       0.07431443      -0.06893318      -0.34495764 </v>
   <v>       0.00787264      -0.06599443       0.27977111 </v>
   <v>      -0.10994637       0.04455742      -0.47566804 </v>
   <v>       0.04579177       0.00413925       0.53553229 </v>
   <v>       0.01642736      -0.01458138      -0.21198676 </v>
   <v>      -0.06709480      -0.01218270       0.19321990 </v>
  </varray>
  <varray name="stress" >
   <v>     -10.20276944       0.01288806      -0.01838934 </v>
   <v>       0.01288797      -9.88948747       0.00028835 </v>
   <v>      -0.01838916       0.00028826       6.52034404 </v>
  </varray>
  <energy>
   <i name="e_fr_energy">   -189.74184005 </i>
   <i name="e_wo_entrp">   -189.62547668 </i>
   <i name="e_0_energy">     -0.23272676 </i>
  </energy>
  <time name="totalsc">  505.41  513.71</time>
 </calculation>
 <calculation>
  <scstep>
   <time name="dav">   30.46   30.96</time>
   <time name="total">   31.19   31.70</time>
   <energy>
    <i name="alphaZ">     85.83203552 </i>
    <i name="ewald">  42838.10336747 </i>
    <i name="hartreedc"> -48854.70675202 </i>
    <i name="XCdc">   -232.95752046 </i>
    <i name="pawpsdc">   4038.55858318 </i>
    <i name="pawaedc">  -3454.25308907 </i>
    <i name="eentropy">     -0.19037516 </i>
    <i name="bandstr">  -1373.14592795 </i>
    <i name="atom">   6761.44252427 </i>
    <i name="e_fr_energy">   -191.31715423 </i>
    <i name="e_wo_entrp">   -191.12677907 </i>
    <i name="e_0_energy">   -191.22196665 </i>
   </energy>
  </scstep>
  <scstep>
   <time name="dav">   46.03   46.76</time>
   <time name="total">   46.73   47.48</time>
   <energy>
    <i name="e_fr_energy">   -191.11790090 </i>
    <i name="e_wo_entrp">   -190.92917929 </i>
    <i name="e_0_energy">   -191.02354009 </i>
   </energy>
  </scstep>
  <scstep>
   <time name="dav">   42.37   43.05</time>
   <time name="total">   43.07   43.77</time>
   <energy>
    <i name="e_fr_energy">   -191.31178367 </i>
    <i name="e_wo_entrp">   -191.09674021 </i>
    <i name="e_0_energy">   -191.20426194 </i>
   </energy>
  </scstep>
  <scstep>
   <time name="dav">   41.55   42.16</time>
   <time name="total">   42.25   42.90</time>
   <energy>
    <i name="e_fr_energy">   -190.90035103 </i>
    <i name="e_wo_entrp">   -190.70283764 </i>
    <i name="e_0_energy">   -190.80159433 </i>
   </energy>
  </scstep>
  <scstep>
   <time name="dav">   39.25   39.87</time>
   <time name="total">   39.97   40.62</time>
   <energy>
    <i name="e_fr_energy">   -190.90261764 </i>
    <i name="e_wo_entrp">   -190.71883184 </i>
    <i name="e_0_energy">   -190.81072474 </i>
   </energy>
  </scstep>
  <scstep>
   <time name="dav">   42.18   42.82</time>
   <time name="total">   42.88   43.54</time>
   <energy>
    <i name="e_fr_energy">   -190.73246738 </i>
    <i name="e_wo_entrp">   -190.53687936 </i>
    <i name="e_0_energy">   -190.63467337 </i>
   </energy>
  </scstep>
  <scstep>
   <time name="dav">   43.24   43.85</time>
   <time name="total">   43.94   44.59</time>
   <energy>
    <i name="e_fr_energy">   -190.73256698 </i>
    <i name="e_wo_entrp">   -190.53769750 </i>
    <i name="e_0_energy">   -190.63513224 </i>
   </energy>
  </scstep>
  <scstep>
   <time name="dav">   41.05   41.69</time>
   <time name="total">   41.76   42.42</time>
   <energy>
    <i name="e_fr_energy">   -190.73027807 </i>
    <i name="e_wo_entrp">   -190.53537822 </i>
    <i name="e_0_energy">   -190.63282814 </i>
   </energy>
  </scstep>
  <scstep>
   <time name="dav">   40.59   41.18</time>
   <time name="total">   41.30   41.91</time>
   <energy>
    <i name="e_fr_energy">   -190.72813794 </i>
    <i name="e_wo_entrp">   -190.53316384 </i>
    <i name="e_0_energy">   -190.63065089 </i>
   </energy>
  </scstep>
  <scstep>
   <time name="dav">   39.00   39.62</time>
   <time name="total">   39.70   40.33</time>
   <energy>
    <i name="e_fr_energy">   -190.72840447 </i>
    <i name="e_wo_entrp">   -190.53331536 </i>
    <i name="e_0_energy">   -190.63085991 </i>
   </energy>
  </scstep>
  <scstep>
   <time name="dav">   36.54   37.14</time>
   <time name="total">   37.25   37.87</time>
   <energy>
    <i name="e_fr_energy">   -190.72821759 </i>
    <i name="e_wo_entrp">   -190.53308509 </i>
    <i name="e_0_energy">   -190.63065134 </i>
   </energy>
  </scstep>
  <scstep>
   <time name="dav">   27.80   28.23</time>
   <time name="total">   27.85   28.29</time>
   <energy>
    <i name="alphaZ">     85.83203552 </i>
    <i name="ewald">  42838.10336747 </i>
    <i name="hartreedc"> -48826.12098979 </i>
    <i name="XCdc">   -234.29617587 </i>
    <i name="pawpsdc">   4063.50103379 </i>
    <i name="pawaedc">  -3479.36872354 </i>
    <i name="eentropy">     -0.19517371 </i>
    <i name="bandstr">  -1399.62611896 </i>
    <i name="atom">   6761.44252427 </i>
    <i name="e_fr_energy">   -190.72822083 </i>
    <i name="e_wo_entrp">   -190.53304711 </i>
    <i name="e_0_energy">   -190.63063397 </i>
   </energy>
  </scstep>
  <structure>
   <crystal>
    <varray name="basis" >
     <v>       8.48366138       4.89933051       0.00000000 </v>
     <v>      -8.48431711       4.90045309       0.00000000 </v>
     <v>       0.00000000       0.00000000      30.00000000 </v>
    </varray>
    <i name="volume">   2494.23774755 </i>
    <varray name="rec_basis" >
     <v>       0.05894129       0.10204701       0.00000000 </v>
     <v>      -0.05892779       0.10203913       0.00000000 </v>
     <v>       0.00000000       0.00000000       0.03333333 </v>
    </varray>
   </crystal>
   <varray name="positions" >
    <v>       0.00131576       0.00165144      -0.00003056 </v>
    <v>       0.66198114       0.66263446       0.00002085 </v>
    <v>       0.66444865      -0.00063720      -0.00026461 </v>
    <v>       0.66208379       0.33258219       0.00000229 </v>
    <v>       0.33720520       0.33636933       0.00018435 </v>
    <v>       0.32911133       0.66073927       0.00000087 </v>
    <v>       1.00502102       0.33970570      -0.00027271 </v>
    <v>       0.00071126       0.66171852       0.00005731 </v>
    <v>       0.33781205       0.00511963       0.00021757 </v>
    <v>       0.10766249       0.21725736       0.95066248 </v>
    <v>       0.21722462       0.10770612       0.04950569 </v>
    <v>       0.10987801       0.55488865       0.94835176 </v>
    <v>       0.22083414       0.44330407       0.05124731 </v>
    <v>       0.10872776       0.89082994       0.95099615 </v>
    <v>       0.22167705       0.77851278       0.05046761 </v>
    <v>       0.44344812       0.22084813       0.94889921 </v>
    <v>       0.55728551       0.10746861       0.04986843 </v>
    <v>       0.45038555       0.55859619       0.95005982 </v>
    <v>       0.55846334       0.45044394       0.05012936 </v>
    <v>       0.44919246       0.89194427       0.95071185 </v>
    <v>       0.56116059       0.78033031       0.04796549 </v>
    <v>       0.77623733       0.21717457       0.95097745 </v>
    <v>       0.88666816       0.10676260       0.04773017 </v>
    <v>       0.77608414       0.55929802       0.95062056 </v>
    <v>       0.88952848       0.44447005       0.05083803 </v>
    <v>       0.77749618       0.88878557       0.95349827 </v>
    <v>       0.88657031       0.77970995       0.04755489 </v>
   </varray>
  </structure>
  <varray name="forces" >
   <v>      -0.00543159       0.11281465       0.02069092 </v>
   <v>       0.00078649      -0.29386429       0.02256912 </v>
   <v>      -0.16602028      -0.07654239      -0.02040503 </v>
   <v>      -0.27857726      -0.34461721      -0.02601929 </v>
   <v>       0.15609226       0.18985582      -0.03057689 </v>
   <v>      -0.05386335      -0.67707711       0.02061737 </v>
   <v>      -0.19416356       0.66445998       0.02673926 </v>
   <v>       0.63312732      -0.12831821       0.03726566 </v>
   <v>      -0.15096408       0.47712774      -0.03212757 </v>
   <v>      -0.00699277       0.02809658      -0.28042494 </v>
   <v>      -0.02233487       0.01800052       0.37227821 </v>
   <v>       0.01957925       0.02375640      -0.72149798 </v>
   <v>       0.06203245      -0.02443841       0.52207166 </v>
   <v>       0.03613936      -0.00120806      -0.15058967 </v>
   <v>       0.00596365       0.03870294       0.25455646 </v>
   <v>      -0.04752413       0.00882912      -0.50214313 </v>
   <v>       0.03646213       0.02698643       0.46523036 </v>
   <v>       0.01163808       0.04688645      -0.43513994 </v>
   <v>      -0.04978402       0.06251171       0.53216091 </v>
   <v>       0.03234718      -0.02445959      -0.22582018 </v>
   <v>      -0.00168956      -0.02866844       0.23619015 </v>
   <v>       0.01638071       0.02192103      -0.18139702 </v>
   <v>      -0.03865240       0.02455058       0.14513788 </v>
   <v>      -0.03589387       0.00911781      -0.27553076 </v>
   <v>       0.01359187      -0.08790329       0.35379154 </v>
   <v>       0.01521531      -0.03222354      -0.21824388 </v>
   <v>       0.01253569      -0.03429723       0.09061678 </v>
  </varray>
  <varray name="stress" >
   <v>      -5.87923489      -0.06822918      -0.01298373 </v>
   <v>      -0.06822912      -5.72985078      -0.08598259 </v>
   <v>      -0.01298380      -0.08598256       4.54936018 </v>
  </varray>
  <energy>
   <i name="e_fr_energy">   -190.72822083 </i>
   <i name="e_wo_entrp">   -190.63063397 </i>
   <i name="e_0_energy">     -0.19517371 </i>
  </energy>
  <time name="totalsc">  537.44  546.02</time>
 </calculation>
 <calculation>
  <scstep>
   <time name="dav">   30.51   30.96</time>
   <time name="total">   31.22   31.69</time>
   <energy>
    <i name="alphaZ">     90.23460559 </i>
    <i name="ewald">  44693.42875931 </i>
    <i name="hartreedc"> -50737.08154666 </i>
    <i name="XCdc">   -231.80476432 </i>
    <i name="pawpsdc">   4063.44114127 </i>
    <i name="pawaedc">  -3479.30545274 </i>
    <i name="eentropy">     -0.17700306 </i>
    <i name="bandstr">  -1352.34450649 </i>
    <i name="atom">   6761.44252427 </i>
    <i name="e_fr_energy">   -192.16624284 </i>
    <i name="e_wo_entrp">   -191.98923978 </i>
    <i name="e_0_energy">   -192.07774131 </i>
   </energy>
  </scstep>
  <scstep>
   <time name="dav">   38.78   39.36</time>
   <time name="total">   39.47   40.07</time>
   <energy>
    <i name="e_fr_energy">   -191.88537878 </i>
    <i name="e_wo_entrp">   -191.69231201 </i>
    <i name="e_0_energy">   -191.78884540 </i>
   </energy>
  </scstep>
  <scstep>
   <time name="dav">   42.26   42.91</time>
   <time name="total">   42.96   43.63</time>
   <energy>
    <i name="e_fr_energy">   -192.36408237 </i>
    <i name="e_wo_entrp">   -192.18025048 </i>
    <i name="e_0_energy">   -192.27216642 </i>
   </energy>
  </scstep>
  <scstep>
   <time name="dav">   40.83   41.48</time>
   <time name="total">   41.52   42.19</time>
   <energy>
    <i name="e_fr_energy">   -191.68093760 </i>
    <i name="e_wo_entrp">   -191.50029466 </i>
    <i name="e_0_energy">   -191.59061613 </i>
   </energy>
  </scstep>
  <scstep>
   <time name="dav">   42.23   42.96</time>
   <time name="total">   42.92   43.67</time>
   <energy>
    <i name="e_fr_energy">   -191.62731659 </i>
    <i name="e_wo_entrp">   -191.43110182 </i>
    <i name="e_0_energy">   -191.52920921 </i>
   </energy>
  </scstep>
  <scstep>
   <time name="dav">   42.55   43.26</time>
   <time name="total">   43.25   43.97</time>
   <energy>
    <i name="e_fr_energy">   -191.47352293 </i>
    <i name="e_wo_entrp">   -191.28811921 </i>
    <i name="e_0_energy">   -191.38082107 </i>
   </energy>
  </scstep>
  <scstep>
   <time name="dav">   43.24   43.89</time>
   <time name="total">   43.94   44.61</time>
   <energy>
    <i name="e_fr_energy">   -191.46475111 </i>
    <i name="e_wo_entrp">   -191.28237322 </i>
    <i name="e_0_energy">   -191.37356216 </i>
   </energy>
  </scstep>
  <scstep>
   <time name="dav">   42.90   43.55</time>
   <time name="total">   43.61   44.27</time>
   <energy>
    <i name="e_fr_energy">   -191.44584297 </i>
    <i name="e_wo_entrp">   -191.25931619 </i>
    <i name="e_0_energy">   -191.35257958 </i>
   </energy>
  </scstep>
  <scstep>
   <time name="dav">   39.49   40.17</time>
   <time name="total">   40.19   40.88</time>
   <energy>
    <i name="e_fr_energy">   -191.44327736 </i>
    <i name="e_wo_entrp">   -191.25761885 </i>
    <i name="e_0_energy">   -191.35044810 </i>
   </energy>
  </scstep>
  <scstep>
   <time name="dav">   40.80   41.41</time>
   <time name="total">   41.51   42.13</time>
   <energy>
    <i name="e_fr_energy">   -191.44344176 </i>
    <i name="e_wo_entrp">   -191.25727510 </i>
    <i name="e_0_energy">   -191.35035843 </i>
   </energy>
  </scstep>
  <scstep>
   <time name="dav">   37.17   37.74</time>
   <time name="total">   37.22   37.80</time>
   <energy>
    <i name="alphaZ">     90.23460559 </i>
    <i name="ewald">  44693.42875931 </i>
    <i name="hartreedc"> -50702.74186508 </i>
    <i name="XCdc">   -233.32801700 </i>
    <i name="pawpsdc">   4086.82415637 </i>
    <i name="pawaedc">  -3502.79569125 </i>
    <i name="eentropy">     -0.18617644 </i>
    <i name="bandstr">  -1384.32166302 </i>
    <i name="atom">   6761.44252427 </i>
    <i name="e_fr_energy">   -191.44336725 </i>
    <i name="e_wo_entrp">   -191.25719081 </i>
    <i name="e_0_energy">   -191.35027903 </i>
   </energy>
  </scstep>
  <structure>
   <crystal>
    <varray name="basis" >
     <v>       8.26833398       4.77765232       0.00000000 </v>
     <v>      -8.27244134       4.78475180       0.00000000 </v>
     <v>       0.00000000       0.00000000      30.00000000 </v>
    </varray>
    <i name="volume">   2372.54323375 </i>
    <varray name="rec_basis" >
     <v>       0.06050155       0.10460220       0.00000000 </v>
     <v>      -0.06041178       0.10455026       0.00000000 </v>
     <v>       0.00000000       0.00000000       0.03333333 </v>
    </varray>
   </crystal>
   <varray name="positions" >
    <v>       0.00289092       0.00314766       0.00005207 </v>
    <v>       0.65826560       0.65879786       0.00011246 </v>
    <v>       0.66220864      -0.00032900      -0.00036130 </v>
    <v>       0.65592762       0.33035683      -0.00013190 </v>
    <v>       0.34062888       0.33761527       0.00004936 </v>
    <v>       0.32025618       0.65274120       0.00010074 </v>
    <v>       1.01187174       0.34947019      -0.00015858 </v>
    <v>       0.00370345       0.65559412       0.00023148 </v>
    <v>       0.34251697       0.01191071       0.00006605 </v>
    <v>       0.10786675       0.21708147       0.94896253 </v>
    <v>       0.21671817       0.10794203       0.05156223 </v>
    <v>       0.11045137       0.55514630       0.94481830 </v>
    <v>       0.22111139       0.44265136       0.05399011 </v>
    <v>       0.10869580       0.89085384       0.94981721 </v>
    <v>       0.22223373       0.77884150       0.05211663 </v>
    <v>       0.44326145       0.22142571       0.94625590 </v>
    <v>       0.55833179       0.10742540       0.05234173 </v>
    <v>       0.45152116       0.55930430       0.94771090 </v>
    <v>       0.55913850       0.45205964       0.05286661 </v>
    <v>       0.44962302       0.89157058       0.94922872 </v>
    <v>       0.56131648       0.78028152       0.04941670 </v>
    <v>       0.77615927       0.21677150       0.94968634 </v>
    <v>       0.88635239       0.10667828       0.04881940 </v>
    <v>       0.77554459       0.55980064       0.94891937 </v>
    <v>       0.88843811       0.44323320       0.05289978 </v>
    <v>       0.77724467       0.88828368       0.95222179 </v>
    <v>       0.88593584       0.77955868       0.04840528 </v>
   </varray>
  </structure>
  <varray name="forces" >
   <v>      -0.10338354       0.03238080      -0.01810289 </v>
   <v>      -0.05801889      -0.13431769      -0.00596380 </v>
   <v>      -0.04966264      -0.02363570      -0.03179180 </v>
   <v>      -0.21013073      -0.32592997       0.04364742 </v>
   <v>       0.22379998       0.00173881       0.00297334 </v>
   <v>      -0.04745035      -0.40385591      -0.01953824 </v>
   <v>      -0.01320247       0.35102400       0.04773966 </v>
   <v>       0.45966221      -0.03381449      -0.05851217 </v>
   <v>      -0.28647899       0.43984314      -0.02713510 </v>
   <v>      -0.09725060       0.12501378       0.01404751 </v>
   <v>       0.03651659       0.12792368       0.09647908 </v>
   <v>       0.03079685       0.03712519      -0.44308956 </v>
   <v>       0.15775351      -0.00691388       0.21084297 </v>
   <v>       0.14014140       0.00219303       0.16036793 </v>
   <v>       0.03527741       0.10997147      -0.07586289 </v>
   <v>      -0.09337918       0.05499205      -0.31708120 </v>
   <v>      -0.07760219       0.04723506       0.13838761 </v>
   <v>      -0.08509268      -0.06930134      -0.05389346 </v>
   <v>       0.01998351      -0.04641876       0.14991298 </v>
   <v>      -0.01999073      -0.16670210       0.14154527 </v>
   <v>      -0.09980217      -0.21642669      -0.04183128 </v>
   <v>      -0.04912264       0.18269389       0.15708474 </v>
   <v>      -0.12053259       0.18110464      -0.07848355 </v>
   <v>       0.09367133      -0.00770584       0.08641994 </v>
   <v>       0.00027035      -0.17387651       0.06426857 </v>
   <v>      -0.01020366      -0.03826889      -0.00834143 </v>
   <v>       0.22343091      -0.04607178      -0.13408967 </v>
  </varray>
  <varray name="stress" >
   <v>      -0.09323010      -0.04195602       0.29388768 </v>
   <v>      -0.04195604       0.45434528      -0.15557691 </v>
   <v>       0.29388758      -0.15557707      -0.35527419 </v>
  </varray>
  <energy>
   <i name="e_fr_energy">   -191.44336725 </i>
   <i name="e_wo_entrp">   -191.35027903 </i>
   <i name="e_0_energy">     -0.18617644 </i>
  </energy>
  <time name="totalsc">  507.62  515.88</time>
 </calculation>
 <calculation>
  <scstep>
   <time name="dav">   30.70   31.13</time>
   <time name="total">   31.39   31.85</time>
   <energy>
    <i name="alphaZ">     90.14164708 </i>
    <i name="ewald">  44627.01570757 </i>
    <i name="hartreedc"> -50636.24034256 </i>
    <i name="XCdc">   -233.49527932 </i>
    <i name="pawpsdc">   4087.27582565 </i>
    <i name="pawaedc">  -3503.24578319 </i>
    <i name="eentropy">     -0.18745817 </i>
    <i name="bandstr">  -1384.22976790 </i>
    <i name="atom">   6761.44252427 </i>
    <i name="e_fr_energy">   -191.52292658 </i>
    <i name="e_wo_entrp">   -191.33546841 </i>
    <i name="e_0_energy">   -191.42919749 </i>
   </energy>
  </scstep>
  <scstep>
   <time name="dav">   46.55   47.29</time>
   <time name="total">   47.24   48.00</time>
   <energy>
    <i name="e_fr_energy">   -191.60417278 </i>
    <i name="e_wo_entrp">   -191.40420490 </i>
    <i name="e_0_energy">   -191.50418884 </i>
   </energy>
  </scstep>
  <scstep>
   <time name="dav">   43.53   44.22</time>
   <time name="total">   44.23   44.95</time>
   <energy>
    <i name="e_fr_energy">   -191.53429339 </i>
    <i name="e_wo_entrp">   -191.34569072 </i>
    <i name="e_0_energy">   -191.43999205 </i>
   </energy>
  </scstep>
  <scstep>
   <time name="dav">   40.79   41.42</time>
   <time name="total">   41.48   42.15</time>
   <energy>
    <i name="e_fr_energy">   -191.53786175 </i>
    <i name="e_wo_entrp">   -191.34700932 </i>
    <i name="e_0_energy">   -191.44243553 </i>
   </energy>
  </scstep>
  <scstep>
   <time name="dav">   40.76   41.40</time>
   <time name="total">   41.46   42.13</time>
   <energy>
    <i name="e_fr_energy">   -191.53243919 </i>
    <i name="e_wo_entrp">   -191.34263323 </i>
    <i name="e_0_energy">   -191.43753621 </i>
   </energy>
  </scstep>
  <scstep>
   <time name="dav">   40.77   41.46</time>
   <time name="total">   41.45   42.16</time>
   <energy>
    <i name="e_fr_energy">   -191.53327307 </i>
    <i name="e_wo_entrp">   -191.34332924 </i>
    <i name="e_0_energy">   -191.43830115 </i>
   </energy>
  </scstep>
  <scstep>
   <time name="dav">   41.35   41.97</time>
   <time name="total">   42.04   42.68</time>
   <energy>
    <i name="e_fr_energy">   -191.53254818 </i>
    <i name="e_wo_entrp">   -191.34268859 </i>
    <i name="e_0_energy">   -191.43761838 </i>
   </energy>
  </scstep>
  <scstep>
   <time name="dav">   38.78   39.38</time>
   <time name="total">   39.46   40.09</time>
   <energy>
    <i name="e_fr_energy">   -191.53198932 </i>
    <i name="e_wo_entrp">   -191.34225970 </i>
    <i name="e_0_energy">   -191.43712451 </i>
   </energy>
  </scstep>
  <scstep>
   <time name="dav">   27.34   27.78</time>
   <time name="total">   27.40   27.85</time>
   <energy>
    <i name="alphaZ">     90.14164708 </i>
    <i name="ewald">  44627.01570757 </i>
    <i name="hartreedc"> -50638.29414342 </i>
    <i name="XCdc">   -233.42533773 </i>
    <i name="pawpsdc">   4084.21240041 </i>
    <i name="pawaedc">  -3500.13537793 </i>
    <i name="eentropy">     -0.18973422 </i>
    <i name="bandstr">  -1382.29968992 </i>
    <i name="atom">   6761.44252427 </i>
    <i name="e_fr_energy">   -191.53200389 </i>
    <i name="e_wo_entrp">   -191.34226967 </i>
    <i name="e_0_energy">   -191.43713678 </i>
   </energy>
  </scstep>
  <structure>
   <crystal>
    <varray name="basis" >
     <v>       8.26612267       4.78264823       0.00000000 </v>
     <v>      -8.27127834       4.79157127       0.00000000 </v>
     <v>       0.00000000       0.00000000      30.00000000 </v>
    </varray>
    <i name="volume">   2374.98991711 </i>
    <varray name="rec_basis" >
     <v>       0.06052537       0.10447975       0.00000000 </v>
     <v>      -0.06041266       0.10441462       0.00000000 </v>
     <v>       0.00000000       0.00000000       0.03333333 </v>
    </varray>
   </crystal>
   <varray name="positions" >
    <v>       0.00274846       0.00360592       0.00002286 </v>
    <v>       0.65743275       0.65830276       0.00010266 </v>
    <v>       0.66195200      -0.00030457      -0.00041190 </v>
    <v>       0.65369673       0.32933610      -0.00006161 </v>
    <v>       0.34127846       0.33697128       0.00005451 </v>
    <v>       0.31811430       0.65087332       0.00006916 </v>
    <v>       1.01357768       0.35124362      -0.00008249 </v>
    <v>       0.00486072       0.65410777       0.00013729 </v>
    <v>       0.34388127       0.01493171       0.00002307 </v>
    <v>       0.10821177       0.21799279       0.94899074 </v>
    <v>       0.21746928       0.10847797       0.05170998 </v>
    <v>       0.11072550       0.55524245       0.94411993 </v>
    <v>       0.22153398       0.44216062       0.05431888 </v>
    <v>       0.10911457       0.89045768       0.95007820 </v>
    <v>       0.22288702       0.77929057       0.05198951 </v>
    <v>       0.44326682       0.22197088       0.94575676 </v>
    <v>       0.55833988       0.10788801       0.05255534 </v>
    <v>       0.45092182       0.55920088       0.94763219 </v>
    <v>       0.55896106       0.45176327       0.05309795 </v>
    <v>       0.44872547       0.89079236       0.94946043 </v>
    <v>       0.55993799       0.77948404       0.04934483 </v>
    <v>       0.77693532       0.21783338       0.94994237 </v>
    <v>       0.88691341       0.10793867       0.04868985 </v>
    <v>       0.77578025       0.55948857       0.94906348 </v>
    <v>       0.88756868       0.44236295       0.05299581 </v>
    <v>       0.77702342       0.88812252       0.95221268 </v>
    <v>       0.88635586       0.77867894       0.04818741 </v>
   </varray>
  </structure>
  <varray name="forces" >
   <v>      -0.14734132       0.02692009       0.00191579 </v>
   <v>      -0.09771613      -0.12611331       0.01276549 </v>
   <v>      -0.01734605      -0.02461014      -0.04605749 </v>
   <v>      -0.22691010      -0.32583148       0.01283718 </v>
   <v>       0.23559994       0.00402874      -0.00508829 </v>
   <v>       0.02423859      -0.40987723      -0.00210248 </v>
   <v>      -0.01272377       0.37939026       0.02442536 </v>
   <v>       0.44868930      -0.07656982       0.00660741 </v>
   <v>      -0.30285496       0.44128593      -0.03178282 </v>
   <v>      -0.04852627       0.07827961       0.01077416 </v>
   <v>       0.01628625       0.07717292       0.08568602 </v>
   <v>       0.05999620       0.00064973      -0.30282260 </v>
   <v>       0.12232258      -0.00043541       0.13372214 </v>
   <v>       0.10344708       0.01405707       0.16478101 </v>
   <v>       0.00468341       0.10385858      -0.13734171 </v>
   <v>      -0.06823851       0.05215944      -0.27274586 </v>
   <v>      -0.05918824       0.02891186       0.10194347 </v>
   <v>      -0.04184892      -0.05265051      -0.02048606 </v>
   <v>       0.00033023      -0.02476649       0.10601768 </v>
   <v>      -0.03844775      -0.11081074       0.17504938 </v>
   <v>      -0.07745723      -0.14756240      -0.06781949 </v>
   <v>      -0.03637139       0.12851204       0.18782409 </v>
   <v>      -0.07709083       0.11813876      -0.06781996 </v>
   <v>       0.07375449      -0.00334316       0.11078680 </v>
   <v>      -0.00100930      -0.10422373      -0.02270444 </v>
   <v>      -0.00729886      -0.02386241       0.03015741 </v>
   <v>       0.17102156      -0.02270821      -0.18852220 </v>
  </varray>
  <varray name="stress" >
   <v>      -0.01871989       0.02140149       0.10785895 </v>
   <v>       0.02140143       0.11878277      -0.05617724 </v>
   <v>       0.10785881      -0.05617708      -1.34531351 </v>
  </varray>
  <energy>
   <i name="e_fr_energy">   -191.53200389 </i>
   <i name="e_wo_entrp">   -191.43713678 </i>
   <i name="e_0_energy">     -0.18973422 </i>
  </energy>
  <time name="totalsc">  417.76  424.65</time>
 </calculation>
 <calculation>
  <scstep>
   <time name="dav">   31.69   32.18</time>
   <time name="total">   32.38   32.88</time>
   <energy>
    <i name="alphaZ">     90.09298176 </i>
    <i name="ewald">  44609.05479685 </i>
    <i name="hartreedc"> -50619.30892513 </i>
    <i name="XCdc">   -233.45294574 </i>
    <i name="pawpsdc">   4084.08095880 </i>
    <i name="pawaedc">  -3500.00222957 </i>
    <i name="eentropy">     -0.18681223 </i>
    <i name="bandstr">  -1383.35824927 </i>
    <i name="atom">   6761.44252427 </i>
    <i name="e_fr_energy">   -191.63790026 </i>
    <i name="e_wo_entrp">   -191.45108803 </i>
    <i name="e_0_energy">   -191.54449415 </i>
   </energy>
  </scstep>
  <scstep>
   <time name="dav">   46.83   47.52</time>
   <time name="total">   47.51   48.22</time>
   <energy>
    <i name="e_fr_energy">   -191.77697305 </i>
    <i name="e_wo_entrp">   -191.56586813 </i>
    <i name="e_0_energy">   -191.67142059 </i>
   </energy>
  </scstep>
  <scstep>
   <time name="dav">   44.16   44.87</time>
   <time name="total">   44.83   45.57</time>
   <energy>
    <i name="e_fr_energy">   -191.65782946 </i>
    <i name="e_wo_entrp">   -191.46897093 </i>
    <i name="e_0_energy">   -191.56340019 </i>
   </energy>
  </scstep>
  <scstep>
   <time name="dav">   43.40   44.08</time>
   <time name="total">   44.08   44.77</time>
   <energy>
    <i name="e_fr_energy">   -191.66668381 </i>
    <i name="e_wo_entrp">   -191.47412462 </i>
    <i name="e_0_energy">   -191.57040422 </i>
   </energy>
  </scstep>
  <scstep>
   <time name="dav">   42.34   42.99</time>
   <time name="total">   43.02   43.69</time>
   <energy>
    <i name="e_fr_energy">   -191.65266049 </i>
    <i name="e_wo_entrp">   -191.46155909 </i>
    <i name="e_0_energy">   -191.55710979 </i>
   </energy>
  </scstep>
  <scstep>
   <time name="dav">   42.02   42.68</time>
   <time name="total">   42.71   43.37</time>
   <energy>
    <i name="e_fr_energy">   -191.65529335 </i>
    <i name="e_wo_entrp">   -191.46345169 </i>
    <i name="e_0_energy">   -191.55937252 </i>
   </energy>
  </scstep>
  <scstep>
   <time name="dav">   42.29   42.92</time>
   <time name="total">   42.97   43.61</time>
   <energy>
    <i name="e_fr_energy">   -191.65263932 </i>
    <i name="e_wo_entrp">   -191.46101677 </i>
    <i name="e_0_energy">   -191.55682804 </i>
   </energy>
  </scstep>
  <scstep>
   <time name="dav">   39.91   40.52</time>
   <time name="total">   40.59   41.23</time>
   <energy>
    <i name="e_fr_energy">   -191.65153487 </i>
    <i name="e_wo_entrp">   -191.46009491 </i>
    <i name="e_0_energy">   -191.55581489 </i>
   </energy>
  </scstep>
  <scstep>
   <time name="dav">   31.91   32.37</time>
   <time name="total">   31.96   32.43</time>
   <energy>
    <i name="alphaZ">     90.09298176 </i>
    <i name="ewald">  44609.05479685 </i>
    <i name="hartreedc"> -50620.97514052 </i>
    <i name="XCdc">   -233.36838949 </i>
    <i name="pawpsdc">   4089.15897252 </i>
    <i name="pawaedc">  -3505.15273658 </i>
    <i name="eentropy">     -0.19137053 </i>
    <i name="bandstr">  -1381.71316942 </i>
    <i name="atom">   6761.44252427 </i>
    <i name="e_fr_energy">   -191.65153113 </i>
    <i name="e_wo_entrp">   -191.46016060 </i>
[...]
      <set comment="kpoint 31">
       <r>  -17.5025    1.0000 </r>
       <r>  -17.2928    1.0000 </r>
       <r>  -16.9265    1.0000 </r>
       <r>  -16.6510    1.0000 </r>
       <r>  -16.5222    1.0000 </r>
       <r>  -16.4214    1.0000 </r>
       <r>  -16.2728    1.0000 </r>
       <r>  -16.1980    1.0000 </r>
       <r>  -16.0902    1.0000 </r>
       <r>  -16.0425    1.0000 </r>
       <r>  -15.9407    1.0000 </r>
       <r>  -15.8646    1.0000 </r>
       <r>  -15.8095    1.0000 </r>
       <r>  -15.6948    1.0000 </r>
       <r>  -15.6101    1.0000 </r>
       <r>  -15.5250    1.0000 </r>
       <r>  -15.3690    1.0000 </r>
       <r>  -15.2816    1.0000 </r>
       <r>   -9.7408    1.0000 </r>
       <r>   -9.4443    1.0000 </r>
       <r>   -9.3172    1.0000 </r>
       <r>   -9.0032    1.0000 </r>
       <r>   -8.8308    1.0000 </r>
       <r>   -8.7526    1.0000 </r>
       <r>   -8.5123    1.0000 </r>
       <r>   -8.4665    1.0000 </r>
       <r>   -8.4407    1.0000 </r>
       <r>   -8.3714    1.0000 </r>
       <r>   -8.2470    1.0000 </r>
       <r>   -8.1952    1.0000 </r>
       <r>   -8.1187    1.0000 </r>
       <r>   -8.0656    1.0000 </r>
       <r>   -8.0128    1.0000 </r>
       <r>   -7.9084    1.0000 </r>
       <r>   -7.7743    1.0000 </r>
       <r>   -7.7189    1.0000 </r>
       <r>   -7.5605    1.0000 </r>
       <r>   -7.4035    1.0000 </r>
       <r>   -7.3368    1.0000 </r>
       <r>   -7.2528    1.0000 </r>
       <r>   -7.1665    1.0000 </r>
       <r>   -7.0928    1.0000 </r>
       <r>   -7.0463    1.0000 </r>
       <r>   -6.9213    1.0000 </r>
       <r>   -6.8992    1.0000 </r>
       <r>   -6.7486    1.0000 </r>
       <r>   -6.6812    1.0000 </r>
       <r>   -6.5876    1.0000 </r>
       <r>   -6.5521    1.0000 </r>
       <r>   -6.4877    1.0000 </r>
       <r>   -6.4052    1.0000 </r>
       <r>   -6.3347    1.0000 </r>
       <r>   -6.2773    1.0000 </r>
       <r>   -6.2227    1.0000 </r>
       <r>   -6.1245    1.0000 </r>
       <r>   -6.0587    1.0000 </r>
       <r>   -6.0011    1.0000 </r>
       <r>   -5.9028    1.0000 </r>
       <r>   -5.8830    1.0000 </r>
       <r>   -5.8014    1.0000 </r>
       <r>   -5.7332    1.0000 </r>
       <r>   -5.6262    1.0000 </r>
       <r>   -5.5671    1.0000 </r>
       <r>   -5.5017    1.0000 </r>
       <r>   -5.2515    1.0000 </r>
       <r>   -5.0720    1.0000 </r>
       <r>   -4.9855    1.0000 </r>
       <r>   -4.8425    1.0000 </r>
       <r>   -4.7386    1.0000 </r>
       <r>   -4.6377    1.0000 </r>
       <r>   -4.5586    1.0000 </r>
       <r>   -4.4100    1.0000 </r>
       <r>   -4.3388    1.0000 </r>
       <r>   -4.2541    1.0000 </r>
       <r>   -4.1959    1.0000 </r>
       <r>   -4.1043    1.0000 </r>
       <r>   -3.8928    1.0000 </r>
       <r>   -3.7747    0.9993 </r>
       <r>   -3.5533    0.9487 </r>
       <r>   -3.3221    0.4988 </r>
       <r>   -3.0837    0.0457 </r>
       <r>   -2.7195    0.0000 </r>
       <r>   -2.5584    0.0000 </r>
       <r>   -2.4450    0.0000 </r>
       <r>   -2.4174    0.0000 </r>
       <r>   -2.2937    0.0000 </r>
       <r>   -2.1756    0.0000 </r>
       <r>   -2.0910    0.0000 </r>
       <r>   -1.9351    0.0000 </r>
       <r>   -1.8733    0.0000 </r>
       <r>   -1.7703    0.0000 </r>
       <r>   -1.6093    0.0000 </r>
       <r>   -1.5125    0.0000 </r>
       <r>   -1.4120    0.0000 </r>
       <r>   -1.2957    0.0000 </r>
       <r>   -1.2185    0.0000 </r>
       <r>   -1.0928    0.0000 </r>
       <r>   -1.0611    0.0000 </r>
       <r>   -0.9553    0.0000 </r>
       <r>   -0.8586    0.0000 </r>
       <r>   -0.7900    0.0000 </r>
       <r>   -0.7350    0.0000 </r>
       <r>   -0.6634    0.0000 </r>
       <r>   -0.5874    0.0000 </r>
       <r>   -0.4923    0.0000 </r>
       <r>   -0.3522    0.0000 </r>
       <r>   -0.2850    0.0000 </r>
       <r>   -0.0265    0.0000 </r>
       <r>    0.0932    0.0000 </r>
       <r>    0.2403    0.0000 </r>
       <r>    0.3737    0.0000 </r>
       <r>    0.5087    0.0000 </r>
       <r>    0.8084    0.0000 </r>
       <r>    0.8773    0.0000 </r>
       <r>    1.0576    0.0000 </r>
       <r>    1.2242    0.0000 </r>
       <r>    1.3535    0.0000 </r>
       <r>    2.1194    0.0000 </r>
       <r>    2.2982    0.0000 </r>
       <r>    2.3701    0.0000 </r>
      </set>
      <set comment="kpoint 32">
       <r>  -17.5160    1.0000 </r>
       <r>  -17.2219    1.0000 </r>
       <r>  -17.0339    1.0000 </r>
       <r>  -16.6435    1.0000 </r>
       <r>  -16.4637    1.0000 </r>
       <r>  -16.3833    1.0000 </r>
       <r>  -16.2661    1.0000 </r>
       <r>  -16.2228    1.0000 </r>
       <r>  -16.1413    1.0000 </r>
       <r>  -16.0390    1.0000 </r>
       <r>  -15.9637    1.0000 </r>
       <r>  -15.8609    1.0000 </r>
       <r>  -15.7889    1.0000 </r>
       <r>  -15.6679    1.0000 </r>
       <r>  -15.6262    1.0000 </r>
       <r>  -15.5253    1.0000 </r>
       <r>  -15.3707    1.0000 </r>
       <r>  -15.2783    1.0000 </r>
       <r>   -9.6601    1.0000 </r>
       <r>   -9.5545    1.0000 </r>
       <r>   -9.3923    1.0000 </r>
       <r>   -8.9428    1.0000 </r>
       <r>   -8.7264    1.0000 </r>
       <r>   -8.6900    1.0000 </r>
       <r>   -8.5531    1.0000 </r>
       <r>   -8.4726    1.0000 </r>
       <r>   -8.4313    1.0000 </r>
       <r>   -8.3592    1.0000 </r>
       <r>   -8.2581    1.0000 </r>
       <r>   -8.1879    1.0000 </r>
       <r>   -8.1359    1.0000 </r>
       <r>   -8.0823    1.0000 </r>
       <r>   -8.0263    1.0000 </r>
       <r>   -7.9501    1.0000 </r>
       <r>   -7.8489    1.0000 </r>
       <r>   -7.7347    1.0000 </r>
       <r>   -7.5420    1.0000 </r>
       <r>   -7.4334    1.0000 </r>
       <r>   -7.3172    1.0000 </r>
       <r>   -7.2452    1.0000 </r>
       <r>   -7.1961    1.0000 </r>
       <r>   -7.1154    1.0000 </r>
       <r>   -7.0202    1.0000 </r>
       <r>   -6.9268    1.0000 </r>
       <r>   -6.8535    1.0000 </r>
       <r>   -6.7692    1.0000 </r>
       <r>   -6.7024    1.0000 </r>
       <r>   -6.6266    1.0000 </r>
       <r>   -6.5535    1.0000 </r>
       <r>   -6.4610    1.0000 </r>
       <r>   -6.3604    1.0000 </r>
       <r>   -6.3263    1.0000 </r>
       <r>   -6.2627    1.0000 </r>
       <r>   -6.2106    1.0000 </r>
       <r>   -6.1423    1.0000 </r>
       <r>   -6.0620    1.0000 </r>
       <r>   -5.9504    1.0000 </r>
       <r>   -5.8913    1.0000 </r>
       <r>   -5.8412    1.0000 </r>
       <r>   -5.7569    1.0000 </r>
       <r>   -5.7072    1.0000 </r>
       <r>   -5.5789    1.0000 </r>
       <r>   -5.5148    1.0000 </r>
       <r>   -5.4192    1.0000 </r>
       <r>   -5.3211    1.0000 </r>
       <r>   -5.1259    1.0000 </r>
       <r>   -5.0473    1.0000 </r>
       <r>   -4.9769    1.0000 </r>
       <r>   -4.7843    1.0000 </r>
       <r>   -4.6726    1.0000 </r>
       <r>   -4.5529    1.0000 </r>
       <r>   -4.4045    1.0000 </r>
       <r>   -4.3317    1.0000 </r>
       <r>   -4.2838    1.0000 </r>
       <r>   -4.1493    1.0000 </r>
       <r>   -4.0922    1.0000 </r>
       <r>   -3.8862    1.0000 </r>
       <r>   -3.7350    0.9982 </r>
       <r>   -3.5364    0.9348 </r>
       <r>   -3.3123    0.4713 </r>
       <r>   -2.9997    0.0112 </r>
       <r>   -2.7649    0.0000 </r>
       <r>   -2.6008    0.0000 </r>
       <r>   -2.5032    0.0000 </r>
       <r>   -2.4067    0.0000 </r>
       <r>   -2.3020    0.0000 </r>
       <r>   -2.1925    0.0000 </r>
       <r>   -2.0814    0.0000 </r>
       <r>   -1.9794    0.0000 </r>
       <r>   -1.8796    0.0000 </r>
       <r>   -1.8167    0.0000 </r>
       <r>   -1.6312    0.0000 </r>
       <r>   -1.4700    0.0000 </r>
       <r>   -1.3752    0.0000 </r>
       <r>   -1.2737    0.0000 </r>
       <r>   -1.1783    0.0000 </r>
       <r>   -1.1146    0.0000 </r>
       <r>   -1.0246    0.0000 </r>
       <r>   -0.9437    0.0000 </r>
       <r>   -0.8586    0.0000 </r>
       <r>   -0.8191    0.0000 </r>
       <r>   -0.7464    0.0000 </r>
       <r>   -0.6325    0.0000 </r>
       <r>   -0.5434    0.0000 </r>
       <r>   -0.4573    0.0000 </r>
       <r>   -0.3211    0.0000 </r>
       <r>   -0.2808    0.0000 </r>
       <r>   -0.1101    0.0000 </r>
       <r>    0.0538    0.0000 </r>
       <r>    0.1730    0.0000 </r>
       <r>    0.4478    0.0000 </r>
       <r>    0.4945    0.0000 </r>
       <r>    0.8104    0.0000 </r>
       <r>    0.8344    0.0000 </r>
       <r>    1.0008    0.0000 </r>
       <r>    1.2503    0.0000 </r>
       <r>    1.4163    0.0000 </r>
       <r>    2.0934    0.0000 </r>
       <r>    2.2656    0.0000 </r>
       <r>    2.5580    0.0000 </r>
      </set>
      <set comment="kpoint 33">
       <r>  -17.4907    1.0000 </r>
       <r>  -17.3087    1.0000 </r>
       <r>  -16.9188    1.0000 </r>
       <r>  -16.6435    1.0000 </r>
       <r>  -16.5000    1.0000 </r>
       <r>  -16.4619    1.0000 </r>
       <r>  -16.2776    1.0000 </r>
       <r>  -16.1868    1.0000 </r>
       <r>  -16.1492    1.0000 </r>
       <r>  -16.0661    1.0000 </r>
       <r>  -15.8951    1.0000 </r>
       <r>  -15.8486    1.0000 </r>
       <r>  -15.7690    1.0000 </r>
       <r>  -15.6632    1.0000 </r>
       <r>  -15.6368    1.0000 </r>
       <r>  -15.5203    1.0000 </r>
       <r>  -15.3906    1.0000 </r>
       <r>  -15.2861    1.0000 </r>
       <r>   -9.7145    1.0000 </r>
       <r>   -9.4587    1.0000 </r>
       <r>   -9.3377    1.0000 </r>
       <r>   -8.9070    1.0000 </r>
       <r>   -8.8244    1.0000 </r>
       <r>   -8.7648    1.0000 </r>
       <r>   -8.6507    1.0000 </r>
       <r>   -8.5771    1.0000 </r>
       <r>   -8.3856    1.0000 </r>
       <r>   -8.3081    1.0000 </r>
       <r>   -8.2505    1.0000 </r>
       <r>   -8.1645    1.0000 </r>
       <r>   -8.1235    1.0000 </r>
       <r>   -8.0680    1.0000 </r>
       <r>   -7.9941    1.0000 </r>
       <r>   -7.8960    1.0000 </r>
       <r>   -7.8086    1.0000 </r>
       <r>   -7.7244    1.0000 </r>
       <r>   -7.5703    1.0000 </r>
       <r>   -7.5061    1.0000 </r>
       <r>   -7.3226    1.0000 </r>
       <r>   -7.2835    1.0000 </r>
       <r>   -7.1161    1.0000 </r>
       <r>   -7.0790    1.0000 </r>
       <r>   -6.9933    1.0000 </r>
       <r>   -6.9204    1.0000 </r>
       <r>   -6.8422    1.0000 </r>
       <r>   -6.7770    1.0000 </r>
       <r>   -6.6957    1.0000 </r>
       <r>   -6.6231    1.0000 </r>
       <r>   -6.5709    1.0000 </r>
       <r>   -6.4970    1.0000 </r>
       <r>   -6.4032    1.0000 </r>
       <r>   -6.2922    1.0000 </r>
       <r>   -6.2600    1.0000 </r>
       <r>   -6.1596    1.0000 </r>
       <r>   -6.1425    1.0000 </r>
       <r>   -6.0382    1.0000 </r>
       <r>   -5.9700    1.0000 </r>
       <r>   -5.9194    1.0000 </r>
       <r>   -5.8628    1.0000 </r>
       <r>   -5.7868    1.0000 </r>
       <r>   -5.6963    1.0000 </r>
       <r>   -5.6683    1.0000 </r>
       <r>   -5.5130    1.0000 </r>
       <r>   -5.3623    1.0000 </r>
       <r>   -5.2265    1.0000 </r>
       <r>   -5.1625    1.0000 </r>
       <r>   -5.0852    1.0000 </r>
       <r>   -4.8975    1.0000 </r>
       <r>   -4.7760    1.0000 </r>
       <r>   -4.7082    1.0000 </r>
       <r>   -4.5421    1.0000 </r>
       <r>   -4.4620    1.0000 </r>
       <r>   -4.3752    1.0000 </r>
       <r>   -4.2521    1.0000 </r>
       <r>   -4.1543    1.0000 </r>
       <r>   -4.0356    1.0000 </r>
       <r>   -3.8866    1.0000 </r>
       <r>   -3.7214    0.9976 </r>
       <r>   -3.5821    0.9668 </r>
       <r>   -3.2527    0.3108 </r>
       <r>   -2.9479    0.0040 </r>
       <r>   -2.7930    0.0001 </r>
       <r>   -2.6464    0.0000 </r>
       <r>   -2.5805    0.0000 </r>
       <r>   -2.3850    0.0000 </r>
       <r>   -2.3195    0.0000 </r>
       <r>   -2.2502    0.0000 </r>
       <r>   -2.0719    0.0000 </r>
       <r>   -1.9977    0.0000 </r>
       <r>   -1.8703    0.0000 </r>
       <r>   -1.8141    0.0000 </r>
       <r>   -1.6392    0.0000 </r>
       <r>   -1.4401    0.0000 </r>
       <r>   -1.3178    0.0000 </r>
       <r>   -1.2480    0.0000 </r>
       <r>   -1.1828    0.0000 </r>
       <r>   -1.1230    0.0000 </r>
       <r>   -1.0328    0.0000 </r>
       <r>   -0.9363    0.0000 </r>
       <r>   -0.8621    0.0000 </r>
       <r>   -0.8062    0.0000 </r>
       <r>   -0.7383    0.0000 </r>
       <r>   -0.6454    0.0000 </r>
       <r>   -0.5359    0.0000 </r>
       <r>   -0.4578    0.0000 </r>
       <r>   -0.2946    0.0000 </r>
       <r>   -0.2512    0.0000 </r>
       <r>   -0.0977    0.0000 </r>
       <r>   -0.0256    0.0000 </r>
       <r>    0.1405    0.0000 </r>
       <r>    0.3884    0.0000 </r>
       <r>    0.4854    0.0000 </r>
       <r>    0.8009    0.0000 </r>
       <r>    0.8453    0.0000 </r>
       <r>    1.0101    0.0000 </r>
       <r>    1.2778    0.0000 </r>
       <r>    1.5148    0.0000 </r>
       <r>    2.1284    0.0000 </r>
       <r>    2.2936    0.0000 </r>
       <r>    2.3958    0.0000 </r>
      </set>
      <set comment="kpoint 34">
       <r>  -17.4434    1.0000 </r>
       <r>  -17.3916    1.0000 </r>
       <r>  -16.7655    1.0000 </r>
       <r>  -16.6891    1.0000 </r>
       <r>  -16.6143    1.0000 </r>
       <r>  -16.4650    1.0000 </r>
       <r>  -16.2602    1.0000 </r>
       <r>  -16.1982    1.0000 </r>
       <r>  -16.1383    1.0000 </r>
       <r>  -16.0723    1.0000 </r>
       <r>  -15.8741    1.0000 </r>
       <r>  -15.8103    1.0000 </r>
       <r>  -15.7704    1.0000 </r>
       <r>  -15.6671    1.0000 </r>
       <r>  -15.6377    1.0000 </r>
       <r>  -15.5107    1.0000 </r>
       <r>  -15.4140    1.0000 </r>
       <r>  -15.2904    1.0000 </r>
       <r>   -9.7529    1.0000 </r>
       <r>   -9.3291    1.0000 </r>
       <r>   -9.2949    1.0000 </r>
       <r>   -8.9826    1.0000 </r>
       <r>   -8.8982    1.0000 </r>
       <r>   -8.7778    1.0000 </r>
       <r>   -8.7141    1.0000 </r>
       <r>   -8.6409    1.0000 </r>
       <r>   -8.3667    1.0000 </r>
       <r>   -8.2651    1.0000 </r>
       <r>   -8.2423    1.0000 </r>
       <r>   -8.1938    1.0000 </r>
       <r>   -8.0713    1.0000 </r>
       <r>   -8.0441    1.0000 </r>
       <r>   -7.9514    1.0000 </r>
       <r>   -7.9033    1.0000 </r>
       <r>   -7.7688    1.0000 </r>
       <r>   -7.7545    1.0000 </r>
       <r>   -7.5659    1.0000 </r>
       <r>   -7.4444    1.0000 </r>
       <r>   -7.4043    1.0000 </r>
       <r>   -7.3145    1.0000 </r>
       <r>   -7.0811    1.0000 </r>
       <r>   -7.0497    1.0000 </r>
       <r>   -7.0043    1.0000 </r>
       <r>   -6.8589    1.0000 </r>
       <r>   -6.8523    1.0000 </r>
       <r>   -6.7230    1.0000 </r>
       <r>   -6.6840    1.0000 </r>
       <r>   -6.6503    1.0000 </r>
       <r>   -6.5853    1.0000 </r>
       <r>   -6.5086    1.0000 </r>
       <r>   -6.3865    1.0000 </r>
       <r>   -6.3501    1.0000 </r>
       <r>   -6.2865    1.0000 </r>
       <r>   -6.1911    1.0000 </r>
       <r>   -6.1058    1.0000 </r>
       <r>   -6.0201    1.0000 </r>
       <r>   -6.0050    1.0000 </r>
       <r>   -5.9557    1.0000 </r>
       <r>   -5.8312    1.0000 </r>
       <r>   -5.7878    1.0000 </r>
       <r>   -5.7234    1.0000 </r>
       <r>   -5.7022    1.0000 </r>
       <r>   -5.5384    1.0000 </r>
       <r>   -5.3277    1.0000 </r>
       <r>   -5.2578    1.0000 </r>
       <r>   -5.1373    1.0000 </r>
       <r>   -5.0467    1.0000 </r>
       <r>   -4.8812    1.0000 </r>
       <r>   -4.7276    1.0000 </r>
       <r>   -4.6131    1.0000 </r>
       <r>   -4.5700    1.0000 </r>
       <r>   -4.5293    1.0000 </r>
       <r>   -4.3978    1.0000 </r>
       <r>   -4.2594    1.0000 </r>
       <r>   -4.1602    1.0000 </r>
       <r>   -4.0094    1.0000 </r>
       <r>   -3.8901    1.0000 </r>
       <r>   -3.7257    0.9978 </r>
       <r>   -3.6051    0.9771 </r>
       <r>   -3.2080    0.2091 </r>
       <r>   -2.9639    0.0056 </r>
       <r>   -2.7596    0.0000 </r>
       <r>   -2.6919    0.0000 </r>
       <r>   -2.6122    0.0000 </r>
       <r>   -2.3750    0.0000 </r>
       <r>   -2.3238    0.0000 </r>
       <r>   -2.2855    0.0000 </r>
       <r>   -2.0710    0.0000 </r>
       <r>   -1.9963    0.0000 </r>
       <r>   -1.8833    0.0000 </r>
       <r>   -1.7783    0.0000 </r>
       <r>   -1.6434    0.0000 </r>
       <r>   -1.4318    0.0000 </r>
       <r>   -1.2758    0.0000 </r>
       <r>   -1.2442    0.0000 </r>
       <r>   -1.1891    0.0000 </r>
       <r>   -1.1454    0.0000 </r>
       <r>   -1.0444    0.0000 </r>
       <r>   -0.9200    0.0000 </r>
       <r>   -0.8703    0.0000 </r>
       <r>   -0.7877    0.0000 </r>
       <r>   -0.6959    0.0000 </r>
       <r>   -0.6659    0.0000 </r>
       <r>   -0.5987    0.0000 </r>
       <r>   -0.4659    0.0000 </r>
       <r>   -0.2769    0.0000 </r>
       <r>   -0.2198    0.0000 </r>
       <r>   -0.0896    0.0000 </r>
       <r>    0.0145    0.0000 </r>
       <r>    0.0761    0.0000 </r>
       <r>    0.3266    0.0000 </r>
       <r>    0.4801    0.0000 </r>
       <r>    0.8246    0.0000 </r>
       <r>    0.8405    0.0000 </r>
       <r>    1.0295    0.0000 </r>
       <r>    1.2957    0.0000 </r>
       <r>    1.5599    0.0000 </r>
       <r>    2.2026    0.0000 </r>
       <r>    2.2579    0.0000 </r>
       <r>    2.3833    0.0000 </r>
      </set>
     </set>
    </set>
   </array>
  </eigenvalues>
  <separator name="orbital magnetization" >
   <v name="MAGDIPOLOUT">      0.00000000      0.00000000      0.00000000</v>
  </separator>
 </calculation>
 <structure name="finalpos" >
  <crystal>
   <varray name="basis" >
    <v>       8.34117211       4.81749545       0.00000000 </v>
    <v>      -8.35844086       4.84709596       0.00000000 </v>
    <v>       0.00000000       0.00000000      30.00000000 </v>
   </varray>
   <i name="volume">   2420.91637555 </i>
   <varray name="rec_basis" >
    <v>       0.06006522       0.10357781       0.00000000 </v>
    <v>      -0.05969841       0.10336382       0.00000000 </v>
    <v>       0.00000000       0.00000000       0.03333333 </v>
   </varray>
  </crystal>
  <varray name="positions" >
   <v>       0.01732053       0.03395418       0.00176731 </v>
   <v>       0.64445894       0.64607377      -0.00009704 </v>
   <v>       0.64716479      -0.03989431      -0.00260998 </v>
   <v>       0.65278827       0.35180457       0.00075288 </v>
   <v>       0.33723197       0.33814536       0.00052363 </v>
   <v>       0.32300418       0.63755034      -0.00091523 </v>
   <v>       1.02764495       0.35111787       0.00036106 </v>
   <v>      -0.00964293       0.62873363      -0.00280803 </v>
   <v>       0.35062991       0.04408028       0.00185573 </v>
   <v>       0.11224960       0.22304448       0.94680868 </v>
   <v>       0.22059862       0.11691097       0.05491198 </v>
   <v>       0.11310155       0.54830289       0.94221571 </v>
   <v>       0.22358926       0.44264966       0.05684044 </v>
   <v>       0.11241168       0.89110019       0.95579156 </v>
   <v>       0.22456200       0.78458078       0.04383120 </v>
   <v>       0.44834158       0.23376960       0.94472572 </v>
   <v>       0.56314719       0.11310545       0.04997219 </v>
   <v>       0.45012273       0.55769378       0.94521221 </v>
   <v>       0.55513140       0.45357891       0.05583618 </v>
   <v>       0.43761421       0.88853743       0.95204255 </v>
   <v>       0.55350201       0.76915052       0.05125539 </v>
   <v>       0.77314361       0.21410218       0.95979020 </v>
   <v>       0.88399567       0.10715048       0.04839500 </v>
   <v>       0.77589417       0.56134052       0.94646377 </v>
   <v>       0.88685976       0.43738251       0.05296884 </v>
   <v>       0.78144711       0.88445544       0.95317180 </v>
   <v>       0.89190169       0.77979299       0.04093615 </v>
  </varray>
 </structure>
</modeling>
