   27   27  100    1
  0.9710400E+02  0.1002848E-08  0.1002848E-08  0.3000000E-08  0.5000000E-15
  1.000000000000000E-004
  CAR 
 unknown system                          
    159     34    120
 
  0.0000000E+00  0.0000000E+00  0.0000000E+00  0.1562500E-01
    1      -17.796611   1.000000
    2      -16.750068   1.000000
    3      -16.655294   1.000000
    4      -16.571474   1.000000
    5      -16.512997   1.000000
    6      -16.462760   1.000000
    7      -16.392711   1.000000
    8      -16.312401   1.000000
    9      -16.217472   1.000000
   10      -16.160655   1.000000
   11      -16.065558   1.000000
   12      -16.015475   1.000000
   13      -15.869200   1.000000
   14      -15.604878   1.000000
   15      -15.566084   1.000000
   16      -15.456144   1.000000
   17      -15.371102   1.000000
   18      -15.241216   1.000000
   19       -9.304650   1.000000
   20       -9.082211   1.000000
   21       -8.962845   1.000000
   22       -8.901194   1.000000
   23       -8.813379   1.000000
   24       -8.739461   1.000000
   25       -8.624923   1.000000
   26       -8.602444   1.000000
   27       -8.507435   1.000000
   28       -8.402066   1.000000
   29       -8.337319   1.000000
   30       -8.290635   1.000000
   31       -8.234361   1.000000
   32       -8.113102   1.000000
   33       -8.020496   1.000000
   34       -7.944576   1.000000
   35       -7.904196   1.000000
   36       -7.802771   1.000000
   37       -7.678277   1.000000
   38       -7.515383   1.000000
   39       -7.484051   1.000000
   40       -7.448642   1.000000
   41       -7.279187   1.000000
   42       -7.166133   1.000000
   43       -7.129504   1.000000
   44       -7.000165   1.000000
   45       -6.841434   1.000000
   46       -6.812736   1.000000
   47       -6.644097   1.000000
   48       -6.610697   1.000000
   49       -6.571736   1.000000
   50       -6.538129   1.000000
   51       -6.493424   1.000000
   52       -6.415233   1.000000
   53       -6.317652   1.000000
   54       -6.254898   1.000000
   55       -6.200290   1.000000
   56       -6.191069   1.000000
   57       -6.076652   1.000000
   58       -5.920012   1.000000
   59       -5.723403   1.000000
   60       -5.559733   1.000000
   61       -5.522979   1.000000
   62       -5.436999   1.000000
   63       -5.219327   1.000000
   64       -5.121819   1.000000
   65       -5.039517   1.000000
   66       -4.981264   1.000000
   67       -4.887485   1.000000
   68       -4.866167   1.000000
   69       -4.812939   1.000000
   70       -4.737027   1.000000
   71       -4.643861   1.000000
   72       -4.608837   1.000000
   73       -4.501216   1.000000
   74       -4.335349   1.000000
   75       -4.283669   1.000000
   76       -4.117601   1.000000
   77       -3.811525   0.999453
   78       -3.591142   0.956064
   79       -3.512249   0.874696
   80       -3.398968   0.636029
   81       -3.294797   0.348733
   82       -2.863908   0.000296
   83       -2.730207   0.000006
   84       -2.619217   0.000000
   85       -2.516971   0.000000
   86       -2.479584   0.000000
   87       -2.363855   0.000000
   88       -2.260422   0.000000
   89       -2.216663   0.000000
   90       -2.072222   0.000000
   91       -2.045716   0.000000
   92       -1.395194   0.000000
   93       -1.332808   0.000000
   94       -1.267453   0.000000
   95       -1.108612   0.000000
   96       -1.068509   0.000000
   97       -0.992797   0.000000
   98       -0.861719   0.000000
   99       -0.716157   0.000000
  100       -0.701402   0.000000
  101       -0.628814   0.000000
  102       -0.522375   0.000000
  103       -0.491968   0.000000
  104       -0.339289   0.000000
  105       -0.214591   0.000000
  106       -0.125450   0.000000
  107       -0.076907   0.000000
  108       -0.005347   0.000000
  109        0.072924   0.000000
  110        0.276156   0.000000
  111        0.324692   0.000000
  112        0.597126   0.000000
  113        0.754626   0.000000
  114        0.779638   0.000000
  115        0.839630   0.000000
  116        1.037475   0.000000
  117        1.113472   0.000000
  118        1.639153   0.000000
  119        1.837243   0.000000
  120        2.147375   0.000000
 
  0.1250000E+00  0.2775558E-16  0.0000000E+00  0.3125000E-01
    1      -17.771455   1.000000
    2      -16.784853   1.000000
    3      -16.731527   1.000000
    4      -16.638911   1.000000
    5      -16.490435   1.000000
    6      -16.411565   1.000000
    7      -16.371268   1.000000
    8      -16.329892   1.000000
    9      -16.240319   1.000000
   10      -16.089068   1.000000
   11      -16.042786   1.000000
   12      -15.990601   1.000000
   13      -15.850336   1.000000
   14      -15.612150   1.000000
   15      -15.577450   1.000000
   16      -15.449325   1.000000
   17      -15.380304   1.000000
   18      -15.248915   1.000000
   19       -9.286642   1.000000
   20       -9.189765   1.000000
   21       -9.070529   1.000000
   22       -9.017519   1.000000
   23       -8.797047   1.000000
   24       -8.710594   1.000000
   25       -8.669189   1.000000
   26       -8.565075   1.000000
   27       -8.497645   1.000000
   28       -8.413200   1.000000
   29       -8.381264   1.000000
   30       -8.192669   1.000000
   31       -8.137051   1.000000
   32       -8.070071   1.000000
   33       -8.024395   1.000000
   34       -7.879217   1.000000
   35       -7.817811   1.000000
   36       -7.705532   1.000000
   37       -7.657831   1.000000
   38       -7.569762   1.000000
   39       -7.485927   1.000000
   40       -7.361341   1.000000
   41       -7.313530   1.000000
   42       -7.237711   1.000000
   43       -7.137202   1.000000
   44       -7.012348   1.000000
   45       -6.860493   1.000000
   46       -6.824322   1.000000
   47       -6.727672   1.000000
   48       -6.664225   1.000000
   49       -6.566455   1.000000
   50       -6.476378   1.000000
   51       -6.457184   1.000000
   52       -6.387596   1.000000
   53       -6.307593   1.000000
   54       -6.254353   1.000000
   55       -6.192295   1.000000
   56       -6.158637   1.000000
   57       -6.023640   1.000000
   58       -5.924909   1.000000
   59       -5.715250   1.000000
   60       -5.559975   1.000000
   61       -5.523188   1.000000
   62       -5.452185   1.000000
   63       -5.343691   1.000000
   64       -5.168845   1.000000
   65       -5.144213   1.000000
   66       -5.032847   1.000000
   67       -4.912736   1.000000
   68       -4.880101   1.000000
   69       -4.788163   1.000000
   70       -4.690029   1.000000
   71       -4.617768   1.000000
   72       -4.525863   1.000000
   73       -4.445910   1.000000
   74       -4.322842   1.000000
   75       -4.229455   1.000000
   76       -4.072344   1.000000
   77       -3.884620   0.999922
   78       -3.694777   0.992647
   79       -3.564282   0.935342
   80       -3.454861   0.771285
   81       -3.135205   0.064605
   82       -2.850674   0.000208
   83       -2.736629   0.000007
   84       -2.619968   0.000000
   85       -2.514532   0.000000
   86       -2.453245   0.000000
   87       -2.358023   0.000000
   88       -2.241172   0.000000
   89       -2.184879   0.000000
   90       -2.063901   0.000000
   91       -2.058959   0.000000
   92       -1.401426   0.000000
   93       -1.320526   0.000000
   94       -1.255655   0.000000
   95       -1.103348   0.000000
   96       -1.062471   0.000000
   97       -0.984718   0.000000
   98       -0.869192   0.000000
   99       -0.794903   0.000000
  100       -0.727028   0.000000
  101       -0.673734   0.000000
  102       -0.545730   0.000000
  103       -0.519613   0.000000
  104       -0.348295   0.000000
  105       -0.267491   0.000000
  106       -0.202971   0.000000
  107       -0.121356   0.000000
  108       -0.067349   0.000000
  109        0.117454   0.000000
  110        0.267283   0.000000
  111        0.298464   0.000000
  112        0.569138   0.000000
  113        0.734772   0.000000
  114        0.827509   0.000000
  115        0.915883   0.000000
  116        1.082439   0.000000
  117        1.145964   0.000000
  118        1.683398   0.000000
  119        1.875852   0.000000
  120        2.182541   0.000000
 
  0.2500000E+00  0.5551115E-16  0.0000000E+00  0.3125000E-01
    1      -17.697146   1.000000
    2      -16.986691   1.000000
    3      -16.731737   1.000000
    4      -16.696042   1.000000
    5      -16.554191   1.000000
    6      -16.390521   1.000000
    7      -16.319328   1.000000
    8      -16.277745   1.000000
    9      -16.233131   1.000000
   10      -16.062137   1.000000
   11      -15.985009   1.000000
   12      -15.930281   1.000000
   13      -15.781814   1.000000
   14      -15.630862   1.000000
   15      -15.598501   1.000000
   16      -15.453789   1.000000
   17      -15.386338   1.000000
   18      -15.269239   1.000000
   19       -9.477070   1.000000
   20       -9.284504   1.000000
   21       -9.154969   1.000000
   22       -9.057227   1.000000
   23       -8.901901   1.000000
   24       -8.729317   1.000000
   25       -8.659053   1.000000
   26       -8.537013   1.000000
   27       -8.462720   1.000000
   28       -8.400038   1.000000
   29       -8.299366   1.000000
   30       -8.231810   1.000000
   31       -8.099407   1.000000
   32       -7.979812   1.000000
   33       -7.900753   1.000000
   34       -7.833858   1.000000
   35       -7.735229   1.000000
   36       -7.663391   1.000000
   37       -7.590851   1.000000
   38       -7.464456   1.000000
   39       -7.426586   1.000000
   40       -7.365267   1.000000
   41       -7.312531   1.000000
   42       -7.226202   1.000000
   43       -7.118657   1.000000
   44       -6.990382   1.000000
   45       -6.947767   1.000000
   46       -6.881088   1.000000
   47       -6.708492   1.000000
   48       -6.679397   1.000000
   49       -6.547013   1.000000
   50       -6.504952   1.000000
   51       -6.425165   1.000000
   52       -6.390443   1.000000
   53       -6.285603   1.000000
   54       -6.183641   1.000000
   55       -6.131874   1.000000
   56       -6.089807   1.000000
   57       -5.965510   1.000000
   58       -5.902293   1.000000
   59       -5.783264   1.000000
   60       -5.669109   1.000000
   61       -5.596946   1.000000
   62       -5.564733   1.000000
   63       -5.486172   1.000000
   64       -5.285445   1.000000
   65       -5.195900   1.000000
   66       -5.111511   1.000000
   67       -4.946516   1.000000
   68       -4.846267   1.000000
   69       -4.804162   1.000000
   70       -4.610817   1.000000
   71       -4.534586   1.000000
   72       -4.401229   1.000000
   73       -4.338549   1.000000
   74       -4.306401   1.000000
   75       -4.169460   1.000000
   76       -4.100289   1.000000
   77       -4.006429   0.999998
   78       -3.880326   0.999912
   79       -3.593887   0.957839
   80       -3.392207   0.617931
   81       -3.006764   0.007645
   82       -2.828915   0.000115
   83       -2.735297   0.000007
   84       -2.627186   0.000000
   85       -2.489677   0.000000
   86       -2.418811   0.000000
   87       -2.339158   0.000000
   88       -2.231506   0.000000
   89       -2.111021   0.000000
   90       -2.053307   0.000000
   91       -2.023378   0.000000
   92       -1.420872   0.000000
   93       -1.295837   0.000000
   94       -1.212634   0.000000
   95       -1.104570   0.000000
   96       -1.085767   0.000000
   97       -0.980948   0.000000
   98       -0.935882   0.000000
   99       -0.863537   0.000000
  100       -0.807883   0.000000
  101       -0.736651   0.000000
  102       -0.643321   0.000000
  103       -0.586529   0.000000
  104       -0.463923   0.000000
  105       -0.379702   0.000000
  106       -0.295434   0.000000
  107       -0.216621   0.000000
  108       -0.096814   0.000000
  109        0.121608   0.000000
  110        0.138644   0.000000
  111        0.344784   0.000000
  112        0.484552   0.000000
  113        0.788319   0.000000
  114        0.879734   0.000000
  115        0.965455   0.000000
  116        1.181470   0.000000
  117        1.305993   0.000000
  118        1.806175   0.000000
  119        1.986383   0.000000
  120        2.286753   0.000000
 
  0.3750000E+00  0.0000000E+00  0.0000000E+00  0.3125000E-01
    1      -17.578327   1.000000
    2      -17.200260   1.000000
    3      -16.754560   1.000000
    4      -16.693146   1.000000
    5      -16.613982   1.000000
    6      -16.417046   1.000000
    7      -16.264221   1.000000
    8      -16.252204   1.000000
    9      -16.176833   1.000000
   10      -16.070128   1.000000
   11      -15.928633   1.000000
   12      -15.872292   1.000000
   13      -15.744130   1.000000
   14      -15.648861   1.000000
   15      -15.596217   1.000000
   16      -15.484650   1.000000
   17      -15.368526   1.000000
   18      -15.293142   1.000000
   19       -9.685532   1.000000
   20       -9.383004   1.000000
   21       -9.151776   1.000000
   22       -9.045509   1.000000
   23       -8.937319   1.000000
   24       -8.767551   1.000000
   25       -8.633642   1.000000
   26       -8.516077   1.000000
   27       -8.461899   1.000000
   28       -8.343935   1.000000
   29       -8.315539   1.000000
   30       -8.170766   1.000000
   31       -8.090032   1.000000
   32       -7.961531   1.000000
   33       -7.911421   1.000000
   34       -7.842289   1.000000
   35       -7.752501   1.000000
   36       -7.656932   1.000000
   37       -7.603150   1.000000
   38       -7.471335   1.000000
   39       -7.363300   1.000000
   40       -7.271736   1.000000
   41       -7.193123   1.000000
   42       -7.113316   1.000000
   43       -7.077961   1.000000
   44       -6.974131   1.000000
   45       -6.913317   1.000000
   46       -6.800378   1.000000
   47       -6.703651   1.000000
   48       -6.612285   1.000000
   49       -6.517423   1.000000
   50       -6.482369   1.000000
   51       -6.426472   1.000000
   52       -6.365226   1.000000
   53       -6.240656   1.000000
   54       -6.186023   1.000000
   55       -6.129301   1.000000
   56       -6.067847   1.000000
   57       -5.993885   1.000000
   58       -5.934668   1.000000
   59       -5.853512   1.000000
   60       -5.772951   1.000000
   61       -5.750301   1.000000
   62       -5.701293   1.000000
   63       -5.565615   1.000000
   64       -5.309476   1.000000
   65       -5.190924   1.000000
   66       -5.126624   1.000000
   67       -4.987262   1.000000
   68       -4.830687   1.000000
   69       -4.750589   1.000000
   70       -4.714114   1.000000
   71       -4.481764   1.000000
   72       -4.392340   1.000000
   73       -4.335065   1.000000
   74       -4.252982   1.000000
   75       -4.189406   1.000000
   76       -4.123337   1.000000
   77       -3.976987   0.999995
   78       -3.867846   0.999876
   79       -3.640398   0.980062
   80       -3.324758   0.429800
   81       -2.939902   0.001876
   82       -2.825398   0.000104
   83       -2.712789   0.000003
   84       -2.631064   0.000000
   85       -2.459684   0.000000
   86       -2.420710   0.000000
   87       -2.303655   0.000000
   88       -2.237875   0.000000
   89       -2.067980   0.000000
   90       -2.020725   0.000000
   91       -1.924689   0.000000
   92       -1.449931   0.000000
   93       -1.273757   0.000000
   94       -1.204075   0.000000
   95       -1.162235   0.000000
   96       -1.102995   0.000000
   97       -1.036865   0.000000
   98       -0.940201   0.000000
   99       -0.871442   0.000000
  100       -0.858643   0.000000
  101       -0.805994   0.000000
  102       -0.760615   0.000000
  103       -0.661202   0.000000
  104       -0.595250   0.000000
  105       -0.477927   0.000000
  106       -0.379788   0.000000
  107       -0.235138   0.000000
  108       -0.145470   0.000000
  109        0.020783   0.000000
  110        0.147661   0.000000
  111        0.316045   0.000000
  112        0.451964   0.000000
  113        0.794849   0.000000
  114        0.931447   0.000000
  115        1.009083   0.000000
  116        1.300471   0.000000
  117        1.445738   0.000000
  118        1.989996   0.000000
  119        2.158048   0.000000
  120        2.456639   0.000000
 
  0.5000000E+00  0.1110223E-15  0.0000000E+00  0.1562500E-01
    1      -17.459825   1.000000
    2      -17.352287   1.000000
    3      -16.767710   1.000000
    4      -16.673183   1.000000
    5      -16.647466   1.000000
    6      -16.427726   1.000000
    7      -16.263539   1.000000
    8      -16.230858   1.000000
    9      -16.125862   1.000000
   10      -16.100332   1.000000
   11      -15.899368   1.000000
   12      -15.832597   1.000000
   13      -15.762338   1.000000
   14      -15.658465   1.000000
   15      -15.584561   1.000000
   16      -15.496787   1.000000
   17      -15.358253   1.000000
   18      -15.304498   1.000000
   19       -9.760902   1.000000
   20       -9.425285   1.000000
   21       -9.151902   1.000000
   22       -9.065260   1.000000
   23       -8.858844   1.000000
   24       -8.814010   1.000000
   25       -8.602388   1.000000
   26       -8.565033   1.000000
   27       -8.484588   1.000000
   28       -8.362150   1.000000
   29       -8.188064   1.000000
   30       -8.140785   1.000000
   31       -8.068852   1.000000
   32       -8.030646   1.000000
   33       -7.940195   1.000000
   34       -7.866937   1.000000
   35       -7.792178   1.000000
   36       -7.644228   1.000000
   37       -7.598938   1.000000
   38       -7.477244   1.000000
   39       -7.393208   1.000000
   40       -7.292274   1.000000
   41       -7.076512   1.000000
   42       -7.064303   1.000000
   43       -7.034778   1.000000
   44       -6.864794   1.000000
   45       -6.848907   1.000000
   46       -6.698118   1.000000
   47       -6.660382   1.000000
   48       -6.608801   1.000000
   49       -6.570457   1.000000
   50       -6.512563   1.000000
   51       -6.460430   1.000000
   52       -6.333761   1.000000
   53       -6.310987   1.000000
   54       -6.237698   1.000000
   55       -6.136278   1.000000
   56       -6.059436   1.000000
   57       -5.970202   1.000000
   58       -5.941384   1.000000
   59       -5.881153   1.000000
   60       -5.807022   1.000000
   61       -5.746457   1.000000
   62       -5.683409   1.000000
   63       -5.581538   1.000000
   64       -5.348089   1.000000
   65       -5.281118   1.000000
   66       -5.091878   1.000000
   67       -5.067759   1.000000
   68       -4.921322   1.000000
   69       -4.740441   1.000000
   70       -4.603824   1.000000
   71       -4.508761   1.000000
   72       -4.404285   1.000000
   73       -4.353016   1.000000
   74       -4.246102   1.000000
   75       -4.185490   1.000000
   76       -4.099718   1.000000
   77       -3.941933   0.999986
   78       -3.825961   0.999620
   79       -3.680365   0.990297
   80       -3.296941   0.354358
   81       -2.918137   0.001136
   82       -2.831435   0.000124
   83       -2.689305   0.000002
   84       -2.643463   0.000000
   85       -2.445756   0.000000
   86       -2.420633   0.000000
   87       -2.297714   0.000000
   88       -2.231021   0.000000
   89       -2.049847   0.000000
   90       -2.008586   0.000000
   91       -1.870692   0.000000
   92       -1.459914   0.000000
   93       -1.295951   0.000000
   94       -1.232115   0.000000
   95       -1.174077   0.000000
   96       -1.083240   0.000000
   97       -1.054023   0.000000
   98       -0.954110   0.000000
   99       -0.885513   0.000000
  100       -0.846269   0.000000
  101       -0.826349   0.000000
  102       -0.820331   0.000000
  103       -0.701401   0.000000
  104       -0.646002   0.000000
  105       -0.515025   0.000000
  106       -0.410413   0.000000
  107       -0.235058   0.000000
  108       -0.177162   0.000000
  109       -0.010117   0.000000
  110        0.147752   0.000000
  111        0.298914   0.000000
  112        0.445509   0.000000
  113        0.784898   0.000000
  114        0.970787   0.000000
  115        1.020595   0.000000
  116        1.341313   0.000000
  117        1.500473   0.000000
  118        2.206515   0.000000
  119        2.243678   0.000000
  120        2.368602   0.000000
 
  0.0000000E+00  0.1250000E+00  0.0000000E+00  0.3125000E-01
    1      -17.771278   1.000000
    2      -16.789604   1.000000
    3      -16.742625   1.000000
    4      -16.588020   1.000000
    5      -16.528103   1.000000
    6      -16.426912   1.000000
    7      -16.360684   1.000000
    8      -16.325552   1.000000
    9      -16.235275   1.000000
   10      -16.113986   1.000000
   11      -16.025380   1.000000
   12      -15.974344   1.000000
   13      -15.860801   1.000000
   14      -15.616693   1.000000
   15      -15.577958   1.000000
   16      -15.447980   1.000000
   17      -15.372431   1.000000
   18      -15.253157   1.000000
   19       -9.296112   1.000000
   20       -9.215804   1.000000
   21       -9.059895   1.000000
   22       -9.029789   1.000000
   23       -8.775332   1.000000
   24       -8.697024   1.000000
   25       -8.661603   1.000000
   26       -8.562586   1.000000
   27       -8.452705   1.000000
   28       -8.426302   1.000000
   29       -8.392551   1.000000
   30       -8.219350   1.000000
   31       -8.150960   1.000000
   32       -8.066941   1.000000
   33       -8.004045   1.000000
   34       -7.889590   1.000000
   35       -7.823036   1.000000
   36       -7.708173   1.000000
   37       -7.655224   1.000000
   38       -7.567506   1.000000
   39       -7.475519   1.000000
   40       -7.369928   1.000000
   41       -7.331064   1.000000
   42       -7.192270   1.000000
   43       -7.133798   1.000000
   44       -7.021694   1.000000
   45       -6.875772   1.000000
   46       -6.825830   1.000000
   47       -6.743344   1.000000
   48       -6.636081   1.000000
   49       -6.571960   1.000000
   50       -6.469988   1.000000
   51       -6.431181   1.000000
   52       -6.382460   1.000000
   53       -6.347844   1.000000
   54       -6.279854   1.000000
   55       -6.193062   1.000000
   56       -6.152975   1.000000
   57       -6.013288   1.000000
   58       -5.939000   1.000000
   59       -5.704183   1.000000
   60       -5.563598   1.000000
   61       -5.515313   1.000000
   62       -5.468351   1.000000
   63       -5.330976   1.000000
   64       -5.173516   1.000000
   65       -5.120989   1.000000
   66       -5.013469   1.000000
   67       -4.946085   1.000000
   68       -4.883890   1.000000
   69       -4.793658   1.000000
   70       -4.700899   1.000000
   71       -4.615073   1.000000
   72       -4.564987   1.000000
   73       -4.419670   1.000000
   74       -4.312809   1.000000
   75       -4.215376   1.000000
   76       -4.057853   1.000000
   77       -3.875349   0.999899
   78       -3.723680   0.995902
   79       -3.548033   0.919529
   80       -3.441744   0.742261
   81       -3.159193   0.088893
   82       -2.848642   0.000197
   83       -2.718941   0.000004
   84       -2.638960   0.000000
   85       -2.506856   0.000000
   86       -2.460269   0.000000
   87       -2.351752   0.000000
   88       -2.241616   0.000000
   89       -2.195186   0.000000
   90       -2.099419   0.000000
   91       -2.008632   0.000000
   92       -1.408041   0.000000
   93       -1.346355   0.000000
   94       -1.223412   0.000000
   95       -1.112663   0.000000
   96       -1.068412   0.000000
   97       -0.983787   0.000000
   98       -0.896184   0.000000
   99       -0.803973   0.000000
  100       -0.720763   0.000000
  101       -0.685489   0.000000
  102       -0.560920   0.000000
  103       -0.500967   0.000000
  104       -0.352297   0.000000
  105       -0.296591   0.000000
  106       -0.143752   0.000000
  107       -0.115614   0.000000
  108       -0.056210   0.000000
  109        0.107376   0.000000
  110        0.273388   0.000000
  111        0.357290   0.000000
  112        0.608754   0.000000
  113        0.736799   0.000000
  114        0.780752   0.000000
  115        0.913287   0.000000
  116        1.053459   0.000000
  117        1.125982   0.000000
  118        1.684458   0.000000
  119        1.875318   0.000000
  120        2.182850   0.000000
 
  0.1250000E+00  0.1250000E+00  0.0000000E+00  0.3125000E-01
    1      -17.720005   1.000000
    2      -16.928427   1.000000
    3      -16.745482   1.000000
    4      -16.691023   1.000000
    5      -16.492320   1.000000
    6      -16.403914   1.000000
    7      -16.365508   1.000000
    8      -16.271413   1.000000
    9      -16.235950   1.000000
   10      -16.087619   1.000000
   11      -15.994126   1.000000
   12      -15.943487   1.000000
   13      -15.800261   1.000000
   14      -15.625209   1.000000
   15      -15.589576   1.000000
   16      -15.445485   1.000000
   17      -15.377304   1.000000
   18      -15.273788   1.000000
   19       -9.419171   1.000000
   20       -9.317109   1.000000
   21       -9.156359   1.000000
   22       -9.001504   1.000000
   23       -8.895275   1.000000
   24       -8.683709   1.000000
   25       -8.668387   1.000000
   26       -8.501779   1.000000
   27       -8.447877   1.000000
   28       -8.382801   1.000000
   29       -8.321746   1.000000
   30       -8.222895   1.000000
   31       -8.146418   1.000000
   32       -8.110525   1.000000
   33       -7.910956   1.000000
   34       -7.806251   1.000000
   35       -7.739849   1.000000
   36       -7.693519   1.000000
   37       -7.597974   1.000000
   38       -7.474997   1.000000
   39       -7.420203   1.000000
   40       -7.356819   1.000000
   41       -7.287515   1.000000
   42       -7.241055   1.000000
   43       -7.148623   1.000000
   44       -7.046811   1.000000
   45       -6.894927   1.000000
   46       -6.851961   1.000000
   47       -6.773197   1.000000
   48       -6.654806   1.000000
   49       -6.614770   1.000000
   50       -6.486556   1.000000
   51       -6.423129   1.000000
   52       -6.325102   1.000000
   53       -6.268868   1.000000
   54       -6.223919   1.000000
   55       -6.183775   1.000000
   56       -6.119255   1.000000
   57       -5.970355   1.000000
   58       -5.928843   1.000000
   59       -5.747273   1.000000
   60       -5.667921   1.000000
   61       -5.520973   1.000000
   62       -5.460245   1.000000
   63       -5.428964   1.000000
   64       -5.345960   1.000000
   65       -5.157728   1.000000
   66       -5.109188   1.000000
   67       -4.952546   1.000000
   68       -4.901716   1.000000
   69       -4.778750   1.000000
   70       -4.652116   1.000000
   71       -4.583317   1.000000
   72       -4.440312   1.000000
   73       -4.308946   1.000000
   74       -4.283962   1.000000
   75       -4.182391   1.000000
   76       -4.046627   1.000000
   77       -3.966577   0.999994
   78       -3.880460   0.999912
   79       -3.599428   0.961246
   80       -3.400983   0.641364
   81       -3.019734   0.009805
   82       -2.857978   0.000253
   83       -2.717445   0.000004
   84       -2.652735   0.000000
   85       -2.505643   0.000000
   86       -2.430021   0.000000
   87       -2.364718   0.000000
   88       -2.237638   0.000000
   89       -2.122245   0.000000
   90       -2.104014   0.000000
   91       -1.989336   0.000000
   92       -1.405766   0.000000
   93       -1.326712   0.000000
   94       -1.184047   0.000000
   95       -1.109370   0.000000
   96       -1.072555   0.000000
   97       -0.966637   0.000000
   98       -0.922432   0.000000
   99       -0.864567   0.000000
  100       -0.794592   0.000000
  101       -0.726553   0.000000
  102       -0.609103   0.000000
  103       -0.559460   0.000000
  104       -0.488599   0.000000
  105       -0.338605   0.000000
  106       -0.201784   0.000000
  107       -0.154410   0.000000
  108       -0.099199   0.000000
  109        0.093677   0.000000
  110        0.265483   0.000000
  111        0.316919   0.000000
  112        0.528491   0.000000
  113        0.751936   0.000000
  114        0.828231   0.000000
  115        0.942582   0.000000
  116        1.130514   0.000000
  117        1.263113   0.000000
  118        1.770563   0.000000
  119        1.948106   0.000000
  120        2.253249   0.000000
 
  0.2500000E+00  0.1250000E+00  0.0000000E+00  0.3125000E-01
    1      -17.621536   1.000000
    2      -17.108338   1.000000
    3      -16.847025   1.000000
    4      -16.682455   1.000000
    5      -16.508112   1.000000
    6      -16.394618   1.000000
    7      -16.307638   1.000000
    8      -16.254384   1.000000
    9      -16.191505   1.000000
   10      -16.078453   1.000000
   11      -15.965737   1.000000
   12      -15.914322   1.000000
   13      -15.722529   1.000000
   14      -15.634197   1.000000
   15      -15.597466   1.000000
   16      -15.472020   1.000000
   17      -15.369522   1.000000
   18      -15.293735   1.000000
   19       -9.611528   1.000000
   20       -9.452515   1.000000
   21       -9.161960   1.000000
   22       -9.035494   1.000000
   23       -8.871227   1.000000
   24       -8.716408   1.000000
   25       -8.637748   1.000000
   26       -8.480526   1.000000
   27       -8.424363   1.000000
   28       -8.361844   1.000000
   29       -8.293770   1.000000
   30       -8.210093   1.000000
   31       -8.130475   1.000000
   32       -8.057736   1.000000
   33       -7.912220   1.000000
   34       -7.852828   1.000000
   35       -7.795780   1.000000
   36       -7.624522   1.000000
   37       -7.586647   1.000000
   38       -7.416466   1.000000
   39       -7.358879   1.000000
   40       -7.306088   1.000000
   41       -7.239730   1.000000
   42       -7.169876   1.000000
   43       -7.040647   1.000000
   44       -6.984967   1.000000
   45       -6.895387   1.000000
   46       -6.802374   1.000000
   47       -6.703336   1.000000