       N       E                     dE             d eps       ncg     rms          rms(c)
DAV:   1     0.112412996080E+04    0.11241E+04   -0.35873E+04  8160   0.577E+02
DAV:   2    -0.358729595317E+01   -0.11277E+04   -0.10877E+04 11200   0.173E+02
DAV:   3    -0.199907108747E+03   -0.19632E+03   -0.18860E+03 10920   0.819E+01
DAV:   4    -0.209062619186E+03   -0.91555E+01   -0.88569E+01 11960   0.260E+01
DAV:   5    -0.209404063947E+03   -0.34144E+00   -0.34050E+00 11480   0.378E+00    0.278E+01
DAV:   6    -0.241337678472E+03   -0.31934E+02   -0.11328E+02 12520   0.600E+01    0.607E+01
DAV:   7    -0.196121292094E+03    0.45216E+02   -0.18037E+02 13160   0.151E+02    0.198E+01
DAV:   8    -0.189357787305E+03    0.67635E+01   -0.18423E+01 12000   0.126E+01    0.123E+01
DAV:   9    -0.188081844929E+03    0.12759E+01   -0.30303E+00 13080   0.612E+00    0.891E+00
DAV:  10    -0.186949896498E+03    0.11319E+01   -0.15881E+00 13320   0.728E+00    0.205E+00
DAV:  11    -0.187056596285E+03   -0.10670E+00   -0.58313E-01 13480   0.341E+00    0.417E+00
DAV:  12    -0.186949363458E+03    0.10723E+00   -0.57888E-01 12960   0.416E+00    0.292E+00
DAV:  13    -0.186874041126E+03    0.75322E-01   -0.19785E-01 12560   0.237E+00    0.131E+00
DAV:  14    -0.186853268709E+03    0.20772E-01   -0.73257E-02 12600   0.124E+00    0.845E-01
DAV:  15    -0.186850655377E+03    0.26133E-02   -0.21900E-02 12800   0.730E-01    0.701E-01
DAV:  16    -0.186846640136E+03    0.40152E-02   -0.10628E-02 12960   0.457E-01    0.306E-01
DAV:  17    -0.186845421534E+03    0.12186E-02   -0.53836E-03 12720   0.332E-01    0.233E-01
DAV:  18    -0.186844814952E+03    0.60658E-03   -0.17038E-03 12600   0.201E-01    0.679E-02
DAV:  19    -0.186845209667E+03   -0.39471E-03   -0.64584E-04 10720   0.697E-02    0.889E-02
DAV:  20    -0.186845749977E+03   -0.54031E-03   -0.62269E-04  9560   0.761E-02    0.601E-02
DAV:  21    -0.186846546682E+03   -0.79671E-03   -0.22207E-04  8160   0.441E-02    0.393E-02
DAV:  22    -0.186847469179E+03   -0.92250E-03   -0.14825E-04  7480   0.441E-02    0.249E-02
DAV:  23    -0.186848549223E+03   -0.10800E-02   -0.89236E-05  7440   0.237E-02    0.119E-02
DAV:  24    -0.186849211467E+03   -0.66224E-03   -0.30658E-05  6480   0.173E-02    0.775E-03
DAV:  25    -0.186849575475E+03   -0.36401E-03   -0.13881E-05  6080   0.118E-02    0.254E-03
DAV:  26    -0.186849794103E+03   -0.21863E-03   -0.81565E-06  6800   0.615E-03    0.145E-03
DAV:  27    -0.186849867606E+03   -0.73502E-04   -0.31404E-06  7280   0.406E-03
   1 F= -.18684987E+03 E0= -.18667648E+03  d E =-.186850E+03
       N       E                     dE             d eps       ncg     rms          rms(c)
DAV:   1    -0.187532209493E+03   -0.68242E+00   -0.27394E+02  8160   0.351E+01    0.477E+00
DAV:   2    -0.190021630374E+03   -0.24894E+01   -0.21016E+01 12280   0.169E+01    0.131E+01
DAV:   3    -0.189244372564E+03    0.77726E+00   -0.59858E+00 12480   0.138E+01    0.561E+00
DAV:   4    -0.188849726671E+03    0.39465E+00   -0.63583E-01 12520   0.439E+00    0.332E+00
DAV:   5    -0.188857870776E+03   -0.81441E-02   -0.52629E-01 12000   0.412E+00    0.428E+00
DAV:   6    -0.188763089658E+03    0.94781E-01   -0.52845E-01 12240   0.330E+00    0.216E+00
DAV:   7    -0.188710510763E+03    0.52579E-01   -0.20239E-01 10640   0.133E+00    0.118E+00
DAV:   8    -0.188696164392E+03    0.14346E-01   -0.61596E-02 12400   0.103E+00    0.100E+00
DAV:   9    -0.188689869723E+03    0.62947E-02   -0.24761E-02 12520   0.849E-01    0.658E-01
DAV:  10    -0.188687253291E+03    0.26164E-02   -0.80336E-03 12040   0.426E-01    0.313E-01
DAV:  11    -0.188686404693E+03    0.84860E-03   -0.26333E-03 13080   0.222E-01    0.105E-01
DAV:  12    -0.188686407110E+03   -0.24165E-05   -0.98923E-04 11720   0.944E-02
   2 F= -.18868641E+03 E0= -.18854467E+03  d E =-.183654E+01
       N       E                     dE             d eps       ncg     rms          rms(c)
DAV:   1    -0.190635658765E+03   -0.19493E+01   -0.31710E+01  8960   0.143E+01    0.447E+00
DAV:   2    -0.190562260611E+03    0.73398E-01   -0.28062E+00 11480   0.917E+00    0.724E+00
DAV:   3    -0.190126070498E+03    0.43619E+00   -0.15278E+00 12320   0.846E+00    0.438E+00
DAV:   4    -0.189895647382E+03    0.23042E+00   -0.72892E-01 12720   0.439E+00    0.249E+00
DAV:   5    -0.189870774536E+03    0.24873E-01   -0.37569E-01 12240   0.305E+00    0.284E+00
DAV:   6    -0.189797191304E+03    0.73583E-01   -0.15884E-01 12560   0.247E+00    0.755E-01
DAV:   7    -0.189791361339E+03    0.58300E-02   -0.16032E-02 11680   0.605E-01    0.397E-01
DAV:   8    -0.189791441017E+03   -0.79678E-04   -0.66803E-03 12720   0.480E-01    0.382E-01
DAV:   9    -0.189790380950E+03    0.10601E-02   -0.26048E-03 11440   0.272E-01    0.128E-01
DAV:  10    -0.189790806203E+03   -0.42525E-03   -0.10516E-03 10720   0.111E-01    0.139E-01
DAV:  11    -0.189790494422E+03    0.31178E-03   -0.56724E-04  9760   0.863E-02    0.205E-02
DAV:  12    -0.189790517994E+03   -0.23572E-04   -0.71225E-05  7160   0.265E-02
   3 F= -.18979052E+03 E0= -.18967037E+03  d E =-.110411E+01
       N       E                     dE             d eps       ncg     rms          rms(c)
DAV:   1    -0.191368346506E+03   -0.15779E+01   -0.79178E+01  8160   0.202E+01    0.456E+00
DAV:   2    -0.191121201175E+03    0.24715E+00   -0.52621E+00 13280   0.671E+00    0.377E+00
DAV:   3    -0.191426308995E+03   -0.30511E+00   -0.14964E+00 12120   0.855E+00    0.797E+00
DAV:   4    -0.190988915360E+03    0.43739E+00   -0.20508E+00 11320   0.911E+00    0.365E+00
DAV:   5    -0.190981248320E+03    0.76670E-02   -0.71946E-01 11920   0.536E+00    0.363E+00
DAV:   6    -0.190806108503E+03    0.17514E+00   -0.22667E-01 12080   0.321E+00    0.699E-01
DAV:   7    -0.190806240556E+03   -0.13205E-03   -0.35946E-02 12440   0.831E-01    0.656E-01
DAV:   8    -0.190804425149E+03    0.18154E-02   -0.17990E-02 11840   0.849E-01    0.611E-01
DAV:   9    -0.190800849369E+03    0.35758E-02   -0.63317E-03 11520   0.513E-01    0.174E-01
DAV:  10    -0.190801157266E+03   -0.30790E-03   -0.15833E-03 11000   0.149E-01    0.125E-01
DAV:  11    -0.190800934741E+03    0.22252E-03   -0.67263E-04 10600   0.101E-01    0.418E-02
DAV:  12    -0.190800944663E+03   -0.99222E-05   -0.96100E-05  7200   0.342E-02
   4 F= -.19080094E+03 E0= -.19069773E+03  d E =-.101043E+01
       N       E                     dE             d eps       ncg     rms          rms(c)
DAV:   1    -0.192287434974E+03   -0.14865E+01   -0.17976E+02  8160   0.299E+01    0.591E+00
DAV:   2    -0.191995327854E+03    0.29211E+00   -0.98979E+00 11080   0.776E+00    0.398E+00
DAV:   3    -0.192420551548E+03   -0.42522E+00   -0.31171E+00 12120   0.109E+01    0.732E+00
DAV:   4    -0.191706029074E+03    0.71452E+00   -0.11988E+00 12200   0.855E+00    0.302E+00
DAV:   5    -0.191731461023E+03   -0.25432E-01   -0.59783E-01 12000   0.555E+00    0.464E+00
DAV:   6    -0.191543692946E+03    0.18777E+00   -0.56056E-01 12240   0.493E+00    0.117E+00
DAV:   7    -0.191542920783E+03    0.77216E-03   -0.80422E-02 11840   0.156E+00    0.119E+00
DAV:   8    -0.191530994007E+03    0.11927E-01   -0.40923E-02 11600   0.131E+00    0.535E-01
DAV:   9    -0.191527599184E+03    0.33948E-02   -0.76222E-03 11960   0.484E-01    0.161E-01
DAV:  10    -0.191527657699E+03   -0.58515E-04   -0.25617E-03 10440   0.148E-01    0.682E-02
DAV:  11    -0.191527686825E+03   -0.29127E-04   -0.34388E-04  9120   0.769E-02
   5 F= -.19152769E+03 E0= -.19143020E+03  d E =-.726742E+00
       N       E                     dE             d eps       ncg     rms          rms(c)
DAV:   1    -0.191586108526E+03   -0.58451E-01   -0.39267E+00  8160   0.424E+00    0.722E-01
DAV:   2    -0.191662783608E+03   -0.76675E-01   -0.29627E-01 12400   0.327E+00    0.256E+00
DAV:   3    -0.191593841478E+03    0.68942E-01   -0.11610E-01 12440   0.254E+00    0.370E-01
DAV:   4    -0.191597741170E+03   -0.38997E-02   -0.18711E-02 11640   0.846E-01    0.819E-01
DAV:   5    -0.191591630188E+03    0.61110E-02   -0.14804E-02 11600   0.777E-01    0.235E-01
DAV:   6    -0.191592033033E+03   -0.40284E-03   -0.48368E-03 11320   0.355E-01    0.319E-01
DAV:   7    -0.191591329803E+03    0.70323E-03   -0.40220E-03 11320   0.398E-01    0.193E-01
DAV:   8    -0.191590947674E+03    0.38213E-03   -0.87027E-04  9080   0.167E-01    0.414E-02
DAV:   9    -0.191590939412E+03    0.82621E-05   -0.97439E-05  6240   0.386E-02
   6 F= -.19159094E+03 E0= -.19149112E+03  d E =-.632526E-01
       N       E                     dE             d eps       ncg     rms          rms(c)
DAV:   1    -0.191677060174E+03   -0.86112E-01   -0.10502E+01  8160   0.682E+00    0.915E-01
DAV:   2    -0.191778142613E+03   -0.10108E+00   -0.39537E-01 12720   0.324E+00    0.292E+00
DAV:   3    -0.191688793073E+03    0.89350E-01   -0.19340E-01 12400   0.320E+00    0.707E-01
DAV:   4    -0.191693625196E+03   -0.48321E-02   -0.38226E-02 11560   0.117E+00    0.105E+00
DAV:   5    -0.191683226899E+03    0.10398E-01   -0.25819E-02 11640   0.102E+00    0.298E-01
DAV:   6    -0.191683254416E+03   -0.27517E-04   -0.56361E-03 11520   0.377E-01    0.321E-01
DAV:   7    -0.191683082645E+03    0.17177E-03   -0.60981E-03 11480   0.494E-01    0.312E-01
DAV:   8    -0.191682194269E+03    0.88838E-03   -0.22168E-03 10080   0.280E-01    0.673E-02
DAV:   9    -0.191682136442E+03    0.57826E-04   -0.20188E-04  6600   0.595E-02
   7 F= -.19168214E+03 E0= -.19158156E+03  d E =-.911970E-01
       N       E                     dE             d eps       ncg     rms          rms(c)
DAV:   1    -0.191713349051E+03   -0.31155E-01   -0.98274E-01  8160   0.215E+00    0.326E-01
DAV:   2    -0.191723413440E+03   -0.10064E-01   -0.49719E-02 12680   0.121E+00    0.967E-01
DAV:   3    -0.191714090587E+03    0.93229E-02   -0.19675E-02 12040   0.989E-01    0.242E-01
DAV:   4    -0.191715368060E+03   -0.12775E-02   -0.68663E-03 11440   0.503E-01    0.455E-01
DAV:   5    -0.191713315566E+03    0.20525E-02   -0.45789E-03 11040   0.428E-01    0.104E-01
DAV:   6    -0.191713275182E+03    0.40383E-04   -0.87498E-04  9840   0.115E-01
   8 F= -.19171328E+03 E0= -.19161275E+03  d E =-.311387E-01
       N       E                     dE             d eps       ncg     rms          rms(c)
DAV:   1    -0.191777919502E+03   -0.64604E-01   -0.46253E+00  8160   0.460E+00    0.582E-01
DAV:   2    -0.191820232668E+03   -0.42313E-01   -0.18107E-01 13440   0.233E+00    0.193E+00
DAV:   3    -0.191784417050E+03    0.35816E-01   -0.77505E-02 12400   0.195E+00    0.487E-01
DAV:   4    -0.191786947175E+03   -0.25301E-02   -0.19499E-02 11240   0.869E-01    0.702E-01
DAV:   5    -0.191781710799E+03    0.52364E-02   -0.96962E-03 11320   0.654E-01    0.149E-01
DAV:   6    -0.191782102811E+03   -0.39201E-03   -0.24676E-03 11560   0.236E-01    0.214E-01
DAV:   7    -0.191781879302E+03    0.22351E-03   -0.23595E-03 11160   0.324E-01    0.210E-01
DAV:   8    -0.191781427208E+03    0.45209E-03   -0.84305E-04  8440   0.186E-01    0.286E-02
DAV:   9    -0.191781435446E+03   -0.82380E-05   -0.69230E-05  6120   0.321E-02
   9 F= -.19178144E+03 E0= -.19168232E+03  d E =-.681603E-01
       N       E                     dE             d eps       ncg     rms          rms(c)
DAV:   1    -0.191797198692E+03   -0.15771E-01   -0.22641E-01  8160   0.102E+00    0.120E-01
DAV:   2    -0.191798583772E+03   -0.13851E-02   -0.80141E-03 12320   0.415E-01    0.338E-01
DAV:   3    -0.191797517542E+03    0.10662E-02   -0.27289E-03 11440   0.352E-01    0.107E-01
DAV:   4    -0.191797638094E+03   -0.12055E-03   -0.74437E-04  8600   0.177E-01    0.145E-01
DAV:   5    -0.191797413672E+03    0.22442E-03   -0.40918E-04  7960   0.149E-01    0.353E-02
DAV:   6    -0.191797432480E+03   -0.18808E-04   -0.10018E-04  6240   0.453E-02
  10 F= -.19179743E+03 E0= -.19169891E+03  d E =-.159970E-01
       N       E                     dE             d eps       ncg     rms          rms(c)
DAV:   1    -0.191762508364E+03    0.34905E-01   -0.11675E+00  8160   0.238E+00    0.383E-01
DAV:   2    -0.191768189053E+03   -0.56807E-02   -0.55405E-02 12520   0.103E+00    0.799E-01
DAV:   3    -0.191763158853E+03    0.50302E-02   -0.20705E-02 12440   0.951E-01    0.400E-01
DAV:   4    -0.191762875504E+03    0.28335E-03   -0.85551E-03 10840   0.561E-01    0.415E-01
DAV:   5    -0.191761442514E+03    0.14330E-02   -0.54972E-03 10240   0.517E-01    0.208E-01
DAV:   6    -0.191761076711E+03    0.36580E-03   -0.19449E-03 11560   0.245E-01    0.139E-01
DAV:   7    -0.191761022747E+03    0.53964E-04   -0.97092E-04  9200   0.209E-01
  11 F= -.19176102E+03 E0= -.19166101E+03  d E =0.364097E-01
       N       E                     dE             d eps       ncg     rms          rms(c)
DAV:   1    -0.191870003109E+03   -0.10893E+00   -0.10427E+01  8160   0.704E+00    0.902E-01
DAV:   2    -0.191931499359E+03   -0.61496E-01   -0.39979E-01 12760   0.290E+00    0.241E+00
DAV:   3    -0.191885443253E+03    0.46056E-01   -0.14240E-01 12360   0.255E+00    0.827E-01
DAV:   4    -0.191889449095E+03   -0.40058E-02   -0.42139E-02 12240   0.143E+00    0.109E+00
DAV:   5    -0.191875857186E+03    0.13592E-01   -0.24337E-02 11320   0.119E+00    0.311E-01
DAV:   6    -0.191876921348E+03   -0.10642E-02   -0.96672E-03 11680   0.546E-01    0.462E-01
DAV:   7    -0.191875113336E+03    0.18080E-02   -0.62676E-03 11560   0.565E-01    0.220E-01
DAV:   8    -0.191874549743E+03    0.56359E-03   -0.11532E-03  9920   0.202E-01    0.533E-02
DAV:   9    -0.191874503227E+03    0.46516E-04   -0.16213E-04  6760   0.483E-02
  12 F= -.19187450E+03 E0= -.19177947E+03  d E =-.113480E+00
       N       E                     dE             d eps       ncg     rms          rms(c)
DAV:   1    -0.191922075260E+03   -0.47526E-01   -0.18676E+00  8160   0.295E+00    0.339E-01
DAV:   2    -0.191929586853E+03   -0.75116E-02   -0.60511E-02 12000   0.991E-01    0.763E-01
DAV:   3    -0.191925170694E+03    0.44162E-02   -0.16324E-02 12400   0.886E-01    0.343E-01
DAV:   4    -0.191924543158E+03    0.62754E-03   -0.35868E-03 11440   0.401E-01    0.268E-01
DAV:   5    -0.191923932030E+03    0.61113E-03   -0.21445E-03 10520   0.380E-01    0.166E-01
DAV:   6    -0.191923946105E+03   -0.14075E-04   -0.13659E-03  9960   0.228E-01    0.157E-01
DAV:   7    -0.191923746546E+03    0.19956E-03   -0.82733E-04  8840   0.215E-01    0.109E-01
DAV:   8    -0.191923612648E+03    0.13390E-03   -0.24140E-04  6960   0.107E-01    0.169E-02
DAV:   9    -0.191923615515E+03   -0.28671E-05   -0.36005E-05  6560   0.234E-02
  13 F= -.19192362E+03 E0= -.19183097E+03  d E =-.491123E-01
       N       E                     dE             d eps       ncg     rms          rms(c)
DAV:   1    -0.191897451652E+03    0.26161E-01   -0.50850E-01  8160   0.156E+00    0.212E-01
DAV:   2    -0.191898497420E+03   -0.10458E-02   -0.18662E-02 11440   0.466E-01    0.289E-01
DAV:   3    -0.191898533688E+03   -0.36268E-04   -0.45641E-03 12480   0.485E-01    0.314E-01
DAV:   4    -0.191897664875E+03    0.86881E-03   -0.24016E-03  9960   0.322E-01    0.149E-01
DAV:   5    -0.191897621793E+03    0.43083E-04   -0.10523E-03 10040   0.249E-01    0.140E-01
DAV:   6    -0.191897431686E+03    0.19011E-03   -0.55877E-04  9200   0.162E-01    0.592E-02
DAV:   7    -0.191897439209E+03   -0.75228E-05   -0.19828E-04  6640   0.100E-01
  14 F= -.19189744E+03 E0= -.19180351E+03  d E =0.261763E-01
       N       E                     dE             d eps       ncg     rms          rms(c)
DAV:   1    -0.191899253654E+03   -0.18220E-02   -0.30944E-03 10240   0.142E-01    0.184E-02
DAV:   2    -0.191899312980E+03   -0.59327E-04   -0.14222E-04  6240   0.761E-02
  15 F= -.19189931E+03 E0= -.19180560E+03  d E =-.187377E-02
       N       E                     dE             d eps       ncg     rms          rms(c)
DAV:   1    -0.191871329617E+03    0.27924E-01   -0.72285E-01  8160   0.184E+00    0.215E-01
DAV:   2    -0.191873718002E+03   -0.23884E-02   -0.22764E-02 11320   0.569E-01    0.430E-01
DAV:   3    -0.191872390009E+03    0.13280E-02   -0.63367E-03 11800   0.549E-01    0.236E-01
DAV:   4    -0.191871808203E+03    0.58181E-03   -0.13887E-03 10040   0.226E-01    0.942E-02
DAV:   5    -0.191872040795E+03   -0.23259E-03   -0.10179E-03 10320   0.221E-01    0.187E-01
DAV:   6    -0.191871729598E+03    0.31120E-03   -0.91043E-04  8760   0.208E-01    0.790E-02
DAV:   7    -0.191871725844E+03    0.37545E-05   -0.29114E-04  7680   0.118E-01
  16 F= -.19187173E+03 E0= -.19177587E+03  d E =0.275871E-01
       N       E                     dE             d eps       ncg     rms          rms(c)
DAV:   1    -0.191862557845E+03    0.91718E-02   -0.14125E+00  8160   0.259E+00    0.375E-01
DAV:   2    -0.191869132572E+03   -0.65747E-02   -0.54664E-02 12320   0.963E-01    0.856E-01
DAV:   3    -0.191863787553E+03    0.53450E-02   -0.23149E-02 12240   0.990E-01    0.404E-01
DAV:   4    -0.191862485512E+03    0.13020E-02   -0.54078E-03 11480   0.415E-01    0.263E-01
DAV:   5    -0.191862610949E+03   -0.12544E-03   -0.45886E-03 11400   0.453E-01    0.324E-01
DAV:   6    -0.191861665725E+03    0.94522E-03   -0.25355E-03 11040   0.312E-01    0.879E-02
DAV:   7    -0.191861627055E+03    0.38670E-04   -0.48300E-04  9320   0.131E-01
  17 F= -.19186163E+03 E0= -.19176427E+03  d E =0.100988E-01
       N       E                     dE             d eps       ncg     rms          rms(c)
DAV:   1    -0.191930441841E+03   -0.68776E-01   -0.50555E+00  8160   0.483E+00    0.552E-01
DAV:   2    -0.191953566860E+03   -0.23125E-01   -0.16875E-01 11360   0.165E+00    0.136E+00
DAV:   3    -0.191938949774E+03    0.14617E-01   -0.52794E-02 12400   0.155E+00    0.568E-01
DAV:   4    -0.191936612333E+03    0.23374E-02   -0.85755E-03 11280   0.575E-01    0.389E-01
DAV:   5    -0.191936256614E+03    0.35572E-03   -0.70114E-03 12120   0.624E-01    0.386E-01
DAV:   6    -0.191935031512E+03    0.12251E-02   -0.38084E-03 11680   0.385E-01    0.129E-01
DAV:   7    -0.191934785049E+03    0.24646E-03   -0.10061E-03 10360   0.152E-01    0.802E-02
DAV:   8    -0.191934752108E+03    0.32942E-04   -0.28390E-04  9240   0.136E-01
  18 F= -.19193475E+03 E0= -.19184082E+03  d E =-.731251E-01
       N       E                     dE             d eps       ncg     rms          rms(c)
DAV:   1    -0.191953949310E+03   -0.19164E-01   -0.34350E-01  8160   0.127E+00    0.190E-01
DAV:   2    -0.191956282713E+03   -0.23334E-02   -0.15872E-02 11480   0.584E-01    0.489E-01
DAV:   3    -0.191954306080E+03    0.19766E-02   -0.55380E-03 11720   0.519E-01    0.170E-01
DAV:   4    -0.191954202282E+03    0.10380E-03   -0.11648E-03 10040   0.231E-01    0.155E-01
DAV:   5    -0.191954011553E+03    0.19073E-03   -0.76120E-04 10320   0.225E-01    0.990E-02
DAV:   6    -0.191953956625E+03    0.54927E-04   -0.39200E-04  7800   0.128E-01
  19 F= -.19195396E+03 E0= -.19186066E+03  d E =-.192045E-01
       N       E                     dE             d eps       ncg     rms          rms(c)
DAV:   1    -0.192040258575E+03   -0.86247E-01   -0.86672E+00  8160   0.635E+00    0.718E-01
DAV:   2    -0.192072279620E+03   -0.32021E-01   -0.28829E-01 12160   0.199E+00    0.149E+00
DAV:   3    -0.192058223974E+03    0.14056E-01   -0.68593E-02 12400   0.187E+00    0.781E-01
DAV:   4    -0.192051723208E+03    0.65008E-02   -0.11391E-02 12280   0.703E-01    0.368E-01
DAV:   5    -0.192052582171E+03   -0.85896E-03   -0.88293E-03 12000   0.740E-01    0.518E-01
DAV:   6    -0.192050705675E+03    0.18765E-02   -0.68163E-03 11640   0.595E-01    0.218E-01
DAV:   7    -0.192049769312E+03    0.93636E-03   -0.17046E-03 10560   0.186E-01    0.412E-02
DAV:   8    -0.192049773040E+03   -0.37279E-05   -0.18880E-04  7880   0.597E-02
  20 F= -.19204977E+03 E0= -.19195999E+03  d E =-.958164E-01
       N       E                     dE             d eps       ncg     rms          rms(c)
DAV:   1    -0.192132370766E+03   -0.82601E-01   -0.87046E+00  8160   0.638E+00    0.716E-01
DAV:   2    -0.192153024465E+03   -0.20654E-01   -0.27770E-01 12080   0.162E+00    0.927E-01
DAV:   3    -0.192155439617E+03   -0.24152E-02   -0.49654E-02 12360   0.174E+00    0.105E+00
DAV:   4    -0.192142975309E+03    0.12464E-01   -0.15305E-02 12320   0.967E-01    0.259E-01
DAV:   5    -0.192143652443E+03   -0.67713E-03   -0.65791E-03 12320   0.522E-01    0.389E-01
DAV:   6    -0.192143025173E+03    0.62727E-03   -0.58577E-03 12640   0.640E-01    0.316E-01
DAV:   7    -0.192141810720E+03    0.12145E-02   -0.20122E-03 11040   0.331E-01    0.924E-02
DAV:   8    -0.192141759797E+03    0.50923E-04   -0.35001E-04  9120   0.143E-01
  21 F= -.19214176E+03 E0= -.19205369E+03  d E =-.919868E-01
       N       E                     dE             d eps       ncg     rms          rms(c)
DAV:   1    -0.192179404637E+03   -0.37594E-01   -0.29329E+00  8160   0.369E+00    0.481E-01
DAV:   2    -0.192197630361E+03   -0.18226E-01   -0.10504E-01 11560   0.154E+00    0.115E+00
DAV:   3    -0.192183344512E+03    0.14286E-01   -0.25822E-02 11480   0.135E+00    0.370E-01
DAV:   4    -0.192182905569E+03    0.43894E-03   -0.49478E-03 11600   0.518E-01    0.336E-01
DAV:   5    -0.192181914901E+03    0.99067E-03   -0.33406E-03 11960   0.517E-01    0.208E-01
DAV:   6    -0.192181554393E+03    0.36051E-03   -0.15321E-03 11880   0.263E-01    0.948E-02
DAV:   7    -0.192181486458E+03    0.67935E-04   -0.57036E-04 10320   0.162E-01
  22 F= -.19218149E+03 E0= -.19209470E+03  d E =-.397267E-01
       N       E                     dE             d eps       ncg     rms          rms(c)
DAV:   1    -0.192161685366E+03    0.19869E-01   -0.44441E+00  8160   0.456E+00    0.636E-01
DAV:   2    -0.192214592841E+03   -0.52907E-01   -0.19568E-01 12080   0.241E+00    0.238E+00
DAV:   3    -0.192167383485E+03    0.47209E-01   -0.96010E-02 12320   0.226E+00    0.407E-01
DAV:   4    -0.192165009323E+03    0.23742E-02   -0.47648E-03 11480   0.315E-01    0.180E-01
DAV:   5    -0.192165022072E+03   -0.12750E-04   -0.26189E-03 12080   0.310E-01    0.232E-01
DAV:   6    -0.192164956890E+03    0.65182E-04   -0.26565E-03 11360   0.432E-01    0.224E-01
DAV:   7    -0.192164327360E+03    0.62953E-03   -0.92997E-04 10640   0.239E-01    0.655E-02
DAV:   8    -0.192164304461E+03    0.22899E-04   -0.17895E-04  7320   0.105E-01
  23 F= -.19216430E+03 E0= -.19207559E+03  d E =0.171820E-01
       N       E                     dE             d eps       ncg     rms          rms(c)
DAV:   1    -0.192171225411E+03   -0.68981E-02   -0.62063E+00  8160   0.538E+00    0.734E-01
DAV:   2    -0.192226817693E+03   -0.55592E-01   -0.28457E-01 11160   0.257E+00    0.236E+00
DAV:   3    -0.192182317732E+03    0.44500E-01   -0.10607E-01 12360   0.236E+00    0.542E-01
DAV:   4    -0.192178650439E+03    0.36673E-02   -0.92935E-03 11720   0.507E-01    0.326E-01
DAV:   5    -0.192178297522E+03    0.35292E-03   -0.68991E-03 12840   0.634E-01    0.350E-01
DAV:   6    -0.192177300697E+03    0.99682E-03   -0.40241E-03 11760   0.511E-01    0.195E-01
DAV:   7    -0.192176850398E+03    0.45030E-03   -0.16609E-03 12080   0.261E-01    0.123E-01
DAV:   8    -0.192176719271E+03    0.13113E-03   -0.45413E-04  9280   0.177E-01    0.712E-02
DAV:   9    -0.192176657746E+03    0.61525E-04   -0.11466E-04  6520   0.807E-02
  24 F= -.19217666E+03 E0= -.19208551E+03  d E =-.123533E-01
       N       E                     dE             d eps       ncg     rms          rms(c)
DAV:   1    -0.192216282456E+03   -0.39563E-01   -0.47023E+00  8160   0.461E+00    0.506E-01
DAV:   2    -0.192230213714E+03   -0.13931E-01   -0.16290E-01 11880   0.128E+00    0.633E-01
DAV:   3    -0.192228753238E+03    0.14605E-02   -0.22468E-02 12360   0.120E+00    0.576E-01
DAV:   4    -0.192224981268E+03    0.37720E-02   -0.75783E-03 11920   0.678E-01    0.254E-01
DAV:   5    -0.192225286507E+03   -0.30524E-03   -0.35804E-03 12600   0.485E-01    0.329E-01
DAV:   6    -0.192224500728E+03    0.78578E-03   -0.26262E-03 12120   0.397E-01    0.145E-01
DAV:   7    -0.192224277827E+03    0.22290E-03   -0.10381E-03 10440   0.202E-01    0.107E-01
DAV:   8    -0.192224161773E+03    0.11605E-03   -0.27379E-04  8600   0.136E-01    0.382E-02
DAV:   9    -0.192224149905E+03    0.11868E-04   -0.53041E-05  6040   0.455E-02
  25 F= -.19222415E+03 E0= -.19213307E+03  d E =-.474922E-01
       N       E                     dE             d eps       ncg     rms          rms(c)
DAV:   1    -0.192223522353E+03    0.63942E-03   -0.65825E-01  8160   0.172E+00    0.214E-01
DAV:   2    -0.192228507698E+03   -0.49853E-02   -0.28241E-02 10680   0.819E-01    0.595E-01
DAV:   3    -0.192224906888E+03    0.36008E-02   -0.75622E-03 12600   0.700E-01    0.166E-01
DAV:   4    -0.192224792964E+03    0.11392E-03   -0.93826E-04 10120   0.223E-01    0.140E-01
DAV:   5    -0.192224611370E+03    0.18159E-03   -0.52660E-04  9360   0.208E-01    0.869E-02
DAV:   6    -0.192224558319E+03    0.53051E-04   -0.29874E-04  8160   0.107E-01
  26 F= -.19222456E+03 E0= -.19213400E+03  d E =-.408414E-03
       N       E                     dE             d eps       ncg     rms          rms(c)
DAV:   1    -0.192266946569E+03   -0.42335E-01   -0.25773E+00  8160   0.348E+00    0.418E-01
DAV:   2    -0.192272922088E+03   -0.59755E-02   -0.76441E-02 11360   0.931E-01    0.576E-01
DAV:   3    -0.192272041463E+03    0.88063E-03   -0.14228E-02 11400   0.982E-01    0.552E-01
DAV:   4    -0.192268917636E+03    0.31238E-02   -0.53008E-03 12360   0.556E-01    0.193E-01
DAV:   5    -0.192269205942E+03   -0.28831E-03   -0.26708E-03 10800   0.427E-01    0.261E-01
DAV:   6    -0.192268494132E+03    0.71181E-03   -0.16348E-03 11040   0.332E-01    0.888E-02
DAV:   7    -0.192268421034E+03    0.73098E-04   -0.43082E-04  9120   0.149E-01
  27 F= -.19226842E+03 E0= -.19217768E+03  d E =-.438627E-01
       N       E                     dE             d eps       ncg     rms          rms(c)
DAV:   1    -0.192271357091E+03   -0.28630E-02   -0.14721E-02  8160   0.284E-01    0.477E-02
DAV:   2    -0.192271519559E+03   -0.16247E-03   -0.70277E-04 11040   0.156E-01    0.126E-01
DAV:   3    -0.192271352518E+03    0.16704E-03   -0.27488E-04  8320   0.145E-01    0.331E-02
DAV:   4    -0.192271352515E+03    0.25948E-08   -0.32143E-05  5960   0.397E-02
  28 F= -.19227135E+03 E0= -.19218075E+03  d E =-.293148E-02
       N       E                     dE             d eps       ncg     rms          rms(c)
DAV:   1    -0.192273424158E+03   -0.20716E-02   -0.65964E-03  8160   0.181E-01    0.358E-02
DAV:   2    -0.192273582099E+03   -0.15794E-03   -0.39517E-04  9840   0.144E-01    0.124E-01
DAV:   3    -0.192273410115E+03    0.17198E-03   -0.22835E-04  7280   0.133E-01    0.185E-02
DAV:   4    -0.192273419674E+03   -0.95590E-05   -0.22386E-05  5600   0.284E-02
  29 F= -.19227342E+03 E0= -.19218283E+03  d E =-.206716E-02
       N       E                     dE             d eps       ncg     rms          rms(c)
DAV:   1    -0.192311621825E+03   -0.38212E-01   -0.20331E+00  8160   0.307E+00    0.385E-01
DAV:   2    -0.192319863371E+03   -0.82415E-02   -0.63415E-02 11400   0.110E+00    0.746E-01
DAV:   3    -0.192314331905E+03    0.55315E-02   -0.14014E-02 11160   0.995E-01    0.336E-01
DAV:   4    -0.192313698930E+03    0.63297E-03   -0.34416E-03 11480   0.449E-01    0.270E-01
DAV:   5    -0.192313110377E+03    0.58855E-03   -0.23155E-03 11120   0.428E-01    0.169E-01
DAV:   6    -0.192312840035E+03    0.27034E-03   -0.94999E-04 10440   0.202E-01    0.598E-02
DAV:   7    -0.192312787583E+03    0.52452E-04   -0.23346E-04  7360   0.103E-01
  30 F= -.19231279E+03 E0= -.19222216E+03  d E =-.393679E-01
       N       E                     dE             d eps       ncg     rms          rms(c)
DAV:   1    -0.192344913573E+03   -0.32074E-01   -0.14588E+00  8160   0.262E+00    0.341E-01
DAV:   2    -0.192349968106E+03   -0.50545E-02   -0.47766E-02 11400   0.894E-01    0.597E-01
DAV:   3    -0.192347031992E+03    0.29361E-02   -0.11043E-02 12280   0.872E-01    0.344E-01
DAV:   4    -0.192345691565E+03    0.13404E-02   -0.23943E-03 11520   0.348E-01    0.133E-01
DAV:   5    -0.192345921637E+03   -0.23007E-03   -0.15231E-03 10840   0.314E-01    0.202E-01
DAV:   6    -0.192345467737E+03    0.45390E-03   -0.95144E-04 10120   0.264E-01    0.639E-02
DAV:   7    -0.192345412480E+03    0.55257E-04   -0.17154E-04  7320   0.936E-02
  31 F= -.19234541E+03 E0= -.19225445E+03  d E =-.326249E-01
       N       E                     dE             d eps       ncg     rms          rms(c)
DAV:   1    -0.192389929043E+03   -0.44461E-01   -0.35682E+00  8160   0.406E+00    0.511E-01
DAV:   2    -0.192404885369E+03   -0.14956E-01   -0.11610E-01 11000   0.151E+00    0.976E-01
DAV:   3    -0.192394745427E+03    0.10140E-01   -0.24866E-02 11280   0.133E+00    0.407E-01
DAV:   4    -0.192393510516E+03    0.12349E-02   -0.51464E-03 11640   0.550E-01    0.312E-01
DAV:   5    -0.192392970053E+03    0.54046E-03   -0.36700E-03 11440   0.543E-01    0.244E-01
DAV:   6    -0.192392328034E+03    0.64202E-03   -0.18027E-03 11800   0.291E-01    0.734E-02
DAV:   7    -0.192392236486E+03    0.91548E-04   -0.37942E-04  8560   0.113E-01
  32 F= -.19239224E+03 E0= -.19230129E+03  d E =-.468240E-01
       N       E                     dE             d eps       ncg     rms          rms(c)
DAV:   1    -0.192420212043E+03   -0.27884E-01   -0.18043E+00  8160   0.293E+00    0.401E-01
DAV:   2    -0.192425480337E+03   -0.52683E-02   -0.68916E-02 11320   0.972E-01    0.571E-01
DAV:   3    -0.192423906455E+03    0.15739E-02   -0.14406E-02 12360   0.100E+00    0.469E-01
DAV:   4    -0.192421187014E+03    0.27194E-02   -0.40156E-03 12200   0.495E-01    0.127E-01
DAV:   5    -0.192421222820E+03   -0.35806E-04   -0.17139E-03 11160   0.225E-01    0.164E-01
DAV:   6    -0.192421029183E+03    0.19364E-03   -0.11371E-03 10800   0.279E-01    0.124E-01
DAV:   7    -0.192420845579E+03    0.18360E-03   -0.37345E-04  9240   0.155E-01    0.392E-02
DAV:   8    -0.192420833707E+03    0.11872E-04   -0.71724E-05  6960   0.651E-02
  33 F= -.19242083E+03 E0= -.19232955E+03  d E =-.285972E-01
       N       E                     dE             d eps       ncg     rms          rms(c)
DAV:   1    -0.192436261524E+03   -0.15416E-01   -0.70672E-01  8160   0.180E+00    0.272E-01
DAV:   2    -0.192441004973E+03   -0.47434E-02   -0.32266E-02 10120   0.954E-01    0.590E-01
DAV:   3    -0.192436980419E+03    0.40246E-02   -0.80667E-03 12200   0.761E-01    0.167E-01
DAV:   4    -0.192436733455E+03    0.24696E-03   -0.12554E-03 10200   0.250E-01    0.147E-01
DAV:   5    -0.192436742967E+03   -0.95125E-05   -0.10275E-03 10440   0.291E-01    0.160E-01
DAV:   6    -0.192436454979E+03    0.28799E-03   -0.69262E-04  9400   0.190E-01    0.421E-02
DAV:   7    -0.192436437574E+03    0.17405E-04   -0.11168E-04  6520   0.483E-02
  34 F= -.19243644E+03 E0= -.19234559E+03  d E =-.156039E-01
       N       E                     dE             d eps       ncg     rms          rms(c)
DAV:   1    -0.192449735863E+03   -0.13281E-01   -0.67476E-01  8160   0.177E+00    0.237E-01
DAV:   2    -0.192451685916E+03   -0.19501E-02   -0.26987E-02 11080   0.569E-01    0.308E-01
DAV:   3    -0.192451451247E+03    0.23467E-03   -0.48900E-03 12360   0.590E-01    0.291E-01
DAV:   4    -0.192450386647E+03    0.10646E-02   -0.14346E-03 11680   0.311E-01    0.727E-02
DAV:   5    -0.192450456987E+03   -0.70339E-04   -0.63447E-04  9960   0.151E-01
  35 F= -.19245046E+03 E0= -.19235977E+03  d E =-.140194E-01
       N       E                     dE             d eps       ncg     rms          rms(c)
DAV:   1    -0.192462589121E+03   -0.12202E-01   -0.90654E-01  8160   0.202E+00    0.269E-01
DAV:   2    -0.192467440109E+03   -0.48510E-02   -0.36417E-02 10720   0.872E-01    0.533E-01
DAV:   3    -0.192464253960E+03    0.31861E-02   -0.77894E-03 12200   0.747E-01    0.189E-01
DAV:   4    -0.192463876793E+03    0.37717E-03   -0.11299E-03 10080   0.241E-01    0.121E-01
DAV:   5    -0.192463948465E+03   -0.71672E-04   -0.80795E-04 10560   0.258E-01
  36 F= -.19246395E+03 E0= -.19237379E+03  d E =-.134915E-01
       N       E                     dE             d eps       ncg     rms          rms(c)
DAV:   1    -0.192474890020E+03   -0.11013E-01   -0.13887E+00  8160   0.253E+00    0.318E-01
DAV:   2    -0.192479902016E+03   -0.50120E-02   -0.55928E-02 12000   0.816E-01    0.450E-01
DAV:   3    -0.192478684581E+03    0.12174E-02   -0.93652E-03 12160   0.803E-01    0.352E-01
DAV:   4    -0.192477269851E+03    0.14147E-02   -0.24432E-03 12080   0.405E-01    0.132E-01
DAV:   5    -0.192477293199E+03   -0.23347E-04   -0.12701E-03 10600   0.249E-01    0.158E-01
DAV:   6    -0.192477115662E+03    0.17754E-03   -0.89904E-04  9920   0.256E-01    0.101E-01
DAV:   7    -0.192476964526E+03    0.15114E-03   -0.29082E-04  8560   0.121E-01    0.212E-02
DAV:   8    -0.192476958251E+03    0.62745E-05   -0.44963E-05  7880   0.275E-02
  37 F= -.19247696E+03 E0= -.19238720E+03  d E =-.130098E-01
       N       E                     dE             d eps       ncg     rms          rms(c)
DAV:   1    -0.192482386255E+03   -0.54217E-02   -0.42203E+00  8160   0.435E+00    0.485E-01
DAV:   2    -0.192495731226E+03   -0.13345E-01   -0.16213E-01 11960   0.121E+00    0.547E-01
DAV:   3    -0.192495795887E+03   -0.64662E-04   -0.19822E-02 11480   0.116E+00    0.581E-01
DAV:   4    -0.192491465896E+03    0.43300E-02   -0.59129E-03 11920   0.660E-01    0.162E-01
DAV:   5    -0.192492491114E+03   -0.10252E-02   -0.29865E-03 12720   0.464E-01    0.335E-01
DAV:   6    -0.192491190620E+03    0.13005E-02   -0.23182E-03 11480   0.399E-01    0.744E-02
DAV:   7    -0.192491093004E+03    0.97616E-04   -0.33384E-04  8000   0.834E-02
  38 F= -.19249109E+03 E0= -.19240293E+03  d E =-.141348E-01
       N       E                     dE             d eps       ncg     rms          rms(c)
DAV:   1    -0.192492849437E+03   -0.16588E-02   -0.40102E-01  8160   0.132E+00    0.139E-01
DAV:   2    -0.192494105601E+03   -0.12562E-02   -0.16874E-02 12120   0.360E-01    0.816E-02
DAV:   3    -0.192494246053E+03   -0.14045E-03   -0.78436E-04 11640   0.208E-01    0.142E-01
DAV:   4    -0.192494017022E+03    0.22903E-03   -0.38928E-04  9720   0.189E-01    0.530E-02
DAV:   5    -0.192494026114E+03   -0.90915E-05   -0.15640E-04  6240   0.711E-02
  39 F= -.19249403E+03 E0= -.19240671E+03  d E =-.293311E-02
       N       E                     dE             d eps       ncg     rms          rms(c)
DAV:   1    -0.192495413186E+03   -0.13962E-02   -0.24981E-01  8160   0.106E+00    0.116E-01
DAV:   2    -0.192496085461E+03   -0.67228E-03   -0.95518E-03 11920   0.254E-01    0.946E-02
DAV:   3    -0.192496261403E+03   -0.17594E-03   -0.10125E-03 11480   0.249E-01    0.158E-01
DAV:   4    -0.192495940781E+03    0.32062E-03   -0.39447E-04  8800   0.179E-01    0.358E-02
DAV:   5    -0.192496001234E+03   -0.60453E-04   -0.14729E-04  6280   0.994E-02
  40 F= -.19249600E+03 E0= -.19240947E+03  d E =-.197512E-02
       N       E                     dE             d eps       ncg     rms          rms(c)
DAV:   1    -0.192497179593E+03   -0.12388E-02   -0.43625E-01  8160   0.139E+00    0.139E-01
DAV:   2    -0.192498312473E+03   -0.11329E-02   -0.14711E-02 12280   0.377E-01    0.131E-01
DAV:   3    -0.192498486413E+03   -0.17394E-03   -0.14671E-03 12200   0.314E-01    0.180E-01
DAV:   4    -0.192498089960E+03    0.39645E-03   -0.54258E-04  9360   0.218E-01    0.524E-02
DAV:   5    -0.192498137329E+03   -0.47369E-04   -0.21109E-04  7000   0.954E-02
  41 F= -.19249814E+03 E0= -.19241260E+03  d E =-.213609E-02
       N       E                     dE             d eps       ncg     rms          rms(c)
DAV:   1    -0.192498286089E+03   -0.19613E-03   -0.98660E-03  8160   0.225E-01    0.582E-02
DAV:   2    -0.192498655274E+03   -0.36919E-03   -0.11862E-03 11360   0.242E-01    0.172E-01
DAV:   3    -0.192498265089E+03    0.39018E-03   -0.53247E-04  9000   0.209E-01    0.335E-02
DAV:   4    -0.192498258143E+03    0.69464E-05   -0.56130E-05  6120   0.480E-02
  42 F= -.19249826E+03 E0= -.19241285E+03  d E =-.120814E-03
