<?xml version="1.0" encoding="ISO-8859-1"?>
<modeling>
 <generator>
  <i name="program" type="string">vasp </i>
  <i name="version" type="string">5.4.1  </i>
  <i name="subversion" type="string">05Feb16 (build Jul 05 2020 17:13:04) complex                          parallel </i>
  <i name="platform" type="string">IFC91_ompi </i>
  <i name="date" type="string">2024 04 26 </i>
  <i name="time" type="string">17:43:28 </i>
 </generator>
 <incar>
  <i type="int" name="ISTART">     0</i>
  <i type="string" name="PREC">normal</i>
  <i type="string" name="ALGO"> Normal</i>
  <i type="int" name="ISPIN">     1</i>
  <i type="int" name="ICHARG">     2</i>
  <i type="int" name="IBRION">     1</i>
  <i type="int" name="NSW">   100</i>
  <i type="int" name="ISIF">     3</i>
  <i type="int" name="ISYM">     0</i>
  <i name="SYMPREC">      0.00000001</i>
  <i name="POTIM">      0.50000000</i>
  <i type="logical" name="LREAL"> F  </i>
  <i type="logical" name="LPLANE"> F  </i>
  <i type="int" name="ISMEAR">     0</i>
  <i type="logical" name="LWAVE"> F  </i>
  <i type="logical" name="LCHARG"> F  </i>
  <v type="int" name="KPOINT_BSE">    -1     0     0     0</v>
 </incar>
 <kpoints>
  <generation param="Gamma">
   <v type="int" name="divisions">       8        8        1 </v>
   <v name="usershift">      0.00000000       0.00000000       0.00000000 </v>
   <v name="genvec1">      0.12500000       0.00000000       0.00000000 </v>
   <v name="genvec2">     -0.00000000       0.12500000       0.00000000 </v>
   <v name="genvec3">      0.00000000       0.00000000       1.00000000 </v>
   <v name="shift">      0.00000000       0.00000000       0.00000000 </v>
  </generation>
  <varray name="kpointlist" >
   <v>       0.00000000       0.00000000       0.00000000 </v>
   <v>       0.12500000       0.00000000       0.00000000 </v>
   <v>       0.25000000       0.00000000       0.00000000 </v>
   <v>       0.37500000       0.00000000       0.00000000 </v>
   <v>       0.50000000       0.00000000       0.00000000 </v>
   <v>       0.00000000       0.12500000       0.00000000 </v>
   <v>       0.12500000       0.12500000       0.00000000 </v>
   <v>       0.25000000       0.12500000       0.00000000 </v>
   <v>       0.37500000       0.12500000       0.00000000 </v>
   <v>       0.50000000       0.12500000       0.00000000 </v>
   <v>      -0.37500000       0.12500000       0.00000000 </v>
   <v>      -0.25000000       0.12500000       0.00000000 </v>
   <v>      -0.12500000       0.12500000       0.00000000 </v>
   <v>       0.00000000       0.25000000       0.00000000 </v>
   <v>       0.12500000       0.25000000       0.00000000 </v>
   <v>       0.25000000       0.25000000       0.00000000 </v>
   <v>       0.37500000       0.25000000       0.00000000 </v>
   <v>       0.50000000       0.25000000       0.00000000 </v>
   <v>      -0.37500000       0.25000000       0.00000000 </v>
   <v>      -0.25000000       0.25000000       0.00000000 </v>
   <v>      -0.12500000       0.25000000       0.00000000 </v>
   <v>      -0.00000000       0.37500000       0.00000000 </v>
   <v>       0.12500000       0.37500000       0.00000000 </v>
   <v>       0.25000000       0.37500000       0.00000000 </v>
   <v>       0.37500000       0.37500000       0.00000000 </v>
   <v>       0.50000000       0.37500000       0.00000000 </v>
   <v>      -0.37500000       0.37500000       0.00000000 </v>
   <v>      -0.25000000       0.37500000       0.00000000 </v>
   <v>      -0.12500000       0.37500000       0.00000000 </v>
   <v>       0.00000000       0.50000000       0.00000000 </v>
   <v>       0.12500000       0.50000000       0.00000000 </v>
   <v>       0.25000000       0.50000000       0.00000000 </v>
   <v>       0.37500000       0.50000000       0.00000000 </v>
   <v>       0.50000000       0.50000000       0.00000000 </v>
  </varray>
  <varray name="weights" >
   <v>       0.01562500 </v>
   <v>       0.03125000 </v>
   <v>       0.03125000 </v>
   <v>       0.03125000 </v>
   <v>       0.01562500 </v>
   <v>       0.03125000 </v>
   <v>       0.03125000 </v>
   <v>       0.03125000 </v>
   <v>       0.03125000 </v>
   <v>       0.03125000 </v>
   <v>       0.03125000 </v>
   <v>       0.03125000 </v>
   <v>       0.03125000 </v>
   <v>       0.03125000 </v>
   <v>       0.03125000 </v>
   <v>       0.03125000 </v>
   <v>       0.03125000 </v>
   <v>       0.03125000 </v>
   <v>       0.03125000 </v>
   <v>       0.03125000 </v>
   <v>       0.03125000 </v>
   <v>       0.03125000 </v>
   <v>       0.03125000 </v>
   <v>       0.03125000 </v>
   <v>       0.03125000 </v>
   <v>       0.03125000 </v>
   <v>       0.03125000 </v>
   <v>       0.03125000 </v>
   <v>       0.03125000 </v>
   <v>       0.01562500 </v>
   <v>       0.03125000 </v>
   <v>       0.03125000 </v>
   <v>       0.03125000 </v>
   <v>       0.01562500 </v>
  </varray>
 </kpoints>
 <parameters>
  <separator name="general" >
   <i type="string" name="SYSTEM">unknown system</i>
   <i type="logical" name="LCOMPAT"> F  </i>
  </separator>
  <separator name="electronic" >
   <i type="string" name="PREC">normal</i>
   <i name="ENMAX">    280.00000000</i>
   <i name="ENAUG">    373.43800000</i>
   <i name="EDIFF">      0.00010000</i>
   <i type="int" name="IALGO">    38</i>
   <i type="int" name="IWAVPR">    11</i>
   <i type="int" name="NBANDS">   120</i>
   <i name="NELECT">    159.00000000</i>
   <i type="int" name="TURBO">     0</i>
   <i type="int" name="IRESTART">     0</i>
   <i type="int" name="NREBOOT">     0</i>
   <i type="int" name="NMIN">     0</i>
   <i name="EREF">      0.00000000</i>
   <separator name="electronic smearing" >
    <i type="int" name="ISMEAR">     0</i>
    <i name="SIGMA">      0.20000000</i>
    <i name="KSPACING">      0.50000000</i>
    <i type="logical" name="KGAMMA"> T  </i>
   </separator>
   <separator name="electronic projectors" >
    <i type="logical" name="LREAL"> F  </i>
    <v name="ROPT">      0.00000000      0.00000000      0.00000000      0.00000000</v>
    <i type="int" name="LMAXPAW">  -100</i>
    <i type="int" name="LMAXMIX">     2</i>
    <i type="logical" name="NLSPLINE"> F  </i>
   </separator>
   <separator name="electronic startup" >
    <i type="int" name="ISTART">     0</i>
    <i type="int" name="ICHARG">     2</i>
    <i type="int" name="INIWAV">     1</i>
   </separator>
   <separator name="electronic spin" >
    <i type="int" name="ISPIN">     1</i>
    <i type="logical" name="LNONCOLLINEAR"> F  </i>
    <v name="MAGMOM">      1.00000000      1.00000000      1.00000000      1.00000000      1.00000000      1.00000000      1.00000000      1.00000000      1.00000000      1.00000000      1.00000000      1.00000000      1.00000000      1.00000000      1.00000000      1.00000000      1.00000000      1.00000000      1.00000000      1.00000000
      1.00000000      1.00000000      1.00000000      1.00000000      1.00000000      1.00000000      1.00000000</v>
    <i name="NUPDOWN">     -1.00000000</i>
    <i type="logical" name="LSORBIT"> F  </i>
    <v name="SAXIS">      0.00000000      0.00000000      1.00000000</v>
    <i type="logical" name="LSPIRAL"> F  </i>
    <v name="QSPIRAL">      0.00000000      0.00000000      0.00000000</v>
    <i type="logical" name="LZEROZ"> F  </i>
   </separator>
   <separator name="electronic exchange-correlation" >
    <i type="logical" name="LASPH"> F  </i>
    <i type="logical" name="LMETAGGA"> F  </i>
   </separator>
   <separator name="electronic convergence" >
    <i type="int" name="NELM">    60</i>
    <i type="int" name="NELMDL">    -5</i>
    <i type="int" name="NELMIN">     2</i>
    <i name="ENINI">    280.00000000</i>
    <separator name="electronic convergence detail" >
     <i type="logical" name="LDIAG"> T  </i>
     <i type="logical" name="LSUBROT"> F  </i>
     <i name="WEIMIN">      0.00100000</i>
     <i name="EBREAK">      0.00000021</i>
     <i name="DEPER">      0.30000000</i>
     <i type="int" name="NRMM">     4</i>
     <i name="TIME">      0.40000000</i>
    </separator>
   </separator>
   <separator name="electronic mixer" >
    <i name="AMIX">      0.40000000</i>
    <i name="BMIX">      1.00000000</i>
    <i name="AMIN">      0.10000000</i>
    <i name="AMIX_MAG">      1.60000000</i>
    <i name="BMIX_MAG">      1.00000000</i>
    <separator name="electronic mixer details" >
     <i type="int" name="IMIX">     4</i>
     <i type="logical" name="MIXFIRST"> F  </i>
     <i type="int" name="MAXMIX">   -45</i>
     <i name="WC">    100.00000000</i>
     <i type="int" name="INIMIX">     1</i>
     <i type="int" name="MIXPRE">     1</i>
     <i type="int" name="MREMOVE">     5</i>
    </separator>
   </separator>
   <separator name="electronic dipolcorrection" >
    <i type="logical" name="LDIPOL"> F  </i>
    <i type="logical" name="LMONO"> F  </i>
    <i type="int" name="IDIPOL">     0</i>
    <i name="EPSILON">      1.00000000</i>
    <v name="DIPOL">   -100.00000000   -100.00000000   -100.00000000</v>
    <i name="EFIELD">      0.00000000</i>
   </separator>
  </separator>
  <separator name="grids" >
   <i type="int" name="NGX">    42</i>
   <i type="int" name="NGY">    42</i>
   <i type="int" name="NGZ">   126</i>
   <i type="int" name="NGXF">    84</i>
   <i type="int" name="NGYF">    84</i>
   <i type="int" name="NGZF">   252</i>
   <i type="logical" name="ADDGRID"> F  </i>
  </separator>
  <separator name="ionic" >
   <i type="int" name="NSW">   100</i>
   <i type="int" name="IBRION">     1</i>
   <i type="int" name="ISIF">     3</i>
   <i name="PSTRESS">      0.00000000</i>
   <i name="EDIFFG">      0.00100000</i>
   <i type="int" name="NFREE">     0</i>
   <i name="POTIM">      0.50000000</i>
   <i name="SMASS">     -3.00000000</i>
   <i name="SCALEE">      1.00000000</i>
  </separator>
  <separator name="ionic md" >
   <i name="TEBEG">      0.00010000</i>
   <i name="TEEND">      0.00010000</i>
   <i type="int" name="NBLOCK">     1</i>
   <i type="int" name="KBLOCK">   100</i>
   <i type="int" name="NPACO">   256</i>
   <i name="APACO">     16.00000000</i>
  </separator>
  <separator name="symmetry" >
   <i type="int" name="ISYM">     0</i>
   <i name="SYMPREC">      0.00000001</i>
  </separator>
  <separator name="dos" >
   <i type="logical" name="LORBIT"> F  </i>
   <v name="RWIGS">     -1.00000000     -1.00000000     -1.00000000     -1.00000000</v>
   <i type="int" name="NEDOS">   301</i>
   <i name="EMIN">     10.00000000</i>
   <i name="EMAX">    -10.00000000</i>
   <i name="EFERMI">      0.00000000</i>
  </separator>
  <separator name="writing" >
   <i type="int" name="NWRITE">     2</i>
   <i type="logical" name="LWAVE"> F  </i>
   <i type="logical" name="LCHARG"> F  </i>
   <i type="logical" name="LPARD"> F  </i>
   <i type="logical" name="LVTOT"> F  </i>
   <i type="logical" name="LVHAR"> F  </i>
   <i type="logical" name="LELF"> F  </i>
   <i type="logical" name="LOPTICS"> F  </i>
   <v name="STM">      0.00000000      0.00000000      0.00000000      0.00000000      0.00000000      0.00000000      0.00000000</v>
  </separator>
  <separator name="performance" >
   <i type="int" name="NPAR">    40</i>
   <i type="int" name="NSIM">     4</i>
   <i type="int" name="NBLK">    -1</i>
   <i type="logical" name="LPLANE"> F  </i>
   <i type="logical" name="LSCALAPACK"> T  </i>
   <i type="logical" name="LSCAAWARE"> F  </i>
   <i type="logical" name="LSCALU"> F  </i>
   <i type="logical" name="LASYNC"> F  </i>
   <i type="logical" name="LORBITALREAL"> F  </i>
  </separator>
  <separator name="miscellaneous" >
   <i type="int" name="IDIOT">     3</i>
   <i type="logical" name="LMUSIC"> F  </i>
   <v name="POMASS">     50.94100000     95.94000000    183.85000000     32.06600000</v>
   <v name="DARWINR">      0.00000000      0.00000000      0.00000000      0.00000000</v>
   <v name="DARWINV">      1.00000000      1.00000000      1.00000000      1.00000000</v>
   <i type="logical" name="LCORR"> T  </i>
  </separator>
  <i type="logical" name="GGA_COMPAT"> T  </i>
  <i type="logical" name="LBERRY"> F  </i>
  <i type="int" name="ICORELEVEL">     0</i>
  <i type="logical" name="LDAU"> F  </i>
  <i type="int" name="I_CONSTRAINED_M">     0</i>
  <separator name="electronic exchange-correlation" >
   <i type="string" name="GGA">--</i>
   <i type="int" name="VOSKOWN">     0</i>
   <i type="logical" name="LHFCALC"> F  </i>
   <i type="string" name="PRECFOCK"></i>
   <i type="logical" name="LSYMGRAD"> F  </i>
   <i type="logical" name="LHFONE"> F  </i>
   <i type="logical" name="LRHFCALC"> F  </i>
   <i type="logical" name="LTHOMAS"> F  </i>
   <i type="logical" name="LMODELHF"> F  </i>
   <i name="ENCUT4O">     -1.00000000</i>
   <i type="int" name="EXXOEP">     0</i>
   <i type="int" name="FOURORBIT">     0</i>
   <i name="AEXX">      0.00000000</i>
   <i name="HFALPHA">      0.00000000</i>
   <i name="MCALPHA">      0.00000000</i>
   <i name="ALDAX">      1.00000000</i>
   <i name="AGGAX">      1.00000000</i>
   <i name="ALDAC">      1.00000000</i>
   <i name="AGGAC">      1.00000000</i>
   <i type="int" name="NKREDX">     1</i>
   <i type="int" name="NKREDY">     1</i>
   <i type="int" name="NKREDZ">     1</i>
   <i type="logical" name="SHIFTRED"> F  </i>
   <i type="logical" name="ODDONLY"> F  </i>
   <i type="logical" name="EVENONLY"> F  </i>
   <i type="int" name="LMAXFOCK">     0</i>
   <i type="int" name="NMAXFOCKAE">     0</i>
   <i type="logical" name="LFOCKAEDFT"> F  </i>
   <i name="HFSCREEN">      0.00000000</i>
   <i name="HFSCREENC">      0.00000000</i>
   <i type="int" name="NBANDSGWLOW">     0</i>
  </separator>
  <separator name="vdW DFT" >
   <i type="logical" name="LUSE_VDW"> F  </i>
   <i name="Zab_VDW">     -0.84910000</i>
   <i name="PARAM1">      0.12340000</i>
   <i name="PARAM2">      1.00000000</i>
   <i name="PARAM3">      0.00000000</i>
  </separator>
  <separator name="model GW" >
   <i type="int" name="MODEL_GW">     0</i>
   <i name="MODEL_EPS0">     58.26239943</i>
   <i name="MODEL_ALPHA">      1.00000000</i>
  </separator>
  <separator name="linear response parameters" >
   <i type="logical" name="LEPSILON"> F  </i>
   <i type="logical" name="LRPA"> F  </i>
   <i type="logical" name="LNABLA"> F  </i>
   <i type="logical" name="LVEL"> F  </i>
   <i type="int" name="KINTER">     0</i>
   <i name="CSHIFT">      0.10000000</i>
   <i name="OMEGAMAX">     -1.00000000</i>
   <i name="DEG_THRESHOLD">      0.00200000</i>
  </separator>
  <separator name="orbital magnetization" >
   <i type="logical" name="NUCIND"> F  </i>
   <v name="MAGPOS">      0.00000000      0.00000000      0.00000000</v>
   <i type="logical" name="LNICSALL"> T  </i>
   <i type="logical" name="ORBITALMAG"> F  </i>
   <i type="logical" name="LMAGBLOCH"> F  </i>
   <i type="logical" name="LCHIMAG"> F  </i>
   <i type="logical" name="LGAUGE"> T  </i>
   <i type="int" name="MAGATOM">     0</i>
   <v name="MAGDIPOL">      0.00000000      0.00000000      0.00000000</v>
   <v name="AVECCONST">      0.00000000      0.00000000      0.00000000</v>
  </separator>
  <separator name="response functions" >
   <i type="logical" name="LADDER"> F  </i>
   <i type="logical" name="LFXC"> F  </i>
   <i type="logical" name="LHARTREE"> T  </i>
   <i type="int" name="IBSE">     0</i>
   <v type="int" name="KPOINT">    -1     0     0     0</v>
   <i type="logical" name="LTCTE"> F  </i>
   <i type="logical" name="LTETE"> F  </i>
   <i type="logical" name="LTRIPLET"> F  </i>
   <i type="logical" name="LFXCEPS"> F  </i>
   <i type="logical" name="LFXHEG"> F  </i>
   <i type="int" name="NATURALO">     0</i>
   <i type="logical" name="L2ORDER"> F  </i>
   <i type="logical" name="LUSEW"> F  </i>
   <i name="ENCUTGW">     -2.00000000</i>
   <i name="ENCUTGWSOFT">     -2.00000000</i>
   <i name="ENCUTLF">     -1.00000000</i>
   <i type="int" name="LMAXMP2">    -1</i>
   <i name="SCISSOR">      0.00000000</i>
   <i type="int" name="NOMEGA">     0</i>
   <i type="int" name="NOMEGAR">     0</i>
   <i type="int" name="NBANDSGW">    -1</i>
   <i type="int" name="NBANDSO">    -1</i>
   <i type="int" name="NBANDSV">    -1</i>
   <i type="int" name="NELM">     1</i>
   <i type="int" name="NELMHF">     1</i>
   <i type="int" name="DIM">     3</i>
   <i type="int" name="ANTIRES">     0</i>
   <i name="OMEGAMAX">    -30.00000000</i>
   <i name="OMEGAMIN">    -30.00000000</i>
   <i name="OMEGATL">   -200.00000000</i>
   <i type="int" name="OMEGAGRID">     0</i>
   <i name="CSHIFT">     -0.10000000</i>
   <i type="logical" name="SELFENERGY"> F  </i>
   <i type="logical" name="LSPECTRAL"> F  </i>
   <i type="logical" name="LSPECTRALGW"> F  </i>
   <i type="logical" name="LSINGLES"> F  </i>
   <i type="logical" name="LFERMIGW"> F  </i>
   <i type="logical" name="ODDONLYGW"> F  </i>
   <i type="logical" name="EVENONLYGW"> F  </i>
   <i type="int" name="NKREDLFX">     1</i>
   <i type="int" name="NKREDLFY">     1</i>
   <i type="int" name="NKREDLFZ">     1</i>
   <i type="int" name="MAXMEM">  1800</i>
   <i type="int" name="TELESCOPE">     0</i>
   <i type="int" name="TAUPAR">     1</i>
   <i type="int" name="OMEGAPAR">    -1</i>
   <i name="LAMBDA">      1.00000000</i>
  </separator>
  <separator name="External order field" >
   <i name="OFIELD_KAPPA">      0.00000000</i>
   <v name="OFIELD_K">      0.00000000      0.00000000      0.00000000</v>
   <i name="OFIELD_Q6_NEAR">      0.00000000</i>
   <i name="OFIELD_Q6_FAR">      0.00000000</i>
   <i name="OFIELD_A">      0.00000000</i>
  </separator>
 </parameters>
 <atominfo>
  <atoms>      27 </atoms>
  <types>       4 </types>
  <array name="atoms" >
   <dimension dim="1">ion</dimension>
   <field type="string">element</field>
   <field type="int">atomtype</field>
   <set>
    <rc><c>V </c><c>   1</c></rc>
    <rc><c>V </c><c>   1</c></rc>
    <rc><c>V </c><c>   1</c></rc>
    <rc><c>Mo</c><c>   2</c></rc>
    <rc><c>Mo</c><c>   2</c></rc>
    <rc><c>Mo</c><c>   2</c></rc>
    <rc><c>W </c><c>   3</c></rc>
    <rc><c>W </c><c>   3</c></rc>
    <rc><c>W </c><c>   3</c></rc>
    <rc><c>S </c><c>   4</c></rc>
    <rc><c>S </c><c>   4</c></rc>
    <rc><c>S </c><c>   4</c></rc>
    <rc><c>S </c><c>   4</c></rc>
    <rc><c>S </c><c>   4</c></rc>
    <rc><c>S </c><c>   4</c></rc>
    <rc><c>S </c><c>   4</c></rc>
    <rc><c>S </c><c>   4</c></rc>
    <rc><c>S </c><c>   4</c></rc>
    <rc><c>S </c><c>   4</c></rc>
    <rc><c>S </c><c>   4</c></rc>
    <rc><c>S </c><c>   4</c></rc>
    <rc><c>S </c><c>   4</c></rc>
    <rc><c>S </c><c>   4</c></rc>
    <rc><c>S </c><c>   4</c></rc>
    <rc><c>S </c><c>   4</c></rc>
    <rc><c>S </c><c>   4</c></rc>
    <rc><c>S </c><c>   4</c></rc>
   </set>
  </array>
  <array name="atomtypes" >
   <dimension dim="1">type</dimension>
   <field type="int">atomspertype</field>
   <field type="string">element</field>
   <field>mass</field>
   <field>valence</field>
   <field type="string">pseudopotential</field>
   <set>
    <rc><c>   3</c><c>V </c><c>     50.94100000</c><c>      5.00000000</c><c> PAW_PBE V 08Apr2002                    </c></rc>
    <rc><c>   3</c><c>Mo</c><c>     95.94000000</c><c>      6.00000000</c><c> PAW_PBE Mo 08Apr2002                   </c></rc>
    <rc><c>   3</c><c>W </c><c>    183.85000000</c><c>      6.00000000</c><c> PAW_PBE W 08Apr2002                    </c></rc>
    <rc><c>  18</c><c>S </c><c>     32.06600000</c><c>      6.00000000</c><c>  PAW_PBE S 17Jan2003                   </c></rc>
   </set>
  </array>
 </atominfo>
 <structure name="initialpos" >
  <crystal>
   <varray name="basis" >
    <v>       8.66999996       5.03999989       0.00000000 </v>
    <v>      -8.66999982       5.04000013       0.00000000 </v>
    <v>       0.00000000       0.00000000      30.00000000 </v>
   </varray>
   <i name="volume">   2621.80797419 </i>
   <varray name="rec_basis" >
    <v>       0.05767013       0.09920635       0.00000000 </v>
    <v>      -0.05767013       0.09920635       0.00000000 </v>
    <v>       0.00000000       0.00000000       0.03333333 </v>
   </varray>
  </crystal>
  <varray name="positions" >
   <v>       1.00000000       0.33333334       0.00000000 </v>
   <v>       0.33333334       0.66666669       0.00000000 </v>
   <v>       0.66666669       0.00000000       0.00000000 </v>
   <v>       0.33333334       0.00000000       0.00000000 </v>
   <v>       0.00000000       0.66666669       0.00000000 </v>
   <v>       0.66666669       0.66666669       0.00000000 </v>
   <v>       0.00000000       0.00000000       0.00000000 </v>
   <v>       0.33333334       0.33333334       0.00000000 </v>
   <v>       0.66666669       0.33333334       0.00000000 </v>
   <v>       0.11068511       0.22244981       0.95539999 </v>
   <v>       0.22244981       0.11068511       0.04460000 </v>
   <v>       0.11068511       0.55578315       0.95539999 </v>
   <v>       0.22244981       0.44401845       0.04460000 </v>
   <v>       0.11068511       0.88911647       0.95539999 </v>
   <v>       0.22244981       0.77735180       0.04460000 </v>
   <v>       0.44401845       0.22244981       0.95539999 </v>
   <v>       0.55578315       0.11068511       0.04460000 </v>
   <v>       0.44401845       0.55578315       0.95539999 </v>
   <v>       0.55578315       0.44401845       0.04460000 </v>
   <v>       0.44401845       0.88911647       0.95539999 </v>
   <v>       0.55578315       0.77735180       0.04460000 </v>
   <v>       0.77735180       0.22244981       0.95539999 </v>
   <v>       0.88911647       0.11068511       0.04460000 </v>
   <v>       0.77735180       0.55578315       0.95539999 </v>
   <v>       0.88911647       0.44401845       0.04460000 </v>
   <v>       0.77735180       0.88911647       0.95539999 </v>
   <v>       0.88911647       0.77735180       0.04460000 </v>
  </varray>
 </structure>
 <calculation>
  <scstep>
   <time name="dav">   21.76   21.84</time>
   <time name="total">   21.81   21.90</time>
   <energy>
    <i name="alphaZ">     81.65567618 </i>
    <i name="ewald">  41891.12778375 </i>
    <i name="hartreedc"> -47723.77362689 </i>
    <i name="XCdc">   -242.92539889 </i>
    <i name="pawpsdc">   3467.42045192 </i>
    <i name="pawaedc">  -2871.19716117 </i>
    <i name="eentropy">     -0.53142487 </i>
    <i name="bandstr">   -239.08886351 </i>
    <i name="atom">   6761.44252427 </i>
    <i name="e_fr_energy">   1124.12996080 </i>
    <i name="e_wo_entrp">   1124.66138566 </i>
    <i name="e_0_energy">   1124.39567323 </i>
   </energy>
  </scstep>
  <scstep>
   <time name="dav">   28.19   28.25</time>
   <time name="total">   28.19   28.26</time>
   <energy>
    <i name="e_fr_energy">     -3.58729595 </i>
    <i name="e_wo_entrp">     -3.39218941 </i>
    <i name="e_0_energy">     -3.48974268 </i>
   </energy>
  </scstep>
  <scstep>
   <time name="dav">   27.71   27.77</time>
   <time name="total">   27.71   27.78</time>
   <energy>
    <i name="e_fr_energy">   -199.90710875 </i>
    <i name="e_wo_entrp">   -199.64414167 </i>
    <i name="e_0_energy">   -199.77562521 </i>
   </energy>
  </scstep>
  <scstep>
   <time name="dav">   29.72   29.79</time>
   <time name="total">   29.72   29.80</time>
   <energy>
    <i name="e_fr_energy">   -209.06261919 </i>
    <i name="e_wo_entrp">   -208.80490415 </i>
    <i name="e_0_energy">   -208.93376167 </i>
   </energy>
  </scstep>
  <scstep>
   <time name="dav">   28.69   28.76</time>
   <time name="total">   29.17   29.24</time>
   <energy>
    <i name="e_fr_energy">   -209.40406395 </i>
    <i name="e_wo_entrp">   -209.14916779 </i>
    <i name="e_0_energy">   -209.27661587 </i>
   </energy>
  </scstep>
  <scstep>
   <time name="dav">   30.66   30.73</time>
   <time name="total">   31.16   31.24</time>
   <energy>
    <i name="e_fr_energy">   -241.33767847 </i>
    <i name="e_wo_entrp">   -241.05223657 </i>
    <i name="e_0_energy">   -241.19495752 </i>
   </energy>
  </scstep>
  <scstep>
   <time name="dav">   32.11   32.19</time>
   <time name="total">   32.62   32.70</time>
   <energy>
    <i name="e_fr_energy">   -196.12129209 </i>
    <i name="e_wo_entrp">   -195.79446204 </i>
    <i name="e_0_energy">   -195.95787707 </i>
   </energy>
  </scstep>
  <scstep>
   <time name="dav">   29.79   29.86</time>
   <time name="total">   30.31   30.39</time>
   <energy>
    <i name="e_fr_energy">   -189.35778731 </i>
    <i name="e_wo_entrp">   -189.03069959 </i>
    <i name="e_0_energy">   -189.19424345 </i>
   </energy>
  </scstep>
  <scstep>
   <time name="dav">   31.99   32.07</time>
   <time name="total">   32.51   32.60</time>
   <energy>
    <i name="e_fr_energy">   -188.08184493 </i>
    <i name="e_wo_entrp">   -187.75126081 </i>
    <i name="e_0_energy">   -187.91655287 </i>
   </energy>
  </scstep>
  <scstep>
   <time name="dav">   32.43   32.51</time>
   <time name="total">   32.97   33.06</time>
   <energy>
    <i name="e_fr_energy">   -186.94989650 </i>
    <i name="e_wo_entrp">   -186.59436807 </i>
    <i name="e_0_energy">   -186.77213229 </i>
   </energy>
  </scstep>
  <scstep>
   <time name="dav">   32.84   32.92</time>
   <time name="total">   33.38   33.47</time>
   <energy>
    <i name="e_fr_energy">   -187.05659628 </i>
    <i name="e_wo_entrp">   -186.71814344 </i>
    <i name="e_0_energy">   -186.88736986 </i>
   </energy>
  </scstep>
  <scstep>
   <time name="dav">   31.73   31.80</time>
   <time name="total">   32.26   32.35</time>
   <energy>
    <i name="e_fr_energy">   -186.94936346 </i>
    <i name="e_wo_entrp">   -186.60619962 </i>
    <i name="e_0_energy">   -186.77778154 </i>
   </energy>
  </scstep>
  <scstep>
   <time name="dav">   30.91   30.99</time>
   <time name="total">   31.45   31.53</time>
   <energy>
    <i name="e_fr_energy">   -186.87404113 </i>
    <i name="e_wo_entrp">   -186.52994311 </i>
    <i name="e_0_energy">   -186.70199212 </i>
   </energy>
  </scstep>
  <scstep>
   <time name="dav">   30.94   31.02</time>
   <time name="total">   31.48   31.56</time>
   <energy>
    <i name="e_fr_energy">   -186.85326871 </i>
    <i name="e_wo_entrp">   -186.50461944 </i>
    <i name="e_0_energy">   -186.67894407 </i>
   </energy>
  </scstep>
  <scstep>
   <time name="dav">   31.37   31.44</time>
   <time name="total">   31.90   31.99</time>
   <energy>
    <i name="e_fr_energy">   -186.85065538 </i>
    <i name="e_wo_entrp">   -186.50252964 </i>
    <i name="e_0_energy">   -186.67659251 </i>
   </energy>
  </scstep>
  <scstep>
   <time name="dav">   31.63   31.71</time>
   <time name="total">   32.17   32.25</time>
   <energy>
    <i name="e_fr_energy">   -186.84664014 </i>
    <i name="e_wo_entrp">   -186.49881391 </i>
    <i name="e_0_energy">   -186.67272702 </i>
   </energy>
  </scstep>
  <scstep>
   <time name="dav">   31.11   31.19</time>
   <time name="total">   31.65   31.73</time>
   <energy>
    <i name="e_fr_energy">   -186.84542153 </i>
    <i name="e_wo_entrp">   -186.49887312 </i>
    <i name="e_0_energy">   -186.67214732 </i>
   </energy>
  </scstep>
  <scstep>
   <time name="dav">   30.88   30.95</time>
   <time name="total">   31.41   31.50</time>
   <energy>
    <i name="e_fr_energy">   -186.84481495 </i>
    <i name="e_wo_entrp">   -186.49765106 </i>
    <i name="e_0_energy">   -186.67123301 </i>
   </energy>
  </scstep>
  <scstep>
   <time name="dav">   26.97   27.03</time>
   <time name="total">   27.50   27.58</time>
   <energy>
    <i name="e_fr_energy">   -186.84520967 </i>
    <i name="e_wo_entrp">   -186.49827900 </i>
    <i name="e_0_energy">   -186.67174433 </i>
   </energy>
  </scstep>
  <scstep>
   <time name="dav">   24.59   24.65</time>
   <time name="total">   25.13   25.19</time>
   <energy>
    <i name="e_fr_energy">   -186.84574998 </i>
    <i name="e_wo_entrp">   -186.49904229 </i>
    <i name="e_0_energy">   -186.67239613 </i>
   </energy>
  </scstep>
  <scstep>
   <time name="dav">   21.77   21.82</time>
   <time name="total">   22.30   22.36</time>
   <energy>
    <i name="e_fr_energy">   -186.84654668 </i>
    <i name="e_wo_entrp">   -186.49985106 </i>
    <i name="e_0_energy">   -186.67319887 </i>
   </energy>
  </scstep>
  <scstep>
   <time name="dav">   20.38   20.42</time>
   <time name="total">   20.91   20.97</time>
   <energy>
    <i name="e_fr_energy">   -186.84746918 </i>
    <i name="e_wo_entrp">   -186.50070238 </i>
    <i name="e_0_energy">   -186.67408578 </i>
   </energy>
  </scstep>
  <scstep>
   <time name="dav">   20.32   20.37</time>
   <time name="total">   20.86   20.92</time>
   <energy>
    <i name="e_fr_energy">   -186.84854922 </i>
    <i name="e_wo_entrp">   -186.50177060 </i>
    <i name="e_0_energy">   -186.67515991 </i>
   </energy>
  </scstep>
  <scstep>
   <time name="dav">   18.37   18.41</time>
   <time name="total">   18.91   18.96</time>
   <energy>
    <i name="e_fr_energy">   -186.84921147 </i>
    <i name="e_wo_entrp">   -186.50245304 </i>
    <i name="e_0_energy">   -186.67583225 </i>
   </energy>
  </scstep>
  <scstep>
   <time name="dav">   17.57   17.62</time>
   <time name="total">   18.11   18.16</time>
   <energy>
    <i name="e_fr_energy">   -186.84957548 </i>
    <i name="e_wo_entrp">   -186.50279951 </i>
    <i name="e_0_energy">   -186.67618749 </i>
   </energy>
  </scstep>
  <scstep>
   <time name="dav">   18.98   19.03</time>
   <time name="total">   19.52   19.57</time>
   <energy>
    <i name="e_fr_energy">   -186.84979410 </i>
    <i name="e_wo_entrp">   -186.50302602 </i>
    <i name="e_0_energy">   -186.67641006 </i>
   </energy>
  </scstep>
  <scstep>
   <time name="dav">   20.05   20.10</time>
   <time name="total">   20.09   20.14</time>
   <energy>
    <i name="alphaZ">     81.65567618 </i>
    <i name="ewald">  41891.12778375 </i>
    <i name="hartreedc"> -47833.62265709 </i>
    <i name="XCdc">   -231.60213411 </i>
    <i name="pawpsdc">   4192.07546535 </i>
    <i name="pawaedc">  -3610.08222026 </i>
    <i name="eentropy">     -0.34676871 </i>
    <i name="bandstr">  -1437.49753700 </i>
    <i name="atom">   6761.44252427 </i>
    <i name="e_fr_energy">   -186.84986761 </i>
    <i name="e_wo_entrp">   -186.50309890 </i>
    <i name="e_0_energy">   -186.67648325 </i>
   </energy>
  </scstep>
  <structure>
   <crystal>
    <varray name="basis" >
     <v>       8.66999996       5.03999989       0.00000000 </v>
     <v>      -8.66999982       5.04000013       0.00000000 </v>
     <v>       0.00000000       0.00000000      30.00000000 </v>
    </varray>
    <i name="volume">   2621.80797419 </i>
    <varray name="rec_basis" >
     <v>       0.05767013       0.09920635       0.00000000 </v>
     <v>      -0.05767013       0.09920635       0.00000000 </v>
     <v>       0.00000000       0.00000000       0.03333333 </v>
    </varray>
   </crystal>
   <varray name="positions" >
    <v>       1.00000000       0.33333334       0.00000000 </v>
    <v>       0.33333334       0.66666669       0.00000000 </v>
    <v>       0.66666669       0.00000000       0.00000000 </v>
    <v>       0.33333334       0.00000000       0.00000000 </v>
    <v>       0.00000000       0.66666669       0.00000000 </v>
    <v>       0.66666669       0.66666669       0.00000000 </v>
    <v>       0.00000000       0.00000000       0.00000000 </v>
    <v>       0.33333334       0.33333334       0.00000000 </v>
    <v>       0.66666669       0.33333334       0.00000000 </v>
    <v>       0.11068511       0.22244981       0.95539999 </v>
    <v>       0.22244981       0.11068511       0.04460000 </v>
    <v>       0.11068511       0.55578315       0.95539999 </v>
    <v>       0.22244981       0.44401845       0.04460000 </v>
    <v>       0.11068511       0.88911647       0.95539999 </v>
    <v>       0.22244981       0.77735180       0.04460000 </v>
    <v>       0.44401845       0.22244981       0.95539999 </v>
    <v>       0.55578315       0.11068511       0.04460000 </v>
    <v>       0.44401845       0.55578315       0.95539999 </v>
    <v>       0.55578315       0.44401845       0.04460000 </v>
    <v>       0.44401845       0.88911647       0.95539999 </v>
    <v>       0.55578315       0.77735180       0.04460000 </v>
    <v>       0.77735180       0.22244981       0.95539999 </v>
    <v>       0.88911647       0.11068511       0.04460000 </v>
    <v>       0.77735180       0.55578315       0.95539999 </v>
    <v>       0.88911647       0.44401845       0.04460000 </v>
    <v>       0.77735180       0.88911647       0.95539999 </v>
    <v>       0.88911647       0.77735180       0.04460000 </v>
   </varray>
  </structure>
  <varray name="forces" >
   <v>      -0.21347785       0.13263620      -0.01064480 </v>
   <v>      -0.22833306       0.13337120      -0.01414918 </v>
   <v>       0.01320464      -0.26082033       0.02775776 </v>
   <v>       0.01962850      -0.28525619      -0.10556146 </v>
   <v>      -0.19924452       0.15196907      -0.15168507 </v>
   <v>       0.22286263       0.11836968       0.13432008 </v>
   <v>       0.43897327      -0.33827344       0.16605014 </v>
   <v>       0.16338681       0.17406638       0.13146846 </v>
   <v>      -0.15106560       0.15028294      -0.13668210 </v>
   <v>      -0.60349754       0.00648173      -2.07641593 </v>
   <v>      -0.32146173       0.00294712       2.89198714 </v>
   <v>       0.89349361      -0.00368447      -1.45064665 </v>
   <v>      -0.73874985      -0.00566020       1.45719262 </v>
   <v>      -0.00824140       0.00500991      -2.95368107 </v>
   <v>       0.75658889      -0.00007677       2.11536051 </v>
   <v>       0.09470838       0.13206780      -2.92540303 </v>
   <v>       0.66108517       0.14743015       2.07110885 </v>
   <v>      -0.66798038      -0.14733588      -2.08716883 </v>
   <v>      -0.09889965      -0.13300715       2.95048961 </v>
   <v>       0.89828284      -0.00510752      -1.47614078 </v>
   <v>      -0.89885798       0.00448554       1.45201450 </v>
   <v>       0.73328591      -0.00077272      -1.46195156 </v>
   <v>      -0.74218838       0.00135672       1.43084643 </v>
   <v>       0.24532591      -0.15088002      -2.89535257 </v>
   <v>       0.66183702      -0.14365440       2.09473373 </v>
   <v>      -0.67856048       0.15408682      -2.10614833 </v>
   <v>      -0.25210517       0.15996784       2.92830152 </v>
  </varray>
  <varray name="stress" >
   <v>       7.49141221       0.00994269      -1.53371249 </v>
   <v>       0.00994236       4.26478400       0.03591263 </v>
   <v>      -1.53371232       0.03591280      30.33399758 </v>
  </varray>
  <energy>
   <i name="e_fr_energy">   -186.84986761 </i>
   <i name="e_wo_entrp">   -186.67648325 </i>
   <i name="e_0_energy">     -0.34676871 </i>
  </energy>
  <time name="totalsc">  787.36  789.50</time>
 </calculation>
 <calculation>
  <scstep>
   <time name="dav">   21.73   21.78</time>
   <time name="total">   22.28   22.33</time>
   <energy>
    <i name="alphaZ">     78.92131341 </i>
    <i name="ewald">  39378.52623740 </i>
    <i name="hartreedc"> -45335.85265369 </i>
    <i name="XCdc">   -239.06909908 </i>
    <i name="pawpsdc">   4192.05146257 </i>
    <i name="pawaedc">  -3610.05872332 </i>
    <i name="eentropy">     -0.28094667 </i>
    <i name="bandstr">  -1413.21232438 </i>
    <i name="atom">   6761.44252427 </i>
    <i name="e_fr_energy">   -187.53220949 </i>
    <i name="e_wo_entrp">   -187.25126282 </i>
    <i name="e_0_energy">   -187.39173616 </i>
   </energy>
  </scstep>
  <scstep>
   <time name="dav">   30.37   30.44</time>
   <time name="total">   30.90   30.98</time>
   <energy>
    <i name="e_fr_energy">   -190.02163037 </i>
    <i name="e_wo_entrp">   -189.66617550 </i>
    <i name="e_0_energy">   -189.84390294 </i>
   </energy>
  </scstep>
  <scstep>
   <time name="dav">   30.56   30.64</time>
   <time name="total">   31.11   31.20</time>
   <energy>
    <i name="e_fr_energy">   -189.24437256 </i>
    <i name="e_wo_entrp">   -188.97794538 </i>
    <i name="e_0_energy">   -189.11115897 </i>
   </energy>
  </scstep>
  <scstep>
   <time name="dav">   30.64   30.71</time>
   <time name="total">   31.18   31.26</time>
   <energy>
    <i name="e_fr_energy">   -188.84972667 </i>
    <i name="e_wo_entrp">   -188.55928013 </i>
    <i name="e_0_energy">   -188.70450340 </i>
   </energy>
  </scstep>
  <scstep>
   <time name="dav">   29.56   29.63</time>
   <time name="total">   30.10   30.18</time>
   <energy>
    <i name="e_fr_energy">   -188.85787078 </i>
    <i name="e_wo_entrp">   -188.57216846 </i>
    <i name="e_0_energy">   -188.71501962 </i>
   </energy>
  </scstep>
  <scstep>
   <time name="dav">   30.10   30.17</time>
   <time name="total">   30.64   30.73</time>
   <energy>
    <i name="e_fr_energy">   -188.76308966 </i>
    <i name="e_wo_entrp">   -188.47550576 </i>
    <i name="e_0_energy">   -188.61929771 </i>
   </energy>
  </scstep>
  <scstep>
   <time name="dav">   26.87   26.93</time>
   <time name="total">   27.41   27.48</time>
   <energy>
    <i name="e_fr_energy">   -188.71051076 </i>
    <i name="e_wo_entrp">   -188.42483181 </i>
    <i name="e_0_energy">   -188.56767129 </i>
   </energy>
  </scstep>
  <scstep>
   <time name="dav">   30.51   30.58</time>
   <time name="total">   31.05   31.13</time>
   <energy>
    <i name="e_fr_energy">   -188.69616439 </i>
    <i name="e_wo_entrp">   -188.41079019 </i>
    <i name="e_0_energy">   -188.55347729 </i>
   </energy>
  </scstep>
  <scstep>
   <time name="dav">   30.74   30.82</time>
   <time name="total">   31.29   31.37</time>
   <energy>
    <i name="e_fr_energy">   -188.68986972 </i>
    <i name="e_wo_entrp">   -188.40457273 </i>
    <i name="e_0_energy">   -188.54722123 </i>
   </energy>
  </scstep>
  <scstep>
   <time name="dav">   29.67   29.74</time>
   <time name="total">   30.22   30.30</time>
   <energy>
    <i name="e_fr_energy">   -188.68725329 </i>
    <i name="e_wo_entrp">   -188.40273934 </i>
    <i name="e_0_energy">   -188.54499632 </i>
   </energy>
  </scstep>
  <scstep>
   <time name="dav">   31.85   31.93</time>
   <time name="total">   32.40   32.48</time>
   <energy>
    <i name="e_fr_energy">   -188.68640469 </i>
    <i name="e_wo_entrp">   -188.40271431 </i>
    <i name="e_0_energy">   -188.54455950 </i>
   </energy>
  </scstep>
  <scstep>
   <time name="dav">   29.20   29.27</time>
   <time name="total">   29.24   29.31</time>
   <energy>
    <i name="alphaZ">     78.92131341 </i>
    <i name="ewald">  39378.52623740 </i>
    <i name="hartreedc"> -45346.80848791 </i>
    <i name="XCdc">   -237.97853899 </i>
    <i name="pawpsdc">   3953.06859613 </i>
    <i name="pawaedc">  -3367.60492692 </i>
    <i name="eentropy">     -0.28347991 </i>
    <i name="bandstr">  -1407.96964459 </i>
    <i name="atom">   6761.44252427 </i>
    <i name="e_fr_energy">   -188.68640711 </i>
    <i name="e_wo_entrp">   -188.40292720 </i>
    <i name="e_0_energy">   -188.54466716 </i>
   </energy>
  </scstep>
  <structure>
   <crystal>
    <varray name="basis" >
     <v>       8.86005327       5.10309905       0.00000000 </v>
     <v>      -8.85976010       5.10259520       0.00000000 </v>
     <v>       0.00000000       0.00000000      30.00000000 </v>
    </varray>
    <i name="volume">   2712.64495856 </i>
    <varray name="rec_basis" >
     <v>       0.05643122       0.09798289       0.00000000 </v>
     <v>      -0.05643679       0.09798614       0.00000000 </v>
     <v>       0.00000000       0.00000000       0.03333333 </v>
    </varray>
   </crystal>
   <varray name="positions" >
    <v>       1.00004086       0.33456207      -0.00001712 </v>
    <v>       0.33333640       0.66794026      -0.00002275 </v>
    <v>       0.66545514      -0.00128502       0.00004464 </v>
    <v>       0.33202272      -0.00141984      -0.00016975 </v>
    <v>       0.00017299       0.66794834      -0.00024392 </v>
    <v>       0.66785324       0.66661316       0.00021600 </v>
    <v>      -0.00039768      -0.00284026       0.00026702 </v>
    <v>       0.33462099       0.33371185       0.00021141 </v>
    <v>       0.66696565       0.33447288      -0.00021980 </v>
    <v>       0.10903710       0.22415986       0.95206093 </v>
    <v>       0.22156956       0.11159357       0.04925057 </v>
    <v>       0.11315332       0.55327968       0.95306722 </v>
    <v>       0.22036740       0.44604668       0.04694329 </v>
    <v>       0.11068616       0.88916337       0.95065021 </v>
    <v>       0.22455439       0.77524648       0.04800169 </v>
    <v>       0.44491402       0.22281839       0.95069568 </v>
    <v>       0.55832799       0.10955146       0.04793053 </v>
    <v>       0.44145488       0.55693643       0.95204364 </v>
    <v>       0.55487143       0.44365704       0.04934465 </v>
    <v>       0.44649318       0.88659286       0.95302623 </v>
    <v>       0.55330385       0.77987403       0.04693497 </v>
    <v>       0.77938822       0.22040599       0.95304904 </v>
    <v>       0.88705807       0.11275649       0.04690093 </v>
    <v>       0.77731222       0.55437851       0.95074401 </v>
    <v>       0.89027028       0.44148959       0.04796852 </v>
    <v>       0.77620139       0.89174179       0.95201312 </v>
    <v>       0.88918067       0.77881880       0.04930897 </v>
   </varray>
  </structure>
  <varray name="forces" >
   <v>      -0.17953238       0.08663821      -0.01410258 </v>
   <v>      -0.19768421       0.09639522      -0.00488401 </v>
   <v>      -0.00026875      -0.18040889       0.09007858 </v>
   <v>      -0.24646727      -0.30248321       0.04982524 </v>
   <v>      -0.46245021       0.20384098      -0.02599891 </v>
   <v>       0.44421017       0.08910503      -0.04527848 </v>
   <v>       0.58515748      -0.31446481       0.01293233 </v>
   <v>       0.35955004       0.21754479      -0.08091039 </v>
   <v>      -0.37904870       0.10346969      -0.01908280 </v>
   <v>       0.10602406      -0.01069513       0.27486104 </v>
   <v>      -0.10949261      -0.01083963       0.04413939 </v>
   <v>       0.03131564       0.00892758       0.06641834 </v>
   <v>       0.09224980       0.00973365      -0.15004102 </v>
   <v>      -0.14654794      -0.00735944      -0.25983275 </v>
   <v>       0.06528622      -0.01011043       0.04911644 </v>
   <v>      -0.07078946       0.10135464      -0.02558548 </v>
   <v>      -0.02442839       0.10652201      -0.15467718 </v>
   <v>       0.02476734      -0.10300600       0.13784385 </v>
   <v>       0.08642373      -0.09395988       0.13827403 </v>
   <v>       0.04643110      -0.01094618      -0.00572576 </v>
   <v>      -0.04459511       0.00017666      -0.07911684 </v>
   <v>      -0.10298951      -0.00364186       0.14769044 </v>
   <v>       0.10757082      -0.00615860      -0.23877186 </v>
   <v>       0.05606066      -0.10058720      -0.18233250 </v>
   <v>      -0.03116952      -0.09308717      -0.06605474 </v>
   <v>       0.02338632       0.11317607       0.06042283 </v>
   <v>      -0.03296930       0.11086392       0.28079279 </v>
  </varray>
  <varray name="stress" >
   <v>     -20.16906284      -0.00228702       0.14640651 </v>
   <v>      -0.00228696     -19.63069043       0.02106328 </v>
   <v>       0.14640656       0.02106311      -1.83714855 </v>
  </varray>
  <energy>
   <i name="e_fr_energy">   -188.68640711 </i>
   <i name="e_wo_entrp">   -188.54466716 </i>
   <i name="e_0_energy">     -0.28347991 </i>
  </energy>
  <time name="totalsc">  399.78  400.84</time>
 </calculation>
 <calculation>
  <scstep>
   <time name="dav">   23.34   23.40</time>
   <time name="total">   23.88   23.94</time>
   <energy>
    <i name="alphaZ">     82.37067693 </i>
    <i name="ewald">  41316.01925260 </i>
    <i name="hartreedc"> -47315.04798249 </i>
    <i name="XCdc">   -233.83000565 </i>
    <i name="pawpsdc">   3950.34432087 </i>
    <i name="pawaedc">  -3364.84934376 </i>
    <i name="eentropy">     -0.23786692 </i>
    <i name="bandstr">  -1386.84723462 </i>
    <i name="atom">   6761.44252427 </i>
    <i name="e_fr_energy">   -190.63565876 </i>
    <i name="e_wo_entrp">   -190.39779185 </i>
    <i name="e_0_energy">   -190.51672531 </i>
   </energy>
  </scstep>
  <scstep>
   <time name="dav">   28.54   28.61</time>
   <time name="total">   29.06   29.14</time>
   <energy>
    <i name="e_fr_energy">   -190.56226061 </i>
    <i name="e_wo_entrp">   -190.32938686 </i>
    <i name="e_0_energy">   -190.44582374 </i>
   </energy>
  </scstep>
  <scstep>
   <time name="dav">   30.23   30.30</time>
   <time name="total">   30.75   30.83</time>
   <energy>
    <i name="e_fr_energy">   -190.12607050 </i>
    <i name="e_wo_entrp">   -189.87332136 </i>
    <i name="e_0_energy">   -189.99969593 </i>
   </energy>
  </scstep>
  <scstep>
   <time name="dav">   31.14   31.21</time>
   <time name="total">   31.67   31.76</time>
   <energy>
    <i name="e_fr_energy">   -189.89564738 </i>
    <i name="e_wo_entrp">   -189.66171587 </i>
    <i name="e_0_energy">   -189.77868163 </i>
   </energy>
  </scstep>
  <scstep>
   <time name="dav">   30.02   30.09</time>
   <time name="total">   30.55   30.63</time>
   <energy>
    <i name="e_fr_energy">   -189.87077454 </i>
    <i name="e_wo_entrp">   -189.62276444 </i>
    <i name="e_0_energy">   -189.74676949 </i>
   </energy>
  </scstep>
  <scstep>
   <time name="dav">   30.72   30.80</time>
   <time name="total">   31.26   31.34</time>
   <energy>
    <i name="e_fr_energy">   -189.79719130 </i>
    <i name="e_wo_entrp">   -189.55905828 </i>
    <i name="e_0_energy">   -189.67812479 </i>
   </energy>
  </scstep>
  <scstep>
   <time name="dav">   28.93   29.00</time>
   <time name="total">   29.47   29.55</time>
   <energy>
    <i name="e_fr_energy">   -189.79136134 </i>
    <i name="e_wo_entrp">   -189.55099870 </i>
    <i name="e_0_energy">   -189.67118002 </i>
   </energy>
  </scstep>
  <scstep>
   <time name="dav">   31.10   31.17</time>
   <time name="total">   31.63   31.71</time>
   <energy>
    <i name="e_fr_energy">   -189.79144102 </i>
    <i name="e_wo_entrp">   -189.55153014 </i>
    <i name="e_0_energy">   -189.67148558 </i>
   </energy>
  </scstep>
  <scstep>
   <time name="dav">   28.45   28.51</time>
   <time name="total">   28.98   29.06</time>
   <energy>
    <i name="e_fr_energy">   -189.79038095 </i>
    <i name="e_wo_entrp">   -189.55030084 </i>
    <i name="e_0_energy">   -189.67034089 </i>
   </energy>
  </scstep>
  <scstep>
   <time name="dav">   26.98   27.04</time>
   <time name="total">   27.51   27.58</time>
   <energy>
    <i name="e_fr_energy">   -189.79080620 </i>
    <i name="e_wo_entrp">   -189.55055889 </i>
    <i name="e_0_energy">   -189.67068255 </i>
   </energy>
  </scstep>
  <scstep>
   <time name="dav">   25.02   25.08</time>
   <time name="total">   25.56   25.63</time>
   <energy>
    <i name="e_fr_energy">   -189.79049442 </i>
    <i name="e_wo_entrp">   -189.55017629 </i>
    <i name="e_0_energy">   -189.67033536 </i>
   </energy>
  </scstep>
  <scstep>
   <time name="dav">   19.85   19.89</time>
   <time name="total">   19.88   19.94</time>
   <energy>
    <i name="alphaZ">     82.37067693 </i>
    <i name="ewald">  41316.01925260 </i>
    <i name="hartreedc"> -47288.11037668 </i>
    <i name="XCdc">   -235.23545415 </i>
    <i name="pawpsdc">   4039.04855847 </i>
    <i name="pawaedc">  -3454.75492515 </i>
    <i name="eentropy">     -0.24029993 </i>
    <i name="bandstr">  -1410.33047436 </i>
    <i name="atom">   6761.44252427 </i>
    <i name="e_fr_energy">   -189.79051799 </i>
    <i name="e_wo_entrp">   -189.55021806 </i>
    <i name="e_0_energy">   -189.67036803 </i>
   </energy>
  </scstep>
  <structure>
   <crystal>
    <varray name="basis" >
     <v>       8.67000880       4.99654689       0.00000000 </v>
     <v>      -8.66974674       4.99609665       0.00000000 </v>
     <v>       0.00000000       0.00000000      30.00000000 </v>
    </varray>
    <i name="volume">   2599.04994012 </i>
    <varray name="rec_basis" >
     <v>       0.05766834       0.10007211       0.00000000 </v>
     <v>      -0.05767354       0.10007513       0.00000000 </v>
     <v>       0.00000000       0.00000000       0.03333333 </v>
    </varray>
   </crystal>
   <varray name="positions" >
    <v>       1.00001302       0.33487786      -0.00002509 </v>
    <v>       0.33330739       0.66828964      -0.00002551 </v>
    <v>       0.66515511      -0.00158454       0.00009556 </v>
    <v>       0.33128424      -0.00168658      -0.00014159 </v>
    <v>       0.00006914       0.66872966      -0.00025862 </v>
    <v>       0.66842640       0.66633608       0.00019040 </v>
    <v>      -0.00036021      -0.00392285       0.00027433 </v>
    <v>       0.33532655       0.33372923       0.00016568 </v>
    <v>       0.66677483       0.33500760      -0.00023058 </v>
    <v>       0.10912080       0.22404061       0.95221630 </v>
    <v>       0.22144676       0.11168035       0.04927552 </v>
    <v>       0.11319812       0.55326454       0.95310477 </v>
    <v>       0.22047186       0.44597457       0.04685848 </v>
    <v>       0.11053369       0.88929140       0.95050333 </v>
    <v>       0.22460007       0.77516719       0.04802945 </v>
    <v>       0.44501469       0.22305456       0.95068122 </v>
    <v>       0.55848162       0.10975185       0.04784309 </v>
    <v>       0.44130742       0.55674157       0.95212156 </v>
    <v>       0.55479801       0.44341819       0.04942281 </v>
    <v>       0.44651942       0.88653023       0.95302299 </v>
    <v>       0.55326147       0.77991701       0.04689024 </v>
    <v>       0.77928361       0.22049851       0.95313253 </v>
    <v>       0.88715078       0.11264330       0.04676595 </v>
    <v>       0.77719873       0.55415771       0.95064094 </v>
    <v>       0.89008577       0.44136474       0.04793118 </v>
    <v>       0.77641183       0.89190747       0.95204727 </v>
    <v>       0.88933334       0.77903457       0.04946769 </v>
   </varray>
  </structure>
  <varray name="forces" >
   <v>      -0.16923385       0.07027630      -0.01001634 </v>
   <v>      -0.18002632       0.07648808      -0.00169682 </v>
   <v>      -0.00196185      -0.14879091       0.08574036 </v>
   <v>      -0.33611361      -0.29422553       0.06688594 </v>
   <v>      -0.54475797       0.20553806       0.00882794 </v>
   <v>       0.52519263       0.06269568      -0.06380612 </v>
   <v>       0.63130786      -0.28986798      -0.02547686 </v>
   <v>       0.43597120       0.22760838      -0.10343049 </v>
   <v>      -0.46668734       0.08101738       0.02030986 </v>
   <v>      -0.02404852      -0.02175653      -0.19757514 </v>
   <v>      -0.04619667      -0.00762088       0.60671032 </v>
   <v>       0.09274992       0.01625588      -0.38166311 </v>
   <v>      -0.05426032       0.01694858       0.30360780 </v>
   <v>      -0.06864454      -0.00689141      -0.84659295 </v>
   <v>       0.13475354      -0.02154708       0.53750537 </v>
   <v>      -0.02205672       0.03065848      -0.59495013 </v>
   <v>       0.07376135       0.04307707       0.31953689 </v>
   <v>      -0.08681107      -0.02371362      -0.35002686 </v>
   <v>       0.05221084      -0.02030249       0.72420967 </v>
   <v>       0.11204793      -0.00984871      -0.45832967 </v>
   <v>      -0.09950731      -0.00798082       0.36062534 </v>
   <v>       0.05044504      -0.00998550      -0.30980087 </v>
   <v>      -0.03305186      -0.00383876       0.20617470 </v>
   <v>       0.02121699      -0.02182269      -0.75259923 </v>
   <v>       0.06757435      -0.01501612       0.41795588 </v>
   <v>      -0.08254862       0.04473537      -0.42782530 </v>
   <v>       0.01867492       0.02790977       0.86569983 </v>
  </varray>
  <varray name="stress" >
   <v>     -10.19994501      -0.01082563       0.13853650 </v>
   <v>      -0.01082546      -9.82333373       0.01051539 </v>
   <v>       0.13853663       0.01051527       6.53312468 </v>
  </varray>
  <energy>
   <i name="e_fr_energy">   -189.79051799 </i>
   <i name="e_wo_entrp">   -189.67036803 </i>
   <i name="e_0_energy">     -0.24029993 </i>
  </energy>
  <time name="totalsc">  382.17  383.18</time>
 </calculation>
 <calculation>
  <scstep>
   <time name="dav">   21.82   21.88</time>
   <time name="total">   22.34   22.40</time>
   <energy>
    <i name="alphaZ">     85.81989842 </i>
    <i name="ewald">  42832.49904747 </i>
    <i name="hartreedc"> -48848.73359757 </i>
    <i name="XCdc">   -232.97973109 </i>
    <i name="pawpsdc">   4039.08213947 </i>
    <i name="pawaedc">  -3454.78593680 </i>
    <i name="eentropy">     -0.19916069 </i>
    <i name="bandstr">  -1373.51352999 </i>
    <i name="atom">   6761.44252427 </i>
    <i name="e_fr_energy">   -191.36834651 </i>
    <i name="e_wo_entrp">   -191.16918582 </i>
    <i name="e_0_energy">   -191.26876616 </i>
   </energy>
  </scstep>
  <scstep>
   <time name="dav">   32.32   32.40</time>
   <time name="total">   32.83   32.92</time>
   <energy>
    <i name="e_fr_energy">   -191.12120117 </i>
    <i name="e_wo_entrp">   -190.91765302 </i>
    <i name="e_0_energy">   -191.01942710 </i>
   </energy>
  </scstep>
  <scstep>
   <time name="dav">   29.78   29.85</time>
   <time name="total">   30.29   30.37</time>
   <energy>
    <i name="e_fr_energy">   -191.42630899 </i>
    <i name="e_wo_entrp">   -191.20945471 </i>
    <i name="e_0_energy">   -191.31788185 </i>
   </energy>
  </scstep>
  <scstep>
   <time name="dav">   28.16   28.23</time>
   <time name="total">   28.67   28.75</time>
   <energy>
    <i name="e_fr_energy">   -190.98891536 </i>
    <i name="e_wo_entrp">   -190.77737229 </i>
    <i name="e_0_energy">   -190.88314382 </i>
   </energy>
  </scstep>
  <scstep>
   <time name="dav">   29.35   29.42</time>
   <time name="total">   29.87   29.95</time>
   <energy>
    <i name="e_fr_energy">   -190.98124832 </i>
    <i name="e_wo_entrp">   -190.78611630 </i>
    <i name="e_0_energy">   -190.88368231 </i>
   </energy>
  </scstep>
  <scstep>
   <time name="dav">   29.72   29.79</time>
   <time name="total">   30.23   30.31</time>
   <energy>
    <i name="e_fr_energy">   -190.80610850 </i>
    <i name="e_wo_entrp">   -190.59888166 </i>
    <i name="e_0_energy">   -190.70249508 </i>
   </energy>
  </scstep>
  <scstep>
   <time name="dav">   30.48   30.55</time>
   <time name="total">   30.99   31.07</time>
   <energy>
    <i name="e_fr_energy">   -190.80624056 </i>
    <i name="e_wo_entrp">   -190.60016406 </i>
    <i name="e_0_energy">   -190.70320231 </i>
   </energy>
  </scstep>
  <scstep>
   <time name="dav">   29.27   29.34</time>
   <time name="total">   29.78   29.86</time>
   <energy>
    <i name="e_fr_energy">   -190.80442515 </i>
    <i name="e_wo_entrp">   -190.59787610 </i>
    <i name="e_0_energy">   -190.70115062 </i>
   </energy>
  </scstep>
  <scstep>
   <time name="dav">   28.60   28.66</time>
   <time name="total">   29.11   29.19</time>
   <energy>
    <i name="e_fr_energy">   -190.80084937 </i>
    <i name="e_wo_entrp">   -190.59469178 </i>
    <i name="e_0_energy">   -190.69777058 </i>
   </energy>
  </scstep>
  <scstep>
   <time name="dav">   27.52   27.59</time>
   <time name="total">   28.04   28.11</time>
   <energy>
    <i name="e_fr_energy">   -190.80115727 </i>
    <i name="e_wo_entrp">   -190.59486827 </i>
    <i name="e_0_energy">   -190.69801277 </i>
   </energy>
  </scstep>
  <scstep>
   <time name="dav">   26.78   26.84</time>
   <time name="total">   27.29   27.37</time>
   <energy>
    <i name="e_fr_energy">   -190.80093474 </i>
    <i name="e_wo_entrp">   -190.59453839 </i>
    <i name="e_0_energy">   -190.69773656 </i>
   </energy>
  </scstep>
  <scstep>
   <time name="dav">   19.86   19.91</time>
   <time name="total">   19.90   19.95</time>
   <energy>
    <i name="alphaZ">     85.81989842 </i>
    <i name="ewald">  42832.49904747 </i>
    <i name="hartreedc"> -48820.21811604 </i>
    <i name="XCdc">   -234.30310053 </i>
    <i name="pawpsdc">   4063.64492004 </i>
    <i name="pawaedc">  -3479.52429932 </i>
    <i name="eentropy">     -0.20642804 </i>
    <i name="bandstr">  -1399.95539093 </i>
    <i name="atom">   6761.44252427 </i>
    <i name="e_fr_energy">   -190.80094466 </i>
    <i name="e_wo_entrp">   -190.59451663 </i>
    <i name="e_0_energy">   -190.69773065 </i>
   </energy>
  </scstep>
  <structure>
   <crystal>
    <varray name="basis" >
     <v>       8.48903485       4.89735676       0.00000000 </v>
     <v>      -8.48930583       4.89783091       0.00000000 </v>
     <v>       0.00000000       0.00000000      30.00000000 </v>
    </varray>
    <i name="volume">   2494.59049574 </i>
    <varray name="rec_basis" >
     <v>       0.05890142       0.10209258       0.00000000 </v>
     <v>      -0.05889572       0.10208932       0.00000000 </v>
     <v>       0.00000000       0.00000000       0.03333333 </v>
    </varray>
   </crystal>
   <varray name="positions" >
    <v>       0.99981714       0.33587062      -0.00004232 </v>
    <v>       0.33311317       0.66934086      -0.00002635 </v>
    <v>       0.66429469      -0.00242608       0.00026869 </v>
    <v>       0.32813178      -0.00216647       0.00001058 </v>
    <v>      -0.00072027       0.67209352      -0.00021128 </v>
    <v>       0.67075704       0.66465804       0.00004336 </v>
    <v>       0.00022767      -0.00800862       0.00018967 </v>
    <v>       0.33844880       0.33349778      -0.00006640 </v>
    <v>       0.66542212       0.33726144      -0.00015575 </v>
    <v>       0.10868702       0.22414840       0.95141368 </v>
    <v>       0.22133056       0.11171725       0.05099706 </v>
    <v>       0.11373833       0.55296328       0.95194300 </v>
    <v>       0.22019264       0.44650089       0.04786398 </v>
    <v>       0.11035520       0.88938617       0.94826700 </v>
    <v>       0.22502067       0.77442130       0.04954624 </v>
    <v>       0.44502185       0.22308237       0.94897825 </v>
    <v>       0.55899892       0.10946019       0.04889864 </v>
    <v>       0.44088404       0.55725899       0.95099172 </v>
    <v>       0.55499183       0.44333324       0.05140614 </v>
    <v>       0.44695672       0.88597533       0.95169937 </v>
    <v>       0.55275580       0.78028296       0.04800166 </v>
    <v>       0.77960451       0.22002171       0.95211104 </v>
    <v>       0.88681442       0.11294318       0.04756330 </v>
    <v>       0.77728322       0.55418824       0.94861219 </v>
    <v>       0.89056705       0.44108001       0.04919783 </v>
    <v>       0.77607568       0.89246546       0.95075672 </v>
    <v>       0.88944386       0.77886440       0.05174186 </v>
   </varray>
  </structure>
  <varray name="forces" >
   <v>      -0.20236075       0.03110814      -0.00828890 </v>
   <v>      -0.18756467       0.02196404      -0.00098259 </v>
   <v>      -0.00146071      -0.06156134       0.05157931 </v>
   <v>      -0.39152986      -0.30872861       0.03585833 </v>
   <v>      -0.55893370       0.20988988       0.03177804 </v>
   <v>       0.59027522       0.02035897      -0.03092291 </v>
   <v>       0.61877445      -0.28161929      -0.03715852 </v>
   <v>       0.47679311       0.27486052      -0.05773914 </v>
   <v>      -0.50474396       0.08654133       0.03715477 </v>
   <v>       0.06664981      -0.03790092      -0.02611064 </v>
   <v>      -0.04853355      -0.02500545       0.42011892 </v>
   <v>      -0.05135799       0.04001407      -0.29251144 </v>
   <v>       0.01735820       0.03965849       0.19097601 </v>
   <v>       0.02520758      -0.01518295      -0.67188601 </v>
   <v>      -0.00356044      -0.03109482       0.36602946 </v>
   <v>       0.08329401      -0.01732395      -0.45196527 </v>
   <v>      -0.03840234      -0.00744788       0.15555585 </v>
   <v>       0.00006565       0.04802444      -0.20136256 </v>
   <v>      -0.00764189       0.03500301       0.57289045 </v>
   <v>      -0.01738120      -0.01959203      -0.32722697 </v>
   <v>       0.04170327      -0.02453013       0.24934274 </v>
   <v>      -0.02760955      -0.01859758      -0.22071816 </v>
   <v>       0.06298983      -0.01392140       0.13762337 </v>
   <v>       0.06019825       0.04209406      -0.57407067 </v>
   <v>      -0.05162463       0.03826506       0.23733516 </v>
   <v>       0.03530426      -0.00468512      -0.24513430 </v>
   <v>       0.01409158      -0.02059055       0.65983567 </v>
  </varray>
  <varray name="stress" >
   <v>      -5.68315892      -0.01492290      -0.18909900 </v>
   <v>      -0.01492293      -6.08478159      -0.03086023 </v>
   <v>      -0.18909909      -0.03086024       4.60009189 </v>
  </varray>
  <energy>
   <i name="e_fr_energy">   -190.80094466 </i>
   <i name="e_wo_entrp">   -190.69773065 </i>
   <i name="e_0_energy">     -0.20642804 </i>
  </energy>
  <time name="totalsc">  381.31  382.32</time>
 </calculation>
 <calculation>
  <scstep>
   <time name="dav">   21.74   21.80</time>
   <time name="total">   22.26   22.31</time>
   <energy>
    <i name="alphaZ">     90.27305378 </i>
    <i name="ewald">  44719.66043319 </i>
    <i name="hartreedc"> -50763.20446121 </i>
    <i name="XCdc">   -231.74412791 </i>
    <i name="pawpsdc">   4063.57079204 </i>
    <i name="pawaedc">  -3479.44655774 </i>
    <i name="eentropy">     -0.18007954 </i>
    <i name="bandstr">  -1352.65901185 </i>
    <i name="atom">   6761.44252427 </i>
    <i name="e_fr_energy">   -192.28743497 </i>
    <i name="e_wo_entrp">   -192.10735543 </i>
    <i name="e_0_energy">   -192.19739520 </i>
   </energy>
  </scstep>
  <scstep>
   <time name="dav">   27.69   27.76</time>
   <time name="total">   28.20   28.28</time>
   <energy>
    <i name="e_fr_energy">   -191.99532785 </i>
    <i name="e_wo_entrp">   -191.78251958 </i>
    <i name="e_0_energy">   -191.88892372 </i>
   </energy>
  </scstep>
  <scstep>
   <time name="dav">   29.78   29.86</time>
   <time name="total">   30.29   30.37</time>
   <energy>
    <i name="e_fr_energy">   -192.42055155 </i>
    <i name="e_wo_entrp">   -192.24569773 </i>
    <i name="e_0_energy">   -192.33312464 </i>
   </energy>
  </scstep>
  <scstep>
   <time name="dav">   29.94   30.01</time>
   <time name="total">   30.45   30.53</time>
   <energy>
    <i name="e_fr_energy">   -191.70602907 </i>
    <i name="e_wo_entrp">   -191.51658382 </i>
    <i name="e_0_energy">   -191.61130645 </i>
   </energy>
  </scstep>
  <scstep>
   <time name="dav">   29.53   29.60</time>
   <time name="total">   30.04   30.12</time>
   <energy>
    <i name="e_fr_energy">   -191.73146102 </i>
    <i name="e_wo_entrp">   -191.53022472 </i>
    <i name="e_0_energy">   -191.63084287 </i>
   </energy>
  </scstep>
  <scstep>
   <time name="dav">   30.04   30.11</time>
   <time name="total">   30.55   30.63</time>
   <energy>
    <i name="e_fr_energy">   -191.54369295 </i>
    <i name="e_wo_entrp">   -191.35392023 </i>
    <i name="e_0_energy">   -191.44880659 </i>
   </energy>
  </scstep>
  <scstep>
   <time name="dav">   29.30   29.37</time>
   <time name="total">   29.81   29.89</time>
   <energy>
    <i name="e_fr_energy">   -191.54292078 </i>
    <i name="e_wo_entrp">   -191.34651241 </i>
    <i name="e_0_energy">   -191.44471659 </i>
   </energy>
  </scstep>
  <scstep>
   <time name="dav">   28.74   28.81</time>
   <time name="total">   29.25   29.33</time>
   <energy>
    <i name="e_fr_energy">   -191.53099401 </i>
    <i name="e_wo_entrp">   -191.33567916 </i>
    <i name="e_0_energy">   -191.43333658 </i>
   </energy>
  </scstep>
  <scstep>
   <time name="dav">   29.47   29.54</time>
   <time name="total">   29.98   30.06</time>
   <energy>
    <i name="e_fr_energy">   -191.52759918 </i>
    <i name="e_wo_entrp">   -191.33278962 </i>
    <i name="e_0_energy">   -191.43019440 </i>
   </energy>
  </scstep>
  <scstep>
   <time name="dav">   26.40   26.46</time>
   <time name="total">   26.91   26.98</time>
   <energy>
    <i name="e_fr_energy">   -191.52765770 </i>
    <i name="e_wo_entrp">   -191.33286712 </i>
    <i name="e_0_energy">   -191.43026241 </i>
   </energy>
  </scstep>
  <scstep>
   <time name="dav">   23.76   23.82</time>
   <time name="total">   23.79   23.86</time>
   <energy>
    <i name="alphaZ">     90.27305378 </i>
    <i name="ewald">  44719.66043319 </i>
    <i name="hartreedc"> -50728.34940552 </i>
    <i name="XCdc">   -233.29100923 </i>
    <i name="pawpsdc">   4089.70655750 </i>
    <i name="pawaedc">  -3505.73720797 </i>
    <i name="eentropy">     -0.19496926 </i>
    <i name="bandstr">  -1385.03766359 </i>
    <i name="atom">   6761.44252427 </i>
    <i name="e_fr_energy">   -191.52768683 </i>
    <i name="e_wo_entrp">   -191.33271757 </i>
    <i name="e_0_energy">   -191.43020220 </i>
   </energy>
  </scstep>
  <structure>
   <crystal>
    <varray name="basis" >
     <v>       8.28675047       4.76813223       0.00000000 </v>
     <v>      -8.28813125       4.77052928       0.00000000 </v>
     <v>       0.00000000       0.00000000      30.00000000 </v>
    </varray>
    <i name="volume">   2371.53274402 </i>
    <varray name="rec_basis" >
     <v>       0.06034742       0.10484525       0.00000000 </v>
     <v>      -0.06031710       0.10482778       0.00000000 </v>
     <v>       0.00000000       0.00000000       0.03333333 </v>
    </varray>
   </crystal>
   <varray name="positions" >
    <v>       0.99883533       0.33764798      -0.00007230 </v>
    <v>       0.33212686       0.67092904      -0.00002756 </v>
    <v>       0.66347587      -0.00321780       0.00048780 </v>
    <v>       0.32154741      -0.00303833       0.00018606 </v>
    <v>      -0.00222010       0.67872145      -0.00006313 </v>
    <v>       0.67523529       0.66066627      -0.00011485 </v>
    <v>       0.00129262      -0.01584787       0.00001075 </v>
    <v>       0.34521123       0.33336050      -0.00034196 </v>
    <v>       0.66273970       0.34191478       0.00002140 </v>
    <v>       0.10839125       0.22350727       0.95076473 </v>
    <v>       0.22082533       0.11168581       0.05331013 </v>
    <v>       0.11408303       0.55356121       0.95029945 </v>
    <v>       0.22047711       0.44715322       0.04912075 </v>
    <v>       0.11040114       0.88899860       0.94493403 </v>
    <v>       0.22484180       0.77380600       0.05156447 </v>
    <v>       0.44525601       0.22218032       0.94655456 </v>
    <v>       0.55880511       0.10927691       0.05006098 </v>
    <v>       0.44131583       0.55821728       0.94964177 </v>
    <v>       0.55548494       0.44393333       0.05433179 </v>
    <v>       0.44684221       0.88564865       0.94989128 </v>
    <v>       0.55253160       0.77991500       0.04947679 </v>
    <v>       0.77950209       0.21966138       0.95074441 </v>
    <v>       0.88679185       0.11267136       0.04857614 </v>
    <v>       0.77824817       0.55449084       0.94568272 </v>
    <v>       0.89107829       0.44177330       0.05070403 </v>
    <v>       0.77587044       0.89232936       0.94921429 </v>
    <v>       0.88922405       0.77826861       0.05504133 </v>
   </varray>
  </structure>
  <varray name="forces" >
   <v>      -0.30180149      -0.03747955      -0.04144695 </v>
   <v>      -0.23705969      -0.03489189      -0.00035921 </v>
   <v>       0.03565093       0.04583090       0.05335716 </v>
   <v>      -0.21344693      -0.16601362      -0.09179545 </v>
   <v>      -0.06392481       0.10084617      -0.07429800 </v>
   <v>       0.27427555      -0.11730311       0.09108365 </v>
   <v>       0.22296973      -0.13683962       0.04083888 </v>
   <v>       0.36261212       0.25636306       0.05141100 </v>
   <v>      -0.27040408       0.07717656      -0.09962512 </v>
   <v>       0.20890686      -0.03184342       0.24944867 </v>
   <v>      -0.10118906      -0.03261449       0.11970832 </v>
   <v>      -0.19042621       0.04817878      -0.03870737 </v>
   <v>       0.12906188       0.04391006      -0.09525842 </v>
   <v>       0.06922826      -0.01406140      -0.32362022 </v>
   <v>      -0.18939954      -0.03492826       0.07926937 </v>
   <v>       0.16281675      -0.04548809      -0.19037080 </v>
   <v>      -0.20883701      -0.05406859      -0.11463193 </v>
   <v>       0.15294401       0.10916066       0.06337282 </v>
   <v>      -0.04231363       0.06940187       0.35475272 </v>
   <v>      -0.14179750      -0.02043782       0.00328048 </v>
   <v>       0.17716283      -0.03392550      -0.07353805 </v>
   <v>      -0.15221456      -0.02422691       0.00337440 </v>
   <v>       0.20580477      -0.00490790      -0.08194575 </v>
   <v>       0.14373912       0.09652730      -0.22741690 </v>
   <v>      -0.20182440       0.07021110       0.03509567 </v>
   <v>       0.19907532      -0.05753629       0.01456940 </v>
   <v>      -0.02960921      -0.07103998       0.29345164 </v>
  </varray>
  <varray name="stress" >
   <v>       0.95501567      -0.02177172      -0.80313123 </v>
   <v>      -0.02177157      -0.28052853      -0.12247739 </v>
   <v>      -0.80313117      -0.12247735       0.02414395 </v>
  </varray>
  <energy>
   <i name="e_fr_energy">   -191.52768683 </i>
   <i name="e_wo_entrp">   -191.43020220 </i>
   <i name="e_0_energy">     -0.19496926 </i>
  </energy>
  <time name="totalsc">  353.51  354.45</time>
 </calculation>
 <calculation>
  <scstep>
   <time name="dav">   21.76   21.82</time>
   <time name="total">   22.27   22.33</time>
   <energy>
    <i name="alphaZ">     89.99449198 </i>
    <i name="ewald">  44575.55890171 </i>
    <i name="hartreedc"> -50581.85911647 </i>
    <i name="XCdc">   -233.55911107 </i>
    <i name="pawpsdc">   4089.87626511 </i>
    <i name="pawaedc">  -3505.90446265 </i>
    <i name="eentropy">     -0.19663058 </i>
    <i name="bandstr">  -1386.93897082 </i>
    <i name="atom">   6761.44252427 </i>
    <i name="e_fr_energy">   -191.58610853 </i>
    <i name="e_wo_entrp">   -191.38947795 </i>
    <i name="e_0_energy">   -191.48779324 </i>
   </energy>
  </scstep>
  <scstep>
   <time name="dav">   30.37   30.45</time>
   <time name="total">   30.88   30.96</time>
   <energy>
    <i name="e_fr_energy">   -191.66278361 </i>
    <i name="e_wo_entrp">   -191.45282547 </i>
    <i name="e_0_energy">   -191.55780454 </i>
   </energy>
  </scstep>
  <scstep>
   <time name="dav">   30.46   30.53</time>
   <time name="total">   30.96   31.05</time>
   <energy>
    <i name="e_fr_energy">   -191.59384148 </i>
    <i name="e_wo_entrp">   -191.39520905 </i>
    <i name="e_0_energy">   -191.49452526 </i>
   </energy>
  </scstep>
  <scstep>
   <time name="dav">   28.83   28.90</time>
   <time name="total">   29.34   29.42</time>
   <energy>
    <i name="e_fr_energy">   -191.59774117 </i>
    <i name="e_wo_entrp">   -191.39847866 </i>
    <i name="e_0_energy">   -191.49810991 </i>
   </energy>
  </scstep>
  <scstep>
   <time name="dav">   28.74   28.81</time>
   <time name="total">   29.25   29.33</time>
   <energy>
    <i name="e_fr_energy">   -191.59163019 </i>
    <i name="e_wo_entrp">   -191.39106169 </i>
    <i name="e_0_energy">   -191.49134594 </i>
   </energy>
  </scstep>
  <scstep>
   <time name="dav">   28.20   28.27</time>
   <time name="total">   28.71   28.79</time>
   <energy>
    <i name="e_fr_energy">   -191.59203303 </i>
    <i name="e_wo_entrp">   -191.39328305 </i>
    <i name="e_0_energy">   -191.49265804 </i>
   </energy>
  </scstep>
  <scstep>
   <time name="dav">   28.20   28.26</time>
   <time name="total">   28.70   28.78</time>
   <energy>
    <i name="e_fr_energy">   -191.59132980 </i>
    <i name="e_wo_entrp">   -191.39132407 </i>
    <i name="e_0_energy">   -191.49132694 </i>
   </energy>
  </scstep>
  <scstep>
   <time name="dav">   23.67   23.72</time>
   <time name="total">   24.18   24.24</time>
   <energy>
    <i name="e_fr_energy">   -191.59094767 </i>
    <i name="e_wo_entrp">   -191.39138728 </i>
    <i name="e_0_energy">   -191.49116748 </i>
   </energy>
  </scstep>
  <scstep>
   <time name="dav">   17.96   18.00</time>
   <time name="total">   18.00   18.05</time>
   <energy>
    <i name="alphaZ">     89.99449198 </i>
    <i name="ewald">  44575.55890171 </i>
    <i name="hartreedc"> -50585.09456131 </i>
    <i name="XCdc">   -233.44515023 </i>
    <i name="pawpsdc">   4085.02510521 </i>
    <i name="pawaedc">  -3500.98786009 </i>
    <i name="eentropy">     -0.19964819 </i>
    <i name="bandstr">  -1383.88474276 </i>
    <i name="atom">   6761.44252427 </i>
    <i name="e_fr_energy">   -191.59093941 </i>
    <i name="e_wo_entrp">   -191.39129122 </i>
    <i name="e_0_energy">   -191.49111532 </i>
   </energy>
  </scstep>
  <structure>
   <crystal>
    <varray name="basis" >
     <v>       8.31130616       4.76824647       0.00000000 </v>
     <v>      -8.31313558       4.77141616       0.00000000 </v>
     <v>       0.00000000       0.00000000      30.00000000 </v>
    </varray>
    <i name="volume">   2378.87339810 </i>
    <varray name="rec_basis" >
     <v>       0.06017238       0.10483705       0.00000000 </v>
     <v>      -0.06013241       0.10481398       0.00000000 </v>
     <v>       0.00000000       0.00000000       0.03333333 </v>
    </varray>
   </crystal>
   <varray name="positions" >
    <v>       0.99790162       0.33819308      -0.00013207 </v>
    <v>       0.33137819       0.67132176      -0.00002812 </v>
    <v>       0.66382600      -0.00305964       0.00055527 </v>
    <v>       0.32053338      -0.00320044       0.00004091 </v>
    <v>      -0.00184480       0.67902904      -0.00018075 </v>
    <v>       0.67520043       0.65958936       0.00002848 </v>
    <v>       0.00119587      -0.01669019       0.00008084 </v>
    <v>       0.34703441       0.33359314      -0.00025102 </v>
    <v>       0.66251392       0.34276396      -0.00013527 </v>
    <v>       0.10882610       0.22282375       0.95118287 </v>
    <v>       0.22042390       0.11180844       0.05335147 </v>
    <v>       0.11377374       0.55427202       0.95033925 </v>
    <v>       0.22102228       0.44697058       0.04890177 </v>
    <v>       0.11051673       0.88876848       0.94464268 </v>
    <v>       0.22417516       0.77418856       0.05156332 </v>
    <v>       0.44547295       0.22158256       0.94641389 </v>
    <v>       0.55800041       0.10960468       0.04981652 </v>
    <v>       0.44221473       0.55825581       0.94982003 </v>
    <v>       0.55566568       0.44433473       0.05468957 </v>
    <v>       0.44636606       0.88595545       0.95000201 </v>
    <v>       0.55286568       0.77929529       0.04927958 </v>
    <v>       0.77897755       0.21998399       0.95083296 </v>
    <v>       0.88732973       0.11210120       0.04838987 </v>
    <v>       0.77903152       0.55453296       0.94551295 </v>
    <v>       0.89082626       0.44260822       0.05066292 </v>
    <v>       0.77615849       0.89153204       0.94933064 </v>
    <v>       0.88882842       0.77805560       0.05528935 </v>
   </varray>
  </structure>
  <varray name="forces" >
   <v>      -0.36875097      -0.04439395      -0.02142515 </v>
   <v>      -0.26864472      -0.03019360       0.02505311 </v>
   <v>       0.08580816       0.04530966       0.07564658 </v>
   <v>      -0.24955177      -0.21388695      -0.02262082 </v>
   <v>      -0.13697104       0.11534724       0.01778321 </v>
   <v>       0.34209707      -0.09984234       0.01799365 </v>
   <v>       0.31048129      -0.20654568      -0.02619907 </v>
   <v>       0.41055303       0.29739279       0.00921639 </v>
   <v>      -0.32360176       0.11131957      -0.00584994 </v>
   <v>       0.12697985       0.00514936       0.27907223 </v>
   <v>      -0.05106964      -0.00707074       0.07530826 </v>
   <v>      -0.10608983       0.03232817      -0.07251469 </v>
   <v>       0.09314562       0.01982911      -0.13118934 </v>
   <v>      -0.00314567      -0.01865614      -0.24681622 </v>
   <v>      -0.11501445      -0.00867328       0.06386051 </v>
   <v>       0.08981124      -0.02603230      -0.15742083 </v>
   <v>      -0.12898024      -0.02943775      -0.14969994 </v>
   <v>       0.09590900       0.06267477       0.07792077 </v>
   <v>       0.03475067       0.04120339       0.29109589 </v>
   <v>      -0.08890907      -0.00756749       0.00434428 </v>
   <v>       0.11107202      -0.02909170      -0.08088282 </v>
   <v>      -0.10032508      -0.02027046      -0.01438846 </v>
   <v>       0.12682777       0.01093490      -0.08205643 </v>
   <v>       0.07123303       0.06737806      -0.18592035 </v>
   <v>      -0.11814909       0.03579539       0.03157653 </v>
   <v>       0.12735184      -0.05764400       0.02894985 </v>
   <v>       0.03318273      -0.04535603       0.19916278 </v>
  </varray>
  <varray name="stress" >
   <v>      -0.26604880       0.02986339      -0.25358083 </v>
   <v>       0.02986347      -0.34789814      -0.05678127 </v>
   <v>      -0.25358085      -0.05678120      -0.69139442 </v>
  </varray>
  <energy>
   <i name="e_fr_energy">   -191.59093941 </i>
   <i name="e_wo_entrp">   -191.49111532 </i>
   <i name="e_0_energy">     -0.19964819 </i>
  </energy>
  <time name="totalsc">  284.40  285.16</time>
 </calculation>
 <calculation>
  <scstep>
   <time name="dav">   21.76   21.81</time>
   <time name="total">   22.27   22.33</time>
   <energy>
    <i name="alphaZ">     90.23710016 </i>
    <i name="ewald">  44667.54941701 </i>
    <i name="hartreedc"> -50680.21713776 </i>
    <i name="XCdc">   -233.35151431 </i>
    <i name="pawpsdc">   4084.64955974 </i>
    <i name="pawaedc">  -3500.60853534 </i>
    <i name="eentropy">     -0.19574927 </i>
    <i name="bandstr">  -1381.18272468 </i>
    <i name="atom">   6761.44252427 </i>
    <i name="e_fr_energy">   -191.67706017 </i>
    <i name="e_wo_entrp">   -191.48131090 </i>
    <i name="e_0_energy">   -191.57918554 </i>
   </energy>
  </scstep>
  <scstep>
   <time name="dav">   31.09   31.16</time>
   <time name="total">   31.59   31.68</time>
   <energy>
    <i name="e_fr_energy">   -191.77814261 </i>
    <i name="e_wo_entrp">   -191.56038962 </i>
    <i name="e_0_energy">   -191.66926612 </i>
   </energy>
  </scstep>
  <scstep>
   <time name="dav">   30.38   30.45</time>
   <time name="total">   30.89   30.97</time>
   <energy>
    <i name="e_fr_energy">   -191.68879307 </i>
    <i name="e_wo_entrp">   -191.49004692 </i>
    <i name="e_0_energy">   -191.58942000 </i>
   </energy>
  </scstep>
  <scstep>
   <time name="dav">   28.71   28.78</time>
   <time name="total">   29.21   29.29</time>
   <energy>
    <i name="e_fr_energy">   -191.69362520 </i>
    <i name="e_wo_entrp">   -191.49519975 </i>
    <i name="e_0_energy">   -191.59441247 </i>
   </energy>
  </scstep>
  <scstep>
   <time name="dav">   28.87   28.94</time>
   <time name="total">   29.38   29.45</time>
   <energy>
    <i name="e_fr_energy">   -191.68322690 </i>
    <i name="e_wo_entrp">   -191.48229391 </i>
    <i name="e_0_energy">   -191.58276041 </i>
   </energy>
  </scstep>
  <scstep>
   <time name="dav">   28.60   28.67</time>
   <time name="total">   29.11   29.19</time>
   <energy>
    <i name="e_fr_energy">   -191.68325442 </i>
    <i name="e_wo_entrp">   -191.48287920 </i>
    <i name="e_0_energy">   -191.58306681 </i>
   </energy>
  </scstep>
  <scstep>
   <time name="dav">   28.55   28.61</time>
   <time name="total">   29.05   29.13</time>
   <energy>
    <i name="e_fr_energy">   -191.68308265 </i>
    <i name="e_wo_entrp">   -191.48087290 </i>
    <i name="e_0_energy">   -191.58197777 </i>
   </energy>
  </scstep>
  <scstep>
   <time name="dav">   25.70   25.76</time>
   <time name="total">   26.21   26.28</time>
   <energy>
    <i name="e_fr_energy">   -191.68219427 </i>
    <i name="e_wo_entrp">   -191.48096800 </i>
    <i name="e_0_energy">   -191.58158113 </i>
   </energy>
  </scstep>
  <scstep>
   <time name="dav">   18.62   18.67</time>
   <time name="total">   18.66   18.71</time>
   <energy>
    <i name="alphaZ">     90.23710016 </i>
    <i name="ewald">  44667.54941701 </i>
    <i name="hartreedc"> -50678.78887076 </i>
    <i name="XCdc">   -233.40368895 </i>
[...]
      <set comment="kpoint 31">
       <r>  -17.4909    1.0000 </r>
       <r>  -17.2869    1.0000 </r>
       <r>  -16.9107    1.0000 </r>
       <r>  -16.6653    1.0000 </r>
       <r>  -16.5010    1.0000 </r>
       <r>  -16.4256    1.0000 </r>
       <r>  -16.2827    1.0000 </r>
       <r>  -16.2227    1.0000 </r>
       <r>  -16.1519    1.0000 </r>
       <r>  -16.1030    1.0000 </r>
       <r>  -15.9198    1.0000 </r>
       <r>  -15.8165    1.0000 </r>
       <r>  -15.7540    1.0000 </r>
       <r>  -15.6713    1.0000 </r>
       <r>  -15.6045    1.0000 </r>
       <r>  -15.4960    1.0000 </r>
       <r>  -15.3646    1.0000 </r>
       <r>  -15.2764    1.0000 </r>
       <r>   -9.7607    1.0000 </r>
       <r>   -9.5041    1.0000 </r>
       <r>   -9.3147    1.0000 </r>
       <r>   -8.9713    1.0000 </r>
       <r>   -8.8002    1.0000 </r>
       <r>   -8.6451    1.0000 </r>
       <r>   -8.6028    1.0000 </r>
       <r>   -8.4998    1.0000 </r>
       <r>   -8.4039    1.0000 </r>
       <r>   -8.3483    1.0000 </r>
       <r>   -8.2729    1.0000 </r>
       <r>   -8.1771    1.0000 </r>
       <r>   -8.1019    1.0000 </r>
       <r>   -8.0591    1.0000 </r>
       <r>   -7.9962    1.0000 </r>
       <r>   -7.8985    1.0000 </r>
       <r>   -7.7815    1.0000 </r>
       <r>   -7.6965    1.0000 </r>
       <r>   -7.5501    1.0000 </r>
       <r>   -7.4312    1.0000 </r>
       <r>   -7.3617    1.0000 </r>
       <r>   -7.2486    1.0000 </r>
       <r>   -7.0995    1.0000 </r>
       <r>   -7.0376    1.0000 </r>
       <r>   -7.0187    1.0000 </r>
       <r>   -6.9626    1.0000 </r>
       <r>   -6.8383    1.0000 </r>
       <r>   -6.8058    1.0000 </r>
       <r>   -6.6797    1.0000 </r>
       <r>   -6.6166    1.0000 </r>
       <r>   -6.5295    1.0000 </r>
       <r>   -6.4610    1.0000 </r>
       <r>   -6.4346    1.0000 </r>
       <r>   -6.3083    1.0000 </r>
       <r>   -6.2875    1.0000 </r>
       <r>   -6.2025    1.0000 </r>
       <r>   -6.1306    1.0000 </r>
       <r>   -6.1135    1.0000 </r>
       <r>   -6.0505    1.0000 </r>
       <r>   -5.9269    1.0000 </r>
       <r>   -5.8666    1.0000 </r>
       <r>   -5.8116    1.0000 </r>
       <r>   -5.7554    1.0000 </r>
       <r>   -5.6771    1.0000 </r>
       <r>   -5.5330    1.0000 </r>
       <r>   -5.3375    1.0000 </r>
       <r>   -5.2255    1.0000 </r>
       <r>   -5.1764    1.0000 </r>
       <r>   -5.0987    1.0000 </r>
       <r>   -4.9362    1.0000 </r>
       <r>   -4.7813    1.0000 </r>
       <r>   -4.6468    1.0000 </r>
       <r>   -4.5018    1.0000 </r>
       <r>   -4.4370    1.0000 </r>
       <r>   -4.2960    1.0000 </r>
       <r>   -4.2623    1.0000 </r>
       <r>   -4.1719    1.0000 </r>
       <r>   -4.1130    1.0000 </r>
       <r>   -3.9122    1.0000 </r>
       <r>   -3.7460    0.9975 </r>
       <r>   -3.6066    0.9653 </r>
       <r>   -3.3930    0.6200 </r>
       <r>   -2.9240    0.0013 </r>
       <r>   -2.7657    0.0000 </r>
       <r>   -2.6685    0.0000 </r>
       <r>   -2.5848    0.0000 </r>
       <r>   -2.5205    0.0000 </r>
       <r>   -2.4094    0.0000 </r>
       <r>   -2.3173    0.0000 </r>
       <r>   -2.2458    0.0000 </r>
       <r>   -2.1022    0.0000 </r>
       <r>   -2.0236    0.0000 </r>
       <r>   -1.7303    0.0000 </r>
       <r>   -1.4805    0.0000 </r>
       <r>   -1.3895    0.0000 </r>
       <r>   -1.3071    0.0000 </r>
       <r>   -1.2551    0.0000 </r>
       <r>   -1.1460    0.0000 </r>
       <r>   -1.1169    0.0000 </r>
       <r>   -1.0040    0.0000 </r>
       <r>   -0.9515    0.0000 </r>
       <r>   -0.8670    0.0000 </r>
       <r>   -0.7985    0.0000 </r>
       <r>   -0.7367    0.0000 </r>
       <r>   -0.6871    0.0000 </r>
       <r>   -0.5491    0.0000 </r>
       <r>   -0.4674    0.0000 </r>
       <r>   -0.2905    0.0000 </r>
       <r>   -0.2366    0.0000 </r>
       <r>   -0.1096    0.0000 </r>
       <r>    0.0186    0.0000 </r>
       <r>    0.2059    0.0000 </r>
       <r>    0.3306    0.0000 </r>
       <r>    0.5143    0.0000 </r>
       <r>    0.7743    0.0000 </r>
       <r>    0.8679    0.0000 </r>
       <r>    1.0671    0.0000 </r>
       <r>    1.2475    0.0000 </r>
       <r>    1.3879    0.0000 </r>
       <r>    2.1285    0.0000 </r>
       <r>    2.2906    0.0000 </r>
       <r>    2.3959    0.0000 </r>
      </set>
      <set comment="kpoint 32">
       <r>  -17.5253    1.0000 </r>
       <r>  -17.1659    1.0000 </r>
       <r>  -17.0513    1.0000 </r>
       <r>  -16.6713    1.0000 </r>
       <r>  -16.4170    1.0000 </r>
       <r>  -16.3316    1.0000 </r>
       <r>  -16.3085    1.0000 </r>
       <r>  -16.2556    1.0000 </r>
       <r>  -16.1907    1.0000 </r>
       <r>  -16.0865    1.0000 </r>
       <r>  -15.9429    1.0000 </r>
       <r>  -15.8382    1.0000 </r>
       <r>  -15.7585    1.0000 </r>
       <r>  -15.6790    1.0000 </r>
       <r>  -15.6094    1.0000 </r>
       <r>  -15.4839    1.0000 </r>
       <r>  -15.3567    1.0000 </r>
       <r>  -15.2754    1.0000 </r>
       <r>   -9.6439    1.0000 </r>
       <r>   -9.5830    1.0000 </r>
       <r>   -9.4001    1.0000 </r>
       <r>   -9.0092    1.0000 </r>
       <r>   -8.7477    1.0000 </r>
       <r>   -8.5667    1.0000 </r>
       <r>   -8.4968    1.0000 </r>
       <r>   -8.4575    1.0000 </r>
       <r>   -8.3872    1.0000 </r>
       <r>   -8.3511    1.0000 </r>
       <r>   -8.2925    1.0000 </r>
       <r>   -8.2061    1.0000 </r>
       <r>   -8.1392    1.0000 </r>
       <r>   -8.0970    1.0000 </r>
       <r>   -8.0462    1.0000 </r>
       <r>   -7.9707    1.0000 </r>
       <r>   -7.7963    1.0000 </r>
       <r>   -7.6505    1.0000 </r>
       <r>   -7.5045    1.0000 </r>
       <r>   -7.4195    1.0000 </r>
       <r>   -7.3847    1.0000 </r>
       <r>   -7.3232    1.0000 </r>
       <r>   -7.1238    1.0000 </r>
       <r>   -7.0495    1.0000 </r>
       <r>   -6.9827    1.0000 </r>
       <r>   -6.9453    1.0000 </r>
       <r>   -6.8521    1.0000 </r>
       <r>   -6.7857    1.0000 </r>
       <r>   -6.7199    1.0000 </r>
       <r>   -6.6199    1.0000 </r>
       <r>   -6.5188    1.0000 </r>
       <r>   -6.4722    1.0000 </r>
       <r>   -6.4272    1.0000 </r>
       <r>   -6.3420    1.0000 </r>
       <r>   -6.3243    1.0000 </r>
       <r>   -6.1738    1.0000 </r>
       <r>   -6.1416    1.0000 </r>
       <r>   -6.1021    1.0000 </r>
       <r>   -5.9698    1.0000 </r>
       <r>   -5.9043    1.0000 </r>
       <r>   -5.8673    1.0000 </r>
       <r>   -5.7721    1.0000 </r>
       <r>   -5.6726    1.0000 </r>
       <r>   -5.6403    1.0000 </r>
       <r>   -5.5217    1.0000 </r>
       <r>   -5.4277    1.0000 </r>
       <r>   -5.3052    1.0000 </r>
       <r>   -5.1738    1.0000 </r>
       <r>   -5.0642    1.0000 </r>
       <r>   -4.9588    1.0000 </r>
       <r>   -4.7848    1.0000 </r>
       <r>   -4.6527    1.0000 </r>
       <r>   -4.5273    1.0000 </r>
       <r>   -4.4157    1.0000 </r>
       <r>   -4.3188    1.0000 </r>
       <r>   -4.2516    1.0000 </r>
       <r>   -4.1653    1.0000 </r>
       <r>   -4.1020    1.0000 </r>
       <r>   -3.9834    1.0000 </r>
       <r>   -3.7892    0.9991 </r>
       <r>   -3.5125    0.8751 </r>
       <r>   -3.3792    0.5825 </r>
       <r>   -3.0284    0.0115 </r>
       <r>   -2.7336    0.0000 </r>
       <r>   -2.6127    0.0000 </r>
       <r>   -2.5544    0.0000 </r>
       <r>   -2.4724    0.0000 </r>
       <r>   -2.3813    0.0000 </r>
       <r>   -2.2804    0.0000 </r>
       <r>   -2.2179    0.0000 </r>
       <r>   -2.0851    0.0000 </r>
       <r>   -2.0137    0.0000 </r>
       <r>   -1.8172    0.0000 </r>
       <r>   -1.5054    0.0000 </r>
       <r>   -1.4272    0.0000 </r>
       <r>   -1.3183    0.0000 </r>
       <r>   -1.2562    0.0000 </r>
       <r>   -1.1513    0.0000 </r>
       <r>   -1.0791    0.0000 </r>
       <r>   -1.0438    0.0000 </r>
       <r>   -0.9753    0.0000 </r>
       <r>   -0.9034    0.0000 </r>
       <r>   -0.8152    0.0000 </r>
       <r>   -0.7526    0.0000 </r>
       <r>   -0.6648    0.0000 </r>
       <r>   -0.5567    0.0000 </r>
       <r>   -0.4519    0.0000 </r>
       <r>   -0.2724    0.0000 </r>
       <r>   -0.2337    0.0000 </r>
       <r>   -0.1418    0.0000 </r>
       <r>    0.0068    0.0000 </r>
       <r>    0.2270    0.0000 </r>
       <r>    0.3057    0.0000 </r>
       <r>    0.5321    0.0000 </r>
       <r>    0.8225    0.0000 </r>
       <r>    0.8929    0.0000 </r>
       <r>    1.0434    0.0000 </r>
       <r>    1.2394    0.0000 </r>
       <r>    1.3373    0.0000 </r>
       <r>    2.0924    0.0000 </r>
       <r>    2.2600    0.0000 </r>
       <r>    2.5562    0.0000 </r>
      </set>
      <set comment="kpoint 33">
       <r>  -17.5275    1.0000 </r>
       <r>  -17.2311    1.0000 </r>
       <r>  -16.9310    1.0000 </r>
       <r>  -16.6766    1.0000 </r>
       <r>  -16.5035    1.0000 </r>
       <r>  -16.3589    1.0000 </r>
       <r>  -16.3291    1.0000 </r>
       <r>  -16.2402    1.0000 </r>
       <r>  -16.0998    1.0000 </r>
       <r>  -16.0580    1.0000 </r>
       <r>  -15.9632    1.0000 </r>
       <r>  -15.8510    1.0000 </r>
       <r>  -15.7686    1.0000 </r>
       <r>  -15.6909    1.0000 </r>
       <r>  -15.5913    1.0000 </r>
       <r>  -15.4756    1.0000 </r>
       <r>  -15.3841    1.0000 </r>
       <r>  -15.2712    1.0000 </r>
       <r>   -9.6951    1.0000 </r>
       <r>   -9.4446    1.0000 </r>
       <r>   -9.3223    1.0000 </r>
       <r>   -9.0590    1.0000 </r>
       <r>   -8.9054    1.0000 </r>
       <r>   -8.7361    1.0000 </r>
       <r>   -8.4604    1.0000 </r>
       <r>   -8.4266    1.0000 </r>
       <r>   -8.3917    1.0000 </r>
       <r>   -8.3061    1.0000 </r>
       <r>   -8.2429    1.0000 </r>
       <r>   -8.2037    1.0000 </r>
       <r>   -8.1499    1.0000 </r>
       <r>   -8.0741    1.0000 </r>
       <r>   -8.0455    1.0000 </r>
       <r>   -7.8606    1.0000 </r>
       <r>   -7.7806    1.0000 </r>
       <r>   -7.6811    1.0000 </r>
       <r>   -7.4956    1.0000 </r>
       <r>   -7.4549    1.0000 </r>
       <r>   -7.3753    1.0000 </r>
       <r>   -7.2363    1.0000 </r>
       <r>   -7.1582    1.0000 </r>
       <r>   -7.0910    1.0000 </r>
       <r>   -7.0228    1.0000 </r>
       <r>   -6.9663    1.0000 </r>
       <r>   -6.8659    1.0000 </r>
       <r>   -6.7758    1.0000 </r>
       <r>   -6.6523    1.0000 </r>
       <r>   -6.5998    1.0000 </r>
       <r>   -6.5359    1.0000 </r>
       <r>   -6.4542    1.0000 </r>
       <r>   -6.4201    1.0000 </r>
       <r>   -6.3610    1.0000 </r>
       <r>   -6.2967    1.0000 </r>
       <r>   -6.2022    1.0000 </r>
       <r>   -6.1247    1.0000 </r>
       <r>   -6.0960    1.0000 </r>
       <r>   -6.0369    1.0000 </r>
       <r>   -5.9312    1.0000 </r>
       <r>   -5.8873    1.0000 </r>
       <r>   -5.8178    1.0000 </r>
       <r>   -5.7334    1.0000 </r>
       <r>   -5.6330    1.0000 </r>
       <r>   -5.5930    1.0000 </r>
       <r>   -5.4172    1.0000 </r>
       <r>   -5.2951    1.0000 </r>
       <r>   -5.0896    1.0000 </r>
       <r>   -5.0188    1.0000 </r>
       <r>   -4.8129    1.0000 </r>
       <r>   -4.7643    1.0000 </r>
       <r>   -4.6310    1.0000 </r>
       <r>   -4.5494    1.0000 </r>
       <r>   -4.4482    1.0000 </r>
       <r>   -4.3406    1.0000 </r>
       <r>   -4.2338    1.0000 </r>
       <r>   -4.1557    1.0000 </r>
       <r>   -4.1237    1.0000 </r>
       <r>   -4.0437    1.0000 </r>
       <r>   -3.8589    0.9998 </r>
       <r>   -3.4749    0.8119 </r>
       <r>   -3.3432    0.4814 </r>
       <r>   -3.1239    0.0551 </r>
       <r>   -2.6986    0.0000 </r>
       <r>   -2.5821    0.0000 </r>
       <r>   -2.5221    0.0000 </r>
       <r>   -2.4098    0.0000 </r>
       <r>   -2.3733    0.0000 </r>
       <r>   -2.2476    0.0000 </r>
       <r>   -2.1904    0.0000 </r>
       <r>   -2.0841    0.0000 </r>
       <r>   -1.9679    0.0000 </r>
       <r>   -1.8690    0.0000 </r>
       <r>   -1.5325    0.0000 </r>
       <r>   -1.4605    0.0000 </r>
       <r>   -1.3290    0.0000 </r>
       <r>   -1.2804    0.0000 </r>
       <r>   -1.1713    0.0000 </r>
       <r>   -1.0807    0.0000 </r>
       <r>   -1.0171    0.0000 </r>
       <r>   -0.9538    0.0000 </r>
       <r>   -0.9195    0.0000 </r>
       <r>   -0.8925    0.0000 </r>
       <r>   -0.7715    0.0000 </r>
       <r>   -0.6820    0.0000 </r>
       <r>   -0.5540    0.0000 </r>
       <r>   -0.4890    0.0000 </r>
       <r>   -0.2997    0.0000 </r>
       <r>   -0.1960    0.0000 </r>
       <r>   -0.1143    0.0000 </r>
       <r>    0.0025    0.0000 </r>
       <r>    0.1417    0.0000 </r>
       <r>    0.3702    0.0000 </r>
       <r>    0.5306    0.0000 </r>
       <r>    0.8203    0.0000 </r>
       <r>    0.9384    0.0000 </r>
       <r>    1.0337    0.0000 </r>
       <r>    1.2726    0.0000 </r>
       <r>    1.3524    0.0000 </r>
       <r>    2.1170    0.0000 </r>
       <r>    2.2849    0.0000 </r>
       <r>    2.3639    0.0000 </r>
      </set>
      <set comment="kpoint 34">
       <r>  -17.5203    1.0000 </r>
       <r>  -17.2788    1.0000 </r>
       <r>  -16.7846    1.0000 </r>
       <r>  -16.6786    1.0000 </r>
       <r>  -16.6503    1.0000 </r>
       <r>  -16.3474    1.0000 </r>
       <r>  -16.3299    1.0000 </r>
       <r>  -16.2597    1.0000 </r>
       <r>  -16.0613    1.0000 </r>
       <r>  -16.0148    1.0000 </r>
       <r>  -15.9678    1.0000 </r>
       <r>  -15.8585    1.0000 </r>
       <r>  -15.7822    1.0000 </r>
       <r>  -15.6928    1.0000 </r>
       <r>  -15.5825    1.0000 </r>
       <r>  -15.4609    1.0000 </r>
       <r>  -15.4130    1.0000 </r>
       <r>  -15.2704    1.0000 </r>
       <r>   -9.7306    1.0000 </r>
       <r>   -9.2698    1.0000 </r>
       <r>   -9.2555    1.0000 </r>
       <r>   -9.1040    1.0000 </r>
       <r>   -9.0251    1.0000 </r>
       <r>   -8.8962    1.0000 </r>
       <r>   -8.4653    1.0000 </r>
       <r>   -8.4225    1.0000 </r>
       <r>   -8.4018    1.0000 </r>
       <r>   -8.2722    1.0000 </r>
       <r>   -8.2375    1.0000 </r>
       <r>   -8.1661    1.0000 </r>
       <r>   -8.1345    1.0000 </r>
       <r>   -8.1144    1.0000 </r>
       <r>   -7.9488    1.0000 </r>
       <r>   -7.8930    1.0000 </r>
       <r>   -7.8012    1.0000 </r>
       <r>   -7.5465    1.0000 </r>
       <r>   -7.4990    1.0000 </r>
       <r>   -7.4232    1.0000 </r>
       <r>   -7.3801    1.0000 </r>
       <r>   -7.2996    1.0000 </r>
       <r>   -7.1621    1.0000 </r>
       <r>   -7.1180    1.0000 </r>
       <r>   -7.0507    1.0000 </r>
       <r>   -6.9744    1.0000 </r>
       <r>   -6.8675    1.0000 </r>
       <r>   -6.7714    1.0000 </r>
       <r>   -6.6081    1.0000 </r>
       <r>   -6.5479    1.0000 </r>
       <r>   -6.5298    1.0000 </r>
       <r>   -6.4543    1.0000 </r>
       <r>   -6.4204    1.0000 </r>
       <r>   -6.3312    1.0000 </r>
       <r>   -6.2679    1.0000 </r>
       <r>   -6.2329    1.0000 </r>
       <r>   -6.2272    1.0000 </r>
       <r>   -6.1163    1.0000 </r>
       <r>   -6.0544    1.0000 </r>
       <r>   -5.9444    1.0000 </r>
       <r>   -5.8969    1.0000 </r>
       <r>   -5.8492    1.0000 </r>
       <r>   -5.7489    1.0000 </r>
       <r>   -5.6589    1.0000 </r>
       <r>   -5.5650    1.0000 </r>
       <r>   -5.5125    1.0000 </r>
       <r>   -5.2217    1.0000 </r>
       <r>   -5.0977    1.0000 </r>
       <r>   -4.9202    1.0000 </r>
       <r>   -4.7592    1.0000 </r>
       <r>   -4.6850    1.0000 </r>
       <r>   -4.6409    1.0000 </r>
       <r>   -4.5465    1.0000 </r>
       <r>   -4.4998    1.0000 </r>
       <r>   -4.3455    1.0000 </r>
       <r>   -4.2287    1.0000 </r>
       <r>   -4.1711    1.0000 </r>
       <r>   -4.1437    1.0000 </r>
       <r>   -4.0479    1.0000 </r>
       <r>   -3.8900    0.9999 </r>
       <r>   -3.4698    0.8020 </r>
       <r>   -3.3478    0.4944 </r>
       <r>   -3.1486    0.0774 </r>
       <r>   -2.6854    0.0000 </r>
       <r>   -2.5496    0.0000 </r>
       <r>   -2.5312    0.0000 </r>
       <r>   -2.3853    0.0000 </r>
       <r>   -2.3707    0.0000 </r>
       <r>   -2.2426    0.0000 </r>
       <r>   -2.1627    0.0000 </r>
       <r>   -2.0967    0.0000 </r>
       <r>   -1.9402    0.0000 </r>
       <r>   -1.8797    0.0000 </r>
       <r>   -1.5487    0.0000 </r>
       <r>   -1.4660    0.0000 </r>
       <r>   -1.3322    0.0000 </r>
       <r>   -1.2941    0.0000 </r>
       <r>   -1.1928    0.0000 </r>
       <r>   -1.0470    0.0000 </r>
       <r>   -0.9938    0.0000 </r>
       <r>   -0.9698    0.0000 </r>
       <r>   -0.9576    0.0000 </r>
       <r>   -0.9042    0.0000 </r>
       <r>   -0.7560    0.0000 </r>
       <r>   -0.7200    0.0000 </r>
       <r>   -0.5494    0.0000 </r>
       <r>   -0.5064    0.0000 </r>
       <r>   -0.3617    0.0000 </r>
       <r>   -0.1271    0.0000 </r>
       <r>   -0.0687    0.0000 </r>
       <r>   -0.0294    0.0000 </r>
       <r>    0.0966    0.0000 </r>
       <r>    0.4072    0.0000 </r>
       <r>    0.5015    0.0000 </r>
       <r>    0.8271    0.0000 </r>
       <r>    0.9369    0.0000 </r>
       <r>    1.0572    0.0000 </r>
       <r>    1.2853    0.0000 </r>
       <r>    1.3841    0.0000 </r>
       <r>    2.1848    0.0000 </r>
       <r>    2.2237    0.0000 </r>
       <r>    2.3642    0.0000 </r>
      </set>
     </set>
    </set>
   </array>
  </eigenvalues>
  <separator name="orbital magnetization" >
   <v name="MAGDIPOLOUT">      0.00000000      0.00000000      0.00000000</v>
  </separator>
 </calculation>
 <structure name="finalpos" >
  <crystal>
   <varray name="basis" >
    <v>       8.39427525       4.82627048       0.00000000 </v>
    <v>      -8.38288949       4.80627860       0.00000000 </v>
    <v>       0.00000000       0.00000000      30.00000000 </v>
   </varray>
   <i name="volume">   2424.09952550 </i>
   <varray name="rec_basis" >
    <v>       0.05948120       0.10374437       0.00000000 </v>
    <v>      -0.05972862       0.10388528       0.00000000 </v>
    <v>       0.00000000       0.00000000       0.03333333 </v>
   </varray>
  </crystal>
  <varray name="positions" >
   <v>       0.98386168       0.35353215      -0.00173356 </v>
   <v>       0.31124030       0.68375479      -0.00185411 </v>
   <v>       0.68183467      -0.02414014       0.00297880 </v>
   <v>       0.30049628      -0.01151855      -0.00085227 </v>
   <v>      -0.00377112       0.67442306      -0.00060963 </v>
   <v>       0.68474682       0.65830641       0.00087397 </v>
   <v>      -0.00735073      -0.03019209       0.00019884 </v>
   <v>       0.36591808       0.33149998       0.00184022 </v>
   <v>       0.67704297       0.36136255      -0.00028962 </v>
   <v>       0.11157154       0.22545670       0.95909330 </v>
   <v>       0.21686922       0.11193259       0.05339554 </v>
   <v>       0.11109177       0.55867850       0.94731597 </v>
   <v>       0.22339477       0.45004080       0.04324950 </v>
   <v>       0.10465297       0.88560148       0.94255835 </v>
   <v>       0.21915150       0.77903995       0.05289831 </v>
   <v>       0.45069363       0.22134971       0.94681487 </v>
   <v>       0.55799403       0.10617395       0.04047859 </v>
   <v>       0.44055125       0.55923709       0.95536471 </v>
   <v>       0.56311205       0.44573369       0.05761701 </v>
   <v>       0.44922204       0.89267142       0.95210029 </v>
   <v>       0.54736195       0.76868000       0.04822651 </v>
   <v>       0.77726824       0.21848662       0.95197801 </v>
   <v>       0.89360486       0.11558673       0.04741259 </v>
   <v>       0.78193644       0.55695020       0.94312807 </v>
   <v>       0.88985706       0.44659928       0.05314530 </v>
   <v>       0.77665616       0.88351575       0.94746357 </v>
   <v>       0.88920602       0.77545183       0.05720678 </v>
  </varray>
 </structure>
</modeling>
