   27   27  100    1
  0.9710400E+02  0.1002848E-08  0.1002848E-08  0.3000000E-08  0.5000000E-15
  1.000000000000000E-004
  CAR 
 unknown system                          
    159     34    120
 
  0.0000000E+00  0.0000000E+00  0.0000000E+00  0.1562500E-01
    1      -17.786114   1.000000
    2      -16.664620   1.000000
    3      -16.601407   1.000000
    4      -16.560544   1.000000
    5      -16.502899   1.000000
    6      -16.452754   1.000000
    7      -16.428472   1.000000
    8      -16.348822   1.000000
    9      -16.150005   1.000000
   10      -16.120222   1.000000
   11      -16.039499   1.000000
   12      -15.979403   1.000000
   13      -15.886473   1.000000
   14      -15.745654   1.000000
   15      -15.625400   1.000000
   16      -15.532169   1.000000
   17      -15.390373   1.000000
   18      -15.287833   1.000000
   19       -9.220846   1.000000
   20       -8.925651   1.000000
   21       -8.847538   1.000000
   22       -8.826451   1.000000
   23       -8.729331   1.000000
   24       -8.707235   1.000000
   25       -8.676785   1.000000
   26       -8.611389   1.000000
   27       -8.544049   1.000000
   28       -8.452976   1.000000
   29       -8.437916   1.000000
   30       -8.351019   1.000000
   31       -8.292492   1.000000
   32       -8.185074   1.000000
   33       -8.085648   1.000000
   34       -7.955486   1.000000
   35       -7.840438   1.000000
   36       -7.814110   1.000000
   37       -7.745816   1.000000
   38       -7.544853   1.000000
   39       -7.450107   1.000000
   40       -7.389847   1.000000
   41       -7.297737   1.000000
   42       -7.269128   1.000000
   43       -7.143138   1.000000
   44       -6.955227   1.000000
   45       -6.795651   1.000000
   46       -6.775446   1.000000
   47       -6.734179   1.000000
   48       -6.648427   1.000000
   49       -6.533358   1.000000
   50       -6.457811   1.000000
   51       -6.444278   1.000000
   52       -6.382191   1.000000
   53       -6.325282   1.000000
   54       -6.229199   1.000000
   55       -6.204611   1.000000
   56       -6.160116   1.000000
   57       -6.068150   1.000000
   58       -5.851108   1.000000
   59       -5.732264   1.000000
   60       -5.548750   1.000000
   61       -5.503307   1.000000
   62       -5.477026   1.000000
   63       -5.336353   1.000000
   64       -5.165622   1.000000
   65       -5.121264   1.000000
   66       -5.017364   1.000000
   67       -4.926370   1.000000
   68       -4.910017   1.000000
   69       -4.806910   1.000000
   70       -4.772056   1.000000
   71       -4.654280   1.000000
   72       -4.605258   1.000000
   73       -4.555669   1.000000
   74       -4.273411   1.000000
   75       -4.144344   1.000000
   76       -3.966368   0.999999
   77       -3.732478   0.999298
   78       -3.669089   0.996981
   79       -3.498254   0.937946
   80       -3.445114   0.877383
   81       -3.282955   0.506130
   82       -2.744425   0.000075
   83       -2.673071   0.000009
   84       -2.643262   0.000003
   85       -2.469027   0.000000
   86       -2.371788   0.000000
   87       -2.277760   0.000000
   88       -2.261700   0.000000
   89       -2.186819   0.000000
   90       -2.074431   0.000000
   91       -1.877219   0.000000
   92       -1.854560   0.000000
   93       -1.483122   0.000000
   94       -1.337623   0.000000
   95       -1.233855   0.000000
   96       -1.149297   0.000000
   97       -0.917591   0.000000
   98       -0.825550   0.000000
   99       -0.702196   0.000000
  100       -0.659977   0.000000
  101       -0.570486   0.000000
  102       -0.502515   0.000000
  103       -0.449587   0.000000
  104       -0.408153   0.000000
  105       -0.330052   0.000000
  106       -0.127438   0.000000
  107       -0.018579   0.000000
  108       -0.007306   0.000000
  109        0.064000   0.000000
  110        0.251403   0.000000
  111        0.360840   0.000000
  112        0.403827   0.000000
  113        0.677281   0.000000
  114        0.837803   0.000000
  115        0.897263   0.000000
  116        1.175502   0.000000
  117        1.324989   0.000000
  118        1.639284   0.000000
  119        1.831001   0.000000
  120        2.137507   0.000000
 
  0.1250000E+00  0.2775558E-16  0.0000000E+00  0.3125000E-01
    1      -17.760590   1.000000
    2      -16.756251   1.000000
    3      -16.656491   1.000000
    4      -16.570022   1.000000
    5      -16.549102   1.000000
    6      -16.444473   1.000000
    7      -16.351429   1.000000
    8      -16.290357   1.000000
    9      -16.176643   1.000000
   10      -16.094766   1.000000
   11      -16.031011   1.000000
   12      -15.958772   1.000000
   13      -15.837574   1.000000
   14      -15.747984   1.000000
   15      -15.626228   1.000000
   16      -15.540811   1.000000
   17      -15.402555   1.000000
   18      -15.296050   1.000000
   19       -9.210204   1.000000
   20       -9.110615   1.000000
   21       -8.996086   1.000000
   22       -8.928098   1.000000
   23       -8.777537   1.000000
   24       -8.718341   1.000000
   25       -8.643316   1.000000
   26       -8.594208   1.000000
   27       -8.507518   1.000000
   28       -8.422111   1.000000
   29       -8.372633   1.000000
   30       -8.302541   1.000000
   31       -8.246719   1.000000
   32       -8.017076   1.000000
   33       -7.993365   1.000000
   34       -7.935297   1.000000
   35       -7.844256   1.000000
   36       -7.742244   1.000000
   37       -7.688025   1.000000
   38       -7.551822   1.000000
   39       -7.486680   1.000000
   40       -7.401630   1.000000
   41       -7.303335   1.000000
   42       -7.244359   1.000000
   43       -7.134447   1.000000
   44       -6.957644   1.000000
   45       -6.889767   1.000000
   46       -6.810728   1.000000
   47       -6.749090   1.000000
   48       -6.631751   1.000000
   49       -6.524914   1.000000
   50       -6.463460   1.000000
   51       -6.416056   1.000000
   52       -6.385280   1.000000
   53       -6.302950   1.000000
   54       -6.239126   1.000000
   55       -6.216726   1.000000
   56       -6.145743   1.000000
   57       -6.062486   1.000000
   58       -5.861627   1.000000
   59       -5.683412   1.000000
   60       -5.557160   1.000000
   61       -5.489498   1.000000
   62       -5.467361   1.000000
   63       -5.386756   1.000000
   64       -5.226918   1.000000
   65       -5.168045   1.000000
   66       -5.093780   1.000000
   67       -4.963891   1.000000
   68       -4.922521   1.000000
   69       -4.798247   1.000000
   70       -4.746627   1.000000
   71       -4.662896   1.000000
   72       -4.572647   1.000000
   73       -4.503074   1.000000
   74       -4.256714   1.000000
   75       -4.075593   1.000000
   76       -3.919290   0.999997
   77       -3.832053   0.999952
   78       -3.704337   0.998628
   79       -3.643393   0.994827
   80       -3.372903   0.742605
   81       -3.157507   0.191691
   82       -2.758386   0.000110
   83       -2.688539   0.000014
   84       -2.629682   0.000002
   85       -2.460513   0.000000
   86       -2.363338   0.000000
   87       -2.270490   0.000000
   88       -2.244773   0.000000
   89       -2.152090   0.000000
   90       -2.074179   0.000000
   91       -1.909856   0.000000
   92       -1.821482   0.000000
   93       -1.470766   0.000000
   94       -1.338477   0.000000
   95       -1.224739   0.000000
   96       -1.135277   0.000000
   97       -0.944030   0.000000
   98       -0.836874   0.000000
   99       -0.742179   0.000000
  100       -0.702025   0.000000
  101       -0.626785   0.000000
  102       -0.576539   0.000000
  103       -0.513842   0.000000
  104       -0.421679   0.000000
  105       -0.296543   0.000000
  106       -0.240871   0.000000
  107       -0.090099   0.000000
  108       -0.007093   0.000000
  109        0.079426   0.000000
  110        0.288851   0.000000
  111        0.396770   0.000000
  112        0.513697   0.000000
  113        0.703067   0.000000
  114        0.818766   0.000000
  115        0.902135   0.000000
  116        1.184959   0.000000
  117        1.292421   0.000000
  118        1.684195   0.000000
  119        1.868612   0.000000
  120        2.172734   0.000000
 
  0.2500000E+00  0.5551115E-16  0.0000000E+00  0.3125000E-01
    1      -17.684981   1.000000
    2      -16.970782   1.000000
    3      -16.681733   1.000000
    4      -16.634180   1.000000
    5      -16.580896   1.000000
    6      -16.417322   1.000000
    7      -16.270000   1.000000
    8      -16.233030   1.000000
    9      -16.154052   1.000000
   10      -16.106110   1.000000
   11      -15.996726   1.000000
   12      -15.894316   1.000000
   13      -15.764410   1.000000
   14      -15.744105   1.000000
   15      -15.616495   1.000000
   16      -15.563570   1.000000
   17      -15.437774   1.000000
   18      -15.312408   1.000000
   19       -9.462347   1.000000
   20       -9.191720   1.000000
   21       -9.103930   1.000000
   22       -9.031881   1.000000
   23       -8.842228   1.000000
   24       -8.809419   1.000000
   25       -8.670861   1.000000
   26       -8.536193   1.000000
   27       -8.469213   1.000000
   28       -8.382425   1.000000
   29       -8.271748   1.000000
   30       -8.168437   1.000000
   31       -8.099915   1.000000
   32       -8.029161   1.000000
   33       -7.909394   1.000000
   34       -7.878139   1.000000
   35       -7.746534   1.000000
   36       -7.694554   1.000000
   37       -7.563814   1.000000
   38       -7.541595   1.000000
   39       -7.433217   1.000000
   40       -7.345014   1.000000
   41       -7.297219   1.000000
   42       -7.221114   1.000000
   43       -7.087194   1.000000
   44       -6.987719   1.000000
   45       -6.909910   1.000000
   46       -6.846387   1.000000
   47       -6.740875   1.000000
   48       -6.646128   1.000000
   49       -6.595485   1.000000
   50       -6.487034   1.000000
   51       -6.412846   1.000000
   52       -6.369586   1.000000
   53       -6.257674   1.000000
   54       -6.211518   1.000000
   55       -6.172181   1.000000
   56       -6.127165   1.000000
   57       -6.039356   1.000000
   58       -5.877603   1.000000
   59       -5.721380   1.000000
   60       -5.634133   1.000000
   61       -5.560081   1.000000
   62       -5.529953   1.000000
   63       -5.466323   1.000000
   64       -5.321149   1.000000
   65       -5.268316   1.000000
   66       -5.080200   1.000000
   67       -5.031432   1.000000
   68       -4.875311   1.000000
   69       -4.841594   1.000000
   70       -4.751755   1.000000
   71       -4.558413   1.000000
   72       -4.499023   1.000000
   73       -4.411706   1.000000
   74       -4.237280   1.000000
   75       -4.171046   1.000000
   76       -4.037883   1.000000
   77       -3.922551   0.999997
   78       -3.715536   0.998945
   79       -3.546259   0.969755
   80       -3.275223   0.484322
   81       -3.040311   0.044529
   82       -2.784172   0.000223
   83       -2.716890   0.000033
   84       -2.597945   0.000001
   85       -2.474005   0.000000
   86       -2.359501   0.000000
   87       -2.279625   0.000000
   88       -2.158741   0.000000
   89       -2.098295   0.000000
   90       -2.057717   0.000000
   91       -1.920351   0.000000
   92       -1.777880   0.000000
   93       -1.450012   0.000000
   94       -1.338938   0.000000
   95       -1.203703   0.000000
   96       -1.124735   0.000000
   97       -1.024946   0.000000
   98       -0.897447   0.000000
   99       -0.848413   0.000000
  100       -0.796468   0.000000
  101       -0.735494   0.000000
  102       -0.648501   0.000000
  103       -0.594405   0.000000
  104       -0.468957   0.000000
  105       -0.413053   0.000000
  106       -0.279614   0.000000
  107       -0.168091   0.000000
  108       -0.088798   0.000000
  109        0.079621   0.000000
  110        0.300008   0.000000
  111        0.450022   0.000000
  112        0.625414   0.000000
  113        0.782178   0.000000
  114        0.847116   0.000000
  115        0.946411   0.000000
  116        1.201654   0.000000
  117        1.248562   0.000000
  118        1.808454   0.000000
  119        1.977517   0.000000
  120        2.277246   0.000000
 
  0.3750000E+00  0.0000000E+00  0.0000000E+00  0.3125000E-01
    1      -17.562682   1.000000
    2      -17.190781   1.000000
    3      -16.720531   1.000000
    4      -16.669288   1.000000
    5      -16.578912   1.000000
    6      -16.422909   1.000000
    7      -16.232073   1.000000
    8      -16.206003   1.000000
    9      -16.134916   1.000000
   10      -16.073171   1.000000
   11      -15.937782   1.000000
   12      -15.845725   1.000000
   13      -15.766638   1.000000
   14      -15.707334   1.000000
   15      -15.626500   1.000000
   16      -15.568551   1.000000
   17      -15.465458   1.000000
   18      -15.324622   1.000000
   19       -9.687239   1.000000
   20       -9.312662   1.000000
   21       -9.139130   1.000000
   22       -9.042542   1.000000
   23       -8.892715   1.000000
   24       -8.823332   1.000000
   25       -8.650497   1.000000
   26       -8.506352   1.000000
   27       -8.433004   1.000000
   28       -8.293372   1.000000
   29       -8.249389   1.000000
   30       -8.212562   1.000000
   31       -8.038054   1.000000
   32       -7.979769   1.000000
   33       -7.877068   1.000000
   34       -7.862549   1.000000
   35       -7.798351   1.000000
   36       -7.683451   1.000000
   37       -7.539019   1.000000
   38       -7.458357   1.000000
   39       -7.375100   1.000000
   40       -7.303252   1.000000
   41       -7.213438   1.000000
   42       -7.151846   1.000000
   43       -7.046288   1.000000
   44       -6.925645   1.000000
   45       -6.855244   1.000000
   46       -6.770342   1.000000
   47       -6.688789   1.000000
   48       -6.638043   1.000000
   49       -6.608451   1.000000
   50       -6.497510   1.000000
   51       -6.380872   1.000000
   52       -6.346882   1.000000
   53       -6.259828   1.000000
   54       -6.210343   1.000000
   55       -6.116879   1.000000
   56       -6.075768   1.000000
   57       -6.035529   1.000000
   58       -5.966476   1.000000
   59       -5.860709   1.000000
   60       -5.812326   1.000000
   61       -5.721357   1.000000
   62       -5.603633   1.000000
   63       -5.516774   1.000000
   64       -5.361670   1.000000
   65       -5.241029   1.000000
   66       -5.109704   1.000000
   67       -5.014557   1.000000
   68       -4.878448   1.000000
   69       -4.787493   1.000000
   70       -4.734818   1.000000
   71       -4.654664   1.000000
   72       -4.506156   1.000000
   73       -4.390069   1.000000
   74       -4.259732   1.000000
   75       -4.222513   1.000000
   76       -4.095685   1.000000
   77       -3.875631   0.999987
   78       -3.693936   0.998258
   79       -3.405578   0.811231
   80       -3.182690   0.243962
   81       -2.993052   0.020948
   82       -2.784048   0.000222
   83       -2.744571   0.000075
   84       -2.587550   0.000000
   85       -2.498644   0.000000
   86       -2.376315   0.000000
   87       -2.272454   0.000000
   88       -2.108827   0.000000
   89       -2.064896   0.000000
   90       -2.016973   0.000000
   91       -1.898317   0.000000
   92       -1.706318   0.000000
   93       -1.433385   0.000000
   94       -1.352520   0.000000
   95       -1.229395   0.000000
   96       -1.151354   0.000000
   97       -1.092942   0.000000
   98       -0.994492   0.000000
   99       -0.911656   0.000000
  100       -0.876974   0.000000
  101       -0.815543   0.000000
  102       -0.706252   0.000000
  103       -0.617358   0.000000
  104       -0.543116   0.000000
  105       -0.447788   0.000000
  106       -0.382343   0.000000
  107       -0.205105   0.000000
  108       -0.147634   0.000000
  109        0.039399   0.000000
  110        0.262053   0.000000
  111        0.461726   0.000000
  112        0.688130   0.000000
  113        0.791665   0.000000
  114        0.940787   0.000000
  115        1.049761   0.000000
  116        1.159577   0.000000
  117        1.291447   0.000000
  118        1.993378   0.000000
  119        2.149959   0.000000
  120        2.448436   0.000000
 
  0.5000000E+00  0.1110223E-15  0.0000000E+00  0.1562500E-01
    1      -17.425064   1.000000
    2      -17.362802   1.000000
    3      -16.736166   1.000000
    4      -16.681361   1.000000
    5      -16.573179   1.000000
    6      -16.430315   1.000000
    7      -16.226833   1.000000
    8      -16.196366   1.000000
    9      -16.128275   1.000000
   10      -16.051207   1.000000
   11      -15.906403   1.000000
   12      -15.819067   1.000000
   13      -15.758586   1.000000
   14      -15.711876   1.000000
   15      -15.653460   1.000000
   16      -15.571519   1.000000
   17      -15.460786   1.000000
   18      -15.328380   1.000000
   19       -9.767655   1.000000
   20       -9.355828   1.000000
   21       -9.172770   1.000000
   22       -9.048263   1.000000
   23       -8.906533   1.000000
   24       -8.731356   1.000000
   25       -8.648852   1.000000
   26       -8.598218   1.000000
   27       -8.382729   1.000000
   28       -8.313051   1.000000
   29       -8.211473   1.000000
   30       -8.136513   1.000000
   31       -8.088859   1.000000
   32       -7.979204   1.000000
   33       -7.871022   1.000000
   34       -7.866834   1.000000
   35       -7.793761   1.000000
   36       -7.687202   1.000000
   37       -7.603051   1.000000
   38       -7.435272   1.000000
   39       -7.389710   1.000000
   40       -7.301140   1.000000
   41       -7.116639   1.000000
   42       -7.062148   1.000000
   43       -6.981452   1.000000
   44       -6.884712   1.000000
   45       -6.828243   1.000000
   46       -6.712981   1.000000
   47       -6.690958   1.000000
   48       -6.624135   1.000000
   49       -6.586194   1.000000
   50       -6.512599   1.000000
   51       -6.434652   1.000000
   52       -6.329393   1.000000
   53       -6.251419   1.000000
   54       -6.203411   1.000000
   55       -6.156264   1.000000
   56       -6.068938   1.000000
   57       -6.037213   1.000000
   58       -5.966634   1.000000
   59       -5.893013   1.000000
   60       -5.788573   1.000000
   61       -5.759151   1.000000
   62       -5.687157   1.000000
   63       -5.483315   1.000000
   64       -5.390399   1.000000
   65       -5.358024   1.000000
   66       -5.128681   1.000000
   67       -5.070668   1.000000
   68       -4.886962   1.000000
   69       -4.819412   1.000000
   70       -4.669922   1.000000
   71       -4.632108   1.000000
   72       -4.507816   1.000000
   73       -4.420080   1.000000
   74       -4.309489   1.000000
   75       -4.205601   1.000000
   76       -4.044175   1.000000
   77       -3.861376   0.999980
   78       -3.698820   0.998442
   79       -3.338233   0.657718
   80       -3.141977   0.163174
   81       -2.989598   0.019748
   82       -2.772607   0.000163
   83       -2.758914   0.000112
   84       -2.588121   0.000000
   85       -2.514034   0.000000
   86       -2.385854   0.000000
   87       -2.265073   0.000000
   88       -2.117436   0.000000
   89       -2.031364   0.000000
   90       -1.994194   0.000000
   91       -1.885367   0.000000
   92       -1.674116   0.000000
   93       -1.413095   0.000000
   94       -1.356329   0.000000
   95       -1.286189   0.000000
   96       -1.158421   0.000000
   97       -1.121865   0.000000
   98       -1.025265   0.000000
   99       -0.958561   0.000000
  100       -0.884338   0.000000
  101       -0.838306   0.000000
  102       -0.729714   0.000000
  103       -0.618902   0.000000
  104       -0.565361   0.000000
  105       -0.470522   0.000000
  106       -0.422199   0.000000
  107       -0.219738   0.000000
  108       -0.170514   0.000000
  109        0.017035   0.000000
  110        0.242921   0.000000
  111        0.459692   0.000000
  112        0.709897   0.000000
  113        0.797180   0.000000
  114        0.975841   0.000000
  115        1.094658   0.000000
  116        1.139267   0.000000
  117        1.318020   0.000000
  118        2.211487   0.000000
  119        2.246117   0.000000
  120        2.362994   0.000000
 
  0.0000000E+00  0.1250000E+00  0.0000000E+00  0.3125000E-01
    1      -17.761029   1.000000
    2      -16.746553   1.000000
    3      -16.649138   1.000000
    4      -16.618533   1.000000
    5      -16.522764   1.000000
    6      -16.427003   1.000000
    7      -16.375248   1.000000
    8      -16.277299   1.000000
    9      -16.176539   1.000000
   10      -16.106517   1.000000
   11      -15.991363   1.000000
   12      -15.957545   1.000000
   13      -15.871954   1.000000
   14      -15.742214   1.000000
   15      -15.635457   1.000000
   16      -15.540278   1.000000
   17      -15.398648   1.000000
   18      -15.293801   1.000000
   19       -9.213509   1.000000
   20       -9.088706   1.000000
   21       -8.982643   1.000000
   22       -8.921396   1.000000
   23       -8.774157   1.000000
   24       -8.711118   1.000000
   25       -8.642085   1.000000
   26       -8.607305   1.000000
   27       -8.517378   1.000000
   28       -8.474595   1.000000
   29       -8.389625   1.000000
   30       -8.290094   1.000000
   31       -8.196724   1.000000
   32       -8.061308   1.000000
   33       -7.992118   1.000000
   34       -7.904308   1.000000
   35       -7.853753   1.000000
   36       -7.741569   1.000000
   37       -7.686061   1.000000
   38       -7.573044   1.000000
   39       -7.484980   1.000000
   40       -7.354599   1.000000
   41       -7.335362   1.000000
   42       -7.223625   1.000000
   43       -7.166242   1.000000
   44       -6.997043   1.000000
   45       -6.845999   1.000000
   46       -6.809755   1.000000
   47       -6.720526   1.000000
   48       -6.655185   1.000000
   49       -6.516064   1.000000
   50       -6.470701   1.000000
   51       -6.428068   1.000000
   52       -6.382836   1.000000
   53       -6.333766   1.000000
   54       -6.224301   1.000000
   55       -6.181023   1.000000
   56       -6.143669   1.000000
   57       -6.059949   1.000000
   58       -5.877256   1.000000
   59       -5.713302   1.000000
   60       -5.529572   1.000000
   61       -5.480514   1.000000
   62       -5.464779   1.000000
   63       -5.385020   1.000000
   64       -5.247459   1.000000
   65       -5.174995   1.000000
   66       -5.064400   1.000000
   67       -5.022843   1.000000
   68       -4.925311   1.000000
   69       -4.840031   1.000000
   70       -4.711175   1.000000
   71       -4.599760   1.000000
   72       -4.557311   1.000000
   73       -4.496760   1.000000
   74       -4.214874   1.000000
   75       -4.123603   1.000000
   76       -3.935986   0.999998
   77       -3.795048   0.999862
   78       -3.740477   0.999424
   79       -3.565061   0.977793
   80       -3.471158   0.910875
   81       -3.142710   0.164454
   82       -2.752731   0.000094
   83       -2.676641   0.000010
   84       -2.615788   0.000001
   85       -2.477532   0.000000
   86       -2.346589   0.000000
   87       -2.275800   0.000000
   88       -2.254641   0.000000
   89       -2.158180   0.000000
   90       -2.079295   0.000000
   91       -1.887874   0.000000
   92       -1.839617   0.000000
   93       -1.481529   0.000000
   94       -1.331371   0.000000
   95       -1.221572   0.000000
   96       -1.135905   0.000000
   97       -0.944988   0.000000
   98       -0.837072   0.000000
   99       -0.773417   0.000000
  100       -0.682543   0.000000
  101       -0.627041   0.000000
  102       -0.571704   0.000000
  103       -0.478924   0.000000
  104       -0.448409   0.000000
  105       -0.314490   0.000000
  106       -0.250556   0.000000
  107       -0.098503   0.000000
  108        0.025740   0.000000
  109        0.127457   0.000000
  110        0.302455   0.000000
  111        0.342979   0.000000
  112        0.389774   0.000000
  113        0.662016   0.000000
  114        0.847417   0.000000
  115        0.911921   0.000000
  116        1.249251   0.000000
  117        1.347294   0.000000
  118        1.683224   0.000000
  119        1.870784   0.000000
  120        2.172615   0.000000
 
  0.1250000E+00  0.1250000E+00  0.0000000E+00  0.3125000E-01
    1      -17.710152   1.000000
    2      -16.890218   1.000000
    3      -16.742923   1.000000
    4      -16.622293   1.000000
    5      -16.496364   1.000000
    6      -16.420750   1.000000
    7      -16.327212   1.000000
    8      -16.240137   1.000000
    9      -16.153134   1.000000
   10      -16.103272   1.000000
   11      -16.029789   1.000000
   12      -15.875000   1.000000
   13      -15.801257   1.000000
   14      -15.744748   1.000000
   15      -15.632829   1.000000
   16      -15.546259   1.000000
   17      -15.424420   1.000000
   18      -15.311125   1.000000
   19       -9.341420   1.000000
   20       -9.235441   1.000000
   21       -9.098400   1.000000
   22       -8.974346   1.000000
   23       -8.835216   1.000000
   24       -8.734427   1.000000
   25       -8.634392   1.000000
   26       -8.556997   1.000000
   27       -8.453060   1.000000
   28       -8.425600   1.000000
   29       -8.340130   1.000000
   30       -8.276015   1.000000
   31       -8.124974   1.000000
   32       -8.067359   1.000000
   33       -7.938926   1.000000
   34       -7.845404   1.000000
   35       -7.709110   1.000000
   36       -7.663844   1.000000
   37       -7.640899   1.000000
   38       -7.539098   1.000000
   39       -7.407550   1.000000
   40       -7.355151   1.000000
   41       -7.288002   1.000000
   42       -7.266394   1.000000
   43       -7.135146   1.000000
   44       -7.005910   1.000000
   45       -6.931831   1.000000
   46       -6.809409   1.000000
   47       -6.765984   1.000000
   48       -6.658313   1.000000
   49       -6.563438   1.000000
   50       -6.491225   1.000000
   51       -6.427585   1.000000
   52       -6.364179   1.000000
   53       -6.285605   1.000000
   54       -6.218837   1.000000
   55       -6.149807   1.000000
   56       -6.126725   1.000000
   57       -6.027418   1.000000
   58       -5.886841   1.000000
   59       -5.687489   1.000000
   60       -5.620815   1.000000
   61       -5.525035   1.000000
   62       -5.469116   1.000000
   63       -5.414675   1.000000
   64       -5.347053   1.000000
   65       -5.231592   1.000000
   66       -5.121232   1.000000
   67       -5.052071   1.000000
   68       -4.913755   1.000000
   69       -4.833181   1.000000
   70       -4.696315   1.000000
   71       -4.626704   1.000000
   72       -4.473983   1.000000
   73       -4.407047   1.000000
   74       -4.186324   1.000000
   75       -4.120064   1.000000
   76       -4.007517   1.000000
   77       -3.941640   0.999999
   78       -3.714707   0.998924
   79       -3.546161   0.969708
   80       -3.404269   0.808718
   81       -3.030298   0.038264
   82       -2.783455   0.000219
   83       -2.718507   0.000035
   84       -2.585509   0.000000
   85       -2.475381   0.000000
   86       -2.350342   0.000000
   87       -2.292441   0.000000
   88       -2.194799   0.000000
   89       -2.122364   0.000000
   90       -2.050222   0.000000
   91       -1.923315   0.000000
   92       -1.800669   0.000000
   93       -1.459376   0.000000
   94       -1.323395   0.000000
   95       -1.201803   0.000000
   96       -1.121297   0.000000
   97       -1.020066   0.000000
   98       -0.884821   0.000000
   99       -0.837906   0.000000
  100       -0.746981   0.000000
  101       -0.707870   0.000000
  102       -0.641123   0.000000
  103       -0.519865   0.000000
  104       -0.456304   0.000000
  105       -0.428613   0.000000
  106       -0.242064   0.000000
  107       -0.161954   0.000000
  108       -0.040185   0.000000
  109        0.077864   0.000000
  110        0.279739   0.000000
  111        0.379480   0.000000
  112        0.525262   0.000000
  113        0.699571   0.000000
  114        0.876104   0.000000
  115        0.914923   0.000000
  116        1.293183   0.000000
  117        1.341888   0.000000
  118        1.769698   0.000000
  119        1.942468   0.000000
  120        2.242827   0.000000
 
  0.2500000E+00  0.1250000E+00  0.0000000E+00  0.3125000E-01
    1      -17.610818   1.000000
    2      -17.080861   1.000000
    3      -16.855292   1.000000
    4      -16.602187   1.000000
    5      -16.479534   1.000000
    6      -16.422834   1.000000
    7      -16.274193   1.000000
    8      -16.217835   1.000000
    9      -16.125220   1.000000
   10      -16.082242   1.000000
   11      -16.005161   1.000000
   12      -15.840110   1.000000
   13      -15.772356   1.000000
   14      -15.720170   1.000000
   15      -15.619506   1.000000
   16      -15.547748   1.000000
   17      -15.460430   1.000000
   18      -15.326482   1.000000
   19       -9.578850   1.000000
   20       -9.390188   1.000000
   21       -9.154494   1.000000
   22       -8.995203   1.000000
   23       -8.820003   1.000000
   24       -8.764863   1.000000
   25       -8.637137   1.000000
   26       -8.501759   1.000000
   27       -8.412846   1.000000
   28       -8.335570   1.000000
   29       -8.279130   1.000000
   30       -8.227126   1.000000
   31       -8.075228   1.000000
   32       -8.043315   1.000000
   33       -7.974984   1.000000
   34       -7.907871   1.000000
   35       -7.778881   1.000000
   36       -7.636349   1.000000
   37       -7.495795   1.000000
   38       -7.435871   1.000000
   39       -7.363346   1.000000
   40       -7.317866   1.000000
   41       -7.240528   1.000000
   42       -7.159658   1.000000
   43       -7.036018   1.000000
   44       -6.980545   1.000000
   45       -6.887488   1.000000
   46       -6.820072   1.000000
   47       -6.706952   1.000000