<?xml version="1.0" encoding="ISO-8859-1"?>
<modeling>
 <generator>
  <i name="program" type="string">vasp </i>
  <i name="version" type="string">5.4.1  </i>
  <i name="subversion" type="string">05Feb16 (build Jul 05 2020 17:13:04) complex                          parallel </i>
  <i name="platform" type="string">IFC91_ompi </i>
  <i name="date" type="string">2024 04 26 </i>
  <i name="time" type="string">23:24:33 </i>
 </generator>
 <incar>
  <i type="int" name="ISTART">     0</i>
  <i type="string" name="PREC">normal</i>
  <i type="string" name="ALGO"> Normal</i>
  <i type="int" name="ISPIN">     1</i>
  <i type="int" name="ICHARG">     2</i>
  <i type="int" name="IBRION">     1</i>
  <i type="int" name="NSW">   100</i>
  <i type="int" name="ISIF">     3</i>
  <i type="int" name="ISYM">     0</i>
  <i name="SYMPREC">      0.00000001</i>
  <i name="POTIM">      0.50000000</i>
  <i type="logical" name="LREAL"> F  </i>
  <i type="logical" name="LPLANE"> F  </i>
  <i type="int" name="ISMEAR">     0</i>
  <i type="logical" name="LWAVE"> F  </i>
  <i type="logical" name="LCHARG"> F  </i>
  <v type="int" name="KPOINT_BSE">    -1     0     0     0</v>
 </incar>
 <kpoints>
  <generation param="Gamma">
   <v type="int" name="divisions">       8        8        1 </v>
   <v name="usershift">      0.00000000       0.00000000       0.00000000 </v>
   <v name="genvec1">      0.12500000       0.00000000       0.00000000 </v>
   <v name="genvec2">     -0.00000000       0.12500000       0.00000000 </v>
   <v name="genvec3">      0.00000000       0.00000000       1.00000000 </v>
   <v name="shift">      0.00000000       0.00000000       0.00000000 </v>
  </generation>
  <varray name="kpointlist" >
   <v>       0.00000000       0.00000000       0.00000000 </v>
   <v>       0.12500000       0.00000000       0.00000000 </v>
   <v>       0.25000000       0.00000000       0.00000000 </v>
   <v>       0.37500000       0.00000000       0.00000000 </v>
   <v>       0.50000000       0.00000000       0.00000000 </v>
   <v>       0.00000000       0.12500000       0.00000000 </v>
   <v>       0.12500000       0.12500000       0.00000000 </v>
   <v>       0.25000000       0.12500000       0.00000000 </v>
   <v>       0.37500000       0.12500000       0.00000000 </v>
   <v>       0.50000000       0.12500000       0.00000000 </v>
   <v>      -0.37500000       0.12500000       0.00000000 </v>
   <v>      -0.25000000       0.12500000       0.00000000 </v>
   <v>      -0.12500000       0.12500000       0.00000000 </v>
   <v>       0.00000000       0.25000000       0.00000000 </v>
   <v>       0.12500000       0.25000000       0.00000000 </v>
   <v>       0.25000000       0.25000000       0.00000000 </v>
   <v>       0.37500000       0.25000000       0.00000000 </v>
   <v>       0.50000000       0.25000000       0.00000000 </v>
   <v>      -0.37500000       0.25000000       0.00000000 </v>
   <v>      -0.25000000       0.25000000       0.00000000 </v>
   <v>      -0.12500000       0.25000000       0.00000000 </v>
   <v>      -0.00000000       0.37500000       0.00000000 </v>
   <v>       0.12500000       0.37500000       0.00000000 </v>
   <v>       0.25000000       0.37500000       0.00000000 </v>
   <v>       0.37500000       0.37500000       0.00000000 </v>
   <v>       0.50000000       0.37500000       0.00000000 </v>
   <v>      -0.37500000       0.37500000       0.00000000 </v>
   <v>      -0.25000000       0.37500000       0.00000000 </v>
   <v>      -0.12500000       0.37500000       0.00000000 </v>
   <v>       0.00000000       0.50000000       0.00000000 </v>
   <v>       0.12500000       0.50000000       0.00000000 </v>
   <v>       0.25000000       0.50000000       0.00000000 </v>
   <v>       0.37500000       0.50000000       0.00000000 </v>
   <v>       0.50000000       0.50000000       0.00000000 </v>
  </varray>
  <varray name="weights" >
   <v>       0.01562500 </v>
   <v>       0.03125000 </v>
   <v>       0.03125000 </v>
   <v>       0.03125000 </v>
   <v>       0.01562500 </v>
   <v>       0.03125000 </v>
   <v>       0.03125000 </v>
   <v>       0.03125000 </v>
   <v>       0.03125000 </v>
   <v>       0.03125000 </v>
   <v>       0.03125000 </v>
   <v>       0.03125000 </v>
   <v>       0.03125000 </v>
   <v>       0.03125000 </v>
   <v>       0.03125000 </v>
   <v>       0.03125000 </v>
   <v>       0.03125000 </v>
   <v>       0.03125000 </v>
   <v>       0.03125000 </v>
   <v>       0.03125000 </v>
   <v>       0.03125000 </v>
   <v>       0.03125000 </v>
   <v>       0.03125000 </v>
   <v>       0.03125000 </v>
   <v>       0.03125000 </v>
   <v>       0.03125000 </v>
   <v>       0.03125000 </v>
   <v>       0.03125000 </v>
   <v>       0.03125000 </v>
   <v>       0.01562500 </v>
   <v>       0.03125000 </v>
   <v>       0.03125000 </v>
   <v>       0.03125000 </v>
   <v>       0.01562500 </v>
  </varray>
 </kpoints>
 <parameters>
  <separator name="general" >
   <i type="string" name="SYSTEM">unknown system</i>
   <i type="logical" name="LCOMPAT"> F  </i>
  </separator>
  <separator name="electronic" >
   <i type="string" name="PREC">normal</i>
   <i name="ENMAX">    280.00000000</i>
   <i name="ENAUG">    373.43800000</i>
   <i name="EDIFF">      0.00010000</i>
   <i type="int" name="IALGO">    38</i>
   <i type="int" name="IWAVPR">    11</i>
   <i type="int" name="NBANDS">   120</i>
   <i name="NELECT">    159.00000000</i>
   <i type="int" name="TURBO">     0</i>
   <i type="int" name="IRESTART">     0</i>
   <i type="int" name="NREBOOT">     0</i>
   <i type="int" name="NMIN">     0</i>
   <i name="EREF">      0.00000000</i>
   <separator name="electronic smearing" >
    <i type="int" name="ISMEAR">     0</i>
    <i name="SIGMA">      0.20000000</i>
    <i name="KSPACING">      0.50000000</i>
    <i type="logical" name="KGAMMA"> T  </i>
   </separator>
   <separator name="electronic projectors" >
    <i type="logical" name="LREAL"> F  </i>
    <v name="ROPT">      0.00000000      0.00000000      0.00000000      0.00000000</v>
    <i type="int" name="LMAXPAW">  -100</i>
    <i type="int" name="LMAXMIX">     2</i>
    <i type="logical" name="NLSPLINE"> F  </i>
   </separator>
   <separator name="electronic startup" >
    <i type="int" name="ISTART">     0</i>
    <i type="int" name="ICHARG">     2</i>
    <i type="int" name="INIWAV">     1</i>
   </separator>
   <separator name="electronic spin" >
    <i type="int" name="ISPIN">     1</i>
    <i type="logical" name="LNONCOLLINEAR"> F  </i>
    <v name="MAGMOM">      1.00000000      1.00000000      1.00000000      1.00000000      1.00000000      1.00000000      1.00000000      1.00000000      1.00000000      1.00000000      1.00000000      1.00000000      1.00000000      1.00000000      1.00000000      1.00000000      1.00000000      1.00000000      1.00000000      1.00000000
      1.00000000      1.00000000      1.00000000      1.00000000      1.00000000      1.00000000      1.00000000</v>
    <i name="NUPDOWN">     -1.00000000</i>
    <i type="logical" name="LSORBIT"> F  </i>
    <v name="SAXIS">      0.00000000      0.00000000      1.00000000</v>
    <i type="logical" name="LSPIRAL"> F  </i>
    <v name="QSPIRAL">      0.00000000      0.00000000      0.00000000</v>
    <i type="logical" name="LZEROZ"> F  </i>
   </separator>
   <separator name="electronic exchange-correlation" >
    <i type="logical" name="LASPH"> F  </i>
    <i type="logical" name="LMETAGGA"> F  </i>
   </separator>
   <separator name="electronic convergence" >
    <i type="int" name="NELM">    60</i>
    <i type="int" name="NELMDL">    -5</i>
    <i type="int" name="NELMIN">     2</i>
    <i name="ENINI">    280.00000000</i>
    <separator name="electronic convergence detail" >
     <i type="logical" name="LDIAG"> T  </i>
     <i type="logical" name="LSUBROT"> F  </i>
     <i name="WEIMIN">      0.00100000</i>
     <i name="EBREAK">      0.00000021</i>
     <i name="DEPER">      0.30000000</i>
     <i type="int" name="NRMM">     4</i>
     <i name="TIME">      0.40000000</i>
    </separator>
   </separator>
   <separator name="electronic mixer" >
    <i name="AMIX">      0.40000000</i>
    <i name="BMIX">      1.00000000</i>
    <i name="AMIN">      0.10000000</i>
    <i name="AMIX_MAG">      1.60000000</i>
    <i name="BMIX_MAG">      1.00000000</i>
    <separator name="electronic mixer details" >
     <i type="int" name="IMIX">     4</i>
     <i type="logical" name="MIXFIRST"> F  </i>
     <i type="int" name="MAXMIX">   -45</i>
     <i name="WC">    100.00000000</i>
     <i type="int" name="INIMIX">     1</i>
     <i type="int" name="MIXPRE">     1</i>
     <i type="int" name="MREMOVE">     5</i>
    </separator>
   </separator>
   <separator name="electronic dipolcorrection" >
    <i type="logical" name="LDIPOL"> F  </i>
    <i type="logical" name="LMONO"> F  </i>
    <i type="int" name="IDIPOL">     0</i>
    <i name="EPSILON">      1.00000000</i>
    <v name="DIPOL">   -100.00000000   -100.00000000   -100.00000000</v>
    <i name="EFIELD">      0.00000000</i>
   </separator>
  </separator>
  <separator name="grids" >
   <i type="int" name="NGX">    42</i>
   <i type="int" name="NGY">    42</i>
   <i type="int" name="NGZ">   126</i>
   <i type="int" name="NGXF">    84</i>
   <i type="int" name="NGYF">    84</i>
   <i type="int" name="NGZF">   252</i>
   <i type="logical" name="ADDGRID"> F  </i>
  </separator>
  <separator name="ionic" >
   <i type="int" name="NSW">   100</i>
   <i type="int" name="IBRION">     1</i>
   <i type="int" name="ISIF">     3</i>
   <i name="PSTRESS">      0.00000000</i>
   <i name="EDIFFG">      0.00100000</i>
   <i type="int" name="NFREE">     0</i>
   <i name="POTIM">      0.50000000</i>
   <i name="SMASS">     -3.00000000</i>
   <i name="SCALEE">      1.00000000</i>
  </separator>
  <separator name="ionic md" >
   <i name="TEBEG">      0.00010000</i>
   <i name="TEEND">      0.00010000</i>
   <i type="int" name="NBLOCK">     1</i>
   <i type="int" name="KBLOCK">   100</i>
   <i type="int" name="NPACO">   256</i>
   <i name="APACO">     16.00000000</i>
  </separator>
  <separator name="symmetry" >
   <i type="int" name="ISYM">     0</i>
   <i name="SYMPREC">      0.00000001</i>
  </separator>
  <separator name="dos" >
   <i type="logical" name="LORBIT"> F  </i>
   <v name="RWIGS">     -1.00000000     -1.00000000     -1.00000000     -1.00000000</v>
   <i type="int" name="NEDOS">   301</i>
   <i name="EMIN">     10.00000000</i>
   <i name="EMAX">    -10.00000000</i>
   <i name="EFERMI">      0.00000000</i>
  </separator>
  <separator name="writing" >
   <i type="int" name="NWRITE">     2</i>
   <i type="logical" name="LWAVE"> F  </i>
   <i type="logical" name="LCHARG"> F  </i>
   <i type="logical" name="LPARD"> F  </i>
   <i type="logical" name="LVTOT"> F  </i>
   <i type="logical" name="LVHAR"> F  </i>
   <i type="logical" name="LELF"> F  </i>
   <i type="logical" name="LOPTICS"> F  </i>
   <v name="STM">      0.00000000      0.00000000      0.00000000      0.00000000      0.00000000      0.00000000      0.00000000</v>
  </separator>
  <separator name="performance" >
   <i type="int" name="NPAR">    40</i>
   <i type="int" name="NSIM">     4</i>
   <i type="int" name="NBLK">    -1</i>
   <i type="logical" name="LPLANE"> F  </i>
   <i type="logical" name="LSCALAPACK"> T  </i>
   <i type="logical" name="LSCAAWARE"> F  </i>
   <i type="logical" name="LSCALU"> F  </i>
   <i type="logical" name="LASYNC"> F  </i>
   <i type="logical" name="LORBITALREAL"> F  </i>
  </separator>
  <separator name="miscellaneous" >
   <i type="int" name="IDIOT">     3</i>
   <i type="logical" name="LMUSIC"> F  </i>
   <v name="POMASS">     50.94100000     95.94000000    183.85000000     32.06600000</v>
   <v name="DARWINR">      0.00000000      0.00000000      0.00000000      0.00000000</v>
   <v name="DARWINV">      1.00000000      1.00000000      1.00000000      1.00000000</v>
   <i type="logical" name="LCORR"> T  </i>
  </separator>
  <i type="logical" name="GGA_COMPAT"> T  </i>
  <i type="logical" name="LBERRY"> F  </i>
  <i type="int" name="ICORELEVEL">     0</i>
  <i type="logical" name="LDAU"> F  </i>
  <i type="int" name="I_CONSTRAINED_M">     0</i>
  <separator name="electronic exchange-correlation" >
   <i type="string" name="GGA">--</i>
   <i type="int" name="VOSKOWN">     0</i>
   <i type="logical" name="LHFCALC"> F  </i>
   <i type="string" name="PRECFOCK"></i>
   <i type="logical" name="LSYMGRAD"> F  </i>
   <i type="logical" name="LHFONE"> F  </i>
   <i type="logical" name="LRHFCALC"> F  </i>
   <i type="logical" name="LTHOMAS"> F  </i>
   <i type="logical" name="LMODELHF"> F  </i>
   <i name="ENCUT4O">     -1.00000000</i>
   <i type="int" name="EXXOEP">     0</i>
   <i type="int" name="FOURORBIT">     0</i>
   <i name="AEXX">      0.00000000</i>
   <i name="HFALPHA">      0.00000000</i>
   <i name="MCALPHA">      0.00000000</i>
   <i name="ALDAX">      1.00000000</i>
   <i name="AGGAX">      1.00000000</i>
   <i name="ALDAC">      1.00000000</i>
   <i name="AGGAC">      1.00000000</i>
   <i type="int" name="NKREDX">     1</i>
   <i type="int" name="NKREDY">     1</i>
   <i type="int" name="NKREDZ">     1</i>
   <i type="logical" name="SHIFTRED"> F  </i>
   <i type="logical" name="ODDONLY"> F  </i>
   <i type="logical" name="EVENONLY"> F  </i>
   <i type="int" name="LMAXFOCK">     0</i>
   <i type="int" name="NMAXFOCKAE">     0</i>
   <i type="logical" name="LFOCKAEDFT"> F  </i>
   <i name="HFSCREEN">      0.00000000</i>
   <i name="HFSCREENC">      0.00000000</i>
   <i type="int" name="NBANDSGWLOW">     0</i>
  </separator>
  <separator name="vdW DFT" >
   <i type="logical" name="LUSE_VDW"> F  </i>
   <i name="Zab_VDW">     -0.84910000</i>
   <i name="PARAM1">      0.12340000</i>
   <i name="PARAM2">      1.00000000</i>
   <i name="PARAM3">      0.00000000</i>
  </separator>
  <separator name="model GW" >
   <i type="int" name="MODEL_GW">     0</i>
   <i name="MODEL_EPS0">     58.26239943</i>
   <i name="MODEL_ALPHA">      1.00000000</i>
  </separator>
  <separator name="linear response parameters" >
   <i type="logical" name="LEPSILON"> F  </i>
   <i type="logical" name="LRPA"> F  </i>
   <i type="logical" name="LNABLA"> F  </i>
   <i type="logical" name="LVEL"> F  </i>
   <i type="int" name="KINTER">     0</i>
   <i name="CSHIFT">      0.10000000</i>
   <i name="OMEGAMAX">     -1.00000000</i>
   <i name="DEG_THRESHOLD">      0.00200000</i>
  </separator>
  <separator name="orbital magnetization" >
   <i type="logical" name="NUCIND"> F  </i>
   <v name="MAGPOS">      0.00000000      0.00000000      0.00000000</v>
   <i type="logical" name="LNICSALL"> T  </i>
   <i type="logical" name="ORBITALMAG"> F  </i>
   <i type="logical" name="LMAGBLOCH"> F  </i>
   <i type="logical" name="LCHIMAG"> F  </i>
   <i type="logical" name="LGAUGE"> T  </i>
   <i type="int" name="MAGATOM">     0</i>
   <v name="MAGDIPOL">      0.00000000      0.00000000      0.00000000</v>
   <v name="AVECCONST">      0.00000000      0.00000000      0.00000000</v>
  </separator>
  <separator name="response functions" >
   <i type="logical" name="LADDER"> F  </i>
   <i type="logical" name="LFXC"> F  </i>
   <i type="logical" name="LHARTREE"> T  </i>
   <i type="int" name="IBSE">     0</i>
   <v type="int" name="KPOINT">    -1     0     0     0</v>
   <i type="logical" name="LTCTE"> F  </i>
   <i type="logical" name="LTETE"> F  </i>
   <i type="logical" name="LTRIPLET"> F  </i>
   <i type="logical" name="LFXCEPS"> F  </i>
   <i type="logical" name="LFXHEG"> F  </i>
   <i type="int" name="NATURALO">     0</i>
   <i type="logical" name="L2ORDER"> F  </i>
   <i type="logical" name="LUSEW"> F  </i>
   <i name="ENCUTGW">     -2.00000000</i>
   <i name="ENCUTGWSOFT">     -2.00000000</i>
   <i name="ENCUTLF">     -1.00000000</i>
   <i type="int" name="LMAXMP2">    -1</i>
   <i name="SCISSOR">      0.00000000</i>
   <i type="int" name="NOMEGA">     0</i>
   <i type="int" name="NOMEGAR">     0</i>
   <i type="int" name="NBANDSGW">    -1</i>
   <i type="int" name="NBANDSO">    -1</i>
   <i type="int" name="NBANDSV">    -1</i>
   <i type="int" name="NELM">     1</i>
   <i type="int" name="NELMHF">     1</i>
   <i type="int" name="DIM">     3</i>
   <i type="int" name="ANTIRES">     0</i>
   <i name="OMEGAMAX">    -30.00000000</i>
   <i name="OMEGAMIN">    -30.00000000</i>
   <i name="OMEGATL">   -200.00000000</i>
   <i type="int" name="OMEGAGRID">     0</i>
   <i name="CSHIFT">     -0.10000000</i>
   <i type="logical" name="SELFENERGY"> F  </i>
   <i type="logical" name="LSPECTRAL"> F  </i>
   <i type="logical" name="LSPECTRALGW"> F  </i>
   <i type="logical" name="LSINGLES"> F  </i>
   <i type="logical" name="LFERMIGW"> F  </i>
   <i type="logical" name="ODDONLYGW"> F  </i>
   <i type="logical" name="EVENONLYGW"> F  </i>
   <i type="int" name="NKREDLFX">     1</i>
   <i type="int" name="NKREDLFY">     1</i>
   <i type="int" name="NKREDLFZ">     1</i>
   <i type="int" name="MAXMEM">  1800</i>
   <i type="int" name="TELESCOPE">     0</i>
   <i type="int" name="TAUPAR">     1</i>
   <i type="int" name="OMEGAPAR">    -1</i>
   <i name="LAMBDA">      1.00000000</i>
  </separator>
  <separator name="External order field" >
   <i name="OFIELD_KAPPA">      0.00000000</i>
   <v name="OFIELD_K">      0.00000000      0.00000000      0.00000000</v>
   <i name="OFIELD_Q6_NEAR">      0.00000000</i>
   <i name="OFIELD_Q6_FAR">      0.00000000</i>
   <i name="OFIELD_A">      0.00000000</i>
  </separator>
 </parameters>
 <atominfo>
  <atoms>      27 </atoms>
  <types>       4 </types>
  <array name="atoms" >
   <dimension dim="1">ion</dimension>
   <field type="string">element</field>
   <field type="int">atomtype</field>
   <set>
    <rc><c>V </c><c>   1</c></rc>
    <rc><c>V </c><c>   1</c></rc>
    <rc><c>V </c><c>   1</c></rc>
    <rc><c>Mo</c><c>   2</c></rc>
    <rc><c>Mo</c><c>   2</c></rc>
    <rc><c>Mo</c><c>   2</c></rc>
    <rc><c>W </c><c>   3</c></rc>
    <rc><c>W </c><c>   3</c></rc>
    <rc><c>W </c><c>   3</c></rc>
    <rc><c>S </c><c>   4</c></rc>
    <rc><c>S </c><c>   4</c></rc>
    <rc><c>S </c><c>   4</c></rc>
    <rc><c>S </c><c>   4</c></rc>
    <rc><c>S </c><c>   4</c></rc>
    <rc><c>S </c><c>   4</c></rc>
    <rc><c>S </c><c>   4</c></rc>
    <rc><c>S </c><c>   4</c></rc>
    <rc><c>S </c><c>   4</c></rc>
    <rc><c>S </c><c>   4</c></rc>
    <rc><c>S </c><c>   4</c></rc>
    <rc><c>S </c><c>   4</c></rc>
    <rc><c>S </c><c>   4</c></rc>
    <rc><c>S </c><c>   4</c></rc>
    <rc><c>S </c><c>   4</c></rc>
    <rc><c>S </c><c>   4</c></rc>
    <rc><c>S </c><c>   4</c></rc>
    <rc><c>S </c><c>   4</c></rc>
   </set>
  </array>
  <array name="atomtypes" >
   <dimension dim="1">type</dimension>
   <field type="int">atomspertype</field>
   <field type="string">element</field>
   <field>mass</field>
   <field>valence</field>
   <field type="string">pseudopotential</field>
   <set>
    <rc><c>   3</c><c>V </c><c>     50.94100000</c><c>      5.00000000</c><c> PAW_PBE V 08Apr2002                    </c></rc>
    <rc><c>   3</c><c>Mo</c><c>     95.94000000</c><c>      6.00000000</c><c> PAW_PBE Mo 08Apr2002                   </c></rc>
    <rc><c>   3</c><c>W </c><c>    183.85000000</c><c>      6.00000000</c><c> PAW_PBE W 08Apr2002                    </c></rc>
    <rc><c>  18</c><c>S </c><c>     32.06600000</c><c>      6.00000000</c><c>  PAW_PBE S 17Jan2003                   </c></rc>
   </set>
  </array>
 </atominfo>
 <structure name="initialpos" >
  <crystal>
   <varray name="basis" >
    <v>       8.66999996       5.03999989       0.00000000 </v>
    <v>      -8.66999982       5.04000013       0.00000000 </v>
    <v>       0.00000000       0.00000000      30.00000000 </v>
   </varray>
   <i name="volume">   2621.80797419 </i>
   <varray name="rec_basis" >
    <v>       0.05767013       0.09920635       0.00000000 </v>
    <v>      -0.05767013       0.09920635       0.00000000 </v>
    <v>       0.00000000       0.00000000       0.03333333 </v>
   </varray>
  </crystal>
  <varray name="positions" >
   <v>       0.66666669       0.66666669       0.00000000 </v>
   <v>       1.00000000       0.33333334       0.00000000 </v>
   <v>       0.33333334       0.66666669       0.00000000 </v>
   <v>       0.66666669       0.33333334       0.00000000 </v>
   <v>       0.33333334       0.00000000       0.00000000 </v>
   <v>       0.33333334       0.33333334       0.00000000 </v>
   <v>       0.00000000       0.00000000       0.00000000 </v>
   <v>       0.00000000       0.66666669       0.00000000 </v>
   <v>       0.66666669       0.00000000       0.00000000 </v>
   <v>       0.11068511       0.22244981       0.95539999 </v>
   <v>       0.22244981       0.11068511       0.04460000 </v>
   <v>       0.11068511       0.55578315       0.95539999 </v>
   <v>       0.22244981       0.44401845       0.04460000 </v>
   <v>       0.11068511       0.88911647       0.95539999 </v>
   <v>       0.22244981       0.77735180       0.04460000 </v>
   <v>       0.44401845       0.22244981       0.95539999 </v>
   <v>       0.55578315       0.11068511       0.04460000 </v>
   <v>       0.44401845       0.55578315       0.95539999 </v>
   <v>       0.55578315       0.44401845       0.04460000 </v>
   <v>       0.44401845       0.88911647       0.95539999 </v>
   <v>       0.55578315       0.77735180       0.04460000 </v>
   <v>       0.77735180       0.22244981       0.95539999 </v>
   <v>       0.88911647       0.11068511       0.04460000 </v>
   <v>       0.77735180       0.55578315       0.95539999 </v>
   <v>       0.88911647       0.44401845       0.04460000 </v>
   <v>       0.77735180       0.88911647       0.95539999 </v>
   <v>       0.88911647       0.77735180       0.04460000 </v>
  </varray>
 </structure>
 <calculation>
  <scstep>
   <time name="dav">   21.66   21.71</time>
   <time name="total">   21.71   21.76</time>
   <energy>
    <i name="alphaZ">     81.65567618 </i>
    <i name="ewald">  41890.23010355 </i>
    <i name="hartreedc"> -47722.85855649 </i>
    <i name="XCdc">   -242.92965110 </i>
    <i name="pawpsdc">   3467.42045192 </i>
    <i name="pawaedc">  -2871.19716117 </i>
    <i name="eentropy">     -0.53632359 </i>
    <i name="bandstr">   -239.02929820 </i>
    <i name="atom">   6761.44252427 </i>
    <i name="e_fr_energy">   1124.19776538 </i>
    <i name="e_wo_entrp">   1124.73408896 </i>
    <i name="e_0_energy">   1124.46592717 </i>
   </energy>
  </scstep>
  <scstep>
   <time name="dav">   28.50   28.57</time>
   <time name="total">   28.50   28.58</time>
   <energy>
    <i name="e_fr_energy">     -4.79483327 </i>
    <i name="e_wo_entrp">     -4.58863761 </i>
    <i name="e_0_energy">     -4.69173544 </i>
   </energy>
  </scstep>
  <scstep>
   <time name="dav">   27.42   27.48</time>
   <time name="total">   27.42   27.49</time>
   <energy>
    <i name="e_fr_energy">   -199.95277670 </i>
    <i name="e_wo_entrp">   -199.66399626 </i>
    <i name="e_0_energy">   -199.80838648 </i>
   </energy>
  </scstep>
  <scstep>
   <time name="dav">   30.29   30.36</time>
   <time name="total">   30.29   30.37</time>
   <energy>
    <i name="e_fr_energy">   -208.92756331 </i>
    <i name="e_wo_entrp">   -208.60552797 </i>
    <i name="e_0_energy">   -208.76654564 </i>
   </energy>
  </scstep>
  <scstep>
   <time name="dav">   27.91   27.98</time>
   <time name="total">   28.38   28.45</time>
   <energy>
    <i name="e_fr_energy">   -209.22343402 </i>
    <i name="e_wo_entrp">   -208.90438776 </i>
    <i name="e_0_energy">   -209.06391089 </i>
   </energy>
  </scstep>
  <scstep>
   <time name="dav">   30.91   30.98</time>
   <time name="total">   31.40   31.49</time>
   <energy>
    <i name="e_fr_energy">   -236.35434395 </i>
    <i name="e_wo_entrp">   -236.07670342 </i>
    <i name="e_0_energy">   -236.21552368 </i>
   </energy>
  </scstep>
  <scstep>
   <time name="dav">   32.16   32.23</time>
   <time name="total">   32.66   32.75</time>
   <energy>
    <i name="e_fr_energy">   -196.83066991 </i>
    <i name="e_wo_entrp">   -196.49771625 </i>
    <i name="e_0_energy">   -196.66419308 </i>
   </energy>
  </scstep>
  <scstep>
   <time name="dav">   29.13   29.20</time>
   <time name="total">   29.64   29.72</time>
   <energy>
    <i name="e_fr_energy">   -190.31916384 </i>
    <i name="e_wo_entrp">   -190.05215294 </i>
    <i name="e_0_energy">   -190.18565839 </i>
   </energy>
  </scstep>
  <scstep>
   <time name="dav">   30.20   30.27</time>
   <time name="total">   30.73   30.80</time>
   <energy>
    <i name="e_fr_energy">   -188.29731949 </i>
    <i name="e_wo_entrp">   -187.96258939 </i>
    <i name="e_0_energy">   -188.12995444 </i>
   </energy>
  </scstep>
  <scstep>
   <time name="dav">   32.27   32.35</time>
   <time name="total">   32.80   32.89</time>
   <energy>
    <i name="e_fr_energy">   -187.10977757 </i>
    <i name="e_wo_entrp">   -186.76335372 </i>
    <i name="e_0_energy">   -186.93656565 </i>
   </energy>
  </scstep>
  <scstep>
   <time name="dav">   30.28   30.36</time>
   <time name="total">   30.82   30.90</time>
   <energy>
    <i name="e_fr_energy">   -187.01007912 </i>
    <i name="e_wo_entrp">   -186.66315647 </i>
    <i name="e_0_energy">   -186.83661779 </i>
   </energy>
  </scstep>
  <scstep>
   <time name="dav">   31.27   31.35</time>
   <time name="total">   31.81   31.89</time>
   <energy>
    <i name="e_fr_energy">   -186.99942400 </i>
    <i name="e_wo_entrp">   -186.66299394 </i>
    <i name="e_0_energy">   -186.83120897 </i>
   </energy>
  </scstep>
  <scstep>
   <time name="dav">   32.04   32.11</time>
   <time name="total">   32.57   32.66</time>
   <energy>
    <i name="e_fr_energy">   -186.92433284 </i>
    <i name="e_wo_entrp">   -186.58570795 </i>
    <i name="e_0_energy">   -186.75502040 </i>
   </energy>
  </scstep>
  <scstep>
   <time name="dav">   31.35   31.42</time>
   <time name="total">   31.88   31.97</time>
   <energy>
    <i name="e_fr_energy">   -186.89028814 </i>
    <i name="e_wo_entrp">   -186.54648676 </i>
    <i name="e_0_energy">   -186.71838745 </i>
   </energy>
  </scstep>
  <scstep>
   <time name="dav">   28.74   28.81</time>
   <time name="total">   29.28   29.35</time>
   <energy>
    <i name="e_fr_energy">   -186.88598331 </i>
    <i name="e_wo_entrp">   -186.54158236 </i>
    <i name="e_0_energy">   -186.71378283 </i>
   </energy>
  </scstep>
  <scstep>
   <time name="dav">   31.64   31.71</time>
   <time name="total">   32.17   32.25</time>
   <energy>
    <i name="e_fr_energy">   -186.88514466 </i>
    <i name="e_wo_entrp">   -186.54133523 </i>
    <i name="e_0_energy">   -186.71323994 </i>
   </energy>
  </scstep>
  <scstep>
   <time name="dav">   31.88   31.95</time>
   <time name="total">   32.41   32.50</time>
   <energy>
    <i name="e_fr_energy">   -186.88396649 </i>
    <i name="e_wo_entrp">   -186.54098722 </i>
    <i name="e_0_energy">   -186.71247686 </i>
   </energy>
  </scstep>
  <scstep>
   <time name="dav">   30.03   30.10</time>
   <time name="total">   30.56   30.65</time>
   <energy>
    <i name="e_fr_energy">   -186.88260037 </i>
    <i name="e_wo_entrp">   -186.53993940 </i>
    <i name="e_0_energy">   -186.71126988 </i>
   </energy>
  </scstep>
  <scstep>
   <time name="dav">   27.61   27.68</time>
   <time name="total">   28.15   28.22</time>
   <energy>
    <i name="e_fr_energy">   -186.88243725 </i>
    <i name="e_wo_entrp">   -186.53929280 </i>
    <i name="e_0_energy">   -186.71086503 </i>
   </energy>
  </scstep>
  <scstep>
   <time name="dav">   23.82   23.88</time>
   <time name="total">   24.36   24.42</time>
   <energy>
    <i name="e_fr_energy">   -186.88330155 </i>
    <i name="e_wo_entrp">   -186.54045611 </i>
    <i name="e_0_energy">   -186.71187883 </i>
   </energy>
  </scstep>
  <scstep>
   <time name="dav">   21.39   21.44</time>
   <time name="total">   21.92   21.98</time>
   <energy>
    <i name="e_fr_energy">   -186.88403309 </i>
    <i name="e_wo_entrp">   -186.54110487 </i>
    <i name="e_0_energy">   -186.71256898 </i>
   </energy>
  </scstep>
  <scstep>
   <time name="dav">   20.09   20.13</time>
   <time name="total">   20.62   20.68</time>
   <energy>
    <i name="e_fr_energy">   -186.88490745 </i>
    <i name="e_wo_entrp">   -186.54198333 </i>
    <i name="e_0_energy">   -186.71344539 </i>
   </energy>
  </scstep>
  <scstep>
   <time name="dav">   20.37   20.42</time>
   <time name="total">   20.91   20.96</time>
   <energy>
    <i name="e_fr_energy">   -186.88615134 </i>
    <i name="e_wo_entrp">   -186.54335580 </i>
    <i name="e_0_energy">   -186.71475357 </i>
   </energy>
  </scstep>
  <scstep>
   <time name="dav">   18.89   18.93</time>
   <time name="total">   19.42   19.48</time>
   <energy>
    <i name="e_fr_energy">   -186.88668764 </i>
    <i name="e_wo_entrp">   -186.54382090 </i>
    <i name="e_0_energy">   -186.71525427 </i>
   </energy>
  </scstep>
  <scstep>
   <time name="dav">   16.32   16.36</time>
   <time name="total">   16.85   16.90</time>
   <energy>
    <i name="e_fr_energy">   -186.88709347 </i>
    <i name="e_wo_entrp">   -186.54421043 </i>
    <i name="e_0_energy">   -186.71565195 </i>
   </energy>
  </scstep>
  <scstep>
   <time name="dav">   18.97   19.02</time>
   <time name="total">   19.51   19.56</time>
   <energy>
    <i name="e_fr_energy">   -186.88733010 </i>
    <i name="e_wo_entrp">   -186.54446398 </i>
    <i name="e_0_energy">   -186.71589704 </i>
   </energy>
  </scstep>
  <scstep>
   <time name="dav">   19.95   20.00</time>
   <time name="total">   19.99   20.05</time>
   <energy>
    <i name="alphaZ">     81.65567618 </i>
    <i name="ewald">  41890.23010355 </i>
    <i name="hartreedc"> -47833.12197152 </i>
    <i name="XCdc">   -231.59846179 </i>
    <i name="pawpsdc">   4192.18020489 </i>
    <i name="pawaedc">  -3610.20545964 </i>
    <i name="eentropy">     -0.34286779 </i>
    <i name="bandstr">  -1437.12716127 </i>
    <i name="atom">   6761.44252427 </i>
    <i name="e_fr_energy">   -186.88741314 </i>
    <i name="e_wo_entrp">   -186.54454535 </i>
    <i name="e_0_energy">   -186.71597924 </i>
   </energy>
  </scstep>
  <structure>
   <crystal>
    <varray name="basis" >
     <v>       8.66999996       5.03999989       0.00000000 </v>
     <v>      -8.66999982       5.04000013       0.00000000 </v>
     <v>       0.00000000       0.00000000      30.00000000 </v>
    </varray>
    <i name="volume">   2621.80797419 </i>
    <varray name="rec_basis" >
     <v>       0.05767013       0.09920635       0.00000000 </v>
     <v>      -0.05767013       0.09920635       0.00000000 </v>
     <v>       0.00000000       0.00000000       0.03333333 </v>
    </varray>
   </crystal>
   <varray name="positions" >
    <v>       0.66666669       0.66666669       0.00000000 </v>
    <v>       1.00000000       0.33333334       0.00000000 </v>
    <v>       0.33333334       0.66666669       0.00000000 </v>
    <v>       0.66666669       0.33333334       0.00000000 </v>
    <v>       0.33333334       0.00000000       0.00000000 </v>
    <v>       0.33333334       0.33333334       0.00000000 </v>
    <v>       0.00000000       0.00000000       0.00000000 </v>
    <v>       0.00000000       0.66666669       0.00000000 </v>
    <v>       0.66666669       0.00000000       0.00000000 </v>
    <v>       0.11068511       0.22244981       0.95539999 </v>
    <v>       0.22244981       0.11068511       0.04460000 </v>
    <v>       0.11068511       0.55578315       0.95539999 </v>
    <v>       0.22244981       0.44401845       0.04460000 </v>
    <v>       0.11068511       0.88911647       0.95539999 </v>
    <v>       0.22244981       0.77735180       0.04460000 </v>
    <v>       0.44401845       0.22244981       0.95539999 </v>
    <v>       0.55578315       0.11068511       0.04460000 </v>
    <v>       0.44401845       0.55578315       0.95539999 </v>
    <v>       0.55578315       0.44401845       0.04460000 </v>
    <v>       0.44401845       0.88911647       0.95539999 </v>
    <v>       0.55578315       0.77735180       0.04460000 </v>
    <v>       0.77735180       0.22244981       0.95539999 </v>
    <v>       0.88911647       0.11068511       0.04460000 </v>
    <v>       0.77735180       0.55578315       0.95539999 </v>
    <v>       0.88911647       0.44401845       0.04460000 </v>
    <v>       0.77735180       0.88911647       0.95539999 </v>
    <v>       0.88911647       0.77735180       0.04460000 </v>
   </varray>
  </structure>
  <varray name="forces" >
   <v>       0.15050381      -0.39510083       0.06179843 </v>
   <v>       0.01316329       0.06984750      -0.05727893 </v>
   <v>       0.08672090      -0.03008887       0.02295925 </v>
   <v>      -0.25788284      -0.43420698      -0.09082193 </v>
   <v>      -0.26961286       0.42077652       0.00223285 </v>
   <v>       0.43019816       0.03827868       0.03398666 </v>
   <v>       0.25442314       0.47352538       0.07605281 </v>
   <v>       0.07060066      -0.02431427       0.00938667 </v>
   <v>      -0.53240201      -0.06105476      -0.03044965 </v>
   <v>      -0.69773912      -0.15115220      -2.12546468 </v>
   <v>      -0.20436583      -0.17902312       2.93337304 </v>
   <v>       0.75321310      -0.02423801      -1.49966896 </v>
   <v>      -0.89762477      -0.00197712       1.42955221 </v>
   <v>       0.08497657      -0.12052369      -2.90075324 </v>
   <v>       0.64715397      -0.14287646       2.07363033 </v>
   <v>       0.13180439       0.01296118      -2.94720496 </v>
   <v>       0.05501484      -0.02063540       2.92077945 </v>
   <v>      -0.32572648       0.66800414      -1.41872714 </v>
   <v>      -0.54795822       0.71447601       2.17792062 </v>
   <v>       0.61711131      -0.54479175      -2.14607440 </v>
   <v>       0.26459343      -0.52790340       1.42859399 </v>
   <v>       0.62411703       0.56468370      -2.17789400 </v>
   <v>      -0.44387098       0.56002001       2.14786045 </v>
   <v>      -0.64436928       0.14053696      -2.09997803 </v>
   <v>       0.65512481       0.15587658       2.05955342 </v>
   <v>       0.46966060      -0.57398072      -2.08090400 </v>
   <v>      -0.48682764      -0.58711909       2.19753974 </v>
  </varray>
  <varray name="stress" >
   <v>       7.43202516      -0.05403199      -1.60914425 </v>
   <v>      -0.05403195       4.34405867      -0.00049206 </v>
   <v>      -1.60914423      -0.00049218      30.28328315 </v>
  </varray>
  <energy>
   <i name="e_fr_energy">   -186.88741314 </i>
   <i name="e_wo_entrp">   -186.71597924 </i>
   <i name="e_0_energy">     -0.34286779 </i>
  </energy>
  <time name="totalsc">  778.99  781.07</time>
 </calculation>
 <calculation>
  <scstep>
   <time name="dav">   21.63   21.68</time>
   <time name="total">   22.18   22.23</time>
   <energy>
    <i name="alphaZ">     78.91666096 </i>
    <i name="ewald">  39377.97189880 </i>
    <i name="hartreedc"> -45335.52785321 </i>
    <i name="XCdc">   -239.05677085 </i>
    <i name="pawpsdc">   4192.16948060 </i>
    <i name="pawaedc">  -3610.19477545 </i>
    <i name="eentropy">     -0.28143796 </i>
    <i name="bandstr">  -1412.98337945 </i>
    <i name="atom">   6761.44252427 </i>
    <i name="e_fr_energy">   -187.54365229 </i>
    <i name="e_wo_entrp">   -187.26221433 </i>
    <i name="e_0_energy">   -187.40293331 </i>
   </energy>
  </scstep>
  <scstep>
   <time name="dav">   30.33   30.40</time>
   <time name="total">   30.87   30.95</time>
   <energy>
    <i name="e_fr_energy">   -189.65179192 </i>
    <i name="e_wo_entrp">   -189.31128412 </i>
    <i name="e_0_energy">   -189.48153802 </i>
   </energy>
  </scstep>
  <scstep>
   <time name="dav">   30.32   30.39</time>
   <time name="total">   30.87   30.95</time>
   <energy>
    <i name="e_fr_energy">   -189.34347127 </i>
    <i name="e_wo_entrp">   -189.06922962 </i>
    <i name="e_0_energy">   -189.20635044 </i>
   </energy>
  </scstep>
  <scstep>
   <time name="dav">   30.47   30.54</time>
   <time name="total">   31.01   31.09</time>
   <energy>
    <i name="e_fr_energy">   -188.80542310 </i>
    <i name="e_wo_entrp">   -188.52466023 </i>
    <i name="e_0_energy">   -188.66504167 </i>
   </energy>
  </scstep>
  <scstep>
   <time name="dav">   30.53   30.60</time>
   <time name="total">   31.07   31.16</time>
   <energy>
    <i name="e_fr_energy">   -188.96821092 </i>
    <i name="e_wo_entrp">   -188.67399704 </i>
    <i name="e_0_energy">   -188.82110398 </i>
   </energy>
  </scstep>
  <scstep>
   <time name="dav">   30.92   30.99</time>
   <time name="total">   31.46   31.55</time>
   <energy>
    <i name="e_fr_energy">   -188.77166359 </i>
    <i name="e_wo_entrp">   -188.49198272 </i>
    <i name="e_0_energy">   -188.63182316 </i>
   </energy>
  </scstep>
  <scstep>
   <time name="dav">   28.64   28.71</time>
   <time name="total">   29.19   29.26</time>
   <energy>
    <i name="e_fr_energy">   -188.75546363 </i>
    <i name="e_wo_entrp">   -188.47493411 </i>
    <i name="e_0_energy">   -188.61519887 </i>
   </energy>
  </scstep>
  <scstep>
   <time name="dav">   32.44   32.51</time>
   <time name="total">   32.98   33.07</time>
   <energy>
    <i name="e_fr_energy">   -188.73421948 </i>
    <i name="e_wo_entrp">   -188.45379091 </i>
    <i name="e_0_energy">   -188.59400520 </i>
   </energy>
  </scstep>
  <scstep>
   <time name="dav">   30.03   30.10</time>
   <time name="total">   30.58   30.66</time>
   <energy>
    <i name="e_fr_energy">   -188.71566131 </i>
    <i name="e_wo_entrp">   -188.43604137 </i>
    <i name="e_0_energy">   -188.57585134 </i>
   </energy>
  </scstep>
  <scstep>
   <time name="dav">   26.61   26.68</time>
   <time name="total">   27.16   27.23</time>
   <energy>
    <i name="e_fr_energy">   -188.71543222 </i>
    <i name="e_wo_entrp">   -188.43593531 </i>
    <i name="e_0_energy">   -188.57568376 </i>
   </energy>
  </scstep>
  <scstep>
   <time name="dav">   28.64   28.71</time>
   <time name="total">   29.19   29.26</time>
   <energy>
    <i name="e_fr_energy">   -188.71464919 </i>
    <i name="e_wo_entrp">   -188.43564458 </i>
    <i name="e_0_energy">   -188.57514688 </i>
   </energy>
  </scstep>
  <scstep>
   <time name="dav">   27.21   27.27</time>
   <time name="total">   27.76   27.84</time>
   <energy>
    <i name="e_fr_energy">   -188.71481155 </i>
    <i name="e_wo_entrp">   -188.43573881 </i>
    <i name="e_0_energy">   -188.57527518 </i>
   </energy>
  </scstep>
  <scstep>
   <time name="dav">   22.28   22.33</time>
   <time name="total">   22.31   22.38</time>
   <energy>
    <i name="alphaZ">     78.91666096 </i>
    <i name="ewald">  39377.97189880 </i>
    <i name="hartreedc"> -45346.25261418 </i>
    <i name="XCdc">   -237.96821426 </i>
    <i name="pawpsdc">   3950.47235732 </i>
    <i name="pawaedc">  -3364.99348551 </i>
    <i name="eentropy">     -0.27908326 </i>
    <i name="bandstr">  -1408.02482050 </i>
    <i name="atom">   6761.44252427 </i>
    <i name="e_fr_energy">   -188.71477636 </i>
    <i name="e_wo_entrp">   -188.43569309 </i>
    <i name="e_0_energy">   -188.57523473 </i>
   </energy>
  </scstep>
  <structure>
   <crystal>
    <varray name="basis" >
     <v>       8.85760507       5.10264551       0.00000000 </v>
     <v>      -8.85919739       5.10538516       0.00000000 </v>
     <v>       0.00000000       0.00000000      30.00000000 </v>
    </varray>
    <i name="volume">   2712.80487959 </i>
    <varray name="rec_basis" >
     <v>       0.05645874       0.09797089       0.00000000 </v>
     <v>      -0.05642845       0.09795329       0.00000000 </v>
     <v>       0.00000000       0.00000000       0.03333333 </v>
    </varray>
   </crystal>
   <varray name="positions" >
    <v>       0.66519447       0.66435702       0.00009938 </v>
    <v>       1.00037091       0.33363101      -0.00009211 </v>
    <v>       0.33343061       0.66628141       0.00003692 </v>
    <v>       0.66387111       0.33197271      -0.00014605 </v>
    <v>       0.33459706       0.00276393       0.00000359 </v>
    <v>       0.33471342       0.33231966       0.00005465 </v>
    <v>       0.00297413       0.00155844       0.00012230 </v>
    <v>       0.00008005       0.66635390       0.00001509 </v>
    <v>       0.66489325       0.00118902      -0.00004897 </v>
    <v>       0.10802048       0.22366762       0.95198205 </v>
    <v>       0.22102443       0.11039689       0.04931712 </v>
    <v>       0.11266467       0.55357159       0.95298839 </v>
    <v>       0.21994301       0.44650633       0.04689885 </v>
    <v>       0.11034470       0.88830322       0.95073532 </v>
    <v>       0.22356649       0.77486751       0.04793458 </v>
    <v>       0.44444719       0.22214514       0.95066062 </v>
    <v>       0.55583745       0.11043329       0.04929687 </v>
    <v>       0.44630928       0.55988643       0.95311855 </v>
    <v>       0.55767811       0.44896243       0.04810229 </v>
    <v>       0.44312799       0.88479220       0.95194891 </v>
    <v>       0.55399276       0.77408912       0.04689730 </v>
    <v>       0.78179075       0.22341598       0.95189774 </v>
    <v>       0.89056179       0.11460027       0.04805395 </v>
    <v>       0.77623166       0.55824850       0.95202304 </v>
    <v>       0.89168515       0.44294181       0.04791194 </v>
    <v>       0.77591141       0.88506274       0.95205371 </v>
    <v>       0.88495209       0.77589629       0.04813384 </v>
   </varray>
  </structure>
  <varray name="forces" >
   <v>       0.16518895      -0.29641687      -0.06071860 </v>
   <v>      -0.00832968       0.03252415       0.07176799 </v>
   <v>       0.04999472      -0.03272915       0.08606555 </v>
   <v>      -0.16847392      -0.58988975      -0.03042552 </v>
   <v>      -0.37909907       0.50273937      -0.00644851 </v>
   <v>       0.62629878      -0.15668567      -0.00241736 </v>
   <v>       0.38157622       0.43133942      -0.07134407 </v>
   <v>      -0.07719890       0.04568663       0.11064655 </v>
   <v>      -0.55619167      -0.00009339      -0.11359472 </v>
   <v>       0.02849837      -0.09327948       0.00997669 </v>
   <v>      -0.04296474      -0.10140402       0.28774885 </v>
   <v>      -0.09157461      -0.00527544       0.06300003 </v>
   <v>      -0.02251519       0.01167940      -0.17638704 </v>
   <v>      -0.06403845      -0.08470254       0.00403968 </v>
   <v>      -0.03195512      -0.10372129      -0.12432273 </v>
   <v>      -0.01401456       0.01060760      -0.39810324 </v>
   <v>       0.12379435      -0.00208525       0.23185802 </v>
   <v>      -0.00345955       0.02973126       0.08174647 </v>
   <v>      -0.02902151       0.06754217       0.16784226 </v>
   <v>       0.06989085       0.05715460       0.03434165 </v>
   <v>      -0.06272689       0.07136470      -0.12943529 </v>
   <v>       0.06576310      -0.05803929      -0.00869938 </v>
   <v>       0.05885915      -0.06599403      -0.17225339 </v>
   <v>       0.02404440       0.09939718       0.02602799 </v>
   <v>      -0.03413181       0.09868722      -0.14872059 </v>
   <v>      -0.05613904       0.07231663       0.38446141 </v>
   <v>       0.04792580       0.05954583      -0.11665269 </v>
  </varray>
  <varray name="stress" >
   <v>     -19.91277977       0.00686917       0.04824278 </v>
   <v>       0.00686914     -19.44996945       0.01167061 </v>
   <v>       0.04824273       0.01167044      -1.75680427 </v>
  </varray>
  <energy>
   <i name="e_fr_energy">   -188.71477636 </i>
   <i name="e_wo_entrp">   -188.57523473 </i>
   <i name="e_0_energy">     -0.27908326 </i>
  </energy>
  <time name="totalsc">  418.60  419.72</time>
 </calculation>
 <calculation>
  <scstep>
   <time name="dav">   23.42   23.48</time>
   <time name="total">   23.95   24.01</time>
   <energy>
    <i name="alphaZ">     82.34379785 </i>
    <i name="ewald">  41303.06716155 </i>
    <i name="hartreedc"> -47301.75727563 </i>
    <i name="XCdc">   -233.84269317 </i>
    <i name="pawpsdc">   3949.59180246 </i>
    <i name="pawaedc">  -3364.10584034 </i>
    <i name="eentropy">     -0.23644056 </i>
    <i name="bandstr">  -1387.15229400 </i>
    <i name="atom">   6761.44252427 </i>
    <i name="e_fr_energy">   -190.64925756 </i>
    <i name="e_wo_entrp">   -190.41281700 </i>
    <i name="e_0_energy">   -190.53103728 </i>
   </energy>
  </scstep>
  <scstep>
   <time name="dav">   27.65   27.72</time>
   <time name="total">   28.18   28.26</time>
   <energy>
    <i name="e_fr_energy">   -190.56825750 </i>
    <i name="e_wo_entrp">   -190.33090827 </i>
    <i name="e_0_energy">   -190.44958288 </i>
   </energy>
  </scstep>
  <scstep>
   <time name="dav">   30.03   30.10</time>
   <time name="total">   30.55   30.63</time>
   <energy>
    <i name="e_fr_energy">   -190.13732877 </i>
    <i name="e_wo_entrp">   -189.88535925 </i>
    <i name="e_0_energy">   -190.01134401 </i>
   </energy>
  </scstep>
  <scstep>
   <time name="dav">   31.03   31.10</time>
   <time name="total">   31.56   31.65</time>
   <energy>
    <i name="e_fr_energy">   -189.92319483 </i>
    <i name="e_wo_entrp">   -189.68731566 </i>
    <i name="e_0_energy">   -189.80525525 </i>
   </energy>
  </scstep>
  <scstep>
   <time name="dav">   29.84   29.91</time>
   <time name="total">   30.37   30.45</time>
   <energy>
    <i name="e_fr_energy">   -189.90371171 </i>
    <i name="e_wo_entrp">   -189.66415413 </i>
    <i name="e_0_energy">   -189.78393292 </i>
   </energy>
  </scstep>
  <scstep>
   <time name="dav">   30.56   30.63</time>
   <time name="total">   31.09   31.18</time>
   <energy>
    <i name="e_fr_energy">   -189.82505536 </i>
    <i name="e_wo_entrp">   -189.58614075 </i>
    <i name="e_0_energy">   -189.70559805 </i>
   </energy>
  </scstep>
  <scstep>
   <time name="dav">   28.50   28.57</time>
   <time name="total">   29.03   29.11</time>
   <energy>
    <i name="e_fr_energy">   -189.81815033 </i>
    <i name="e_wo_entrp">   -189.57954472 </i>
    <i name="e_0_energy">   -189.69884752 </i>
   </energy>
  </scstep>
  <scstep>
   <time name="dav">   30.00   30.07</time>
   <time name="total">   30.53   30.62</time>
   <energy>
    <i name="e_fr_energy">   -189.81912981 </i>
    <i name="e_wo_entrp">   -189.58044584 </i>
    <i name="e_0_energy">   -189.69978783 </i>
   </energy>
  </scstep>
  <scstep>
   <time name="dav">   26.70   26.76</time>
   <time name="total">   27.23   27.30</time>
   <energy>
    <i name="e_fr_energy">   -189.81797825 </i>
    <i name="e_wo_entrp">   -189.57933342 </i>
    <i name="e_0_energy">   -189.69865583 </i>
   </energy>
  </scstep>
  <scstep>
   <time name="dav">   24.91   24.97</time>
   <time name="total">   25.44   25.51</time>
   <energy>
    <i name="e_fr_energy">   -189.81826433 </i>
    <i name="e_wo_entrp">   -189.57953546 </i>
    <i name="e_0_energy">   -189.69889989 </i>
   </energy>
  </scstep>
  <scstep>
   <time name="dav">   23.00   23.05</time>
   <time name="total">   23.53   23.59</time>
   <energy>
    <i name="e_fr_energy">   -189.81808053 </i>
    <i name="e_wo_entrp">   -189.57932312 </i>
    <i name="e_0_energy">   -189.69870182 </i>
   </energy>
  </scstep>
  <scstep>
   <time name="dav">   20.03   20.08</time>
   <time name="total">   20.07   20.12</time>
   <energy>
    <i name="alphaZ">     82.34379785 </i>
    <i name="ewald">  41303.06716155 </i>
    <i name="hartreedc"> -47275.27542866 </i>
    <i name="XCdc">   -235.23323419 </i>
    <i name="pawpsdc">   4039.11671780 </i>
    <i name="pawaedc">  -3454.83724217 </i>
    <i name="eentropy">     -0.23876812 </i>
    <i name="bandstr">  -1410.20362580 </i>
    <i name="atom">   6761.44252427 </i>
    <i name="e_fr_energy">   -189.81809746 </i>
    <i name="e_wo_entrp">   -189.57932934 </i>
    <i name="e_0_energy">   -189.69871340 </i>
   </energy>
  </scstep>
  <structure>
   <crystal>
    <varray name="basis" >
     <v>       8.66916755       4.99665829       0.00000000 </v>
     <v>      -8.67065106       4.99921096       0.00000000 </v>
     <v>       0.00000000       0.00000000      30.00000000 </v>
    </varray>
    <i name="volume">   2599.89833496 </i>
    <varray name="rec_basis" >
     <v>       0.05768546       0.10004989       0.00000000 </v>
     <v>      -0.05765600       0.10003277       0.00000000 </v>
     <v>       0.00000000       0.00000000       0.03333333 </v>
    </varray>
   </crystal>
   <varray name="positions" >
    <v>       0.66485855       0.66370344       0.00006489 </v>
    <v>       1.00041719       0.33369330      -0.00005135 </v>
    <v>       0.33342407       0.66617871       0.00008580 </v>
    <v>       0.66272427       0.33115012      -0.00016333 </v>
    <v>       0.33507163       0.00396756      -0.00000007 </v>
    <v>       0.33505438       0.33145594       0.00005328 </v>
    <v>       0.00406129       0.00191149       0.00008178 </v>
    <v>       0.00008206       0.66650438       0.00007794 </v>
    <v>       0.66435802       0.00172366      -0.00011349 </v>
    <v>       0.10789217       0.22348453       0.95198772 </v>
    <v>       0.22081381       0.11026895       0.04948056 </v>
    <v>       0.11256776       0.55365084       0.95302417 </v>
    <v>       0.21994085       0.44654747       0.04679866 </v>
    <v>       0.11014170       0.88822342       0.95073762 </v>
    <v>       0.22336260       0.77472511       0.04786397 </v>
    <v>       0.44445141       0.22217632       0.95043451 </v>
    <v>       0.55595307       0.11031078       0.04942856 </v>
    <v>       0.44635559       0.55993938       0.95316498 </v>
    <v>       0.55776295       0.44910307       0.04819762 </v>
    <v>       0.44329065       0.88482040       0.95196842 </v>
    <v>       0.55405155       0.77426855       0.04682379 </v>
    <v>       0.78175713       0.22325587       0.95189280 </v>
    <v>       0.89050824       0.11443353       0.04795611 </v>
    <v>       0.77642073       0.55839128       0.95203782 </v>
    <v>       0.89181706       0.44313935       0.04782747 </v>
    <v>       0.77597813       0.88523742       0.95227208 </v>
    <v>       0.88509761       0.77594960       0.04806758 </v>
   </varray>
  </structure>
  <varray name="forces" >
   <v>       0.19033709      -0.25898661      -0.07558233 </v>
   <v>      -0.01387256      -0.00168324       0.08491499 </v>
   <v>       0.02811304      -0.02632489       0.08188681 </v>
   <v>      -0.13680549      -0.61779302      -0.00705564 </v>
   <v>      -0.42053961       0.51423444      -0.00391106 </v>
   <v>       0.67601140      -0.22464163      -0.00614565 </v>
   <v>       0.42088901       0.42043066      -0.08642598 </v>
   <v>      -0.12899037       0.06428518       0.10704289 </v>
   <v>      -0.56076020       0.02438916      -0.10442783 </v>
   <v>      -0.07750387       0.00197757      -0.49149877 </v>
   <v>       0.00208932      -0.01096082       0.87714016 </v>
   <v>       0.06484545      -0.00044900      -0.40314558 </v>
   <v>      -0.06657200       0.01396282       0.25422857 </v>
   <v>      -0.00405060      -0.01218346      -0.55888730 </v>
   <v>       0.07098227      -0.00620860       0.35540557 </v>
   <v>      -0.02074450       0.01033813      -0.97493955 </v>
   <v>       0.02944924      -0.00068384       0.80464939 </v>
   <v>      -0.03254451       0.06994893      -0.35597592 </v>
   <v>      -0.05873806       0.11826575       0.66595654 </v>
   <v>       0.04336291      -0.08866149      -0.46606414 </v>
   <v>       0.00997640      -0.04530006       0.32335145 </v>
   <v>       0.04198640       0.08656608      -0.51724072 </v>
   <v>      -0.01207074       0.04417941       0.31383405 </v>
   <v>      -0.07330507       0.02048794      -0.46120815 </v>
   <v>       0.06187920       0.00467949       0.32690899 </v>
   <v>       0.00926425      -0.03878748      -0.07814105 </v>
   <v>      -0.04268841      -0.06108141       0.39533024 </v>
  </varray>
  <varray name="stress" >
   <v>     -10.15141431      -0.00192139       0.04622116 </v>
   <v>      -0.00192133      -9.76597113       0.01277538 </v>
   <v>       0.04622113       0.01277546       6.49879061 </v>
  </varray>
  <energy>
   <i name="e_fr_energy">   -189.81809746 </i>
   <i name="e_wo_entrp">   -189.69871340 </i>
   <i name="e_0_energy">     -0.23876812 </i>
  </energy>
  <time name="totalsc">  373.35  374.35</time>
 </calculation>
 <calculation>
  <scstep>
   <time name="dav">   21.63   21.69</time>
   <time name="total">   22.15   22.21</time>
   <energy>
    <i name="alphaZ">     85.80425761 </i>
    <i name="ewald">  42825.98941184 </i>
    <i name="hartreedc"> -48842.46710196 </i>
    <i name="XCdc">   -232.96333965 </i>
    <i name="pawpsdc">   4039.27295133 </i>
    <i name="pawaedc">  -3454.99169650 </i>
    <i name="eentropy">     -0.21076433 </i>
    <i name="bandstr">  -1373.28649216 </i>
    <i name="atom">   6761.44252427 </i>
    <i name="e_fr_energy">   -191.41024955 </i>
    <i name="e_wo_entrp">   -191.19948522 </i>
    <i name="e_0_energy">   -191.30486739 </i>
   </energy>
  </scstep>
  <scstep>
   <time name="dav">   31.89   31.97</time>
   <time name="total">   32.40   32.49</time>
   <energy>
    <i name="e_fr_energy">   -191.22227142 </i>
    <i name="e_wo_entrp">   -191.01180470 </i>
    <i name="e_0_energy">   -191.11703806 </i>
   </energy>
  </scstep>
  <scstep>
   <time name="dav">   29.93   30.00</time>
   <time name="total">   30.44   30.52</time>
   <energy>
    <i name="e_fr_energy">   -191.37418546 </i>
    <i name="e_wo_entrp">   -191.14196165 </i>
    <i name="e_0_energy">   -191.25807356 </i>
   </energy>
  </scstep>
  <scstep>
   <time name="dav">   30.11   30.18</time>
   <time name="total">   30.63   30.71</time>
   <energy>
    <i name="e_fr_energy">   -190.99618038 </i>
    <i name="e_wo_entrp">   -190.78304638 </i>
    <i name="e_0_energy">   -190.88961338 </i>
   </energy>
  </scstep>
  <scstep>
   <time name="dav">   30.21   30.29</time>
   <time name="total">   30.74   30.82</time>
   <energy>
    <i name="e_fr_energy">   -190.91674410 </i>
    <i name="e_wo_entrp">   -190.70422560 </i>
    <i name="e_0_energy">   -190.81048485 </i>
   </energy>
  </scstep>
  <scstep>
   <time name="dav">   30.24   30.31</time>
   <time name="total">   30.75   30.83</time>
   <energy>
    <i name="e_fr_energy">   -190.86926143 </i>
    <i name="e_wo_entrp">   -190.65178059 </i>
    <i name="e_0_energy">   -190.76052101 </i>
   </energy>
  </scstep>
  <scstep>
   <time name="dav">   30.80   30.87</time>
   <time name="total">   31.32   31.40</time>
   <energy>
    <i name="e_fr_energy">   -190.84584894 </i>
    <i name="e_wo_entrp">   -190.63008296 </i>
    <i name="e_0_energy">   -190.73796595 </i>
   </energy>
  </scstep>
  <scstep>
   <time name="dav">   28.21   28.28</time>
   <time name="total">   28.72   28.80</time>
   <energy>
    <i name="e_fr_energy">   -190.84396892 </i>
    <i name="e_wo_entrp">   -190.62824211 </i>
    <i name="e_0_energy">   -190.73610551 </i>
   </energy>
  </scstep>
  <scstep>
   <time name="dav">   27.46   27.53</time>
   <time name="total">   27.98   28.06</time>
   <energy>
    <i name="e_fr_energy">   -190.84331176 </i>
    <i name="e_wo_entrp">   -190.62754645 </i>
    <i name="e_0_energy">   -190.73542910 </i>
   </energy>
  </scstep>
  <scstep>
   <time name="dav">   27.96   28.03</time>
   <time name="total">   28.48   28.55</time>
   <energy>
    <i name="e_fr_energy">   -190.84351193 </i>
    <i name="e_wo_entrp">   -190.62777779 </i>
    <i name="e_0_energy">   -190.73564486 </i>
   </energy>
  </scstep>
  <scstep>
   <time name="dav">   26.15   26.21</time>
   <time name="total">   26.67   26.74</time>
   <energy>
    <i name="e_fr_energy">   -190.84332216 </i>
    <i name="e_wo_entrp">   -190.62752588 </i>
    <i name="e_0_energy">   -190.73542402 </i>
   </energy>
  </scstep>
  <scstep>
   <time name="dav">   19.31   19.36</time>
   <time name="total">   19.35   19.40</time>
   <energy>
    <i name="alphaZ">     85.80425761 </i>
    <i name="ewald">  42825.98941184 </i>
    <i name="hartreedc"> -48814.06157297 </i>
    <i name="XCdc">   -234.27844623 </i>
    <i name="pawpsdc">   4064.58783922 </i>
    <i name="pawaedc">  -3480.49686152 </i>
    <i name="eentropy">     -0.21581153 </i>
    <i name="bandstr">  -1399.61467057 </i>
    <i name="atom">   6761.44252427 </i>
    <i name="e_fr_energy">   -190.84332987 </i>
    <i name="e_wo_entrp">   -190.62751834 </i>
    <i name="e_0_energy">   -190.73542410 </i>
   </energy>
  </scstep>
  <structure>
   <crystal>
    <varray name="basis" >
     <v>       8.48699834       4.89782167       0.00000000 </v>
     <v>      -8.48866552       4.90069662       0.00000000 </v>
     <v>       0.00000000       0.00000000      30.00000000 </v>
    </varray>
    <i name="volume">   2495.04522140 </i>
    <varray name="rec_basis" >
     <v>       0.05892514       0.10206627       0.00000000 </v>
     <v>      -0.05889058       0.10204623       0.00000000 </v>
     <v>       0.00000000       0.00000000       0.03333333 </v>
    </varray>
   </crystal>
   <varray name="positions" >
    <v>       0.66405271       0.66145099      -0.00010409 </v>
    <v>       1.00026364       0.33365584       0.00013550 </v>
    <v>       0.33334531       0.66595952       0.00025174 </v>
    <v>       0.65833591       0.32765999      -0.00015818 </v>
    <v>       0.33674303       0.00879476      -0.00000602 </v>
    <v>       0.33599165       0.32736810       0.00003741 </v>
    <v>       0.00824476       0.00294176      -0.00010983 </v>
    <v>      -0.00000916       0.66749306       0.00029643 </v>
    <v>       0.66253926       0.00396854      -0.00032186 </v>
    <v>       0.10770944       0.22416495       0.95054676 </v>
    <v>       0.22104182       0.11035289       0.05179392 </v>
    <v>       0.11303508       0.55320210       0.95179592 </v>
    <v>       0.21973043       0.44694400       0.04768869 </v>
    <v>       0.11031672       0.88825601       0.94910526 </v>
    <v>       0.22396967       0.77452482       0.04900490 </v>
    <v>       0.44443093       0.22232494       0.94792935 </v>
    <v>       0.55592361       0.11033860       0.05157787 </v>
    <v>       0.44673447       0.56063649       0.95205837 </v>
    <v>       0.55837507       0.45022438       0.04999679 </v>
    <v>       0.44249174       0.88378435       0.95058100 </v>
    <v>       0.55361811       0.77355508       0.04787561 </v>
    <v>       0.78277623       0.22403958       0.95039260 </v>
    <v>       0.89091351       0.11512889       0.04901638 </v>
    <v>       0.77594893       0.55872761       0.95067158 </v>
    <v>       0.89197386       0.44257443       0.04890596 </v>
    <v>       0.77558627       0.88459156       0.95171944 </v>
    <v>       0.88413144       0.77555123       0.04931839 </v>
   </varray>
  </structure>
  <varray name="forces" >
   <v>       0.21937351      -0.26702487      -0.07742404 </v>
   <v>      -0.02469156      -0.02550867       0.07691588 </v>
   <v>       0.04912549      -0.03723338       0.04606966 </v>
   <v>      -0.08546578      -0.58989016       0.01999855 </v>
   <v>      -0.43179159       0.47869204      -0.01065272 </v>
   <v>       0.62643761      -0.25506991      -0.00227109 </v>
   <v>       0.49483083       0.46405642      -0.04948332 </v>
   <v>      -0.15294375       0.07382671       0.07079716 </v>
   <v>      -0.62596706       0.00420250      -0.07203580 </v>
   <v>       0.02790234       0.07446983      -0.32823909 </v>
   <v>       0.02644039       0.04802102       0.69237726 </v>
   <v>       0.02349161       0.01021167      -0.28381458 </v>
   <v>       0.08681201       0.01134514       0.18561453 </v>
   <v>       0.07778218       0.07366874      -0.40213983 </v>
   <v>      -0.02575697       0.08621813       0.19872333 </v>
   <v>      -0.00525615       0.01283593      -0.78218623 </v>
   <v>      -0.06397417      -0.01784380       0.60209196 </v>
   <v>       0.04308226      -0.05819239      -0.25347944 </v>
   <v>       0.00510078      -0.02986836       0.47888227 </v>
   <v>      -0.07681048      -0.03411955      -0.30254426 </v>
   <v>      -0.02181762       0.01012212       0.21689227 </v>
   <v>      -0.06852745       0.05377683      -0.39286180 </v>
   <v>       0.01559664      -0.00820025       0.12010278 </v>
   <v>       0.02714607      -0.05384597      -0.28228130 </v>
   <v>      -0.04703556      -0.06856089       0.16407926 </v>
   <v>      -0.02096063       0.04491967       0.08392395 </v>
   <v>      -0.07212296      -0.00100853       0.28294464 </v>
  </varray>
  <varray name="stress" >
   <v>      -5.58499738      -0.07706784      -0.12074520 </v>
   <v>      -0.07706770      -5.70722324      -0.09205439 </v>
   <v>      -0.12074524      -0.09205441       4.45475048 </v>
  </varray>
  <energy>
   <i name="e_fr_energy">   -190.84332987 </i>
   <i name="e_wo_entrp">   -190.73542410 </i>
   <i name="e_0_energy">     -0.21581153 </i>
  </energy>
  <time name="totalsc">  381.46  382.47</time>
 </calculation>
 <calculation>
  <scstep>
   <time name="dav">   21.67   21.72</time>
   <time name="total">   22.18   22.23</time>
   <energy>
    <i name="alphaZ">     89.97319313 </i>
    <i name="ewald">  44581.53959135 </i>
    <i name="hartreedc"> -50622.44685051 </i>
    <i name="XCdc">   -231.92893083 </i>
    <i name="pawpsdc">   4064.54964511 </i>
    <i name="pawaedc">  -3480.45459038 </i>
    <i name="eentropy">     -0.21415447 </i>
    <i name="bandstr">  -1354.62157388 </i>
    <i name="atom">   6761.44252427 </i>
    <i name="e_fr_energy">   -192.16114621 </i>
    <i name="e_wo_entrp">   -191.94699174 </i>
    <i name="e_0_energy">   -192.05406898 </i>
   </energy>
  </scstep>
  <scstep>
   <time name="dav">   27.17   27.24</time>
   <time name="total">   27.68   27.76</time>
   <energy>
    <i name="e_fr_energy">   -191.93156046 </i>
    <i name="e_wo_entrp">   -191.71564960 </i>
    <i name="e_0_energy">   -191.82360503 </i>
   </energy>
  </scstep>
  <scstep>
   <time name="dav">   29.17   29.24</time>
   <time name="total">   29.68   29.76</time>
   <energy>
    <i name="e_fr_energy">   -191.80823165 </i>
    <i name="e_wo_entrp">   -191.58178448 </i>
    <i name="e_0_energy">   -191.69500806 </i>
   </energy>
  </scstep>
  <scstep>
   <time name="dav">   30.02   30.09</time>
   <time name="total">   30.53   30.61</time>
   <energy>
    <i name="e_fr_energy">   -191.82784728 </i>
    <i name="e_wo_entrp">   -191.62320412 </i>
    <i name="e_0_energy">   -191.72552570 </i>
   </energy>
  </scstep>
  <scstep>
   <time name="dav">   30.17   30.24</time>
   <time name="total">   30.68   30.76</time>
   <energy>
    <i name="e_fr_energy">   -191.55225921 </i>
    <i name="e_wo_entrp">   -191.33080906 </i>
    <i name="e_0_energy">   -191.44153414 </i>
   </energy>
  </scstep>
  <scstep>
   <time name="dav">   28.84   28.91</time>
   <time name="total">   29.35   29.42</time>
   <energy>
    <i name="e_fr_energy">   -191.54313158 </i>
    <i name="e_wo_entrp">   -191.32211917 </i>
    <i name="e_0_energy">   -191.43262538 </i>
   </energy>
  </scstep>
  <scstep>
   <time name="dav">   29.40   29.47</time>
   <time name="total">   29.91   29.99</time>
   <energy>
    <i name="e_fr_energy">   -191.54858205 </i>
    <i name="e_wo_entrp">   -191.32761863 </i>
    <i name="e_0_energy">   -191.43810034 </i>
   </energy>
  </scstep>
  <scstep>
   <time name="dav">   28.43   28.50</time>
   <time name="total">   28.94   29.02</time>
   <energy>
    <i name="e_fr_energy">   -191.53780050 </i>
    <i name="e_wo_entrp">   -191.31698161 </i>
    <i name="e_0_energy">   -191.42739105 </i>
   </energy>
  </scstep>
  <scstep>
   <time name="dav">   28.31   28.37</time>
   <time name="total">   28.81   28.89</time>
   <energy>
    <i name="e_fr_energy">   -191.53829494 </i>
    <i name="e_wo_entrp">   -191.31767033 </i>
    <i name="e_0_energy">   -191.42798264 </i>
   </energy>
  </scstep>
  <scstep>
   <time name="dav">   29.27   29.34</time>
   <time name="total">   29.77   29.85</time>
   <energy>
    <i name="e_fr_energy">   -191.53834860 </i>
    <i name="e_wo_entrp">   -191.31729517 </i>
    <i name="e_0_energy">   -191.42782188 </i>
   </energy>
  </scstep>
  <scstep>
   <time name="dav">   25.37   25.43</time>
   <time name="total">   25.88   25.95</time>
   <energy>
    <i name="e_fr_energy">   -191.53792061 </i>
    <i name="e_wo_entrp">   -191.31710090 </i>
    <i name="e_0_energy">   -191.42751076 </i>
   </energy>
  </scstep>
  <scstep>
   <time name="dav">   17.50   17.55</time>
   <time name="total">   17.54   17.59</time>
   <energy>
    <i name="alphaZ">     89.97319313 </i>
    <i name="ewald">  44581.53959135 </i>
    <i name="hartreedc"> -50590.59484680 </i>
    <i name="XCdc">   -233.36605488 </i>
    <i name="pawpsdc">   4087.92262667 </i>
    <i name="pawaedc">  -3503.96549005 </i>
    <i name="eentropy">     -0.22091195 </i>
    <i name="bandstr">  -1384.26852036 </i>
    <i name="atom">   6761.44252427 </i>
    <i name="e_fr_energy">   -191.53788861 </i>
    <i name="e_wo_entrp">   -191.31697667 </i>
    <i name="e_0_energy">   -191.42743264 </i>
   </energy>
  </scstep>
  <structure>
   <crystal>
    <varray name="basis" >
     <v>       8.28816619       4.77764109       0.00000000 </v>
     <v>      -8.29437959       4.78839125       0.00000000 </v>
     <v>       0.00000000       0.00000000      30.00000000 </v>
    </varray>
    <i name="volume">   2379.43653537 </i>
    <varray name="rec_basis" >
     <v>       0.06037217       0.10457576       0.00000000 </v>
     <v>      -0.06023663       0.10449742       0.00000000 </v>
     <v>       0.00000000       0.00000000       0.03333333 </v>
    </varray>
   </crystal>
   <varray name="positions" >
    <v>       0.66250739       0.65686186      -0.00041768 </v>
    <v>       0.99973506       0.33346475       0.00045051 </v>
    <v>       0.33322066       0.66526626       0.00044497 </v>
    <v>       0.65059908       0.32109440      -0.00007252 </v>
    <v>       0.33951037       0.01761165      -0.00004162 </v>
    <v>       0.33724787       0.31975923       0.00002316 </v>
    <v>       0.01707690       0.00497593      -0.00033479 </v>
    <v>      -0.00020554       0.66952006       0.00058644 </v>
    <v>       0.65843306       0.00837005      -0.00060956 </v>
    <v>       0.10867164       0.22526897       0.94872304 </v>
    <v>       0.22199863       0.11084842       0.05512455 </v>
    <v>       0.11359872       0.55287478       0.95019986 </v>
    <v>       0.22026411       0.44670174       0.04884459 </v>
    <v>       0.11181215       0.88864160       0.94694071 </v>
    <v>       0.22519062       0.77559947       0.05030204 </v>
    <v>       0.44451836       0.22253408       0.94425752 </v>
    <v>       0.55523840       0.11066009       0.05455144 </v>
    <v>       0.44653496       0.56007382       0.95061509 </v>
    <v>       0.55832189       0.45031101       0.05241457 </v>
    <v>       0.44113989       0.88335368       0.94885793 </v>
    <v>       0.55332580       0.77327618       0.04919280 </v>
    <v>       0.78345590       0.22553509       0.94833105 </v>
    <v>       0.89116994       0.11544438       0.05003288 </v>
    <v>       0.77515102       0.55804599       0.94903164 </v>
    <v>       0.89094250       0.44168953       0.05006786 </v>
    <v>       0.77567219       0.88470486       0.95153326 </v>
    <v>       0.88308291       0.77572655       0.05095014 </v>
   </varray>
  </structure>
  <varray name="forces" >
   <v>       0.27139752      -0.37770363      -0.00475062 </v>
   <v>      -0.05666207      -0.03273498       0.02060993 </v>
   <v>       0.13093828      -0.05016381       0.04558592 </v>
   <v>       0.02899909      -0.09404299      -0.06725535 </v>
   <v>      -0.04543133      -0.02671797      -0.02536326 </v>
   <v>       0.04896503      -0.02876770      -0.04520306 </v>
   <v>       0.41726539       0.34742533       0.06523796 </v>
   <v>      -0.15416342       0.13948588       0.05112004 </v>
   <v>      -0.58517881      -0.03795171      -0.01557893 </v>
   <v>       0.15518166       0.09621942      -0.02494320 </v>
   <v>       0.06022449       0.05724125       0.30042987 </v>
   <v>      -0.03900399       0.00270992       0.00238208 </v>
   <v>       0.22783189      -0.01075202      -0.02577805 </v>
   <v>       0.15385939       0.16231777      -0.17402477 </v>
   <v>      -0.13255180       0.14757510      -0.09088682 </v>
   <v>       0.01039734       0.03086296      -0.27923610 </v>
   <v>      -0.12153297      -0.07478324       0.25273734 </v>
   <v>       0.11693247      -0.17955020      -0.01916714 </v>
   <v>       0.07234196      -0.14847684       0.12723771 </v>
   <v>      -0.23219594       0.02628939      -0.03605289 </v>
   <v>      -0.03045724       0.09446583      -0.08598075 </v>
   <v>      -0.16208709       0.00363824      -0.11083317 </v>
   <v>       0.08712864      -0.10008804      -0.20397429 </v>
   <v>       0.13406497      -0.11510011       0.00887847 </v>
   <v>      -0.17204042      -0.10981767      -0.09270893 </v>
   <v>      -0.09113476       0.19619793       0.41953400 </v>
   <v>      -0.09308829       0.08222191       0.00798399 </v>
  </varray>
  <varray name="stress" >
   <v>       0.56335790      -0.22213827      -0.16506942 </v>
   <v>      -0.22213815       0.33797918      -0.30423526 </v>
   <v>      -0.16506939      -0.30423501      -0.66093585 </v>
  </varray>
  <energy>
   <i name="e_fr_energy">   -191.53788861 </i>
   <i name="e_wo_entrp">   -191.42743264 </i>
   <i name="e_0_energy">     -0.22091195 </i>
  </energy>
  <time name="totalsc">  373.02  374.01</time>
 </calculation>
 <calculation>
  <scstep>
   <time name="dav">   21.62   21.68</time>
   <time name="total">   22.13   22.19</time>
   <energy>
    <i name="alphaZ">     89.67002576 </i>
    <i name="ewald">  44432.60095692 </i>
    <i name="hartreedc"> -50438.81665654 </i>
    <i name="XCdc">   -233.62655276 </i>
    <i name="pawpsdc">   4087.78298991 </i>
    <i name="pawaedc">  -3503.82053119 </i>
    <i name="eentropy">     -0.22176242 </i>
    <i name="bandstr">  -1386.62160396 </i>
    <i name="atom">   6761.44252427 </i>
    <i name="e_fr_energy">   -191.61061001 </i>
    <i name="e_wo_entrp">   -191.38884759 </i>
    <i name="e_0_energy">   -191.49972880 </i>
   </energy>
  </scstep>
  <scstep>
   <time name="dav">   31.83   31.90</time>
   <time name="total">   32.33   32.42</time>
   <energy>
    <i name="e_fr_energy">   -191.66224473 </i>
    <i name="e_wo_entrp">   -191.43355585 </i>
    <i name="e_0_energy">   -191.54790029 </i>
   </energy>
  </scstep>
  <scstep>
   <time name="dav">   30.49   30.56</time>
   <time name="total">   31.00   31.08</time>
   <energy>
    <i name="e_fr_energy">   -191.62050299 </i>
    <i name="e_wo_entrp">   -191.39819670 </i>
    <i name="e_0_energy">   -191.50934985 </i>
   </energy>
  </scstep>
  <scstep>
   <time name="dav">   25.98   26.04</time>
   <time name="total">   26.48   26.56</time>
   <energy>
    <i name="e_fr_energy">   -191.62388984 </i>
    <i name="e_wo_entrp">   -191.40218721 </i>
    <i name="e_0_energy">   -191.51303853 </i>
   </energy>
  </scstep>
  <scstep>
   <time name="dav">   27.87   27.94</time>
   <time name="total">   28.37   28.45</time>
   <energy>
    <i name="e_fr_energy">   -191.61725255 </i>
    <i name="e_wo_entrp">   -191.39354428 </i>
    <i name="e_0_energy">   -191.50539842 </i>
   </energy>
  </scstep>
  <scstep>
   <time name="dav">   27.63   27.70</time>
   <time name="total">   28.14   28.21</time>
   <energy>
    <i name="e_fr_energy">   -191.61801205 </i>
    <i name="e_wo_entrp">   -191.39543243 </i>
    <i name="e_0_energy">   -191.50672224 </i>
   </energy>
  </scstep>
  <scstep>
   <time name="dav">   27.73   27.80</time>
   <time name="total">   28.24   28.31</time>
   <energy>
    <i name="e_fr_energy">   -191.61685370 </i>
    <i name="e_wo_entrp">   -191.39410233 </i>
    <i name="e_0_energy">   -191.50547802 </i>
   </energy>
  </scstep>
  <scstep>
   <time name="dav">   25.06   25.12</time>
   <time name="total">   25.56   25.63</time>
   <energy>
    <i name="e_fr_energy">   -191.61640567 </i>
    <i name="e_wo_entrp">   -191.39363619 </i>
    <i name="e_0_energy">   -191.50502093 </i>
   </energy>
  </scstep>
  <scstep>
   <time name="dav">   18.50   18.55</time>
   <time name="total">   18.54   18.59</time>
   <energy>
    <i name="alphaZ">     89.67002576 </i>
    <i name="ewald">  44432.60095692 </i>
    <i name="hartreedc"> -50442.22761638 </i>
    <i name="XCdc">   -233.50478481 </i>
    <i name="pawpsdc">   4083.85243874 </i>
    <i name="pawaedc">  -3499.83851535 </i>
    <i name="eentropy">     -0.22280100 </i>
    <i name="bandstr">  -1383.38863553 </i>
    <i name="atom">   6761.44252427 </i>
    <i name="e_fr_energy">   -191.61640737 </i>
    <i name="e_wo_entrp">   -191.39360637 </i>
    <i name="e_0_energy">   -191.50500687 </i>
   </energy>
  </scstep>
  <structure>
   <crystal>
    <varray name="basis" >
     <v>       8.30187329       4.78006281       0.00000000 </v>
     <v>      -8.31313890       4.79956511       0.00000000 </v>
     <v>       0.00000000       0.00000000      30.00000000 </v>
    </varray>
    <i name="volume">   2387.48122483 </i>
    <varray name="rec_basis" >
     <v>       0.06030915       0.10445911       0.00000000 </v>
     <v>      -0.06006409       0.10431755       0.00000000 </v>
     <v>       0.00000000       0.00000000       0.03333333 </v>
    </varray>
   </crystal>
   <varray name="positions" >
    <v>       0.66153684       0.65456131      -0.00041088 </v>
    <v>       0.99945354       0.33347437       0.00046718 </v>
    <v>       0.33334547       0.66470654       0.00050415 </v>
    <v>       0.65057453       0.32086357      -0.00017666 </v>
    <v>       0.33914266       0.01722508      -0.00007806 </v>
    <v>       0.33719185       0.31982865      -0.00004342 </v>
    <v>       0.01944986       0.00539047      -0.00022691 </v>
    <v>       0.00003965       0.67049655       0.00064969 </v>
    <v>       0.65684867       0.00957748      -0.00062016 </v>
    <v>       0.10950236       0.22524064       0.94878098 </v>
    <v>       0.22238139       0.11092911       0.05540949 </v>
    <v>       0.11347335       0.55301528       0.95028705 </v>
    <v>       0.22081176       0.44604181       0.04874326 </v>
    <v>       0.11291927       0.88896763       0.94679280 </v>
    <v>       0.22545894       0.77660341       0.05009487 </v>
    <v>       0.44468782       0.22264064       0.94401861 </v>
    <v>       0.55459132       0.11062131       0.05478086 </v>
    <v>       0.44601378       0.55893152       0.95066254 </v>
    <v>       0.55781720       0.44940443       0.05248323 </v>
    <v>       0.44070700       0.88413702       0.94889497 </v>
    <v>       0.55370577       0.77382814       0.04899361 </v>
    <v>       0.78299073       0.22591250       0.94827083 </v>
    <v>       0.89091866       0.11471286       0.04966851 </v>
    <v>       0.77501953       0.55717224       0.94913191 </v>
    <v>       0.89000594       0.44168978       0.04986381 </v>
    <v>       0.77634897       0.88587903       0.95218197 </v>
    <v>       0.88327760       0.77636310       0.05087568 </v>
   </varray>
  </structure>
  <varray name="forces" >
   <v>       0.29548921      -0.46193616      -0.00546373 </v>
   <v>      -0.04458088      -0.04101560       0.03383894 </v>
   <v>       0.15848684      -0.04877554       0.05947089 </v>
   <v>       0.01137590      -0.19987516      -0.01856929 </v>
   <v>      -0.13100089       0.06112024      -0.02845769 </v>
   <v>       0.15435990      -0.04024880      -0.02528722 </v>
   <v>       0.45034840       0.38334175      -0.00087501 </v>
   <v>      -0.17430217       0.19730947       0.04841079 </v>
   <v>      -0.63612358      -0.02868496      -0.03306650 </v>
   <v>       0.09793828       0.03554320      -0.01519843 </v>
   <v>       0.04910186       0.07874085       0.23546312 </v>
   <v>      -0.02715095       0.00024205       0.03734625 </v>
   <v>       0.11043373      -0.01344219      -0.03489030 </v>
   <v>       0.09048770       0.08548604      -0.16043933 </v>
   <v>      -0.05042243       0.07600303      -0.06683135 </v>
   <v>       0.00557692       0.00665972      -0.16634970 </v>
   <v>      -0.10989840      -0.02863448       0.20056663 </v>
   <v>       0.07244983      -0.09690383      -0.04291334 </v>
   <v>       0.05068123      -0.06944045       0.12520865 </v>
   <v>      -0.14095782      -0.00663244      -0.05347749 </v>
   <v>      -0.01638043       0.07605787      -0.11966111 </v>
   <v>      -0.09690215       0.01141253      -0.10704426 </v>
   <v>       0.05794674      -0.07504210      -0.21359647 </v>
   <v>       0.08445898      -0.05706130      -0.00886266 </v>
   <v>      -0.11260019      -0.03086710      -0.10247410 </v>
   <v>      -0.07692412       0.13344489       0.48043450 </v>
   <v>      -0.07189150       0.05319847      -0.01728179 </v>
  </varray>
  <varray name="stress" >
   <v>      -0.09696131       0.05728483      -0.11067013 </v>
   <v>       0.05728479      -0.26307138      -0.03821331 </v>
   <v>      -0.11066994      -0.03821322      -1.19417137 </v>
  </varray>
  <energy>
   <i name="e_fr_energy">   -191.61640737 </i>
   <i name="e_wo_entrp">   -191.50500687 </i>
   <i name="e_0_energy">     -0.22280100 </i>
  </energy>
  <time name="totalsc">  282.88  283.63</time>
 </calculation>
 <calculation>
  <scstep>
   <time name="dav">   21.67   21.72</time>
   <time name="total">   22.18   22.24</time>
   <energy>
    <i name="alphaZ">     89.75505529 </i>
    <i name="ewald">  44471.08905776 </i>
    <i name="hartreedc"> -50481.54373990 </i>
    <i name="XCdc">   -233.44991638 </i>
    <i name="pawpsdc">   4083.43590644 </i>
    <i name="pawaedc">  -3499.41769517 </i>
    <i name="eentropy">     -0.22154084 </i>
    <i name="bandstr">  -1382.77509205 </i>
    <i name="atom">   6761.44252427 </i>
    <i name="e_fr_energy">   -191.68544056 </i>
    <i name="e_wo_entrp">   -191.46389973 </i>
    <i name="e_0_energy">   -191.57467014 </i>
   </energy>
  </scstep>
  <scstep>
   <time name="dav">   31.71   31.78</time>
   <time name="total">   32.21   32.30</time>
   <energy>
    <i name="e_fr_energy">   -191.71412392 </i>
    <i name="e_wo_entrp">   -191.48639557 </i>
    <i name="e_0_energy">   -191.60025975 </i>
   </energy>
  </scstep>
  <scstep>
   <time name="dav">   30.40   30.47</time>
   <time name="total">   30.91   30.99</time>
   <energy>
    <i name="e_fr_energy">   -191.69168808 </i>
    <i name="e_wo_entrp">   -191.46982202 </i>
    <i name="e_0_energy">   -191.58075505 </i>
   </energy>
  </scstep>
  <scstep>
   <time name="dav">   27.13   27.20</time>
   <time name="total">   27.64   27.71</time>
   <energy>
    <i name="e_fr_energy">   -191.69211672 </i>
    <i name="e_wo_entrp">   -191.47109929 </i>
    <i name="e_0_energy">   -191.58160800 </i>
   </energy>
  </scstep>
  <scstep>
   <time name="dav">   27.70   27.77</time>
   <time name="total">   28.21   28.28</time>
   <energy>
    <i name="e_fr_energy">   -191.68932998 </i>
    <i name="e_wo_entrp">   -191.46625769 </i>
    <i name="e_0_energy">   -191.57779384 </i>
   </energy>
  </scstep>
  <scstep>
   <time name="dav">   28.08   28.14</time>
   <time name="total">   28.58   28.66</time>
   <energy>
    <i name="e_fr_energy">   -191.68936072 </i>
    <i name="e_wo_entrp">   -191.46691090 </i>
    <i name="e_0_energy">   -191.57813581 </i>
   </energy>
  </scstep>
  <scstep>
   <time name="dav">   25.59   25.65</time>
   <time name="total">   26.10   26.16</time>
   <energy>
    <i name="e_fr_energy">   -191.68940363 </i>
    <i name="e_wo_entrp">   -191.46676584 </i>
    <i name="e_0_energy">   -191.57808473 </i>
   </energy>
  </scstep>
  <scstep>
[...]
      <set comment="kpoint 31">
       <r>  -17.4875    1.0000 </r>
       <r>  -17.2526    1.0000 </r>
       <r>  -16.9226    1.0000 </r>
       <r>  -16.5853    1.0000 </r>
       <r>  -16.4970    1.0000 </r>
       <r>  -16.4098    1.0000 </r>
       <r>  -16.2805    1.0000 </r>
       <r>  -16.1609    1.0000 </r>
       <r>  -16.0885    1.0000 </r>
       <r>  -16.0264    1.0000 </r>
       <r>  -15.9158    1.0000 </r>
       <r>  -15.8621    1.0000 </r>
       <r>  -15.8351    1.0000 </r>
       <r>  -15.7383    1.0000 </r>
       <r>  -15.6606    1.0000 </r>
       <r>  -15.5526    1.0000 </r>
       <r>  -15.4362    1.0000 </r>
       <r>  -15.3153    1.0000 </r>
       <r>   -9.6943    1.0000 </r>
       <r>   -9.4202    1.0000 </r>
       <r>   -9.2964    1.0000 </r>
       <r>   -8.9053    1.0000 </r>
       <r>   -8.8254    1.0000 </r>
       <r>   -8.7036    1.0000 </r>
       <r>   -8.5428    1.0000 </r>
       <r>   -8.4935    1.0000 </r>
       <r>   -8.4197    1.0000 </r>
       <r>   -8.3300    1.0000 </r>
       <r>   -8.2798    1.0000 </r>
       <r>   -8.1844    1.0000 </r>
       <r>   -8.1598    1.0000 </r>
       <r>   -8.0994    1.0000 </r>
       <r>   -8.0016    1.0000 </r>
       <r>   -7.8763    1.0000 </r>
       <r>   -7.8021    1.0000 </r>
       <r>   -7.6449    1.0000 </r>
       <r>   -7.5826    1.0000 </r>
       <r>   -7.4270    1.0000 </r>
       <r>   -7.3130    1.0000 </r>
       <r>   -7.1710    1.0000 </r>
       <r>   -7.1204    1.0000 </r>
       <r>   -7.0766    1.0000 </r>
       <r>   -7.0088    1.0000 </r>
       <r>   -6.9727    1.0000 </r>
       <r>   -6.8575    1.0000 </r>
       <r>   -6.8411    1.0000 </r>
       <r>   -6.7223    1.0000 </r>
       <r>   -6.6077    1.0000 </r>
       <r>   -6.5640    1.0000 </r>
       <r>   -6.4817    1.0000 </r>
       <r>   -6.4059    1.0000 </r>
       <r>   -6.3856    1.0000 </r>
       <r>   -6.2752    1.0000 </r>
       <r>   -6.1886    1.0000 </r>
       <r>   -6.1452    1.0000 </r>
       <r>   -6.0564    1.0000 </r>
       <r>   -6.0216    1.0000 </r>
       <r>   -5.9197    1.0000 </r>
       <r>   -5.8754    1.0000 </r>
       <r>   -5.7973    1.0000 </r>
       <r>   -5.7100    1.0000 </r>
       <r>   -5.6373    1.0000 </r>
       <r>   -5.5474    1.0000 </r>
       <r>   -5.3633    1.0000 </r>
       <r>   -5.2546    1.0000 </r>
       <r>   -5.1863    1.0000 </r>
       <r>   -5.1132    1.0000 </r>
       <r>   -4.9023    1.0000 </r>
       <r>   -4.7646    1.0000 </r>
       <r>   -4.7484    1.0000 </r>
       <r>   -4.6268    1.0000 </r>
       <r>   -4.4422    1.0000 </r>
       <r>   -4.4005    1.0000 </r>
       <r>   -4.3123    1.0000 </r>
       <r>   -4.1837    1.0000 </r>
       <r>   -3.9554    1.0000 </r>
       <r>   -3.7998    0.9999 </r>
       <r>   -3.6640    0.9966 </r>
       <r>   -3.5289    0.9603 </r>
       <r>   -3.2839    0.5088 </r>
       <r>   -2.9789    0.0164 </r>
       <r>   -2.7865    0.0002 </r>
       <r>   -2.6182    0.0000 </r>
       <r>   -2.5104    0.0000 </r>
       <r>   -2.4557    0.0000 </r>
       <r>   -2.3509    0.0000 </r>
       <r>   -2.3017    0.0000 </r>
       <r>   -2.1381    0.0000 </r>
       <r>   -2.0525    0.0000 </r>
       <r>   -1.9415    0.0000 </r>
       <r>   -1.8432    0.0000 </r>
       <r>   -1.8086    0.0000 </r>
       <r>   -1.4711    0.0000 </r>
       <r>   -1.3317    0.0000 </r>
       <r>   -1.2514    0.0000 </r>
       <r>   -1.1714    0.0000 </r>
       <r>   -1.1472    0.0000 </r>
       <r>   -1.0526    0.0000 </r>
       <r>   -0.9762    0.0000 </r>
       <r>   -0.9424    0.0000 </r>
       <r>   -0.8519    0.0000 </r>
       <r>   -0.7360    0.0000 </r>
       <r>   -0.6496    0.0000 </r>
       <r>   -0.5338    0.0000 </r>
       <r>   -0.4487    0.0000 </r>
       <r>   -0.4080    0.0000 </r>
       <r>   -0.2869    0.0000 </r>
       <r>   -0.0674    0.0000 </r>
       <r>   -0.0454    0.0000 </r>
       <r>    0.1242    0.0000 </r>
       <r>    0.3569    0.0000 </r>
       <r>    0.5588    0.0000 </r>
       <r>    0.7237    0.0000 </r>
       <r>    0.9616    0.0000 </r>
       <r>    1.0741    0.0000 </r>
       <r>    1.4031    0.0000 </r>
       <r>    1.5449    0.0000 </r>
       <r>    2.1253    0.0000 </r>
       <r>    2.2872    0.0000 </r>
       <r>    2.3864    0.0000 </r>
      </set>
      <set comment="kpoint 32">
       <r>  -17.5073    1.0000 </r>
       <r>  -17.1328    1.0000 </r>
       <r>  -17.0766    1.0000 </r>
       <r>  -16.5878    1.0000 </r>
       <r>  -16.4200    1.0000 </r>
       <r>  -16.3559    1.0000 </r>
       <r>  -16.2658    1.0000 </r>
       <r>  -16.2042    1.0000 </r>
       <r>  -16.1110    1.0000 </r>
       <r>  -16.0050    1.0000 </r>
       <r>  -15.9444    1.0000 </r>
       <r>  -15.8992    1.0000 </r>
       <r>  -15.8384    1.0000 </r>
       <r>  -15.7372    1.0000 </r>
       <r>  -15.6532    1.0000 </r>
       <r>  -15.5652    1.0000 </r>
       <r>  -15.4182    1.0000 </r>
       <r>  -15.3052    1.0000 </r>
       <r>   -9.6059    1.0000 </r>
       <r>   -9.5425    1.0000 </r>
       <r>   -9.3740    1.0000 </r>
       <r>   -8.9098    1.0000 </r>
       <r>   -8.7520    1.0000 </r>
       <r>   -8.5294    1.0000 </r>
       <r>   -8.4800    1.0000 </r>
       <r>   -8.4625    1.0000 </r>
       <r>   -8.4091    1.0000 </r>
       <r>   -8.3453    1.0000 </r>
       <r>   -8.2854    1.0000 </r>
       <r>   -8.2485    1.0000 </r>
       <r>   -8.1902    1.0000 </r>
       <r>   -8.1501    1.0000 </r>
       <r>   -8.0349    1.0000 </r>
       <r>   -7.9522    1.0000 </r>
       <r>   -7.8201    1.0000 </r>
       <r>   -7.6125    1.0000 </r>
       <r>   -7.5400    1.0000 </r>
       <r>   -7.4515    1.0000 </r>
       <r>   -7.3244    1.0000 </r>
       <r>   -7.2124    1.0000 </r>
       <r>   -7.1235    1.0000 </r>
       <r>   -7.0796    1.0000 </r>
       <r>   -6.9702    1.0000 </r>
       <r>   -6.9520    1.0000 </r>
       <r>   -6.9456    1.0000 </r>
       <r>   -6.8004    1.0000 </r>
       <r>   -6.7162    1.0000 </r>
       <r>   -6.6027    1.0000 </r>
       <r>   -6.5291    1.0000 </r>
       <r>   -6.4888    1.0000 </r>
       <r>   -6.4162    1.0000 </r>
       <r>   -6.3680    1.0000 </r>
       <r>   -6.2651    1.0000 </r>
       <r>   -6.2111    1.0000 </r>
       <r>   -6.1439    1.0000 </r>
       <r>   -6.0945    1.0000 </r>
       <r>   -5.9924    1.0000 </r>
       <r>   -5.9143    1.0000 </r>
       <r>   -5.8680    1.0000 </r>
       <r>   -5.7173    1.0000 </r>
       <r>   -5.6682    1.0000 </r>
       <r>   -5.5991    1.0000 </r>
       <r>   -5.5080    1.0000 </r>
       <r>   -5.4292    1.0000 </r>
       <r>   -5.3055    1.0000 </r>
       <r>   -5.2025    1.0000 </r>
       <r>   -5.1190    1.0000 </r>
       <r>   -5.0395    1.0000 </r>
       <r>   -4.7714    1.0000 </r>
       <r>   -4.6711    1.0000 </r>
       <r>   -4.6027    1.0000 </r>
       <r>   -4.4782    1.0000 </r>
       <r>   -4.3902    1.0000 </r>
       <r>   -4.3248    1.0000 </r>
       <r>   -4.1970    1.0000 </r>
       <r>   -4.0076    1.0000 </r>
       <r>   -3.8036    0.9999 </r>
       <r>   -3.6557    0.9960 </r>
       <r>   -3.4552    0.8912 </r>
       <r>   -3.2719    0.4751 </r>
       <r>   -3.0562    0.0562 </r>
       <r>   -2.7365    0.0001 </r>
       <r>   -2.5784    0.0000 </r>
       <r>   -2.5006    0.0000 </r>
       <r>   -2.4399    0.0000 </r>
       <r>   -2.3421    0.0000 </r>
       <r>   -2.2580    0.0000 </r>
       <r>   -2.1418    0.0000 </r>
       <r>   -2.0546    0.0000 </r>
       <r>   -1.9392    0.0000 </r>
       <r>   -1.8708    0.0000 </r>
       <r>   -1.8191    0.0000 </r>
       <r>   -1.4884    0.0000 </r>
       <r>   -1.3696    0.0000 </r>
       <r>   -1.2558    0.0000 </r>
       <r>   -1.1697    0.0000 </r>
       <r>   -1.1414    0.0000 </r>
       <r>   -1.0498    0.0000 </r>
       <r>   -0.9710    0.0000 </r>
       <r>   -0.9196    0.0000 </r>
       <r>   -0.8291    0.0000 </r>
       <r>   -0.7422    0.0000 </r>
       <r>   -0.6515    0.0000 </r>
       <r>   -0.5616    0.0000 </r>
       <r>   -0.4601    0.0000 </r>
       <r>   -0.4349    0.0000 </r>
       <r>   -0.2462    0.0000 </r>
       <r>   -0.1207    0.0000 </r>
       <r>    0.0518    0.0000 </r>
       <r>    0.1684    0.0000 </r>
       <r>    0.3737    0.0000 </r>
       <r>    0.5773    0.0000 </r>
       <r>    0.7535    0.0000 </r>
       <r>    0.9300    0.0000 </r>
       <r>    1.0670    0.0000 </r>
       <r>    1.2933    0.0000 </r>
       <r>    1.4874    0.0000 </r>
       <r>    2.0895    0.0000 </r>
       <r>    2.2568    0.0000 </r>
       <r>    2.5457    0.0000 </r>
      </set>
      <set comment="kpoint 33">
       <r>  -17.4934    1.0000 </r>
       <r>  -17.2501    1.0000 </r>
       <r>  -16.9174    1.0000 </r>
       <r>  -16.5949    1.0000 </r>
       <r>  -16.5040    1.0000 </r>
       <r>  -16.3682    1.0000 </r>
       <r>  -16.2867    1.0000 </r>
       <r>  -16.1671    1.0000 </r>
       <r>  -16.0817    1.0000 </r>
       <r>  -15.9854    1.0000 </r>
       <r>  -15.9600    1.0000 </r>
       <r>  -15.8970    1.0000 </r>
       <r>  -15.8225    1.0000 </r>
       <r>  -15.7420    1.0000 </r>
       <r>  -15.6559    1.0000 </r>
       <r>  -15.5769    1.0000 </r>
       <r>  -15.4138    1.0000 </r>
       <r>  -15.3114    1.0000 </r>
       <r>   -9.7008    1.0000 </r>
       <r>   -9.3968    1.0000 </r>
       <r>   -9.2934    1.0000 </r>
       <r>   -8.9772    1.0000 </r>
       <r>   -8.8582    1.0000 </r>
       <r>   -8.7205    1.0000 </r>
       <r>   -8.4949    1.0000 </r>
       <r>   -8.4175    1.0000 </r>
       <r>   -8.3864    1.0000 </r>
       <r>   -8.3142    1.0000 </r>
       <r>   -8.2847    1.0000 </r>
       <r>   -8.2292    1.0000 </r>
       <r>   -8.1318    1.0000 </r>
       <r>   -8.0668    1.0000 </r>
       <r>   -8.0101    1.0000 </r>
       <r>   -7.9010    1.0000 </r>
       <r>   -7.8106    1.0000 </r>
       <r>   -7.6392    1.0000 </r>
       <r>   -7.6014    1.0000 </r>
       <r>   -7.4403    1.0000 </r>
       <r>   -7.2769    1.0000 </r>
       <r>   -7.2087    1.0000 </r>
       <r>   -7.1495    1.0000 </r>
       <r>   -7.0973    1.0000 </r>
       <r>   -6.9764    1.0000 </r>
       <r>   -6.9556    1.0000 </r>
       <r>   -6.9196    1.0000 </r>
       <r>   -6.7889    1.0000 </r>
       <r>   -6.6841    1.0000 </r>
       <r>   -6.5892    1.0000 </r>
       <r>   -6.5393    1.0000 </r>
       <r>   -6.5082    1.0000 </r>
       <r>   -6.4273    1.0000 </r>
       <r>   -6.3257    1.0000 </r>
       <r>   -6.2751    1.0000 </r>
       <r>   -6.2146    1.0000 </r>
       <r>   -6.1464    1.0000 </r>
       <r>   -6.0911    1.0000 </r>
       <r>   -5.9998    1.0000 </r>
       <r>   -5.9416    1.0000 </r>
       <r>   -5.9161    1.0000 </r>
       <r>   -5.8152    1.0000 </r>
       <r>   -5.7087    1.0000 </r>
       <r>   -5.6421    1.0000 </r>
       <r>   -5.5711    1.0000 </r>
       <r>   -5.3961    1.0000 </r>
       <r>   -5.2333    1.0000 </r>
       <r>   -5.1486    1.0000 </r>
       <r>   -5.0692    1.0000 </r>
       <r>   -4.9983    1.0000 </r>
       <r>   -4.7694    1.0000 </r>
       <r>   -4.6625    1.0000 </r>
       <r>   -4.5684    1.0000 </r>
       <r>   -4.5604    1.0000 </r>
       <r>   -4.3520    1.0000 </r>
       <r>   -4.2748    1.0000 </r>
       <r>   -4.1953    1.0000 </r>
       <r>   -4.0844    1.0000 </r>
       <r>   -3.8175    0.9999 </r>
       <r>   -3.6690    0.9970 </r>
       <r>   -3.4422    0.8732 </r>
       <r>   -3.3262    0.6259 </r>
       <r>   -3.0452    0.0479 </r>
       <r>   -2.6894    0.0000 </r>
       <r>   -2.5685    0.0000 </r>
       <r>   -2.5101    0.0000 </r>
       <r>   -2.4130    0.0000 </r>
       <r>   -2.3477    0.0000 </r>
       <r>   -2.2071    0.0000 </r>
       <r>   -2.1234    0.0000 </r>
       <r>   -2.0554    0.0000 </r>
       <r>   -1.9311    0.0000 </r>
       <r>   -1.8941    0.0000 </r>
       <r>   -1.8048    0.0000 </r>
       <r>   -1.4855    0.0000 </r>
       <r>   -1.3988    0.0000 </r>
       <r>   -1.2573    0.0000 </r>
       <r>   -1.1967    0.0000 </r>
       <r>   -1.1409    0.0000 </r>
       <r>   -1.0389    0.0000 </r>
       <r>   -0.9715    0.0000 </r>
       <r>   -0.9201    0.0000 </r>
       <r>   -0.8248    0.0000 </r>
       <r>   -0.7275    0.0000 </r>
       <r>   -0.7067    0.0000 </r>
       <r>   -0.5441    0.0000 </r>
       <r>   -0.5203    0.0000 </r>
       <r>   -0.3435    0.0000 </r>
       <r>   -0.2919    0.0000 </r>
       <r>   -0.1256    0.0000 </r>
       <r>    0.0592    0.0000 </r>
       <r>    0.2125    0.0000 </r>
       <r>    0.4080    0.0000 </r>
       <r>    0.5640    0.0000 </r>
       <r>    0.7941    0.0000 </r>
       <r>    0.9851    0.0000 </r>
       <r>    1.0849    0.0000 </r>
       <r>    1.1824    0.0000 </r>
       <r>    1.4464    0.0000 </r>
       <r>    2.1161    0.0000 </r>
       <r>    2.2875    0.0000 </r>
       <r>    2.3746    0.0000 </r>
      </set>
      <set comment="kpoint 34">
       <r>  -17.4719    1.0000 </r>
       <r>  -17.3144    1.0000 </r>
       <r>  -16.7387    1.0000 </r>
       <r>  -16.6897    1.0000 </r>
       <r>  -16.5800    1.0000 </r>
       <r>  -16.3761    1.0000 </r>
       <r>  -16.2833    1.0000 </r>
       <r>  -16.1691    1.0000 </r>
       <r>  -16.0319    1.0000 </r>
       <r>  -16.0113    1.0000 </r>
       <r>  -15.9535    1.0000 </r>
       <r>  -15.8887    1.0000 </r>
       <r>  -15.7921    1.0000 </r>
       <r>  -15.7305    1.0000 </r>
       <r>  -15.6846    1.0000 </r>
       <r>  -15.5820    1.0000 </r>
       <r>  -15.4103    1.0000 </r>
       <r>  -15.3210    1.0000 </r>
       <r>   -9.7405    1.0000 </r>
       <r>   -9.2799    1.0000 </r>
       <r>   -9.1542    1.0000 </r>
       <r>   -9.0659    1.0000 </r>
       <r>   -8.9810    1.0000 </r>
       <r>   -8.8520    1.0000 </r>
       <r>   -8.5057    1.0000 </r>
       <r>   -8.4238    1.0000 </r>
       <r>   -8.4007    1.0000 </r>
       <r>   -8.3055    1.0000 </r>
       <r>   -8.2631    1.0000 </r>
       <r>   -8.2014    1.0000 </r>
       <r>   -8.0874    1.0000 </r>
       <r>   -8.0519    1.0000 </r>
       <r>   -7.9429    1.0000 </r>
       <r>   -7.9003    1.0000 </r>
       <r>   -7.7940    1.0000 </r>
       <r>   -7.6833    1.0000 </r>
       <r>   -7.5098    1.0000 </r>
       <r>   -7.4469    1.0000 </r>
       <r>   -7.3357    1.0000 </r>
       <r>   -7.2039    1.0000 </r>
       <r>   -7.1468    1.0000 </r>
       <r>   -7.0411    1.0000 </r>
       <r>   -7.0193    1.0000 </r>
       <r>   -6.9504    1.0000 </r>
       <r>   -6.9221    1.0000 </r>
       <r>   -6.7672    1.0000 </r>
       <r>   -6.6856    1.0000 </r>
       <r>   -6.6405    1.0000 </r>
       <r>   -6.5322    1.0000 </r>
       <r>   -6.4884    1.0000 </r>
       <r>   -6.4062    1.0000 </r>
       <r>   -6.3088    1.0000 </r>
       <r>   -6.2617    1.0000 </r>
       <r>   -6.2345    1.0000 </r>
       <r>   -6.1508    1.0000 </r>
       <r>   -6.1051    1.0000 </r>
       <r>   -6.0195    1.0000 </r>
       <r>   -5.9655    1.0000 </r>
       <r>   -5.9006    1.0000 </r>
       <r>   -5.8823    1.0000 </r>
       <r>   -5.7807    1.0000 </r>
       <r>   -5.6474    1.0000 </r>
       <r>   -5.5638    1.0000 </r>
       <r>   -5.4544    1.0000 </r>
       <r>   -5.2524    1.0000 </r>
       <r>   -5.0886    1.0000 </r>
       <r>   -4.9324    1.0000 </r>
       <r>   -4.8918    1.0000 </r>
       <r>   -4.8329    1.0000 </r>
       <r>   -4.7009    1.0000 </r>
       <r>   -4.6062    1.0000 </r>
       <r>   -4.5456    1.0000 </r>
       <r>   -4.3402    1.0000 </r>
       <r>   -4.2179    1.0000 </r>
       <r>   -4.1810    1.0000 </r>
       <r>   -4.1337    1.0000 </r>
       <r>   -3.8307    0.9999 </r>
       <r>   -3.6466    0.9952 </r>
       <r>   -3.5266    0.9589 </r>
       <r>   -3.3293    0.6343 </r>
       <r>   -3.0187    0.0319 </r>
       <r>   -2.6706    0.0000 </r>
       <r>   -2.5720    0.0000 </r>
       <r>   -2.5129    0.0000 </r>
       <r>   -2.4024    0.0000 </r>
       <r>   -2.3588    0.0000 </r>
       <r>   -2.1807    0.0000 </r>
       <r>   -2.1134    0.0000 </r>
       <r>   -2.0511    0.0000 </r>
       <r>   -1.9267    0.0000 </r>
       <r>   -1.9065    0.0000 </r>
       <r>   -1.7899    0.0000 </r>
       <r>   -1.4802    0.0000 </r>
       <r>   -1.4065    0.0000 </r>
       <r>   -1.2549    0.0000 </r>
       <r>   -1.2122    0.0000 </r>
       <r>   -1.1436    0.0000 </r>
       <r>   -1.0209    0.0000 </r>
       <r>   -0.9707    0.0000 </r>
       <r>   -0.9340    0.0000 </r>
       <r>   -0.8443    0.0000 </r>
       <r>   -0.7463    0.0000 </r>
       <r>   -0.6865    0.0000 </r>
       <r>   -0.5855    0.0000 </r>
       <r>   -0.4985    0.0000 </r>
       <r>   -0.3391    0.0000 </r>
       <r>   -0.2792    0.0000 </r>
       <r>   -0.1262    0.0000 </r>
       <r>    0.0405    0.0000 </r>
       <r>    0.2301    0.0000 </r>
       <r>    0.4310    0.0000 </r>
       <r>    0.5419    0.0000 </r>
       <r>    0.8186    0.0000 </r>
       <r>    1.0525    0.0000 </r>
       <r>    1.0969    0.0000 </r>
       <r>    1.1159    0.0000 </r>
       <r>    1.4358    0.0000 </r>
       <r>    2.1883    0.0000 </r>
       <r>    2.2309    0.0000 </r>
       <r>    2.3780    0.0000 </r>
      </set>
     </set>
    </set>
   </array>
  </eigenvalues>
  <separator name="orbital magnetization" >
   <v name="MAGDIPOLOUT">      0.00000000      0.00000000      0.00000000</v>
  </separator>
 </calculation>
 <structure name="finalpos" >
  <crystal>
   <varray name="basis" >
    <v>       8.39023598       4.81990354       0.00000000 </v>
    <v>      -8.39444838       4.82707826       0.00000000 </v>
    <v>       0.00000000       0.00000000      30.00000000 </v>
   </varray>
   <i name="volume">   2428.82271486 </i>
   <varray name="rec_basis" >
    <v>       0.05962244       0.10368540       0.00000000 </v>
    <v>      -0.05953382       0.10363337       0.00000000 </v>
    <v>       0.00000000       0.00000000       0.03333333 </v>
   </varray>
  </crystal>
  <varray name="positions" >
   <v>       0.65723245       0.63394208       0.00020891 </v>
   <v>       0.97617580       0.35184302      -0.00231564 </v>
   <v>       0.33996517       0.63944693       0.00088041 </v>
   <v>       0.64364926       0.31205359       0.00031381 </v>
   <v>       0.33380853       0.01918086      -0.00017734 </v>
   <v>       0.34879954       0.32412787       0.00068897 </v>
   <v>       0.03009808      -0.00190372       0.00133204 </v>
   <v>       0.01849153       0.69695511       0.00035819 </v>
   <v>       0.64633288       0.01774849      -0.00141803 </v>
   <v>       0.10602649       0.22675278       0.95439446 </v>
   <v>       0.22590381       0.11423049       0.05728904 </v>
   <v>       0.11816567       0.55918214       0.94981143 </v>
   <v>       0.20966491       0.43511572       0.04708632 </v>
   <v>       0.11882760       0.89608482       0.94366142 </v>
   <v>       0.23420821       0.77616645       0.04798955 </v>
   <v>       0.44437136       0.22217353       0.94338563 </v>
   <v>       0.54885346       0.10932122       0.05634262 </v>
   <v>       0.45086625       0.55201624       0.94905246 </v>
   <v>       0.55666383       0.44394574       0.05508025 </v>
   <v>       0.43531828       0.87939285       0.95017166 </v>
   <v>       0.55873372       0.77363819       0.04585472 </v>
   <v>       0.77444772       0.22610477       0.94551162 </v>
   <v>       0.89146549       0.11787981       0.04322116 </v>
   <v>       0.78140904       0.55537420       0.95118801 </v>
   <v>       0.88649300       0.45264155       0.04948064 </v>
   <v>       0.77552064       0.88625443       0.95885216 </v>
   <v>       0.88672174       0.77854527       0.05175541 </v>
  </varray>
 </structure>
</modeling>
