unknown system                          
           1
     8.857605    5.102646    0.000000
    -8.859197    5.105385    0.000000
     0.000000    0.000000   30.000000
   V    Mo   W    S 
   3   3   3  18
Direct configuration=     1
   0.66666669  0.66666669  0.00000000
   1.00000000  0.33333334  0.00000000
   0.33333334  0.66666669  0.00000000
   0.66666669  0.33333334  0.00000000
   0.33333334  0.00000000  0.00000000
   0.33333334  0.33333334  0.00000000
   0.00000000  0.00000000  0.00000000
   0.00000000  0.66666669  0.00000000
   0.66666669  0.00000000  0.00000000
   0.11068511  0.22244981  0.95539999
   0.22244981  0.11068511  0.04460000
   0.11068511  0.55578315  0.95539999
   0.22244981  0.44401845  0.04460000
   0.11068511  0.88911647  0.95539999
   0.22244981  0.77735180  0.04460000
   0.44401845  0.22244981  0.95539999
   0.55578315  0.11068511  0.04460000
   0.44401845  0.55578315  0.95539999
   0.55578315  0.44401845  0.04460000
   0.44401845  0.88911647  0.95539999
   0.55578315  0.77735180  0.04460000
   0.77735180  0.22244981  0.95539999
   0.88911647  0.11068511  0.04460000
   0.77735180  0.55578315  0.95539999
   0.88911647  0.44401845  0.04460000
   0.77735180  0.88911647  0.95539999
   0.88911647  0.77735180  0.04460000
unknown system                          
           1
     8.669168    4.996658    0.000000
    -8.670651    4.999211    0.000000
     0.000000    0.000000   30.000000
   V    Mo   W    S 
   3   3   3  18
Direct configuration=     2
   0.66519447  0.66435702  0.00009938
   1.00037091  0.33363101 -0.00009211
   0.33343061  0.66628141  0.00003692
   0.66387111  0.33197271 -0.00014605
   0.33459706  0.00276393  0.00000359
   0.33471342  0.33231966  0.00005465
   0.00297413  0.00155844  0.00012230
   0.00008005  0.66635390  0.00001509
   0.66489325  0.00118902 -0.00004897
   0.10802048  0.22366762  0.95198205
   0.22102443  0.11039689  0.04931712
   0.11266467  0.55357159  0.95298839
   0.21994301  0.44650633  0.04689885
   0.11034470  0.88830322  0.95073532
   0.22356649  0.77486751  0.04793458
   0.44444719  0.22214514  0.95066062
   0.55583745  0.11043329  0.04929687
   0.44630928  0.55988643  0.95311855
   0.55767811  0.44896243  0.04810229
   0.44312799  0.88479220  0.95194891
   0.55399276  0.77408912  0.04689730
   0.78179075  0.22341598  0.95189774
   0.89056179  0.11460027  0.04805395
   0.77623166  0.55824850  0.95202304
   0.89168515  0.44294181  0.04791194
   0.77591141  0.88506274  0.95205371
   0.88495209  0.77589629  0.04813384
unknown system                          
           1
     8.486998    4.897822    0.000000
    -8.488666    4.900697    0.000000
     0.000000    0.000000   30.000000
   V    Mo   W    S 
   3   3   3  18
Direct configuration=     3
   0.66485855  0.66370344  0.00006489
   1.00041719  0.33369330 -0.00005135
   0.33342407  0.66617871  0.00008580
   0.66272427  0.33115012 -0.00016333
   0.33507163  0.00396756 -0.00000007
   0.33505438  0.33145594  0.00005328
   0.00406129  0.00191149  0.00008178
   0.00008206  0.66650438  0.00007794
   0.66435802  0.00172366 -0.00011349
   0.10789217  0.22348453  0.95198772
   0.22081381  0.11026895  0.04948056
   0.11256776  0.55365084  0.95302417
   0.21994085  0.44654747  0.04679866
   0.11014170  0.88822342  0.95073762
   0.22336260  0.77472511  0.04786397
   0.44445141  0.22217632  0.95043451
   0.55595307  0.11031078  0.04942856
   0.44635559  0.55993938  0.95316498
   0.55776295  0.44910307  0.04819762
   0.44329065  0.88482040  0.95196842
   0.55405155  0.77426855  0.04682379
   0.78175713  0.22325587  0.95189280
   0.89050824  0.11443353  0.04795611
   0.77642073  0.55839128  0.95203782
   0.89181706  0.44313935  0.04782747
   0.77597813  0.88523742  0.95227208
   0.88509761  0.77594960  0.04806758
unknown system                          
           1
     8.288166    4.777641    0.000000
    -8.294380    4.788391    0.000000
     0.000000    0.000000   30.000000
   V    Mo   W    S 
   3   3   3  18
Direct configuration=     4
   0.66405271  0.66145099 -0.00010409
   1.00026364  0.33365584  0.00013550
   0.33334531  0.66595952  0.00025174
   0.65833591  0.32765999 -0.00015818
   0.33674303  0.00879476 -0.00000602
   0.33599165  0.32736810  0.00003741
   0.00824476  0.00294176 -0.00010983
  -0.00000916  0.66749306  0.00029643
   0.66253926  0.00396854 -0.00032186
   0.10770944  0.22416495  0.95054676
   0.22104182  0.11035289  0.05179392
   0.11303508  0.55320210  0.95179592
   0.21973043  0.44694400  0.04768869
   0.11031672  0.88825601  0.94910526
   0.22396967  0.77452482  0.04900490
   0.44443093  0.22232494  0.94792935
   0.55592361  0.11033860  0.05157787
   0.44673447  0.56063649  0.95205837
   0.55837507  0.45022438  0.04999679
   0.44249174  0.88378435  0.95058100
   0.55361811  0.77355508  0.04787561
   0.78277623  0.22403958  0.95039260
   0.89091351  0.11512889  0.04901638
   0.77594893  0.55872761  0.95067158
   0.89197386  0.44257443  0.04890596
   0.77558627  0.88459156  0.95171944
   0.88413144  0.77555123  0.04931839
unknown system                          
           1
     8.301873    4.780063    0.000000
    -8.313139    4.799565    0.000000
     0.000000    0.000000   30.000000
   V    Mo   W    S 
   3   3   3  18
Direct configuration=     5
   0.66250739  0.65686186 -0.00041768
   0.99973506  0.33346475  0.00045051
   0.33322066  0.66526626  0.00044497
   0.65059908  0.32109440 -0.00007252
   0.33951037  0.01761165 -0.00004162
   0.33724787  0.31975923  0.00002316
   0.01707690  0.00497593 -0.00033479
  -0.00020554  0.66952006  0.00058644
   0.65843306  0.00837005 -0.00060956
   0.10867164  0.22526897  0.94872304
   0.22199863  0.11084842  0.05512455
   0.11359872  0.55287478  0.95019986
   0.22026411  0.44670174  0.04884459
   0.11181215  0.88864160  0.94694071
   0.22519062  0.77559947  0.05030204
   0.44451836  0.22253408  0.94425752
   0.55523840  0.11066009  0.05455144
   0.44653496  0.56007382  0.95061509
   0.55832189  0.45031101  0.05241457
   0.44113989  0.88335368  0.94885793
   0.55332580  0.77327618  0.04919280
   0.78345590  0.22553509  0.94833105
   0.89116994  0.11544438  0.05003288
   0.77515102  0.55804599  0.94903164
   0.89094250  0.44168953  0.05006786
   0.77567219  0.88470486  0.95153326
   0.88308291  0.77572655  0.05095014
unknown system                          
           1
     8.299847    4.777798    0.000000
    -8.310158    4.795638    0.000000
     0.000000    0.000000   30.000000
   V    Mo   W    S 
   3   3   3  18
Direct configuration=     6
   0.66153684  0.65456131 -0.00041088
   0.99945354  0.33347437  0.00046718
   0.33334547  0.66470654  0.00050415
   0.65057453  0.32086357 -0.00017666
   0.33914266  0.01722508 -0.00007806
   0.33719185  0.31982865 -0.00004342
   0.01944986  0.00539047 -0.00022691
   0.00003965  0.67049655  0.00064969
   0.65684867  0.00957748 -0.00062016
   0.10950236  0.22524064  0.94878098
   0.22238139  0.11092911  0.05540949
   0.11347335  0.55301528  0.95028705
   0.22081176  0.44604181  0.04874326
   0.11291927  0.88896763  0.94679280
   0.22545894  0.77660341  0.05009487
   0.44468782  0.22264064  0.94401861
   0.55459132  0.11062131  0.05478086
   0.44601378  0.55893152  0.95066254
   0.55781720  0.44940443  0.05248323
   0.44070700  0.88413702  0.94889497
   0.55370577  0.77382814  0.04899361
   0.78299073  0.22591250  0.94827083
   0.89091866  0.11471286  0.04966851
   0.77501953  0.55717224  0.94913191
   0.89000594  0.44168978  0.04986381
   0.77634897  0.88587903  0.95218197
   0.88327760  0.77636310  0.05087568
unknown system                          
           1
     8.306200    4.779419    0.000000
    -8.316442    4.797133    0.000000
     0.000000    0.000000   30.000000
   V    Mo   W    S 
   3   3   3  18
Direct configuration=     7
   0.66040547  0.65209151 -0.00042084
   0.99919066  0.33341429  0.00051172
   0.33350723  0.66416248  0.00057895
   0.64976065  0.32001021 -0.00019993
   0.33911158  0.01782877 -0.00011328
   0.33738849  0.31925924 -0.00007525
   0.02201292  0.00588626 -0.00022865
   0.00040607  0.67165733  0.00071233
   0.65528409  0.01091821 -0.00066330
   0.10987427  0.22517685  0.94873972
   0.22280390  0.11112668  0.05573900
   0.11342117  0.55307184  0.95031240
   0.22101576  0.44573883  0.04871535
   0.11347559  0.88910381  0.94656900
   0.22565672  0.77702790  0.05002884
   0.44472891  0.22265803  0.94376938
   0.55422470  0.11075514  0.05506346
   0.44579597  0.55838597  0.95059260
   0.55765794  0.44902119  0.05266562
   0.44034948  0.88442301  0.94880841
   0.55395851  0.77415274  0.04886405
   0.78282565  0.22619157  0.94811449
   0.89076203  0.11429889  0.04942028
   0.77497450  0.55675210  0.94910110
   0.88961697  0.44180491  0.04975352
   0.77669552  0.88656636  0.95276558
   0.88330969  0.77673031  0.05087537
unknown system                          
           1
     8.323518    4.781822    0.000000
    -8.334140    4.800167    0.000000
     0.000000    0.000000   30.000000
   V    Mo   W    S 
   3   3   3  18
Direct configuration=     8
   0.65921750  0.64963879 -0.00043758
   0.99891164  0.33333049  0.00056120
   0.33369931  0.66358930  0.00065055
   0.64921464  0.31941710 -0.00022772
   0.33892790  0.01802962 -0.00013230
   0.33761809  0.31908424 -0.00009677
   0.02409798  0.00630999 -0.00022020
   0.00092593  0.67289756  0.00077628
   0.65395540  0.01206717 -0.00072800
   0.11017928  0.22509503  0.94873130
   0.22320703  0.11133545  0.05598290
   0.11338277  0.55313730  0.95038298
   0.22111096  0.44549091  0.04866552
   0.11393271  0.88919617  0.94636518
   0.22580577  0.77729073  0.04994415
   0.44477171  0.22267462  0.94360970
   0.55386307  0.11089940  0.05528860
   0.44565603  0.55796079  0.95053755
   0.55754935  0.44871448  0.05281747
   0.44003667  0.88463161  0.94875610
   0.55422043  0.77445028  0.04869151
   0.78268218  0.22643443  0.94800219
   0.89058123  0.11388631  0.04914436
   0.77498768  0.55642708  0.94911030
   0.88936443  0.44199807  0.04960810
   0.77696917  0.88715668  0.95339553
   0.88334558  0.77707084  0.05082098
unknown system                          
           1
     8.337567    4.788269    0.000000
    -8.348790    4.807654    0.000000
     0.000000    0.000000   30.000000
   V    Mo   W    S 
   3   3   3  18
Direct configuration=     9
   0.65473812  0.64091459 -0.00051928
   0.99780895  0.33281204  0.00074226
   0.33448029  0.66130278  0.00087891
   0.64719216  0.31741668 -0.00029496
   0.33795850  0.01827890 -0.00017854
   0.33872154  0.31911567 -0.00014659
   0.03045193  0.00784348 -0.00020870
   0.00365441  0.67808252  0.00097824
   0.64989853  0.01572472 -0.00100052
   0.11108808  0.22478617  0.94875520
   0.22465607  0.11221151  0.05668923
   0.11329405  0.55338706  0.95072806
   0.22106556  0.44473373  0.04849395
   0.11518322  0.88943516  0.94566337
   0.22632730  0.77775325  0.04967411
   0.44482799  0.22265149  0.94321530
   0.55266765  0.11150551  0.05595532
   0.44539786  0.55676853  0.95029096
   0.55733137  0.44779562  0.05337054
   0.43897031  0.88505367  0.94862105
   0.55519528  0.77540371  0.04798779
   0.78225729  0.22727167  0.94766473
   0.88987952  0.11251421  0.04814392
   0.77522905  0.55553574  0.94922622
   0.88890844  0.44298454  0.04900212
   0.77758605  0.88877150  0.95575963
   0.88344494  0.77816001  0.05050759
unknown system                          
           1
     8.339184    4.787461    0.000000
    -8.351913    4.809461    0.000000
     0.000000    0.000000   30.000000
   V    Mo   W    S 
   3   3   3  18
Direct configuration=    10
   0.65344370  0.63876554 -0.00056939
   0.99722056  0.33225648  0.00080397
   0.33484037  0.66007663  0.00089897
   0.64618141  0.31665452 -0.00026341
   0.33725691  0.01793560 -0.00016088
   0.33928391  0.31957000 -0.00011181
   0.03138639  0.00841318 -0.00018887
   0.00579722  0.68113450  0.00098725
   0.64927472  0.01626940 -0.00108520
   0.11138154  0.22475170  0.94874476
   0.22531799  0.11272374  0.05686231
   0.11333225  0.55350357  0.95090266
   0.22076057  0.44440322  0.04849303
   0.11546409  0.88955276  0.94535375
   0.22678810  0.77771447  0.04968124
   0.44468226  0.22253443  0.94313247
   0.55220518  0.11179174  0.05610937
   0.44534529  0.55634872  0.95009473
   0.55722688  0.44725833  0.05363786
   0.43844668  0.88492437  0.94858130
   0.55558661  0.77560904  0.04769008
   0.78212003  0.22769760  0.94754364
   0.88957274  0.11211563  0.04781554
   0.77544201  0.55521368  0.94935218
   0.88899591  0.44369662  0.04868155
   0.77744058  0.88881214  0.95666828
   0.88342057  0.77848686  0.05034451
unknown system                          
           1
     8.342454    4.789497    0.000000
    -8.355948    4.812832    0.000000
     0.000000    0.000000   30.000000
   V    Mo   W    S 
   3   3   3  18
Direct configuration=    11
   0.65212275  0.63658686 -0.00060026
   0.99661718  0.33142391  0.00083817
   0.33515794  0.65866237  0.00086473
   0.64485974  0.31561361 -0.00023831
   0.33651893  0.01760350 -0.00015956
   0.33996422  0.32009106 -0.00008407
   0.03271379  0.00912444 -0.00016855
   0.00829903  0.68467529  0.00100138
   0.64837456  0.01699985 -0.00118469
   0.11165992  0.22478539  0.94875722
   0.22579060  0.11315695  0.05694382
   0.11336549  0.55363998  0.95112049
   0.22043354  0.44404269  0.04847360
   0.11564896  0.88986035  0.94510140
   0.22730826  0.77770234  0.04967928
   0.44445889  0.22235889  0.94314184
   0.55182984  0.11192081  0.05616128
   0.44531927  0.55589865  0.94993841
   0.55716284  0.44677563  0.05380823
   0.43807737  0.88484426  0.94864041
   0.55590444  0.77569348  0.04740507
   0.78184519  0.22798317  0.94751658
   0.88923913  0.11180065  0.04754753
   0.77572273  0.55491084  0.94959410
   0.88909481  0.44455675  0.04824744
   0.77724247  0.88873912  0.95748987
   0.88348256  0.77876363  0.05016447
unknown system                          
           1
     8.341625    4.789225    0.000000
    -8.354509    4.811497    0.000000
     0.000000    0.000000   30.000000
   V    Mo   W    S 
   3   3   3  18
Direct configuration=    12
   0.65205837  0.63660534 -0.00060118
   0.99650343  0.33094094  0.00084030
   0.33516915  0.65819699  0.00081752
   0.64449802  0.31537327 -0.00021760
   0.33627848  0.01737441 -0.00014707
   0.34008942  0.32036536 -0.00006920
   0.03258345  0.00929499 -0.00016421
   0.00915445  0.68577613  0.00099676
   0.64841804  0.01689690 -0.00119141
   0.11167474  0.22487776  0.94873278
   0.22584429  0.11325852  0.05693507
   0.11338204  0.55368290  0.95116745
   0.22030416  0.44395168  0.04849686
   0.11563004  0.89006435  0.94502301
   0.22756198  0.77769992  0.04973221
   0.44431445  0.22226921  0.94315031
   0.55176427  0.11185879  0.05614876
   0.44533395  0.55581161  0.94988145
   0.55716993  0.44666967  0.05383687
   0.43799454  0.88472725  0.94866568
   0.55591286  0.77558703  0.04737803
   0.78175252  0.22801563  0.94752790
   0.88915315  0.11181517  0.04757434
   0.77585154  0.55486670  0.94969789
   0.88919175  0.44488605  0.04808779
   0.77710784  0.88854587  0.95755383
   0.88351757  0.77880204  0.05014577
unknown system                          
           1
     8.338138    4.789425    0.000000
    -8.345618    4.802296    0.000000
     0.000000    0.000000   30.000000
   V    Mo   W    S 
   3   3   3  18
Direct configuration=    13
   0.65220905  0.63682751 -0.00060005
   0.99657476  0.33130389  0.00083451
   0.33516079  0.65852304  0.00084156
   0.64478275  0.31557932 -0.00022705
   0.33641938  0.01747657 -0.00015208
   0.33999681  0.32021284 -0.00007463
   0.03249547  0.00913214 -0.00016452
   0.00861161  0.68502137  0.00099081
   0.64847932  0.01684716 -0.00117952
   0.11165920  0.22483028  0.94874506
   0.22579640  0.11318727  0.05693410
   0.11339029  0.55365383  0.95112686
   0.22038883  0.44403007  0.04848734
   0.11562032  0.88992451  0.94507464
   0.22741393  0.77768223  0.04971043
   0.44440044  0.22232143  0.94314439
   0.55182080  0.11188983  0.05614800
   0.44530662  0.55588234  0.94991516
   0.55715941  0.44672972  0.05381877
   0.43804626  0.88477081  0.94864677
   0.55588097  0.77562870  0.04741066
   0.78182519  0.22799639  0.94751857
   0.88922276  0.11183554  0.04757689
   0.77576675  0.55489937  0.94962530
   0.88913667  0.44466959  0.04820906
   0.77716783  0.88861475  0.95746957
   0.88348184  0.77874395  0.05016930
unknown system                          
           1
     8.338797    4.790055    0.000000
    -8.345320    4.801259    0.000000
     0.000000    0.000000   30.000000
   V    Mo   W    S 
   3   3   3  18
Direct configuration=    14
   0.65240575  0.63743926 -0.00060744
   0.99662164  0.33372886  0.00079668
   0.33539340  0.65961601  0.00097499
   0.64597717  0.31632410 -0.00027537
   0.33641510  0.01743637 -0.00018074
   0.33975277  0.31990381 -0.00008575
   0.03243140  0.00829903 -0.00013153
   0.00720788  0.68263307  0.00093821
   0.64833848  0.01657727 -0.00117366
   0.11176331  0.22446641  0.94889613
   0.22571626  0.11297856  0.05695135
   0.11355839  0.55350179  0.95096058
   0.22078682  0.44447976  0.04837542
   0.11562717  0.88923837  0.94521193
   0.22689993  0.77740755  0.04958204
   0.44476925  0.22250152  0.94312671
   0.55197701  0.11209873  0.05615684
   0.44496992  0.55608276  0.95003803
   0.55702803  0.44680972  0.05381050
   0.43812634  0.88483012  0.94857397
   0.55568389  0.77587162  0.04749328
   0.78218118  0.22801111  0.94745253
   0.88955602  0.11186201  0.04741854
   0.77545303  0.55494508  0.94931640
   0.88888317  0.44387707  0.04880143
   0.77741707  0.88893113  0.95734197
   0.88327406  0.77836334  0.05023684
unknown system                          
           1
     8.348076    4.793271    0.000000
    -8.356333    4.807490    0.000000
     0.000000    0.000000   30.000000
   V    Mo   W    S 
   3   3   3  18
Direct configuration=    15
   0.65248863  0.63758689 -0.00060821
   0.99646667  0.33458313  0.00078407
   0.33548609  0.65995548  0.00100058
   0.64636084  0.31656729 -0.00028869
   0.33648071  0.01752893 -0.00018966
   0.33980868  0.31976920 -0.00008722
   0.03241043  0.00799159 -0.00010665
   0.00668081  0.68178404  0.00091613
   0.64833093  0.01656205 -0.00116249
   0.11177811  0.22436543  0.94894997
   0.22568377  0.11291908  0.05695917
   0.11362423  0.55347938  0.95089656
   0.22086290  0.44455083  0.04835422
   0.11563436  0.88903819  0.94523686
   0.22676087  0.77733965  0.04956474
   0.44486923  0.22254167  0.94313302
   0.55200122  0.11213873  0.05615022
   0.44488288  0.55612823  0.95006209
   0.55700082  0.44684132  0.05380027
   0.43813287  0.88482830  0.94853927
   0.55566876  0.77594395  0.04752720
   0.78228052  0.22801122  0.94742675
   0.88965807  0.11188573  0.04735309
   0.77536067  0.55498000  0.94924133
   0.88880948  0.44367246  0.04898702
   0.77747425  0.88899097  0.95730583
   0.88321764  0.77823071  0.05025443
unknown system                          
           1
     8.347051    4.791052    0.000000
    -8.357217    4.808591    0.000000
     0.000000    0.000000   30.000000
   V    Mo   W    S 
   3   3   3  18
Direct configuration=    16
   0.65213149  0.63675203 -0.00061022
   0.99464216  0.33620184  0.00075321
   0.33585224  0.65943117  0.00097437
   0.64661455  0.31660941 -0.00027089
   0.33622959  0.01769495 -0.00020565
   0.34092680  0.31991079 -0.00005827
   0.03278828  0.00758232 -0.00004690
   0.00709894  0.68196155  0.00085790
   0.64826281  0.01706292 -0.00118251
   0.11179086  0.22423884  0.94920183
   0.22585009  0.11310210  0.05701318
   0.11371915  0.55353381  0.95084250
   0.22045503  0.44407884  0.04830127
   0.11575014  0.88908191  0.94508319
   0.22695381  0.77729474  0.04962212
   0.44477659  0.22236601  0.94318458
   0.55172585  0.11209755  0.05612464
   0.44487745  0.55581596  0.94995911
   0.55703731  0.44671946  0.05383656
   0.43793864  0.88469214  0.94849931
   0.55600945  0.77603114  0.04746549
   0.78227431  0.22808200  0.94735754
   0.88969405  0.11200445  0.04701369
   0.77543741  0.55502269  0.94938433
   0.88889955  0.44413258  0.04906140
   0.77729139  0.88872282  0.95765434
   0.88318653  0.77799046  0.05018376
unknown system                          
           1
     8.349430    4.791883    0.000000
    -8.359883    4.809920    0.000000
     0.000000    0.000000   30.000000
   V    Mo   W    S 
   3   3   3  18
Direct configuration=    17
   0.65169176  0.63610778 -0.00060501
   0.99363828  0.33580336  0.00073126
   0.33596888  0.65827554  0.00095587
   0.64589470  0.31589313 -0.00024410
   0.33577205  0.01751276 -0.00019624
   0.34154546  0.32029496 -0.00002988
   0.03311938  0.00767451 -0.00004400
   0.00896048  0.68429940  0.00084818
   0.64790029  0.01710933 -0.00121934
   0.11184817  0.22439874  0.94930513
   0.22599734  0.11334158  0.05701084
   0.11376625  0.55373442  0.95092645
   0.22008728  0.44369369  0.04824511
   0.11580084  0.88953444  0.94494922
   0.22744051  0.77733691  0.04962968
   0.44459600  0.22217170  0.94319756
   0.55150775  0.11199222  0.05611950
   0.44498377  0.55550953  0.94985761
   0.55707696  0.44645101  0.05392880
   0.43782393  0.88455999  0.94859934
   0.55611451  0.77586824  0.04731315
   0.78195527  0.22810792  0.94731237
   0.88950986  0.11199712  0.04692665
   0.77575929  0.55489806  0.94961113
   0.88897131  0.44495765  0.04881381
   0.77708746  0.88848007  0.95794390
   0.88339667  0.77821039  0.05011293
unknown system                          
           1
     8.350804    4.792677    0.000000
    -8.361081    4.810408    0.000000
     0.000000    0.000000   30.000000
   V    Mo   W    S 
   3   3   3  18
Direct configuration=    18
   0.65155759  0.63588763 -0.00060094
   0.99300147  0.33609629  0.00071264
   0.33605962  0.65791186  0.00095935
   0.64587299  0.31576364 -0.00023649
   0.33560639  0.01745150 -0.00019704
   0.34187859  0.32044623 -0.00001953
   0.03319502  0.00756463 -0.00003157
   0.00944048  0.68479206  0.00082932
   0.64780984  0.01713908 -0.00122844
   0.11186044  0.22442184  0.94939036
   0.22604652  0.11341736  0.05702383
   0.11380971  0.55379117  0.95092237
   0.21993570  0.44353290  0.04820557
   0.11584709  0.88964286  0.94489360
   0.22759446  0.77733619  0.04963194
   0.44456888  0.22210759  0.94319367
   0.55142509  0.11196060  0.05612486
   0.44501057  0.55539975  0.94982695
   0.55710129  0.44638404  0.05396132
   0.43776749  0.88449497  0.94861659
   0.55617354  0.77583214  0.04727251
   0.78188056  0.22810516  0.94727558
   0.88949509  0.11204096  0.04685141
   0.77584119  0.55487538  0.94967098
   0.88897442  0.44520231  0.04881426
   0.77701679  0.88839147  0.95803656
   0.88344364  0.77822485  0.05010024
unknown system                          
           1
     8.355441    4.793944    0.000000
    -8.366580    4.813171    0.000000
     0.000000    0.000000   30.000000
   V    Mo   W    S 
   3   3   3  18
Direct configuration=    19
   0.65149421  0.63581101 -0.00059586
   0.99253661  0.33630720  0.00069170
   0.33608310  0.65758813  0.00095840
   0.64580406  0.31557025 -0.00023150
   0.33546454  0.01742042 -0.00019652
   0.34205964  0.32050634 -0.00001288
   0.03325266  0.00745927 -0.00001487
   0.00989989  0.68526941  0.00081335
   0.64771635  0.01712387 -0.00123222
   0.11187323  0.22445815  0.94945366
   0.22607717  0.11346954  0.05702590
   0.11385558  0.55384994  0.95092296
   0.21982522  0.44342573  0.04817437
   0.11588780  0.88974693  0.94484934
   0.22773349  0.77733348  0.04963163
   0.44455034  0.22205771  0.94319661
   0.55136688  0.11193089  0.05612865
   0.44499771  0.55532562  0.94980242
   0.55710848  0.44630066  0.05399162
   0.43770871  0.88441561  0.94863480
   0.55617984  0.77579291  0.04724818
   0.78180919  0.22809228  0.94724870
   0.88948976  0.11206657  0.04680279
   0.77594755  0.55485020  0.94971673
   0.88897305  0.44541170  0.04881034
   0.77699406  0.88836479  0.95808506
   0.88352532  0.77826584  0.05009655
unknown system                          
           1
     8.362394    4.795490    0.000000
    -8.376116    4.819209    0.000000
     0.000000    0.000000   30.000000
   V    Mo   W    S 
   3   3   3  18
Direct configuration=    20
   0.65117441  0.63509513 -0.00057447
   0.99035559  0.33662363  0.00061112
   0.33624483  0.65597705  0.00091280
   0.64528479  0.31474350 -0.00019538
   0.33475132  0.01712981 -0.00018984
   0.34310686  0.32102853  0.00002013
   0.03345153  0.00709826  0.00005601
   0.01209685  0.68795442  0.00074990
   0.64738836  0.01715794 -0.00124377
   0.11187262  0.22465580  0.94969435
   0.22622199  0.11374951  0.05705779
   0.11399516  0.55414776  0.95092914
   0.21923054  0.44275996  0.04809348
   0.11609885  0.89036591  0.94459152
   0.22844112  0.77741191  0.04968174
   0.44441121  0.22182020  0.94318632
   0.55106936  0.11172633  0.05616173
   0.44514108  0.55495660  0.94967096
   0.55722583  0.44603270  0.05409962
   0.43745197  0.88410178  0.94870928
   0.55635711  0.77560491  0.04713513
   0.78138898  0.22798642  0.94711915
   0.88939283  0.11217436  0.04662176
   0.77642126  0.55476036  0.94999869
   0.88897146  0.44650847  0.04869327
   0.77680828  0.88812289  0.95833540
   0.88386026  0.77852029  0.05007405
unknown system                          
           1
     8.366592    4.797345    0.000000
    -8.381125    4.822477    0.000000
     0.000000    0.000000   30.000000
   V    Mo   W    S 
   3   3   3  18
Direct configuration=    21
   0.65075479  0.63416839 -0.00053054
   0.98630881  0.33731304  0.00046008
   0.33636948  0.65292983  0.00086838
   0.64473175  0.31344045 -0.00012187
   0.33363267  0.01664701 -0.00017727
   0.34477839  0.32206655  0.00006768
   0.03365165  0.00653120  0.00013955
   0.01570691  0.69211544  0.00064469
   0.64688016  0.01696657 -0.00126681
   0.11177216  0.22508765  0.95020354
   0.22648455  0.11428086  0.05710899
   0.11419427  0.55456463  0.95095670
   0.21801680  0.44152129  0.04787795
   0.11658848  0.89165029  0.94413063
   0.22969987  0.77755047  0.04974173
   0.44415434  0.22141762  0.94317176
   0.55054810  0.11129033  0.05623464
   0.44548524  0.55435919  0.94946458
   0.55741188  0.44558934  0.05428518
   0.43707094  0.88353054  0.94887272
   0.55656189  0.77515404  0.04693628
   0.78071172  0.22771889  0.94690060
   0.88935872  0.11259340  0.04629354
   0.77732825  0.55469803  0.95046959
   0.88907550  0.44834233  0.04851775
   0.77649684  0.88775600  0.95865158
   0.88444032  0.77893108  0.05009823
unknown system                          
           1
     8.372816    4.800206    0.000000
    -8.387825    4.826164    0.000000
     0.000000    0.000000   30.000000
   V    Mo   W    S 
   3   3   3  18
Direct configuration=    22
   0.65068960  0.63358430 -0.00045396
   0.98307604  0.33812070  0.00024657
   0.33643261  0.65053975  0.00083887
   0.64442834  0.31255335 -0.00005952
   0.33315126  0.01666721 -0.00016787
   0.34605721  0.32280462  0.00011537
   0.03375849  0.00581301  0.00024388
   0.01780409  0.69463315  0.00053985
   0.64639241  0.01672106 -0.00123988
   0.11147454  0.22550708  0.95065501
   0.22660315  0.11464678  0.05709473
   0.11436114  0.55489876  0.95095392
   0.21692216  0.44044010  0.04771770
   0.11702480  0.89272143  0.94384615
   0.23068008  0.77768174  0.04974307
   0.44407918  0.22117185  0.94321021
   0.55022105  0.11086891  0.05626159
   0.44582375  0.55399148  0.94930732
   0.55761815  0.44534149  0.05438923
   0.43678721  0.88299147  0.94901489
   0.55667845  0.77476938  0.04678595
   0.78009498  0.22736195  0.94671237
   0.88949743  0.11303964  0.04601276
   0.77814215  0.55480718  0.95081414
   0.88908698  0.44977726  0.04851650
   0.77630956  0.88749775  0.95878324
   0.88501965  0.77926308  0.05011783
unknown system                          
           1
     8.375037    4.801518    0.000000
    -8.389703    4.826878    0.000000
     0.000000    0.000000   30.000000
   V    Mo   W    S 
   3   3   3  18
Direct configuration=    23
   0.65089600  0.63333866 -0.00041235
   0.98071595  0.33920250  0.00002820
   0.33644129  0.64860390  0.00084840
   0.64447426  0.31213779  0.00000715
   0.33305608  0.01680125 -0.00015832
   0.34688800  0.32338814  0.00013837
   0.03358670  0.00501067  0.00030678
   0.01897135  0.69594832  0.00047962
   0.64606372  0.01639034 -0.00125938
   0.11105325  0.22583345  0.95109630
   0.22674596  0.11495327  0.05711317
   0.11452689  0.55516338  0.95090940
   0.21593186  0.43952067  0.04758515
   0.11749283  0.89360805  0.94366134
   0.23133279  0.77775817  0.04965363
   0.44415186  0.22109551  0.94321739
   0.54995638  0.11056245  0.05632725
   0.44621439  0.55374302  0.94920268
   0.55777582  0.44514630  0.05449407
   0.43657654  0.88254840  0.94913943
   0.55679370  0.77445953  0.04666984
   0.77943076  0.22693658  0.94654520
   0.88975199  0.11352160  0.04572814
   0.77877671  0.55495335  0.95103729
   0.88895706  0.45075846  0.04861148
   0.77619526  0.88732142  0.95884548
   0.88545705  0.77950924  0.05018419
unknown system                          
           1
     8.379623    4.804616    0.000000
    -8.393676    4.828911    0.000000
     0.000000    0.000000   30.000000
   V    Mo   W    S 
   3   3   3  18
Direct configuration=    24
   0.65123668  0.63303572 -0.00033836
   0.97824185  0.34079662 -0.00026167
   0.33648731  0.64635674  0.00086768
   0.64441094  0.31162210  0.00009452
   0.33304831  0.01716371 -0.00014517
   0.34785841  0.32394711  0.00018284
   0.03348434  0.00397871  0.00044705
   0.02010687  0.69727853  0.00039227
   0.64564528  0.01614282 -0.00123005
   0.11043026  0.22619622  0.95164933
   0.22683164  0.11522465  0.05707212
   0.11474521  0.55547981  0.95084022
   0.21473199  0.43844847  0.04743572
   0.11803496  0.89452141  0.94350379
   0.23206599  0.77780729  0.04950982
   0.44431768  0.22109950  0.94326443
   0.54975560  0.11020830  0.05634510
   0.44670053  0.55348093  0.94909700
   0.55792540  0.44495817  0.05457495
   0.43629269  0.88199035  0.94928736