       N       E                     dE             d eps       ncg     rms          rms(c)
DAV:   1     0.112557648754E+04    0.11256E+04   -0.35983E+04  8160   0.577E+02
DAV:   2    -0.191473268652E+01   -0.11275E+04   -0.10854E+04 11160   0.173E+02
DAV:   3    -0.199978098307E+03   -0.19806E+03   -0.19023E+03 10960   0.822E+01
DAV:   4    -0.209080641809E+03   -0.91025E+01   -0.88270E+01 12160   0.259E+01
DAV:   5    -0.209392739978E+03   -0.31210E+00   -0.31123E+00 11560   0.350E+00    0.275E+01
DAV:   6    -0.237048093254E+03   -0.27655E+02   -0.11196E+02 12360   0.603E+01    0.597E+01
DAV:   7    -0.196395572871E+03    0.40653E+02   -0.18010E+02 13400   0.151E+02    0.198E+01
DAV:   8    -0.189123473360E+03    0.72721E+01   -0.15898E+01 12040   0.124E+01    0.119E+01
DAV:   9    -0.187414280453E+03    0.17092E+01   -0.27333E+00 13600   0.870E+00    0.593E+00
DAV:  10    -0.186970457823E+03    0.44382E+00   -0.11589E+00 13360   0.411E+00    0.240E+00
DAV:  11    -0.186966973326E+03    0.34845E-02   -0.45320E-01 12240   0.192E+00    0.274E+00
DAV:  12    -0.186877844862E+03    0.89128E-01   -0.29098E-01 12160   0.177E+00    0.186E+00
DAV:  13    -0.186858830480E+03    0.19014E-01   -0.14043E-01 13120   0.190E+00    0.153E+00
DAV:  14    -0.186849702271E+03    0.91282E-02   -0.81549E-02 13080   0.165E+00    0.117E+00
DAV:  15    -0.186836750898E+03    0.12951E-01   -0.21937E-02 12520   0.659E-01    0.571E-01
DAV:  16    -0.186834547203E+03    0.22037E-02   -0.12553E-02 12600   0.603E-01    0.413E-01
DAV:  17    -0.186834323326E+03    0.22388E-03   -0.49786E-03 12280   0.420E-01    0.384E-01
DAV:  18    -0.186832862835E+03    0.14605E-02   -0.21239E-03 11160   0.260E-01    0.513E-02
DAV:  19    -0.186833644605E+03   -0.78177E-03   -0.91422E-04  9400   0.685E-02    0.831E-02
DAV:  20    -0.186834558107E+03   -0.91350E-03   -0.41206E-04  8080   0.827E-02    0.504E-02
DAV:  21    -0.186835013210E+03   -0.45510E-03   -0.14670E-04  6880   0.368E-02    0.446E-02
DAV:  22    -0.186836275872E+03   -0.12627E-02   -0.18787E-04  7480   0.556E-02    0.237E-02
DAV:  23    -0.186836738833E+03   -0.46296E-03   -0.39518E-05  6720   0.199E-02    0.233E-02
DAV:  24    -0.186837207659E+03   -0.46883E-03   -0.32045E-05  6120   0.249E-02    0.598E-03
DAV:  25    -0.186837610388E+03   -0.40273E-03   -0.18110E-05  5880   0.971E-03    0.773E-03
DAV:  26    -0.186837851958E+03   -0.24157E-03   -0.88294E-06  6840   0.995E-03    0.166E-03
DAV:  27    -0.186837954180E+03   -0.10222E-03   -0.41429E-06  7080   0.415E-03    0.125E-03
DAV:  28    -0.186838008099E+03   -0.53919E-04   -0.19463E-06  7000   0.306E-03
   1 F= -.18683801E+03 E0= -.18666490E+03  d E =-.186838E+03
       N       E                     dE             d eps       ncg     rms          rms(c)
DAV:   1    -0.187435581666E+03   -0.59763E+00   -0.26844E+02  8160   0.347E+01    0.453E+00
DAV:   2    -0.189069054934E+03   -0.16335E+01   -0.19606E+01 12240   0.142E+01    0.640E+00
DAV:   3    -0.189382862909E+03   -0.31381E+00   -0.30062E+00 12440   0.110E+01    0.732E+00
DAV:   4    -0.188714252263E+03    0.66861E+00   -0.73533E-01 12560   0.532E+00    0.212E+00
DAV:   5    -0.188697085735E+03    0.17167E-01   -0.28274E-01 10280   0.166E+00    0.227E+00
DAV:   6    -0.188713553480E+03   -0.16468E-01   -0.36990E-01 12640   0.312E+00    0.397E+00
DAV:   7    -0.188627031152E+03    0.86522E-01   -0.37459E-01 12360   0.330E+00    0.133E+00
DAV:   8    -0.188604831070E+03    0.22200E-01   -0.36741E-02 11520   0.830E-01    0.383E-01
DAV:   9    -0.188603129140E+03    0.17019E-02   -0.79019E-03 11720   0.240E-01    0.241E-01
DAV:  10    -0.188602548589E+03    0.58055E-03   -0.30136E-03 12760   0.205E-01    0.127E-01
DAV:  11    -0.188602830261E+03   -0.28167E-03   -0.15200E-03 12840   0.205E-01    0.222E-01
DAV:  12    -0.188602602411E+03    0.22785E-03   -0.10398E-03 10800   0.195E-01    0.103E-01
DAV:  13    -0.188602538185E+03    0.64226E-04   -0.19738E-04  7560   0.706E-02
   2 F= -.18860254E+03 E0= -.18845507E+03  d E =-.176453E+01
       N       E                     dE             d eps       ncg     rms          rms(c)
DAV:   1    -0.190505392523E+03   -0.19028E+01   -0.30400E+01  9360   0.141E+01    0.448E+00
DAV:   2    -0.190566998647E+03   -0.61606E-01   -0.29328E+00 11080   0.100E+01    0.790E+00
DAV:   3    -0.189971596045E+03    0.59540E+00   -0.13742E+00 12320   0.870E+00    0.409E+00
DAV:   4    -0.189769362932E+03    0.20223E+00   -0.67324E-01 12680   0.378E+00    0.250E+00
DAV:   5    -0.189707466564E+03    0.61896E-01   -0.32397E-01 12240   0.237E+00    0.191E+00
DAV:   6    -0.189672062243E+03    0.35404E-01   -0.85860E-02 12200   0.188E+00    0.776E-01
DAV:   7    -0.189666006534E+03    0.60557E-02   -0.13501E-02 12040   0.591E-01    0.178E-01
DAV:   8    -0.189666031117E+03   -0.24584E-04   -0.21435E-03 10880   0.161E-01    0.116E-01
DAV:   9    -0.189666477157E+03   -0.44604E-03   -0.10036E-03 10440   0.103E-01    0.135E-01
DAV:  10    -0.189666169928E+03    0.30723E-03   -0.69843E-04 10200   0.951E-02    0.502E-02
DAV:  11    -0.189666203578E+03   -0.33650E-04   -0.15466E-04  7200   0.821E-02
   3 F= -.18966620E+03 E0= -.18954126E+03  d E =-.106367E+01
       N       E                     dE             d eps       ncg     rms          rms(c)
DAV:   1    -0.191171626033E+03   -0.15055E+01   -0.63699E+01  8160   0.184E+01    0.466E+00
DAV:   2    -0.191122483715E+03    0.49142E-01   -0.53722E+00 13440   0.890E+00    0.593E+00
DAV:   3    -0.191027425689E+03    0.95058E-01   -0.16229E+00 12240   0.935E+00    0.590E+00
DAV:   4    -0.190660999499E+03    0.36643E+00   -0.10207E+00 13200   0.617E+00    0.239E+00
DAV:   5    -0.190608731654E+03    0.52268E-01   -0.30786E-01 12240   0.296E+00    0.217E+00
DAV:   6    -0.190564995513E+03    0.43736E-01   -0.12551E-01 12320   0.252E+00    0.940E-01
DAV:   7    -0.190560657866E+03    0.43376E-02   -0.24390E-02 12240   0.898E-01    0.438E-01
DAV:   8    -0.190557150971E+03    0.35069E-02   -0.62100E-03 10440   0.281E-01    0.147E-01
DAV:   9    -0.190557362984E+03   -0.21201E-03   -0.13687E-03 10000   0.122E-01    0.950E-02
DAV:  10    -0.190557296958E+03    0.66026E-04   -0.68294E-04  9320   0.104E-01
   4 F= -.19055730E+03 E0= -.19045456E+03  d E =-.891093E+00
       N       E                     dE             d eps       ncg     rms          rms(c)
DAV:   1    -0.192020881683E+03   -0.14635E+01   -0.12928E+02  8160   0.259E+01    0.598E+00
DAV:   2    -0.191693221178E+03    0.32766E+00   -0.95400E+00 13040   0.919E+00    0.496E+00
DAV:   3    -0.192005436436E+03   -0.31222E+00   -0.22983E+00 12200   0.114E+01    0.869E+00
DAV:   4    -0.191344653289E+03    0.66078E+00   -0.23482E+00 12480   0.111E+01    0.352E+00
DAV:   5    -0.191283319278E+03    0.61334E-01   -0.65140E-01 12240   0.547E+00    0.346E+00
DAV:   6    -0.191126892896E+03    0.15643E+00   -0.26667E-01 12240   0.393E+00    0.935E-01
DAV:   7    -0.191129370087E+03   -0.24772E-02   -0.48625E-02 12320   0.136E+00    0.924E-01
DAV:   8    -0.191120445557E+03    0.89245E-02   -0.20023E-02 11800   0.105E+00    0.404E-01
DAV:   9    -0.191119026748E+03    0.14188E-02   -0.36963E-03 11720   0.349E-01    0.182E-01
DAV:  10    -0.191119203092E+03   -0.17634E-03   -0.25352E-03 11360   0.185E-01    0.959E-02
DAV:  11    -0.191119131955E+03    0.71136E-04   -0.52678E-04  9920   0.858E-02
   5 F= -.19111913E+03 E0= -.19103431E+03  d E =-.561835E+00
       N       E                     dE             d eps       ncg     rms          rms(c)
DAV:   1    -0.191162101646E+03   -0.42899E-01   -0.46115E+00  8160   0.453E+00    0.604E-01
DAV:   2    -0.191197581709E+03   -0.35480E-01   -0.17396E-01 13320   0.198E+00    0.162E+00
DAV:   3    -0.191168666624E+03    0.28915E-01   -0.65011E-02 12560   0.196E+00    0.498E-01
DAV:   4    -0.191166988620E+03    0.16780E-02   -0.96115E-03 11120   0.557E-01    0.377E-01
DAV:   5    -0.191166184463E+03    0.80416E-03   -0.57475E-03 11680   0.564E-01    0.325E-01
DAV:   6    -0.191165212302E+03    0.97216E-03   -0.26684E-03 11880   0.336E-01    0.126E-01
DAV:   7    -0.191165077451E+03    0.13485E-03   -0.10116E-03 10400   0.123E-01    0.592E-02
DAV:   8    -0.191165041200E+03    0.36252E-04   -0.20363E-04  7200   0.694E-02
   6 F= -.19116504E+03 E0= -.19107809E+03  d E =-.459092E-01
       N       E                     dE             d eps       ncg     rms          rms(c)
DAV:   1    -0.191213707443E+03   -0.48630E-01   -0.72203E+00  8160   0.561E+00    0.700E-01
DAV:   2    -0.191274886014E+03   -0.61179E-01   -0.23820E-01 13600   0.275E+00    0.218E+00
DAV:   3    -0.191221067293E+03    0.53819E-01   -0.10180E-01 12600   0.247E+00    0.462E-01
DAV:   4    -0.191219845426E+03    0.12219E-02   -0.10111E-02 11360   0.508E-01    0.378E-01
DAV:   5    -0.191219282642E+03    0.56278E-03   -0.64881E-03 11720   0.576E-01    0.370E-01
DAV:   6    -0.191218073366E+03    0.12093E-02   -0.32877E-03 11680   0.383E-01    0.142E-01
DAV:   7    -0.191217955926E+03    0.11744E-03   -0.10804E-03 10400   0.136E-01    0.682E-02
DAV:   8    -0.191217909744E+03    0.46182E-04   -0.31652E-04  8320   0.997E-02
   7 F= -.19121791E+03 E0= -.19112678E+03  d E =-.528685E-01
       N       E                     dE             d eps       ncg     rms          rms(c)
DAV:   1    -0.191250373197E+03   -0.32417E-01   -0.30226E+00  8160   0.365E+00    0.478E-01
DAV:   2    -0.191280278153E+03   -0.29905E-01   -0.11863E-01 13400   0.213E+00    0.155E+00
DAV:   3    -0.191253282400E+03    0.26996E-01   -0.47493E-02 12640   0.166E+00    0.252E-01
DAV:   4    -0.191252987195E+03    0.29520E-03   -0.37799E-03 11080   0.269E-01    0.219E-01
DAV:   5    -0.191252896893E+03    0.90303E-04   -0.30242E-03 12240   0.367E-01    0.267E-01
DAV:   6    -0.191252318184E+03    0.57871E-03   -0.21429E-03 10120   0.309E-01    0.112E-01
DAV:   7    -0.191252209771E+03    0.10841E-03   -0.44615E-04  8920   0.102E-01    0.314E-02
DAV:   8    -0.191252197388E+03    0.12383E-04   -0.74856E-05  7440   0.456E-02
   8 F= -.19125220E+03 E0= -.19115758E+03  d E =-.342876E-01
       N       E                     dE             d eps       ncg     rms          rms(c)
DAV:   1    -0.191244974592E+03    0.72352E-02   -0.17445E-01  8160   0.886E-01    0.123E-01
DAV:   2    -0.191246448022E+03   -0.14734E-02   -0.72711E-03 13240   0.479E-01    0.361E-01
DAV:   3    -0.191245065161E+03    0.13829E-02   -0.26059E-03 11720   0.380E-01    0.853E-02
DAV:   4    -0.191245152360E+03   -0.87199E-04   -0.50473E-04  8840   0.158E-01
   9 F= -.19124515E+03 E0= -.19115130E+03  d E =0.704503E-02
       N       E                     dE             d eps       ncg     rms          rms(c)
DAV:   1    -0.191205911384E+03    0.39154E-01   -0.72553E+00  8160   0.573E+00    0.808E-01
DAV:   2    -0.191254828136E+03   -0.48917E-01   -0.26111E-01 13520   0.294E+00    0.203E+00
DAV:   3    -0.191205949976E+03    0.48878E-01   -0.82456E-02 12400   0.224E+00    0.452E-01
DAV:   4    -0.191204514188E+03    0.14358E-02   -0.13214E-02 11400   0.472E-01    0.381E-01
DAV:   5    -0.191201854101E+03    0.26601E-02   -0.71717E-03 11400   0.385E-01    0.230E-01
DAV:   6    -0.191202775802E+03   -0.92170E-03   -0.51752E-03 11840   0.508E-01    0.378E-01
DAV:   7    -0.191201381229E+03    0.13946E-02   -0.25648E-03 11640   0.358E-01    0.661E-02
DAV:   8    -0.191201337632E+03    0.43597E-04   -0.18696E-04  6120   0.631E-02
  10 F= -.19120134E+03 E0= -.19111225E+03  d E =0.438147E-01
       N       E                     dE             d eps       ncg     rms          rms(c)
DAV:   1    -0.191209770880E+03   -0.83897E-02   -0.28855E-01  8160   0.112E+00    0.146E-01
DAV:   2    -0.191212553436E+03   -0.27826E-02   -0.11266E-02 12680   0.625E-01    0.451E-01
DAV:   3    -0.191210100749E+03    0.24527E-02   -0.43379E-03 11600   0.513E-01    0.991E-02
DAV:   4    -0.191210040471E+03    0.60279E-04   -0.48559E-04  8680   0.110E-01
  11 F= -.19121004E+03 E0= -.19111995E+03  d E =-.870284E-02
       N       E                     dE             d eps       ncg     rms          rms(c)
DAV:   1    -0.191262579742E+03   -0.52479E-01   -0.10057E+01  8160   0.668E+00    0.951E-01
DAV:   2    -0.191379359911E+03   -0.11678E+00   -0.43350E-01 13480   0.420E+00    0.318E+00
DAV:   3    -0.191269765089E+03    0.10959E+00   -0.20532E-01 12360   0.341E+00    0.545E-01
DAV:   4    -0.191268690011E+03    0.10751E-02   -0.21157E-02 12360   0.720E-01    0.603E-01
DAV:   5    -0.191267598069E+03    0.10919E-02   -0.18147E-02 12360   0.919E-01    0.622E-01
DAV:   6    -0.191263641853E+03    0.39562E-02   -0.95902E-03 12560   0.616E-01    0.176E-01
DAV:   7    -0.191263484355E+03    0.15750E-03   -0.20649E-03 11160   0.188E-01    0.962E-02
DAV:   8    -0.191263333307E+03    0.15105E-03   -0.58561E-04 11640   0.131E-01    0.839E-02
DAV:   9    -0.191263277292E+03    0.56016E-04   -0.22127E-04  6720   0.104E-01
  12 F= -.19126328E+03 E0= -.19116629E+03  d E =-.532368E-01
       N       E                     dE             d eps       ncg     rms          rms(c)
DAV:   1    -0.191281414509E+03   -0.18081E-01   -0.14276E+00  8160   0.250E+00    0.265E-01
DAV:   2    -0.191288213081E+03   -0.67986E-02   -0.42463E-02 13440   0.940E-01    0.673E-01
DAV:   3    -0.191283451374E+03    0.47617E-02   -0.12464E-02 12280   0.777E-01    0.236E-01
DAV:   4    -0.191283417171E+03    0.34203E-04   -0.27449E-03 11240   0.314E-01    0.226E-01
DAV:   5    -0.191283047126E+03    0.37004E-03   -0.18598E-03 10240   0.296E-01    0.156E-01
DAV:   6    -0.191282834832E+03    0.21229E-03   -0.77617E-04 10160   0.174E-01    0.647E-02
DAV:   7    -0.191282801361E+03    0.33471E-04   -0.16999E-04  6280   0.625E-02
  13 F= -.19128280E+03 E0= -.19118444E+03  d E =-.195241E-01
       N       E                     dE             d eps       ncg     rms          rms(c)
DAV:   1    -0.191285954602E+03   -0.31198E-02   -0.40124E-01  8160   0.133E+00    0.165E-01
DAV:   2    -0.191287169268E+03   -0.12147E-02   -0.11080E-02 12160   0.386E-01    0.286E-01
DAV:   3    -0.191286388468E+03    0.78080E-03   -0.42415E-03 11480   0.440E-01    0.220E-01
DAV:   4    -0.191286012827E+03    0.37564E-03   -0.13106E-03 10200   0.223E-01    0.106E-01
DAV:   5    -0.191285989692E+03    0.23135E-04   -0.60237E-04  8640   0.174E-01
  14 F= -.19128599E+03 E0= -.19118702E+03  d E =-.318833E-02
       N       E                     dE             d eps       ncg     rms          rms(c)
DAV:   1    -0.191275516417E+03    0.10496E-01   -0.14870E+00  8160   0.257E+00    0.269E-01
DAV:   2    -0.191279079756E+03   -0.35633E-02   -0.36957E-02 13240   0.655E-01    0.434E-01
DAV:   3    -0.191277946637E+03    0.11331E-02   -0.10980E-02 12120   0.676E-01    0.381E-01
DAV:   4    -0.191276889793E+03    0.10568E-02   -0.40172E-03 11520   0.403E-01    0.172E-01
DAV:   5    -0.191276542763E+03    0.34703E-03   -0.12130E-03  9880   0.215E-01    0.121E-01
DAV:   6    -0.191276607908E+03   -0.65145E-04   -0.86490E-04 11280   0.220E-01
  15 F= -.19127661E+03 E0= -.19117748E+03  d E =0.938178E-02
       N       E                     dE             d eps       ncg     rms          rms(c)
DAV:   1    -0.191285844033E+03   -0.93013E-02   -0.20520E+00  8160   0.302E+00    0.354E-01
DAV:   2    -0.191299647683E+03   -0.13804E-01   -0.73017E-02 12880   0.142E+00    0.979E-01
DAV:   3    -0.191288999799E+03    0.10648E-01   -0.23087E-02 12280   0.114E+00    0.255E-01
DAV:   4    -0.191288591986E+03    0.40781E-03   -0.29703E-03 11120   0.261E-01    0.183E-01
DAV:   5    -0.191288472280E+03    0.11971E-03   -0.19935E-03 10680   0.282E-01    0.215E-01
DAV:   6    -0.191288167423E+03    0.30486E-03   -0.15837E-03 10280   0.253E-01    0.117E-01
DAV:   7    -0.191288044838E+03    0.12258E-03   -0.39862E-04  8280   0.975E-02    0.292E-02
DAV:   8    -0.191288029186E+03    0.15652E-04   -0.67493E-05  6800   0.343E-02
  16 F= -.19128803E+03 E0= -.19118648E+03  d E =-.114213E-01
       N       E                     dE             d eps       ncg     rms          rms(c)
DAV:   1    -0.191287184475E+03    0.86036E-03   -0.58166E-02  8160   0.510E-01    0.580E-02
DAV:   2    -0.191287478677E+03   -0.29420E-03   -0.18981E-03 11800   0.210E-01    0.141E-01
DAV:   3    -0.191287258904E+03    0.21977E-03   -0.50334E-04  9080   0.166E-01    0.493E-02
DAV:   4    -0.191287253199E+03    0.57050E-05   -0.12146E-04  5840   0.660E-02
  17 F= -.19128725E+03 E0= -.19118602E+03  d E =0.775987E-03
       N       E                     dE             d eps       ncg     rms          rms(c)
DAV:   1    -0.191282649582E+03    0.46093E-02   -0.13990E-01  8160   0.808E-01    0.113E-01
DAV:   2    -0.191283409683E+03   -0.76010E-03   -0.55252E-03 11800   0.347E-01    0.255E-01
DAV:   3    -0.191282772281E+03    0.63740E-03   -0.18182E-03 11000   0.305E-01    0.106E-01
DAV:   4    -0.191282765683E+03    0.65986E-05   -0.57827E-04  8280   0.152E-01
  18 F= -.19128277E+03 E0= -.19118214E+03  d E =0.448752E-02
       N       E                     dE             d eps       ncg     rms          rms(c)
DAV:   1    -0.191336698815E+03   -0.53927E-01   -0.12477E+01  8160   0.764E+00    0.116E+00
DAV:   2    -0.191483372594E+03   -0.14667E+00   -0.63883E-01 12320   0.456E+00    0.368E+00
DAV:   3    -0.191346706159E+03    0.13667E+00   -0.28619E-01 12400   0.387E+00    0.660E-01
DAV:   4    -0.191351394222E+03   -0.46881E-02   -0.42210E-02 12320   0.124E+00    0.115E+00
DAV:   5    -0.191340440928E+03    0.10953E-01   -0.41645E-02 12320   0.134E+00    0.561E-01
DAV:   6    -0.191337217873E+03    0.32231E-02   -0.12236E-02 11560   0.529E-01    0.213E-01
DAV:   7    -0.191336508401E+03    0.70947E-03   -0.31477E-03 10840   0.201E-01    0.978E-02
DAV:   8    -0.191336414161E+03    0.94240E-04   -0.75319E-04 12120   0.143E-01
  19 F= -.19133641E+03 E0= -.19122990E+03  d E =-.536485E-01
       N       E                     dE             d eps       ncg     rms          rms(c)
DAV:   1    -0.191343868347E+03   -0.73599E-02   -0.17876E+00  8160   0.285E+00    0.342E-01
DAV:   2    -0.191352264809E+03   -0.83965E-02   -0.57425E-02 13400   0.113E+00    0.794E-01
DAV:   3    -0.191345616141E+03    0.66487E-02   -0.20216E-02 12280   0.948E-01    0.363E-01
DAV:   4    -0.191344888487E+03    0.72765E-03   -0.61145E-03 11240   0.450E-01    0.269E-01
DAV:   5    -0.191344770774E+03    0.11771E-03   -0.35568E-03 10160   0.400E-01    0.277E-01
DAV:   6    -0.191343926311E+03    0.84446E-03   -0.18200E-03 10000   0.280E-01    0.717E-02
DAV:   7    -0.191343909007E+03    0.17304E-04   -0.29992E-04  7400   0.807E-02
  20 F= -.19134391E+03 E0= -.19123789E+03  d E =-.749485E-02
       N       E                     dE             d eps       ncg     rms          rms(c)
DAV:   1    -0.191373823531E+03   -0.29897E-01   -0.25358E+00  8160   0.339E+00    0.397E-01
DAV:   2    -0.191390930207E+03   -0.17107E-01   -0.90932E-02 13280   0.151E+00    0.114E+00
DAV:   3    -0.191377520995E+03    0.13409E-01   -0.30147E-02 12360   0.125E+00    0.296E-01
DAV:   4    -0.191377957426E+03   -0.43643E-03   -0.59037E-03 11280   0.456E-01    0.391E-01
DAV:   5    -0.191376594669E+03    0.13628E-02   -0.44340E-03 10440   0.431E-01    0.179E-01
DAV:   6    -0.191376339278E+03    0.25539E-03   -0.13229E-03 10040   0.176E-01    0.835E-02
DAV:   7    -0.191376243986E+03    0.95292E-04   -0.43307E-04 10400   0.752E-02
  21 F= -.19137624E+03 E0= -.19126885E+03  d E =-.323350E-01
       N       E                     dE             d eps       ncg     rms          rms(c)
DAV:   1    -0.191198117537E+03    0.17822E+00   -0.51738E+01  8160   0.154E+01    0.181E+00
DAV:   2    -0.191510238660E+03   -0.31212E+00   -0.19045E+00 13280   0.606E+00    0.426E+00
DAV:   3    -0.191279147718E+03    0.23109E+00   -0.42302E-01 11920   0.490E+00    0.131E+00
DAV:   4    -0.191277719763E+03    0.14280E-02   -0.97115E-02 12480   0.181E+00    0.151E+00
DAV:   5    -0.191261487486E+03    0.16232E-01   -0.75911E-02 11040   0.179E+00    0.891E-01
DAV:   6    -0.191254081237E+03    0.74062E-02   -0.26255E-02 11360   0.918E-01    0.385E-01
DAV:   7    -0.191251824371E+03    0.22569E-02   -0.89990E-03 12640   0.395E-01    0.195E-01
DAV:   8    -0.191251684637E+03    0.13973E-03   -0.26630E-03 11600   0.315E-01    0.216E-01
DAV:   9    -0.191251305261E+03    0.37938E-03   -0.12071E-03 10040   0.236E-01    0.886E-02
DAV:  10    -0.191251212313E+03    0.92948E-04   -0.35405E-04  8400   0.887E-02
  22 F= -.19125121E+03 E0= -.19115301E+03  d E =0.125032E+00
       N       E                     dE             d eps       ncg     rms          rms(c)
DAV:   1    -0.191245857941E+03    0.54473E-02   -0.21832E+00  8160   0.320E+00    0.399E-01
DAV:   2    -0.191254832822E+03   -0.89749E-02   -0.70019E-02 13360   0.105E+00    0.888E-01
DAV:   3    -0.191248678913E+03    0.61539E-02   -0.26114E-02 12400   0.109E+00    0.459E-01
DAV:   4    -0.191247053339E+03    0.16256E-02   -0.62746E-03 11240   0.447E-01    0.274E-01
DAV:   5    -0.191246496427E+03    0.55691E-03   -0.32982E-03 12360   0.395E-01    0.231E-01
DAV:   6    -0.191246057320E+03    0.43911E-03   -0.18263E-03 11240   0.296E-01    0.119E-01
DAV:   7    -0.191245884452E+03    0.17287E-03   -0.71676E-04 10320   0.149E-01    0.681E-02
DAV:   8    -0.191245877681E+03    0.67710E-05   -0.27579E-04  7920   0.118E-01
  23 F= -.19124588E+03 E0= -.19114803E+03  d E =0.533463E-02
       N       E                     dE             d eps       ncg     rms          rms(c)
DAV:   1    -0.191232011951E+03    0.13873E-01   -0.35204E+00  8160   0.404E+00    0.545E-01
DAV:   2    -0.191261436166E+03   -0.29424E-01   -0.14865E-01 12840   0.195E+00    0.149E+00
DAV:   3    -0.191236268608E+03    0.25168E-01   -0.47993E-02 12440   0.163E+00    0.411E-01
DAV:   4    -0.191237048563E+03   -0.77996E-03   -0.10933E-02 11320   0.646E-01    0.539E-01
DAV:   5    -0.191234627102E+03    0.24215E-02   -0.78394E-03 10160   0.594E-01    0.270E-01
DAV:   6    -0.191233798612E+03    0.82849E-03   -0.22035E-03 10240   0.267E-01    0.952E-02
DAV:   7    -0.191233751381E+03    0.47231E-04   -0.81132E-04 11400   0.121E-01
  24 F= -.19123375E+03 E0= -.19113735E+03  d E =0.121263E-01
       N       E                     dE             d eps       ncg     rms          rms(c)
DAV:   1    -0.191262658610E+03   -0.28860E-01   -0.59347E+00  8160   0.516E+00    0.640E-01
DAV:   2    -0.191315426454E+03   -0.52768E-01   -0.22894E-01 13440   0.260E+00    0.208E+00
DAV:   3    -0.191270320400E+03    0.45106E-01   -0.95924E-02 12280   0.221E+00    0.456E-01
DAV:   4    -0.191271462642E+03   -0.11422E-02   -0.14508E-02 11240   0.750E-01    0.614E-01
DAV:   5    -0.191268007804E+03    0.34548E-02   -0.92987E-03 10920   0.658E-01    0.264E-01
DAV:   6    -0.191267228641E+03    0.77916E-03   -0.24683E-03 10040   0.249E-01    0.109E-01
DAV:   7    -0.191267163677E+03    0.64965E-04   -0.99644E-04 11640   0.119E-01
  25 F= -.19126716E+03 E0= -.19116743E+03  d E =-.334123E-01
       N       E                     dE             d eps       ncg     rms          rms(c)
DAV:   1    -0.191248925259E+03    0.18303E-01   -0.39895E+00  8160   0.429E+00    0.520E-01
DAV:   2    -0.191277461990E+03   -0.28537E-01   -0.15155E-01 13480   0.170E+00    0.145E+00
DAV:   3    -0.191255885004E+03    0.21577E-01   -0.52748E-02 12360   0.163E+00    0.518E-01
DAV:   4    -0.191255078744E+03    0.80626E-03   -0.11362E-02 11160   0.626E-01    0.466E-01
DAV:   5    -0.191252997471E+03    0.20813E-02   -0.55192E-03 11280   0.512E-01    0.223E-01
DAV:   6    -0.191252534147E+03    0.46332E-03   -0.18854E-03 11480   0.265E-01    0.132E-01
DAV:   7    -0.191252755012E+03   -0.22087E-03   -0.16157E-03 11600   0.259E-01    0.213E-01
DAV:   8    -0.191252317026E+03    0.43799E-03   -0.97925E-04  9240   0.230E-01    0.638E-02
DAV:   9    -0.191252270594E+03    0.46432E-04   -0.10019E-04  5800   0.614E-02
  26 F= -.19125227E+03 E0= -.19115374E+03  d E =0.148931E-01
       N       E                     dE             d eps       ncg     rms          rms(c)
DAV:   1    -0.191285123573E+03   -0.32807E-01   -0.47486E+00  8160   0.457E+00    0.487E-01
DAV:   2    -0.191312352721E+03   -0.27229E-01   -0.13464E-01 13240   0.182E+00    0.142E+00
DAV:   3    -0.191290528979E+03    0.21824E-01   -0.48878E-02 12360   0.159E+00    0.370E-01
DAV:   4    -0.191290719402E+03   -0.19042E-03   -0.71196E-03 11520   0.504E-01    0.415E-01
DAV:   5    -0.191289405738E+03    0.13137E-02   -0.52180E-03 10440   0.486E-01    0.251E-01
DAV:   6    -0.191288856864E+03    0.54887E-03   -0.17775E-03 10480   0.240E-01    0.104E-01
DAV:   7    -0.191288813350E+03    0.43513E-04   -0.65999E-04 11120   0.118E-01
  27 F= -.19128881E+03 E0= -.19118741E+03  d E =-.365428E-01
       N       E                     dE             d eps       ncg     rms          rms(c)
DAV:   1    -0.191265766934E+03    0.23090E-01   -0.27423E+00  8160   0.352E+00    0.470E-01
DAV:   2    -0.191294519583E+03   -0.28753E-01   -0.11934E-01 13080   0.196E+00    0.148E+00
DAV:   3    -0.191268398771E+03    0.26121E-01   -0.41369E-02 12040   0.153E+00    0.273E-01
DAV:   4    -0.191268947651E+03   -0.54888E-03   -0.60503E-03 11120   0.458E-01    0.392E-01
DAV:   5    -0.191267791702E+03    0.11559E-02   -0.46464E-03 10240   0.460E-01    0.232E-01
DAV:   6    -0.191267210996E+03    0.58071E-03   -0.14365E-03 10160   0.218E-01    0.779E-02
DAV:   7    -0.191267359094E+03   -0.14810E-03   -0.77043E-04 10840   0.167E-01    0.144E-01
DAV:   8    -0.191267149519E+03    0.20957E-03   -0.45775E-04  8560   0.158E-01    0.465E-02
DAV:   9    -0.191267134709E+03    0.14810E-04   -0.57448E-05  5880   0.460E-02
  28 F= -.19126713E+03 E0= -.19116775E+03  d E =0.216786E-01
       N       E                     dE             d eps       ncg     rms          rms(c)
DAV:   1    -0.191324304276E+03   -0.57155E-01   -0.11738E+01  8160   0.721E+00    0.864E-01
DAV:   2    -0.191416141424E+03   -0.91837E-01   -0.40481E-01 13360   0.363E+00    0.278E+00
DAV:   3    -0.191335620011E+03    0.80521E-01   -0.17007E-01 12320   0.294E+00    0.557E-01
DAV:   4    -0.191337529965E+03   -0.19100E-02   -0.22866E-02 12320   0.924E-01    0.790E-01
DAV:   5    -0.191332705945E+03    0.48240E-02   -0.18369E-02 10680   0.917E-01    0.472E-01
DAV:   6    -0.191330400873E+03    0.23051E-02   -0.61906E-03 10080   0.432E-01    0.156E-01
DAV:   7    -0.191330150591E+03    0.25028E-03   -0.17493E-03 10800   0.145E-01    0.699E-02
DAV:   8    -0.191330032194E+03    0.11840E-03   -0.30698E-04  9560   0.728E-02    0.326E-02
DAV:   9    -0.191330042775E+03   -0.10581E-04   -0.10512E-04  6280   0.649E-02
  29 F= -.19133004E+03 E0= -.19122607E+03  d E =-.629081E-01
       N       E                     dE             d eps       ncg     rms          rms(c)
DAV:   1    -0.191323198774E+03    0.68334E-02   -0.10710E+00  8160   0.222E+00    0.267E-01
DAV:   2    -0.191330074472E+03   -0.68757E-02   -0.39557E-02 13480   0.833E-01    0.697E-01
DAV:   3    -0.191325050608E+03    0.50239E-02   -0.13276E-02 12280   0.810E-01    0.283E-01
DAV:   4    -0.191324784005E+03    0.26660E-03   -0.31735E-03 10960   0.333E-01    0.237E-01
DAV:   5    -0.191324293380E+03    0.49063E-03   -0.15605E-03 10040   0.267E-01    0.132E-01
DAV:   6    -0.191324120157E+03    0.17322E-03   -0.54625E-04  8880   0.148E-01    0.664E-02
DAV:   7    -0.191324183748E+03   -0.63591E-04   -0.40596E-04  9280   0.130E-01
  30 F= -.19132418E+03 E0= -.19122078E+03  d E =0.585903E-02
       N       E                     dE             d eps       ncg     rms          rms(c)
DAV:   1    -0.191375922272E+03   -0.51802E-01   -0.13169E+01  8160   0.764E+00    0.856E-01
DAV:   2    -0.191468342450E+03   -0.92420E-01   -0.43357E-01 12840   0.331E+00    0.271E+00
DAV:   3    -0.191394139339E+03    0.74203E-01   -0.17771E-01 12200   0.296E+00    0.738E-01
DAV:   4    -0.191394178684E+03   -0.39345E-04   -0.28612E-02 11640   0.103E+00    0.798E-01
DAV:   5    -0.191388748462E+03    0.54302E-02   -0.16560E-02 11200   0.864E-01    0.405E-01
DAV:   6    -0.191386961092E+03    0.17874E-02   -0.49022E-03 11040   0.376E-01    0.167E-01
DAV:   7    -0.191386883474E+03    0.77618E-04   -0.21581E-03 12640   0.205E-01    0.137E-01
DAV:   8    -0.191386811822E+03    0.71652E-04   -0.11399E-03 10760   0.227E-01    0.141E-01
DAV:   9    -0.191386608166E+03    0.20366E-03   -0.40970E-04  8560   0.136E-01    0.306E-02
DAV:  10    -0.191386606242E+03    0.19239E-05   -0.57718E-05  6000   0.308E-02
  31 F= -.19138661E+03 E0= -.19128032E+03  d E =-.624225E-01
       N       E                     dE             d eps       ncg     rms          rms(c)
DAV:   1    -0.191354874088E+03    0.31734E-01   -0.94450E+00  8160   0.658E+00    0.827E-01
DAV:   2    -0.191431251313E+03   -0.76377E-01   -0.38016E-01 13520   0.300E+00    0.229E+00
DAV:   3    -0.191368581880E+03    0.62669E-01   -0.11586E-01 12160   0.252E+00    0.650E-01
DAV:   4    -0.191369371643E+03   -0.78976E-03   -0.25426E-02 11600   0.960E-01    0.781E-01
DAV:   5    -0.191364818055E+03    0.45536E-02   -0.16341E-02 10960   0.856E-01    0.423E-01
DAV:   6    -0.191362642250E+03    0.21758E-02   -0.44846E-03 11000   0.404E-01    0.136E-01
DAV:   7    -0.191362613853E+03    0.28398E-04   -0.17576E-03 12440   0.174E-01    0.119E-01
DAV:   8    -0.191362521986E+03    0.91866E-04   -0.81194E-04  9760   0.193E-01
  32 F= -.19136252E+03 E0= -.19125846E+03  d E =0.240843E-01
       N       E                     dE             d eps       ncg     rms          rms(c)
DAV:   1    -0.191415835836E+03   -0.53222E-01   -0.46298E+01  8160   0.145E+01    0.173E+00
DAV:   2    -0.191811091411E+03   -0.39526E+00   -0.18070E+00 13040   0.692E+00    0.584E+00
DAV:   3    -0.191503444968E+03    0.30765E+00   -0.85408E-01 12160   0.636E+00    0.170E+00
DAV:   4    -0.191495340061E+03    0.81049E-02   -0.14328E-01 11960   0.227E+00    0.159E+00
DAV:   5    -0.191471974912E+03    0.23365E-01   -0.63410E-02 11120   0.171E+00    0.787E-01
DAV:   6    -0.191463787004E+03    0.81879E-02   -0.20253E-02 11560   0.721E-01    0.322E-01
DAV:   7    -0.191464417900E+03   -0.63090E-03   -0.10671E-02 12920   0.519E-01    0.442E-01
DAV:   8    -0.191462745267E+03    0.16726E-02   -0.60017E-03 11680   0.529E-01    0.207E-01
DAV:   9    -0.191462280504E+03    0.46476E-03   -0.10849E-03 10120   0.193E-01    0.559E-02
DAV:  10    -0.191462229761E+03    0.50743E-04   -0.26632E-04  9840   0.538E-02
  33 F= -.19146223E+03 E0= -.19135475E+03  d E =-.997078E-01
       N       E                     dE             d eps       ncg     rms          rms(c)
DAV:   1    -0.191482974783E+03   -0.20694E-01   -0.96799E+01  8160   0.209E+01    0.239E+00
DAV:   2    -0.192220583242E+03   -0.73761E+00   -0.36170E+00 12920   0.945E+00    0.816E+00
DAV:   3    -0.191697308707E+03    0.52327E+00   -0.15632E+00 12240   0.879E+00    0.260E+00
DAV:   4    -0.191670067176E+03    0.27242E-01   -0.35016E-01 11960   0.335E+00    0.215E+00
DAV:   5    -0.191623496668E+03    0.46571E-01   -0.10786E-01 11040   0.243E+00    0.115E+00
DAV:   6    -0.191606449371E+03    0.17047E-01   -0.48046E-02 11800   0.107E+00    0.503E-01
DAV:   7    -0.191603006404E+03    0.34430E-02   -0.18252E-02 12200   0.457E-01    0.191E-01
DAV:   8    -0.191603721095E+03   -0.71469E-03   -0.46759E-03 12520   0.428E-01    0.363E-01
DAV:   9    -0.191602542869E+03    0.11782E-02   -0.26659E-03 10560   0.353E-01    0.104E-01
DAV:  10    -0.191602382974E+03    0.15989E-03   -0.49663E-04 10320   0.876E-02    0.497E-02
DAV:  11    -0.191602350099E+03    0.32875E-04   -0.19182E-04  8160   0.445E-02
  34 F= -.19160235E+03 E0= -.19149419E+03  d E =-.140120E+00
       N       E                     dE             d eps       ncg     rms          rms(c)
DAV:   1    -0.191493352824E+03    0.10903E+00   -0.58058E+01  8160   0.162E+01    0.183E+00
DAV:   2    -0.191854852672E+03   -0.36150E+00   -0.18838E+00 12840   0.604E+00    0.497E+00
DAV:   3    -0.191594726158E+03    0.26013E+00   -0.66713E-01 12440   0.559E+00    0.208E+00
DAV:   4    -0.191563286193E+03    0.31440E-01   -0.14991E-01 11720   0.235E+00    0.147E+00
DAV:   5    -0.191550834573E+03    0.12452E-01   -0.75891E-02 12520   0.189E+00    0.101E+00
DAV:   6    -0.191538729188E+03    0.12105E-01   -0.29096E-02 11960   0.104E+00    0.450E-01
DAV:   7    -0.191546666505E+03   -0.79373E-02   -0.26400E-02 12480   0.110E+00    0.105E+00
DAV:   8    -0.191536316204E+03    0.10350E-01   -0.18500E-02 11280   0.949E-01    0.135E-01
DAV:   9    -0.191536101197E+03    0.21501E-03   -0.97193E-04 10400   0.131E-01    0.487E-02
DAV:  10    -0.191536071777E+03    0.29420E-04   -0.32163E-04 10760   0.614E-02
  35 F= -.19153607E+03 E0= -.19142802E+03  d E =0.662783E-01
       N       E                     dE             d eps       ncg     rms          rms(c)
DAV:   1    -0.191569769006E+03   -0.33668E-01   -0.23726E+00  8160   0.326E+00    0.343E-01
DAV:   2    -0.191581464554E+03   -0.11696E-01   -0.85658E-02 12040   0.116E+00    0.849E-01
DAV:   3    -0.191575208912E+03    0.62556E-02   -0.20026E-02 12080   0.944E-01    0.341E-01
DAV:   4    -0.191576000977E+03   -0.79207E-03   -0.63102E-03 11560   0.523E-01    0.461E-01
DAV:   5    -0.191573863042E+03    0.21379E-02   -0.33757E-03 10840   0.420E-01    0.928E-02
DAV:   6    -0.191573892252E+03   -0.29210E-04   -0.87634E-04 10560   0.105E-01
  36 F= -.19157389E+03 E0= -.19146655E+03  d E =-.378205E-01
       N       E                     dE             d eps       ncg     rms          rms(c)
DAV:   1    -0.191611555285E+03   -0.37692E-01   -0.47069E+00  8160   0.454E+00    0.398E-01
DAV:   2    -0.191624590127E+03   -0.13035E-01   -0.73628E-02 12040   0.121E+00    0.110E+00
DAV:   3    -0.191614238099E+03    0.10352E-01   -0.27208E-02 12040   0.116E+00    0.414E-01
DAV:   4    -0.191613783146E+03    0.45495E-03   -0.60258E-03 11160   0.464E-01    0.361E-01
DAV:   5    -0.191612946304E+03    0.83684E-03   -0.47100E-03 11440   0.504E-01    0.282E-01
DAV:   6    -0.191612438416E+03    0.50789E-03   -0.29043E-03 11520   0.337E-01    0.188E-01
DAV:   7    -0.191612506627E+03   -0.68211E-04   -0.19219E-03 10520   0.310E-01    0.218E-01
DAV:   8    -0.191612014322E+03    0.49230E-03   -0.76265E-04  8960   0.192E-01    0.270E-02
DAV:   9    -0.191612020766E+03   -0.64435E-05   -0.49896E-05  6000   0.278E-02
  37 F= -.19161202E+03 E0= -.19150709E+03  d E =-.381285E-01
       N       E                     dE             d eps       ncg     rms          rms(c)
DAV:   1    -0.191616221221E+03   -0.42069E-02   -0.31031E-01  8160   0.118E+00    0.126E-01
DAV:   2    -0.191617291790E+03   -0.10706E-02   -0.10531E-02 12160   0.337E-01    0.213E-01
DAV:   3    -0.191617069013E+03    0.22278E-03   -0.19996E-03 12360   0.321E-01    0.175E-01
DAV:   4    -0.191616847339E+03    0.22167E-03   -0.60062E-04  8640   0.170E-01    0.993E-02
DAV:   5    -0.191616779092E+03    0.68247E-04   -0.29719E-04  8040   0.129E-01
  38 F= -.19161678E+03 E0= -.19151265E+03  d E =-.475833E-02
       N       E                     dE             d eps       ncg     rms          rms(c)
DAV:   1    -0.191659987933E+03   -0.43141E-01   -0.35067E+00  8160   0.402E+00    0.419E-01
DAV:   2    -0.191670677452E+03   -0.10690E-01   -0.95112E-02 12200   0.125E+00    0.871E-01
DAV:   3    -0.191664809026E+03    0.58684E-02   -0.19782E-02 11760   0.100E+00    0.405E-01
DAV:   4    -0.191665851806E+03   -0.10428E-02   -0.85063E-03 11600   0.654E-01    0.564E-01
DAV:   5    -0.191662706825E+03    0.31450E-02   -0.52661E-03 10600   0.557E-01    0.156E-01
DAV:   6    -0.191663344128E+03   -0.63730E-03   -0.22680E-03 11600   0.304E-01    0.279E-01
DAV:   7    -0.191662590314E+03    0.75381E-03   -0.15808E-03 10000   0.301E-01    0.993E-02
DAV:   8    -0.191662481452E+03    0.10886E-03   -0.23914E-04  7240   0.886E-02    0.234E-02
DAV:   9    -0.191662474810E+03    0.66415E-05   -0.52191E-05  7360   0.260E-02
  39 F= -.19166247E+03 E0= -.19156090E+03  d E =-.456957E-01
       N       E                     dE             d eps       ncg     rms          rms(c)
DAV:   1    -0.191697599183E+03   -0.35118E-01   -0.19553E+00  8160   0.300E+00    0.318E-01
DAV:   2    -0.191702011001E+03   -0.44118E-02   -0.56927E-02 12040   0.762E-01    0.446E-01
DAV:   3    -0.191702375404E+03   -0.36440E-03   -0.97943E-03 11240   0.704E-01    0.488E-01
DAV:   4    -0.191700429041E+03    0.19464E-02   -0.44763E-03 11040   0.469E-01    0.233E-01
DAV:   5    -0.191700062314E+03    0.36673E-03   -0.18039E-03  9840   0.317E-01    0.173E-01
DAV:   6    -0.191699984244E+03    0.78071E-04   -0.11972E-03 11320   0.246E-01    0.115E-01
DAV:   7    -0.191699750485E+03    0.23376E-03   -0.44845E-04  9480   0.120E-01    0.504E-02
DAV:   8    -0.191699737029E+03    0.13456E-04   -0.89068E-05  6200   0.697E-02
  40 F= -.19169974E+03 E0= -.19160059E+03  d E =-.372622E-01
       N       E                     dE             d eps       ncg     rms          rms(c)
DAV:   1    -0.191688131761E+03    0.11619E-01   -0.18494E-01  8160   0.925E-01    0.107E-01
DAV:   2    -0.191688451909E+03   -0.32015E-03   -0.51850E-03 12200   0.220E-01    0.126E-01
DAV:   3    -0.191688533747E+03   -0.81837E-04   -0.11336E-03 10800   0.236E-01    0.178E-01
DAV:   4    -0.191688301974E+03    0.23177E-03   -0.67440E-04  8200   0.184E-01    0.833E-02
DAV:   5    -0.191688225897E+03    0.76076E-04   -0.20994E-04  6360   0.856E-02
  41 F= -.19168823E+03 E0= -.19158825E+03  d E =0.115111E-01
       N       E                     dE             d eps       ncg     rms          rms(c)
DAV:   1    -0.191623285789E+03    0.65016E-01   -0.65452E+00  8160   0.550E+00    0.649E-01
DAV:   2    -0.191637173316E+03   -0.13888E-01   -0.18701E-01 12280   0.142E+00    0.866E-01
DAV:   3    -0.191638844312E+03   -0.16710E-02   -0.46302E-02 12360   0.152E+00    0.103E+00
DAV:   4    -0.191631832294E+03    0.70120E-02   -0.25532E-02 11840   0.106E+00    0.563E-01
DAV:   5    -0.191628684275E+03    0.31480E-02   -0.91593E-03 10760   0.680E-01    0.381E-01
DAV:   6    -0.191628169981E+03    0.51429E-03   -0.60738E-03 12400   0.522E-01    0.296E-01
DAV:   7    -0.191628338583E+03   -0.16860E-03   -0.39183E-03 12200   0.451E-01    0.336E-01
DAV:   8    -0.191627142087E+03    0.11965E-02   -0.16591E-03 10000   0.303E-01    0.388E-02
DAV:   9    -0.191627152356E+03   -0.10270E-04   -0.93507E-05  6120   0.448E-02
  42 F= -.19162715E+03 E0= -.19152303E+03  d E =0.610735E-01
       N       E                     dE             d eps       ncg     rms          rms(c)
DAV:   1    -0.191621571035E+03    0.55711E-02   -0.39155E+00  8160   0.427E+00    0.579E-01
DAV:   2    -0.191647234685E+03   -0.25664E-01   -0.14717E-01 13600   0.194E+00    0.142E+00
DAV:   3    -0.191626540261E+03    0.20694E-01   -0.53121E-02 12440   0.168E+00    0.520E-01
DAV:   4    -0.191626420417E+03    0.11984E-03   -0.13935E-02 11240   0.696E-01    0.574E-01
DAV:   5    -0.191624908698E+03    0.15117E-02   -0.10903E-02 12040   0.724E-01    0.452E-01
DAV:   6    -0.191622617738E+03    0.22910E-02   -0.45695E-03 10840   0.399E-01    0.104E-01
DAV:   7    -0.191622600413E+03    0.17325E-04   -0.89086E-04 10880   0.118E-01
  43 F= -.19162260E+03 E0= -.19151665E+03  d E =0.455194E-02
       N       E                     dE             d eps       ncg     rms          rms(c)
DAV:   1    -0.191622792958E+03   -0.17522E-03   -0.36865E+00  8160   0.412E+00    0.508E-01
DAV:   2    -0.191639162160E+03   -0.16369E-01   -0.11986E-01 12840   0.132E+00    0.112E+00
DAV:   3    -0.191630122926E+03    0.90392E-02   -0.47570E-02 12400   0.141E+00    0.677E-01
DAV:   4    -0.191627552061E+03    0.25709E-02   -0.12847E-02 12400   0.719E-01    0.435E-01
DAV:   5    -0.191626120550E+03    0.14315E-02   -0.58204E-03 10440   0.577E-01    0.312E-01
DAV:   6    -0.191625265580E+03    0.85497E-03   -0.33442E-03 11000   0.353E-01    0.165E-01
DAV:   7    -0.191625405194E+03   -0.13961E-03   -0.17692E-03 12680   0.263E-01    0.223E-01
DAV:   8    -0.191624952771E+03    0.45242E-03   -0.99092E-04  9160   0.228E-01    0.594E-02
DAV:   9    -0.191624927737E+03    0.25033E-04   -0.92603E-05  5920   0.568E-02
  44 F= -.19162493E+03 E0= -.19151838E+03  d E =-.232732E-02
       N       E                     dE             d eps       ncg     rms          rms(c)
DAV:   1    -0.191641365520E+03   -0.16413E-01   -0.20161E+00  8160   0.310E+00    0.410E-01
DAV:   2    -0.191645533973E+03   -0.41685E-02   -0.59132E-02 13600   0.821E-01    0.592E-01
DAV:   3    -0.191644482163E+03    0.10518E-02   -0.18833E-02 12200   0.932E-01    0.600E-01
DAV:   4    -0.191642493100E+03    0.19891E-02   -0.97770E-03 12080   0.661E-01    0.388E-01
DAV:   5    -0.191641410536E+03    0.10826E-02   -0.53799E-03 10360   0.487E-01    0.306E-01
DAV:   6    -0.191640547055E+03    0.86348E-03   -0.25964E-03 11680   0.352E-01    0.113E-01
DAV:   7    -0.191640377996E+03    0.16906E-03   -0.55749E-04 10480   0.110E-01    0.315E-02
DAV:   8    -0.191640365882E+03    0.12114E-04   -0.86743E-05  8080   0.546E-02
  45 F= -.19164037E+03 E0= -.19153443E+03  d E =-.154381E-01
       N       E                     dE             d eps       ncg     rms          rms(c)
DAV:   1    -0.191651108082E+03   -0.10730E-01   -0.65865E-01  8160   0.173E+00    0.185E-01
DAV:   2    -0.191654052119E+03   -0.29440E-02   -0.25097E-02 12160   0.610E-01    0.398E-01
DAV:   3    -0.191652716295E+03    0.13358E-02   -0.45807E-03 11560   0.470E-01    0.180E-01
DAV:   4    -0.191652860973E+03   -0.14468E-03   -0.16127E-03 10000   0.271E-01    0.236E-01
DAV:   5    -0.191652318001E+03    0.54297E-03   -0.91679E-04  8720   0.224E-01    0.590E-02
DAV:   6    -0.191652377782E+03   -0.59781E-04   -0.34156E-04  8120   0.919E-02
  46 F= -.19165238E+03 E0= -.19154685E+03  d E =-.120119E-01
       N       E                     dE             d eps       ncg     rms          rms(c)
DAV:   1    -0.191660917941E+03   -0.85999E-02   -0.31835E-01  8160   0.122E+00    0.135E-01
DAV:   2    -0.191661642659E+03   -0.72472E-03   -0.96691E-03 12080   0.277E-01    0.165E-01
DAV:   3    -0.191661851380E+03   -0.20872E-03   -0.19141E-03 12280   0.312E-01    0.233E-01
DAV:   4    -0.191661385353E+03    0.46603E-03   -0.94974E-04  8400   0.220E-01    0.799E-02
DAV:   5    -0.191661359481E+03    0.25872E-04   -0.29929E-04  7080   0.106E-01
  47 F= -.19166136E+03 E0= -.19155642E+03  d E =-.898170E-02
       N       E                     dE             d eps       ncg     rms          rms(c)
DAV:   1    -0.191652753582E+03    0.86318E-02   -0.44043E-01  8160   0.145E+00    0.200E-01
DAV:   2    -0.191655670585E+03   -0.29170E-02   -0.15453E-02 13520   0.600E-01    0.527E-01
DAV:   3    -0.191653281446E+03    0.23891E-02   -0.71066E-03 11760   0.594E-01    0.243E-01
DAV:   4    -0.191652943704E+03    0.33774E-03   -0.20431E-03  9960   0.255E-01    0.149E-01
DAV:   5    -0.191652794706E+03    0.14900E-03   -0.76632E-04  9560   0.208E-01    0.124E-01
DAV:   6    -0.191652640626E+03    0.15408E-03   -0.47054E-04  9560   0.147E-01    0.563E-02
DAV:   7    -0.191652611284E+03    0.29342E-04   -0.12538E-04  5960   0.619E-02
  48 F= -.19165261E+03 E0= -.19154705E+03  d E =0.874820E-02
       N       E                     dE             d eps       ncg     rms          rms(c)
DAV:   1    -0.191668971837E+03   -0.16331E-01   -0.98673E-01  8160   0.220E+00    0.343E-01
DAV:   2    -0.191672563852E+03   -0.35920E-02   -0.43105E-02 12920   0.881E-01    0.637E-01
DAV:   3    -0.191669499764E+03    0.30641E-02   -0.12350E-02 11720   0.808E-01    0.349E-01
DAV:   4    -0.191669440991E+03    0.58773E-04   -0.59578E-03 11800   0.516E-01    0.411E-01
DAV:   5    -0.191668096623E+03    0.13444E-02   -0.41420E-03 10920   0.465E-01    0.216E-01
DAV:   6    -0.191667731711E+03    0.36491E-03   -0.16604E-03 11240   0.248E-01    0.125E-01
DAV:   7    -0.191667721986E+03    0.97255E-05   -0.84978E-04  9080   0.206E-01
  49 F= -.19166772E+03 E0= -.19156285E+03  d E =-.151107E-01
       N       E                     dE             d eps       ncg     rms          rms(c)
DAV:   1    -0.191674861355E+03   -0.71296E-02   -0.21529E-01  8160   0.101E+00    0.140E-01
DAV:   2    -0.191675571423E+03   -0.71007E-03   -0.88329E-03 11440   0.356E-01    0.195E-01
DAV:   3    -0.191675307440E+03    0.26398E-03   -0.17553E-03 11760   0.312E-01    0.160E-01
DAV:   4    -0.191675146740E+03    0.16070E-03   -0.86822E-04  8960   0.205E-01    0.121E-01
DAV:   5    -0.191675076307E+03    0.70433E-04   -0.47339E-04  7920   0.146E-01
  50 F= -.19167508E+03 E0= -.19157101E+03  d E =-.735432E-02
       N       E                     dE             d eps       ncg     rms          rms(c)
DAV:   1    -0.191691292718E+03   -0.16146E-01   -0.10014E+00  8160   0.216E+00    0.245E-01
DAV:   2    -0.191693382622E+03   -0.20899E-02   -0.29583E-02 11680   0.531E-01    0.270E-01
DAV:   3    -0.191693568234E+03   -0.18561E-03   -0.45778E-03 12560   0.524E-01    0.316E-01
DAV:   4    -0.191692608217E+03    0.96002E-03   -0.22791E-03 11440   0.343E-01    0.154E-01
DAV:   5    -0.191692562977E+03    0.45240E-04   -0.11441E-03 10080   0.225E-01    0.171E-01
DAV:   6    -0.191692505250E+03    0.57727E-04   -0.10180E-03  9800   0.226E-01    0.133E-01
DAV:   7    -0.191692306696E+03    0.19855E-03   -0.35000E-04  8200   0.111E-01    0.423E-02
DAV:   8    -0.191692306187E+03    0.50896E-06   -0.72496E-05  6720   0.623E-02
  51 F= -.19169231E+03 E0= -.19158935E+03  d E =-.172299E-01
       N       E                     dE             d eps       ncg     rms          rms(c)
DAV:   1    -0.191692606021E+03   -0.29933E-03   -0.33660E-04  9480   0.535E-02    0.131E-02
DAV:   2    -0.191692624442E+03   -0.18422E-04   -0.49315E-05  6720   0.489E-02
  52 F= -.19169262E+03 E0= -.19158969E+03  d E =-.318256E-03
       N       E                     dE             d eps       ncg     rms          rms(c)
DAV:   1    -0.191715619544E+03   -0.23014E-01   -0.19049E+00  8160   0.299E+00    0.353E-01
DAV:   2    -0.191722269165E+03   -0.66496E-02   -0.48910E-02 13520   0.907E-01    0.748E-01
DAV:   3    -0.191718048014E+03    0.42212E-02   -0.16323E-02 12600   0.942E-01    0.445E-01
DAV:   4    -0.191716676086E+03    0.13719E-02   -0.51106E-03 10960   0.464E-01    0.244E-01
DAV:   5    -0.191716170548E+03    0.50554E-03   -0.22852E-03 12520   0.326E-01    0.246E-01
DAV:   6    -0.191715841926E+03    0.32862E-03   -0.18630E-03 10560   0.322E-01    0.160E-01
DAV:   7    -0.191715694965E+03    0.14696E-03   -0.59800E-04  8760   0.175E-01    0.100E-01
DAV:   8    -0.191715590553E+03    0.10441E-03   -0.19156E-04  8040   0.112E-01    0.251E-02
DAV:   9    -0.191715587674E+03    0.28797E-05   -0.30064E-05  6880   0.321E-02
  53 F= -.19171559E+03 E0= -.19161434E+03  d E =-.229632E-01
       N       E                     dE             d eps       ncg     rms          rms(c)
DAV:   1    -0.191727316661E+03   -0.11726E-01   -0.35179E-01  8160   0.128E+00    0.156E-01
DAV:   2    -0.191728446105E+03   -0.11294E-02   -0.95100E-03 12480   0.400E-01    0.277E-01
DAV:   3    -0.191727766324E+03    0.67978E-03   -0.26121E-03 12400   0.393E-01    0.180E-01
DAV:   4    -0.191727635949E+03    0.13037E-03   -0.10164E-03  9600   0.223E-01    0.142E-01
DAV:   5    -0.191727516634E+03    0.11931E-03   -0.56435E-04  8960   0.185E-01    0.113E-01
DAV:   6    -0.191727394157E+03    0.12248E-03   -0.30994E-04  7320   0.123E-01    0.458E-02
DAV:   7    -0.191727458522E+03   -0.64365E-04   -0.17268E-04  7440   0.100E-01
  54 F= -.19172746E+03 E0= -.19162706E+03  d E =-.118708E-01
       N       E                     dE             d eps       ncg     rms          rms(c)
DAV:   1    -0.191697579608E+03    0.29815E-01   -0.32602E+00  8160   0.390E+00    0.502E-01
DAV:   2    -0.191717778317E+03   -0.20199E-01   -0.10126E-01 13520   0.151E+00    0.141E+00
DAV:   3    -0.191701971868E+03    0.15806E-01   -0.46095E-02 11920   0.151E+00    0.598E-01
DAV:   4    -0.191699819417E+03    0.21525E-02   -0.10299E-02 11240   0.672E-01    0.411E-01
DAV:   5    -0.191698883467E+03    0.93595E-03   -0.56305E-03 11080   0.576E-01    0.344E-01
DAV:   6    -0.191697581859E+03    0.13016E-02   -0.32644E-03 11040   0.368E-01    0.154E-01
DAV:   7    -0.191698196292E+03   -0.61443E-03   -0.20889E-03 11200   0.347E-01    0.284E-01
DAV:   8    -0.191697327602E+03    0.86869E-03   -0.11105E-03  9760   0.257E-01    0.253E-02
DAV:   9    -0.191697348633E+03   -0.21031E-04   -0.53300E-05  6040   0.300E-02
  55 F= -.19169735E+03 E0= -.19159470E+03  d E =0.301099E-01
       N       E                     dE             d eps       ncg     rms          rms(c)
DAV:   1    -0.191674319115E+03    0.23008E-01   -0.24365E+00  8160   0.337E+00    0.427E-01
DAV:   2    -0.191683917164E+03   -0.95980E-02   -0.72776E-02 13480   0.109E+00    0.871E-01
DAV:   3    -0.191678677929E+03    0.52392E-02   -0.27717E-02 11320   0.114E+00    0.582E-01
DAV:   4    -0.191676925373E+03    0.17526E-02   -0.90770E-03 12360   0.627E-01    0.400E-01
DAV:   5    -0.191675756789E+03    0.11686E-02   -0.46387E-03 10440   0.517E-01    0.275E-01
DAV:   6    -0.191674902259E+03    0.85453E-03   -0.22231E-03 10000   0.277E-01    0.991E-02
DAV:   7    -0.191674850665E+03    0.51594E-04   -0.57750E-04 10960   0.116E-01
  56 F= -.19167485E+03 E0= -.19156997E+03  d E =0.224980E-01
       N       E                     dE             d eps       ncg     rms          rms(c)
DAV:   1    -0.191648494085E+03    0.26408E-01   -0.63145E+00  8160   0.546E+00    0.697E-01
DAV:   2    -0.191676064972E+03   -0.27571E-01   -0.19916E-01 13280   0.186E+00    0.158E+00
DAV:   3    -0.191659972226E+03    0.16093E-01   -0.94644E-02 11280   0.190E+00    0.926E-01
DAV:   4    -0.191655563110E+03    0.44091E-02   -0.26341E-02 12200   0.103E+00    0.649E-01
DAV:   5    -0.191652323192E+03    0.32399E-02   -0.12911E-02 10320   0.849E-01    0.452E-01
DAV:   6    -0.191649933487E+03    0.23897E-02   -0.62823E-03 11120   0.445E-01    0.158E-01
DAV:   7    -0.191650257096E+03   -0.32361E-03   -0.20867E-03 12320   0.280E-01    0.250E-01
DAV:   8    -0.191649647830E+03    0.60927E-03   -0.10552E-03  9760   0.239E-01    0.474E-02
DAV:   9    -0.191649652689E+03   -0.48588E-05   -0.92932E-05  6360   0.517E-02
  57 F= -.19164965E+03 E0= -.19154138E+03  d E =0.251980E-01
       N       E                     dE             d eps       ncg     rms          rms(c)
DAV:   1    -0.191645399784E+03    0.42480E-02   -0.22816E+00  8160   0.329E+00    0.412E-01
DAV:   2    -0.191652862743E+03   -0.74630E-02   -0.65464E-02 13320   0.107E+00    0.792E-01
DAV:   3    -0.191648576215E+03    0.42865E-02   -0.24901E-02 12280   0.105E+00    0.502E-01
DAV:   4    -0.191648183294E+03    0.39292E-03   -0.10216E-02 11800   0.614E-01    0.479E-01
DAV:   5    -0.191646304223E+03    0.18791E-02   -0.67297E-03 10720   0.563E-01    0.255E-01
DAV:   6    -0.191645649175E+03    0.65505E-03   -0.22916E-03 10280   0.231E-01    0.974E-02
DAV:   7    -0.191645637396E+03    0.11779E-04   -0.72326E-04 10880   0.139E-01
  58 F= -.19164564E+03 E0= -.19153520E+03  d E =0.401529E-02
       N       E                     dE             d eps       ncg     rms          rms(c)
DAV:   1    -0.191644684621E+03    0.96455E-03   -0.15819E+00  8160   0.273E+00    0.337E-01
DAV:   2    -0.191650166327E+03   -0.54817E-02   -0.47033E-02 12120   0.818E-01    0.713E-01
DAV:   3    -0.191647283273E+03    0.28831E-02   -0.21607E-02 11560   0.861E-01    0.444E-01
DAV:   4    -0.191646306799E+03    0.97647E-03   -0.56603E-03 11160   0.456E-01    0.291E-01
DAV:   5    -0.191645460651E+03    0.84615E-03   -0.25286E-03 10600   0.389E-01    0.183E-01
DAV:   6    -0.191645266429E+03    0.19422E-03   -0.15077E-03 10800   0.217E-01    0.112E-01
DAV:   7    -0.191645239565E+03    0.26864E-04   -0.70469E-04  9600   0.164E-01
  59 F= -.19164524E+03 E0= -.19153355E+03  d E =0.397831E-03
       N       E                     dE             d eps       ncg     rms          rms(c)
DAV:   1    -0.191648392762E+03   -0.31263E-02   -0.52022E-01  8160   0.158E+00    0.215E-01
DAV:   2    -0.191651377078E+03   -0.29843E-02   -0.19373E-02 13600   0.606E-01    0.556E-01
DAV:   3    -0.191648797209E+03    0.25799E-02   -0.95655E-03 11720   0.607E-01    0.236E-01
DAV:   4    -0.191648662483E+03    0.13473E-03   -0.24152E-03  9840   0.265E-01    0.196E-01
DAV:   5    -0.191648305932E+03    0.35655E-03   -0.13405E-03 10840   0.251E-01    0.129E-01
DAV:   6    -0.191648148795E+03    0.15714E-03   -0.53027E-04  8760   0.159E-01    0.533E-02
DAV:   7    -0.191648109660E+03    0.39135E-04   -0.14834E-04  6800   0.601E-02
  60 F= -.19164811E+03 E0= -.19153647E+03  d E =-.287010E-02
       N       E                     dE             d eps       ncg     rms          rms(c)
DAV:   1    -0.191650026685E+03   -0.18779E-02   -0.15189E-01  8160   0.829E-01    0.890E-02
DAV:   2    -0.191650716601E+03   -0.68992E-03   -0.58787E-03 11760   0.249E-01    0.181E-01
DAV:   3    -0.191650470236E+03    0.24637E-03   -0.15024E-03 10480   0.250E-01    0.128E-01
DAV:   4    -0.191650358245E+03    0.11199E-03   -0.40885E-04  7880   0.127E-01    0.629E-02
DAV:   5    -0.191650325813E+03    0.32433E-04   -0.13915E-04  5920   0.808E-02
  61 F= -.19165033E+03 E0= -.19153847E+03  d E =-.221615E-02
       N       E                     dE             d eps       ncg     rms          rms(c)
DAV:   1    -0.191651312937E+03   -0.95469E-03   -0.26389E-02  8160   0.353E-01    0.617E-02
DAV:   2    -0.191651719091E+03   -0.40615E-03   -0.14965E-03 12560   0.225E-01    0.199E-01
DAV:   3    -0.191651304175E+03    0.41492E-03   -0.73761E-04  8600   0.190E-01    0.456E-02
DAV:   4    -0.191651363375E+03   -0.59200E-04   -0.21496E-04  6000   0.952E-02
  62 F= -.19165136E+03 E0= -.19153972E+03  d E =-.103756E-02
       N       E                     dE             d eps       ncg     rms          rms(c)
DAV:   1    -0.191652354850E+03   -0.10507E-02   -0.33949E-02  8160   0.405E-01    0.502E-02
DAV:   2    -0.191652452004E+03   -0.97154E-04   -0.10340E-03 12320   0.119E-01    0.827E-02
DAV:   3    -0.191652413674E+03    0.38330E-04   -0.28909E-04  8600   0.116E-01
  63 F= -.19165241E+03 E0= -.19154090E+03  d E =-.105030E-02
       N       E                     dE             d eps       ncg     rms          rms(c)
DAV:   1    -0.191655551263E+03   -0.30993E-02   -0.25632E-01  8160   0.110E+00    0.151E-01
DAV:   2    -0.191657212971E+03   -0.16617E-02   -0.10348E-02 12840   0.472E-01    0.358E-01
DAV:   3    -0.191655797324E+03    0.14156E-02   -0.33720E-03 12040   0.407E-01    0.118E-01
DAV:   4    -0.191655851130E+03   -0.53806E-04   -0.92978E-04  9440   0.179E-01
  64 F= -.19165585E+03 E0= -.19154430E+03  d E =-.343746E-02
       N       E                     dE             d eps       ncg     rms          rms(c)
DAV:   1    -0.191647184782E+03    0.86125E-02   -0.16920E+00  8160   0.282E+00    0.377E-01
DAV:   2    -0.191664270586E+03   -0.17086E-01   -0.79359E-02 11840   0.149E+00    0.120E+00
DAV:   3    -0.191649218833E+03    0.15052E-01   -0.30970E-02 11960   0.120E+00    0.314E-01
DAV:   4    -0.191649996169E+03   -0.77734E-03   -0.72054E-03 10120   0.523E-01    0.430E-01
DAV:   5    -0.191648285976E+03    0.17102E-02   -0.46369E-03 10560   0.434E-01    0.180E-01
DAV:   6    -0.191648284406E+03    0.15700E-05   -0.18772E-03 10280   0.264E-01    0.197E-01
DAV:   7    -0.191648121228E+03    0.16318E-03   -0.14137E-03 10360   0.258E-01    0.130E-01
DAV:   8    -0.191647896065E+03    0.22516E-03   -0.39484E-04  8800   0.118E-01    0.215E-02
DAV:   9    -0.191647901125E+03   -0.50594E-05   -0.42920E-05  6800   0.243E-02
  65 F= -.19164790E+03 E0= -.19153603E+03  d E =0.795001E-02
       N       E                     dE             d eps       ncg     rms          rms(c)
DAV:   1    -0.191655783695E+03   -0.78876E-02   -0.16445E+00  8160   0.280E+00    0.376E-01
DAV:   2    -0.191662679152E+03   -0.68955E-02   -0.62346E-02 13240   0.106E+00    0.754E-01
DAV:   3    -0.191657386686E+03    0.52925E-02   -0.18670E-02 12360   0.936E-01    0.355E-01
DAV:   4    -0.191657440318E+03   -0.53633E-04   -0.74303E-03 12360   0.528E-01    0.413E-01
DAV:   5    -0.191656265700E+03    0.11746E-02   -0.60885E-03 12360   0.502E-01    0.288E-01
DAV:   6    -0.191655483492E+03    0.78221E-03   -0.25271E-03 10800   0.289E-01    0.106E-01
DAV:   7    -0.191655631585E+03   -0.14809E-03   -0.11656E-03 10560   0.199E-01    0.177E-01
DAV:   8    -0.191655339029E+03    0.29256E-03   -0.65327E-04  8640   0.173E-01    0.427E-02
DAV:   9    -0.191655325445E+03    0.13584E-04   -0.55046E-05  6120   0.375E-02
  66 F= -.19165533E+03 E0= -.19154375E+03  d E =-.742432E-02
       N       E                     dE             d eps       ncg     rms          rms(c)
DAV:   1    -0.191654240589E+03    0.10984E-02   -0.76621E-02  8160   0.618E-01    0.111E-01
DAV:   2    -0.191654755885E+03   -0.51530E-03   -0.37944E-03 12280   0.320E-01    0.258E-01
DAV:   3    -0.191654115230E+03    0.64065E-03   -0.17154E-03 10360   0.290E-01    0.103E-01
DAV:   4    -0.191654163089E+03   -0.47859E-04   -0.71829E-04  8480   0.170E-01
  67 F= -.19165416E+03 E0= -.19154219E+03  d E =0.116236E-02
       N       E                     dE             d eps       ncg     rms          rms(c)
DAV:   1    -0.191655571173E+03   -0.14559E-02   -0.91450E-02  8160   0.666E-01    0.852E-02
DAV:   2    -0.191656493273E+03   -0.92210E-03   -0.44520E-03 12440   0.291E-01    0.263E-01
DAV:   3    -0.191655780134E+03    0.71314E-03   -0.18225E-03  9880   0.279E-01    0.912E-02
DAV:   4    -0.191655787884E+03   -0.77502E-05   -0.38363E-04  7680   0.116E-01
  68 F= -.19165579E+03 E0= -.19154455E+03  d E =-.162480E-02
       N       E                     dE             d eps       ncg     rms          rms(c)
DAV:   1    -0.191655871084E+03   -0.90950E-04   -0.27362E-03 11000   0.140E-01    0.396E-02
DAV:   2    -0.191656119663E+03   -0.24858E-03   -0.66992E-04  9200   0.162E-01    0.167E-01
DAV:   3    -0.191655852681E+03    0.26698E-03   -0.52096E-04  8240   0.150E-01    0.328E-02
DAV:   4    -0.191655866508E+03   -0.13827E-04   -0.51136E-05  5960   0.471E-02
  69 F= -.19165587E+03 E0= -.19154451E+03  d E =-.786235E-04
       N       E                     dE             d eps       ncg     rms          rms(c)
DAV:   1    -0.191658528763E+03   -0.26761E-02   -0.16436E-01  8160   0.874E-01    0.108E-01
DAV:   2    -0.191659478493E+03   -0.94973E-03   -0.58900E-03 12720   0.337E-01    0.265E-01
DAV:   3    -0.191658730301E+03    0.74819E-03   -0.17532E-03 10760   0.295E-01    0.870E-02
DAV:   4    -0.191658806476E+03   -0.76175E-04   -0.54178E-04  8680   0.146E-01
  70 F= -.19165881E+03 E0= -.19154790E+03  d E =-.293997E-02
       N       E                     dE             d eps       ncg     rms          rms(c)
DAV:   1    -0.191654531156E+03    0.41991E-02   -0.30338E-01  8160   0.120E+00    0.130E-01
DAV:   2    -0.191656590655E+03   -0.20595E-02   -0.10977E-02 12040   0.460E-01    0.394E-01
DAV:   3    -0.191655029698E+03    0.15610E-02   -0.34572E-03 11240   0.410E-01    0.109E-01
DAV:   4    -0.191655123845E+03   -0.94147E-04   -0.69126E-04  8440   0.175E-01
  71 F= -.19165512E+03 E0= -.19154317E+03  d E =0.368263E-02
       N       E                     dE             d eps       ncg     rms          rms(c)
DAV:   1    -0.191655514415E+03   -0.48472E-03   -0.28894E-02  8160   0.393E-01    0.135E-01
DAV:   2    -0.191656470705E+03   -0.95629E-03   -0.45252E-03 11920   0.438E-01    0.385E-01
DAV:   3    -0.191655133186E+03    0.13375E-02   -0.33494E-03 10320   0.379E-01    0.125E-01
DAV:   4    -0.191655222063E+03   -0.88877E-04   -0.11576E-03  8960   0.218E-01    0.170E-01
DAV:   5    -0.191654972894E+03    0.24917E-03   -0.78713E-04  8480   0.190E-01    0.771E-02
DAV:   6    -0.191654899194E+03    0.73700E-04   -0.27266E-04  6360   0.795E-02
  72 F= -.19165490E+03 E0= -.19154315E+03  d E =0.224650E-03
       N       E                     dE             d eps       ncg     rms          rms(c)
DAV:   1    -0.191657486730E+03   -0.25138E-02   -0.16245E-01  8160   0.870E-01    0.983E-02
DAV:   2    -0.191657859173E+03   -0.37244E-03   -0.51289E-03 11240   0.211E-01    0.112E-01
DAV:   3    -0.191657861170E+03   -0.19976E-05   -0.10860E-03 10880   0.197E-01    0.149E-01
DAV:   4    -0.191657698547E+03    0.16262E-03   -0.56037E-04  8160   0.166E-01    0.737E-02
DAV:   5    -0.191657631047E+03    0.67501E-04   -0.15390E-04  5440   0.691E-02
  73 F= -.19165763E+03 E0= -.19154635E+03  d E =-.273185E-02
       N       E                     dE             d eps       ncg     rms          rms(c)
DAV:   1    -0.191659632968E+03   -0.19344E-02   -0.76777E-02  8160   0.615E-01    0.956E-02
DAV:   2    -0.191660615971E+03   -0.98300E-03   -0.39919E-03 12640   0.317E-01    0.305E-01
DAV:   3    -0.191659693559E+03    0.92241E-03   -0.21539E-03 10200   0.300E-01    0.884E-02
DAV:   4    -0.191659774400E+03   -0.80841E-04   -0.54123E-04  8240   0.143E-01
  74 F= -.19165977E+03 E0= -.19154912E+03  d E =-.214335E-02
       N       E                     dE             d eps       ncg     rms          rms(c)
DAV:   1    -0.191659125796E+03    0.56776E-03   -0.11340E-02  8440   0.272E-01    0.360E-02
DAV:   2    -0.191659389518E+03   -0.26372E-03   -0.88058E-04 10760   0.159E-01    0.164E-01
DAV:   3    -0.191659132690E+03    0.25683E-03   -0.47107E-04  8360   0.137E-01    0.195E-02
DAV:   4    -0.191659158690E+03   -0.25999E-04   -0.37735E-05  6200   0.419E-02
  75 F= -.19165916E+03 E0= -.19154811E+03  d E =0.615710E-03
       N       E                     dE             d eps       ncg     rms          rms(c)
DAV:   1    -0.191663234906E+03   -0.41022E-02   -0.29196E-01  8160   0.117E+00    0.130E-01
DAV:   2    -0.191663938075E+03   -0.70317E-03   -0.80534E-03 12360   0.288E-01    0.190E-01
DAV:   3    -0.191663733175E+03    0.20490E-03   -0.20973E-03 11280   0.290E-01    0.172E-01
DAV:   4    -0.191663607356E+03    0.12582E-03   -0.10691E-03  9200   0.209E-01    0.130E-01
DAV:   5    -0.191663487633E+03    0.11972E-03   -0.59648E-04  8280   0.153E-01    0.949E-02
DAV:   6    -0.191663411497E+03    0.76136E-04   -0.25358E-04  7640   0.106E-01
  76 F= -.19166341E+03 E0= -.19155331E+03  d E =-.425281E-02
       N       E                     dE             d eps       ncg     rms          rms(c)
DAV:   1    -0.191664303308E+03   -0.81568E-03   -0.18319E-02  8400   0.340E-01    0.959E-02
DAV:   2    -0.191664941544E+03   -0.63824E-03   -0.24918E-03 12560   0.316E-01    0.298E-01
DAV:   3    -0.191664091033E+03    0.85051E-03   -0.17575E-03 10160   0.297E-01    0.719E-02
DAV:   4    -0.191664112785E+03   -0.21752E-04   -0.32749E-04  8320   0.123E-01
  77 F= -.19166411E+03 E0= -.19155403E+03  d E =-.701288E-03
       N       E                     dE             d eps       ncg     rms          rms(c)
DAV:   1    -0.191668553217E+03   -0.44622E-02   -0.23406E-01  8160   0.105E+00    0.140E-01
DAV:   2    -0.191670216224E+03   -0.16630E-02   -0.85644E-03 12360   0.462E-01    0.378E-01
DAV:   3    -0.191668765255E+03    0.14510E-02   -0.31888E-03 11680   0.408E-01    0.118E-01
DAV:   4    -0.191668965515E+03   -0.20026E-03   -0.10795E-03  9520   0.209E-01    0.190E-01
DAV:   5    -0.191668624895E+03    0.34062E-03   -0.72003E-04  8800   0.175E-01    0.518E-02
DAV:   6    -0.191668632747E+03   -0.78518E-05   -0.17444E-04  6520   0.638E-02
  78 F= -.19166863E+03 E0= -.19155927E+03  d E =-.451996E-02
       N       E                     dE             d eps       ncg     rms          rms(c)
DAV:   1    -0.191665296041E+03    0.33289E-02   -0.11537E-01  8160   0.738E-01    0.100E-01
DAV:   2    -0.191666568054E+03   -0.12720E-02   -0.53507E-03 12480   0.359E-01    0.341E-01
DAV:   3    -0.191665441640E+03    0.11264E-02   -0.24206E-03 10720   0.344E-01    0.810E-02
DAV:   4    -0.191665433182E+03    0.84584E-05   -0.25463E-04  7840   0.871E-02
  79 F= -.19166543E+03 E0= -.19155567E+03  d E =0.319957E-02
       N       E                     dE             d eps       ncg     rms          rms(c)
DAV:   1    -0.191661921045E+03    0.35206E-02   -0.23391E-01  8160   0.108E+00    0.162E-01
DAV:   2    -0.191662223820E+03   -0.30278E-03   -0.80742E-03 12440   0.296E-01    0.200E-01
DAV:   3    -0.191662342576E+03   -0.11876E-03   -0.28776E-03 12280   0.368E-01    0.260E-01
DAV:   4    -0.191661792548E+03    0.55003E-03   -0.16239E-03  9600   0.270E-01    0.113E-01
DAV:   5    -0.191661673557E+03    0.11899E-03   -0.58431E-04  9560   0.151E-01    0.881E-02
DAV:   6    -0.191661656466E+03    0.17090E-04   -0.43393E-04  9280   0.145E-01
  80 F= -.19166166E+03 E0= -.19155074E+03  d E =0.377672E-02
       N       E                     dE             d eps       ncg     rms          rms(c)
DAV:   1    -0.191656596325E+03    0.50772E-02   -0.52622E-01  8160   0.157E+00    0.183E-01
DAV:   2    -0.191657548806E+03   -0.95248E-03   -0.13922E-02 11720   0.351E-01    0.232E-01
DAV:   3    -0.191657811062E+03   -0.26226E-03   -0.42907E-03 11520   0.415E-01    0.307E-01
DAV:   4    -0.191657158707E+03    0.65235E-03   -0.22731E-03 10440   0.284E-01    0.166E-01
DAV:   5    -0.191656940974E+03    0.21773E-03   -0.92010E-04  8840   0.213E-01    0.102E-01
DAV:   6    -0.191656905507E+03    0.35467E-04   -0.44843E-04  9480   0.115E-01
  81 F= -.19165691E+03 E0= -.19154474E+03  d E =0.475096E-02
       N       E                     dE             d eps       ncg     rms          rms(c)
DAV:   1    -0.191655099231E+03    0.18417E-02   -0.22125E-01  8160   0.102E+00    0.114E-01
DAV:   2    -0.191655433989E+03   -0.33476E-03   -0.59857E-03 11520   0.214E-01    0.113E-01
DAV:   3    -0.191655767353E+03   -0.33336E-03   -0.14637E-03 11440   0.268E-01    0.221E-01
DAV:   4    -0.191655287751E+03    0.47960E-03   -0.70533E-04  8480   0.190E-01    0.528E-02
DAV:   5    -0.191655355238E+03   -0.67487E-04   -0.23287E-04  7360   0.116E-01
  82 F= -.19165536E+03 E0= -.19154203E+03  d E =0.155027E-02
       N       E                     dE             d eps       ncg     rms          rms(c)
DAV:   1    -0.191656465147E+03   -0.11774E-02   -0.70611E-02  8160   0.574E-01    0.712E-02
DAV:   2    -0.191656927789E+03   -0.46264E-03   -0.32436E-03 11760   0.221E-01    0.190E-01
DAV:   3    -0.191656626991E+03    0.30080E-03   -0.10451E-03  8880   0.201E-01    0.727E-02
DAV:   4    -0.191656603146E+03    0.23845E-04   -0.17015E-04  6040   0.711E-02
  83 F= -.19165660E+03 E0= -.19154369E+03  d E =-.124791E-02
       N       E                     dE             d eps       ncg     rms          rms(c)
DAV:   1    -0.191656742599E+03   -0.11561E-03   -0.51292E-03  8160   0.173E-01    0.573E-02
DAV:   2    -0.191657653021E+03   -0.91042E-03   -0.19448E-03 11520   0.301E-01    0.312E-01
DAV:   3    -0.191656694394E+03    0.95863E-03   -0.14495E-03  9520   0.262E-01    0.234E-02
DAV:   4    -0.191656734272E+03   -0.39878E-04   -0.60545E-05  6120   0.477E-02
  84 F= -.19165673E+03 E0= -.19154407E+03  d E =-.131126E-03
       N       E                     dE             d eps       ncg     rms          rms(c)
DAV:   1    -0.191658305263E+03   -0.16109E-02   -0.10185E-01  8160   0.691E-01    0.839E-02
DAV:   2    -0.191658726538E+03   -0.42128E-03   -0.37408E-03 11320   0.204E-01    0.171E-01
DAV:   3    -0.191658532375E+03    0.19416E-03   -0.10833E-03  9200   0.210E-01    0.103E-01
DAV:   4    -0.191658458132E+03    0.74242E-04   -0.27157E-04  6360   0.938E-02
  85 F= -.19165846E+03 E0= -.19154597E+03  d E =-.172386E-02
       N       E                     dE             d eps       ncg     rms          rms(c)
DAV:   1    -0.191659272440E+03   -0.74007E-03   -0.33718E-02  8160   0.427E-01    0.118E-01
DAV:   2    -0.191661270571E+03   -0.19981E-02   -0.54479E-03 11960   0.494E-01    0.471E-01
DAV:   3    -0.191659071547E+03    0.21990E-02   -0.37877E-03 10560   0.429E-01    0.841E-02
DAV:   4    -0.191659144847E+03   -0.73300E-04   -0.48349E-04  8560   0.149E-01
  86 F= -.19165914E+03 E0= -.19154658E+03  d E =-.686715E-03
       N       E                     dE             d eps       ncg     rms          rms(c)
DAV:   1    -0.191661122756E+03   -0.20512E-02   -0.11162E-01  8160   0.728E-01    0.114E-01
DAV:   2    -0.191663061118E+03   -0.19384E-02   -0.69720E-03 12520   0.422E-01    0.450E-01
DAV:   3    -0.191661211959E+03    0.18492E-02   -0.39875E-03 11160   0.393E-01    0.823E-02
DAV:   4    -0.191661278783E+03   -0.66823E-04   -0.54189E-04  8880   0.121E-01
  87 F= -.19166128E+03 E0= -.19154949E+03  d E =-.213394E-02
       N       E                     dE             d eps       ncg     rms          rms(c)
DAV:   1    -0.191656208366E+03    0.50036E-02   -0.51305E-01  8160   0.156E+00    0.168E-01
DAV:   2    -0.191658768704E+03   -0.25603E-02   -0.16430E-02 13160   0.529E-01    0.440E-01
DAV:   3    -0.191656976358E+03    0.17923E-02   -0.46544E-03 11400   0.476E-01    0.148E-01
DAV:   4    -0.191657019427E+03   -0.43069E-04   -0.10251E-03  9480   0.206E-01    0.160E-01
DAV:   5    -0.191656758902E+03    0.26053E-03   -0.64585E-04  8840   0.184E-01    0.709E-02
DAV:   6    -0.191656846839E+03   -0.87937E-04   -0.44348E-04  8360   0.118E-01
  88 F= -.19165685E+03 E0= -.19154406E+03  d E =0.443194E-02
       N       E                     dE             d eps       ncg     rms          rms(c)
DAV:   1    -0.191651223719E+03    0.55352E-02   -0.13278E+00  8160   0.250E+00    0.278E-01
DAV:   2    -0.191653142826E+03   -0.19191E-02   -0.33929E-02 11720   0.524E-01    0.280E-01
DAV:   3    -0.191654907800E+03   -0.17650E-02   -0.83404E-03 12240   0.630E-01    0.522E-01
DAV:   4    -0.191652287441E+03    0.26204E-02   -0.47812E-03 11040   0.475E-01    0.121E-01
DAV:   5    -0.191652477311E+03   -0.18987E-03   -0.12806E-03 10040   0.224E-01    0.188E-01
DAV:   6    -0.191652383964E+03    0.93346E-04   -0.17540E-03 10960   0.264E-01    0.162E-01
DAV:   7    -0.191652146253E+03    0.23771E-03   -0.69792E-04  8920   0.153E-01    0.677E-02
DAV:   8    -0.191652111547E+03    0.34706E-04   -0.10963E-04  6680   0.726E-02
  89 F= -.19165211E+03 E0= -.19153831E+03  d E =0.473529E-02
       N       E                     dE             d eps       ncg     rms          rms(c)
DAV:   1    -0.191651425470E+03    0.72078E-03   -0.16317E-01  8160   0.873E-01    0.955E-02
DAV:   2    -0.191651639114E+03   -0.21364E-03   -0.38206E-03 11840   0.180E-01    0.103E-01
DAV:   3    -0.191651785438E+03   -0.14632E-03   -0.96120E-04 10880   0.218E-01    0.165E-01
DAV:   4    -0.191651542506E+03    0.24293E-03   -0.54615E-04  8440   0.161E-01    0.645E-02
DAV:   5    -0.191651547126E+03   -0.46200E-05   -0.18924E-04  6760   0.106E-01
  90 F= -.19165155E+03 E0= -.19153737E+03  d E =0.564421E-03
