<?xml version="1.0" encoding="ISO-8859-1"?>
<modeling>
 <generator>
  <i name="program" type="string">vasp </i>
  <i name="version" type="string">5.4.1  </i>
  <i name="subversion" type="string">05Feb16 (build Jul 05 2020 17:13:04) complex                          parallel </i>
  <i name="platform" type="string">IFC91_ompi </i>
  <i name="date" type="string">2024 05 10 </i>
  <i name="time" type="string">22:15:18 </i>
 </generator>
 <incar>
  <i type="int" name="ISTART">     0</i>
  <i type="string" name="PREC">normal</i>
  <i type="string" name="ALGO"> Normal</i>
  <i type="int" name="ISPIN">     1</i>
  <i type="int" name="ICHARG">     2</i>
  <i type="int" name="IBRION">     1</i>
  <i type="int" name="NSW">   100</i>
  <i type="int" name="ISIF">     3</i>
  <i type="int" name="ISYM">     0</i>
  <i name="SYMPREC">      0.00000001</i>
  <i name="POTIM">      0.50000000</i>
  <i type="logical" name="LREAL"> F  </i>
  <i type="logical" name="LPLANE"> F  </i>
  <i type="int" name="ISMEAR">     0</i>
  <i type="logical" name="LWAVE"> F  </i>
  <i type="logical" name="LCHARG"> F  </i>
  <v type="int" name="KPOINT_BSE">    -1     0     0     0</v>
 </incar>
 <kpoints>
  <generation param="Gamma">
   <v type="int" name="divisions">       8        8        1 </v>
   <v name="usershift">      0.00000000       0.00000000       0.00000000 </v>
   <v name="genvec1">      0.12500000       0.00000000       0.00000000 </v>
   <v name="genvec2">     -0.00000000       0.12500000       0.00000000 </v>
   <v name="genvec3">      0.00000000       0.00000000       1.00000000 </v>
   <v name="shift">      0.00000000       0.00000000       0.00000000 </v>
  </generation>
  <varray name="kpointlist" >
   <v>       0.00000000       0.00000000       0.00000000 </v>
   <v>       0.12500000       0.00000000       0.00000000 </v>
   <v>       0.25000000       0.00000000       0.00000000 </v>
   <v>       0.37500000       0.00000000       0.00000000 </v>
   <v>       0.50000000       0.00000000       0.00000000 </v>
   <v>       0.00000000       0.12500000       0.00000000 </v>
   <v>       0.12500000       0.12500000       0.00000000 </v>
   <v>       0.25000000       0.12500000       0.00000000 </v>
   <v>       0.37500000       0.12500000       0.00000000 </v>
   <v>       0.50000000       0.12500000       0.00000000 </v>
   <v>      -0.37500000       0.12500000       0.00000000 </v>
   <v>      -0.25000000       0.12500000       0.00000000 </v>
   <v>      -0.12500000       0.12500000       0.00000000 </v>
   <v>       0.00000000       0.25000000       0.00000000 </v>
   <v>       0.12500000       0.25000000       0.00000000 </v>
   <v>       0.25000000       0.25000000       0.00000000 </v>
   <v>       0.37500000       0.25000000       0.00000000 </v>
   <v>       0.50000000       0.25000000       0.00000000 </v>
   <v>      -0.37500000       0.25000000       0.00000000 </v>
   <v>      -0.25000000       0.25000000       0.00000000 </v>
   <v>      -0.12500000       0.25000000       0.00000000 </v>
   <v>      -0.00000000       0.37500000       0.00000000 </v>
   <v>       0.12500000       0.37500000       0.00000000 </v>
   <v>       0.25000000       0.37500000       0.00000000 </v>
   <v>       0.37500000       0.37500000       0.00000000 </v>
   <v>       0.50000000       0.37500000       0.00000000 </v>
   <v>      -0.37500000       0.37500000       0.00000000 </v>
   <v>      -0.25000000       0.37500000       0.00000000 </v>
   <v>      -0.12500000       0.37500000       0.00000000 </v>
   <v>       0.00000000       0.50000000       0.00000000 </v>
   <v>       0.12500000       0.50000000       0.00000000 </v>
   <v>       0.25000000       0.50000000       0.00000000 </v>
   <v>       0.37500000       0.50000000       0.00000000 </v>
   <v>       0.50000000       0.50000000       0.00000000 </v>
  </varray>
  <varray name="weights" >
   <v>       0.01562500 </v>
   <v>       0.03125000 </v>
   <v>       0.03125000 </v>
   <v>       0.03125000 </v>
   <v>       0.01562500 </v>
   <v>       0.03125000 </v>
   <v>       0.03125000 </v>
   <v>       0.03125000 </v>
   <v>       0.03125000 </v>
   <v>       0.03125000 </v>
   <v>       0.03125000 </v>
   <v>       0.03125000 </v>
   <v>       0.03125000 </v>
   <v>       0.03125000 </v>
   <v>       0.03125000 </v>
   <v>       0.03125000 </v>
   <v>       0.03125000 </v>
   <v>       0.03125000 </v>
   <v>       0.03125000 </v>
   <v>       0.03125000 </v>
   <v>       0.03125000 </v>
   <v>       0.03125000 </v>
   <v>       0.03125000 </v>
   <v>       0.03125000 </v>
   <v>       0.03125000 </v>
   <v>       0.03125000 </v>
   <v>       0.03125000 </v>
   <v>       0.03125000 </v>
   <v>       0.03125000 </v>
   <v>       0.01562500 </v>
   <v>       0.03125000 </v>
   <v>       0.03125000 </v>
   <v>       0.03125000 </v>
   <v>       0.01562500 </v>
  </varray>
 </kpoints>
 <parameters>
  <separator name="general" >
   <i type="string" name="SYSTEM">unknown system</i>
   <i type="logical" name="LCOMPAT"> F  </i>
  </separator>
  <separator name="electronic" >
   <i type="string" name="PREC">normal</i>
   <i name="ENMAX">    280.00000000</i>
   <i name="ENAUG">    373.43800000</i>
   <i name="EDIFF">      0.00010000</i>
   <i type="int" name="IALGO">    38</i>
   <i type="int" name="IWAVPR">    11</i>
   <i type="int" name="NBANDS">   120</i>
   <i name="NELECT">    159.00000000</i>
   <i type="int" name="TURBO">     0</i>
   <i type="int" name="IRESTART">     0</i>
   <i type="int" name="NREBOOT">     0</i>
   <i type="int" name="NMIN">     0</i>
   <i name="EREF">      0.00000000</i>
   <separator name="electronic smearing" >
    <i type="int" name="ISMEAR">     0</i>
    <i name="SIGMA">      0.20000000</i>
    <i name="KSPACING">      0.50000000</i>
    <i type="logical" name="KGAMMA"> T  </i>
   </separator>
   <separator name="electronic projectors" >
    <i type="logical" name="LREAL"> F  </i>
    <v name="ROPT">      0.00000000      0.00000000      0.00000000      0.00000000</v>
    <i type="int" name="LMAXPAW">  -100</i>
    <i type="int" name="LMAXMIX">     2</i>
    <i type="logical" name="NLSPLINE"> F  </i>
   </separator>
   <separator name="electronic startup" >
    <i type="int" name="ISTART">     0</i>
    <i type="int" name="ICHARG">     2</i>
    <i type="int" name="INIWAV">     1</i>
   </separator>
   <separator name="electronic spin" >
    <i type="int" name="ISPIN">     1</i>
    <i type="logical" name="LNONCOLLINEAR"> F  </i>
    <v name="MAGMOM">      1.00000000      1.00000000      1.00000000      1.00000000      1.00000000      1.00000000      1.00000000      1.00000000      1.00000000      1.00000000      1.00000000      1.00000000      1.00000000      1.00000000      1.00000000      1.00000000      1.00000000      1.00000000      1.00000000      1.00000000
      1.00000000      1.00000000      1.00000000      1.00000000      1.00000000      1.00000000      1.00000000</v>
    <i name="NUPDOWN">     -1.00000000</i>
    <i type="logical" name="LSORBIT"> F  </i>
    <v name="SAXIS">      0.00000000      0.00000000      1.00000000</v>
    <i type="logical" name="LSPIRAL"> F  </i>
    <v name="QSPIRAL">      0.00000000      0.00000000      0.00000000</v>
    <i type="logical" name="LZEROZ"> F  </i>
   </separator>
   <separator name="electronic exchange-correlation" >
    <i type="logical" name="LASPH"> F  </i>
    <i type="logical" name="LMETAGGA"> F  </i>
   </separator>
   <separator name="electronic convergence" >
    <i type="int" name="NELM">    60</i>
    <i type="int" name="NELMDL">    -5</i>
    <i type="int" name="NELMIN">     2</i>
    <i name="ENINI">    280.00000000</i>
    <separator name="electronic convergence detail" >
     <i type="logical" name="LDIAG"> T  </i>
     <i type="logical" name="LSUBROT"> F  </i>
     <i name="WEIMIN">      0.00100000</i>
     <i name="EBREAK">      0.00000021</i>
     <i name="DEPER">      0.30000000</i>
     <i type="int" name="NRMM">     4</i>
     <i name="TIME">      0.40000000</i>
    </separator>
   </separator>
   <separator name="electronic mixer" >
    <i name="AMIX">      0.40000000</i>
    <i name="BMIX">      1.00000000</i>
    <i name="AMIN">      0.10000000</i>
    <i name="AMIX_MAG">      1.60000000</i>
    <i name="BMIX_MAG">      1.00000000</i>
    <separator name="electronic mixer details" >
     <i type="int" name="IMIX">     4</i>
     <i type="logical" name="MIXFIRST"> F  </i>
     <i type="int" name="MAXMIX">   -45</i>
     <i name="WC">    100.00000000</i>
     <i type="int" name="INIMIX">     1</i>
     <i type="int" name="MIXPRE">     1</i>
     <i type="int" name="MREMOVE">     5</i>
    </separator>
   </separator>
   <separator name="electronic dipolcorrection" >
    <i type="logical" name="LDIPOL"> F  </i>
    <i type="logical" name="LMONO"> F  </i>
    <i type="int" name="IDIPOL">     0</i>
    <i name="EPSILON">      1.00000000</i>
    <v name="DIPOL">   -100.00000000   -100.00000000   -100.00000000</v>
    <i name="EFIELD">      0.00000000</i>
   </separator>
  </separator>
  <separator name="grids" >
   <i type="int" name="NGX">    42</i>
   <i type="int" name="NGY">    42</i>
   <i type="int" name="NGZ">   126</i>
   <i type="int" name="NGXF">    84</i>
   <i type="int" name="NGYF">    84</i>
   <i type="int" name="NGZF">   252</i>
   <i type="logical" name="ADDGRID"> F  </i>
  </separator>
  <separator name="ionic" >
   <i type="int" name="NSW">   100</i>
   <i type="int" name="IBRION">     1</i>
   <i type="int" name="ISIF">     3</i>
   <i name="PSTRESS">      0.00000000</i>
   <i name="EDIFFG">      0.00100000</i>
   <i type="int" name="NFREE">     0</i>
   <i name="POTIM">      0.50000000</i>
   <i name="SMASS">     -3.00000000</i>
   <i name="SCALEE">      1.00000000</i>
  </separator>
  <separator name="ionic md" >
   <i name="TEBEG">      0.00010000</i>
   <i name="TEEND">      0.00010000</i>
   <i type="int" name="NBLOCK">     1</i>
   <i type="int" name="KBLOCK">   100</i>
   <i type="int" name="NPACO">   256</i>
   <i name="APACO">     16.00000000</i>
  </separator>
  <separator name="symmetry" >
   <i type="int" name="ISYM">     0</i>
   <i name="SYMPREC">      0.00000001</i>
  </separator>
  <separator name="dos" >
   <i type="logical" name="LORBIT"> F  </i>
   <v name="RWIGS">     -1.00000000     -1.00000000     -1.00000000     -1.00000000</v>
   <i type="int" name="NEDOS">   301</i>
   <i name="EMIN">     10.00000000</i>
   <i name="EMAX">    -10.00000000</i>
   <i name="EFERMI">      0.00000000</i>
  </separator>
  <separator name="writing" >
   <i type="int" name="NWRITE">     2</i>
   <i type="logical" name="LWAVE"> F  </i>
   <i type="logical" name="LCHARG"> F  </i>
   <i type="logical" name="LPARD"> F  </i>
   <i type="logical" name="LVTOT"> F  </i>
   <i type="logical" name="LVHAR"> F  </i>
   <i type="logical" name="LELF"> F  </i>
   <i type="logical" name="LOPTICS"> F  </i>
   <v name="STM">      0.00000000      0.00000000      0.00000000      0.00000000      0.00000000      0.00000000      0.00000000</v>
  </separator>
  <separator name="performance" >
   <i type="int" name="NPAR">    40</i>
   <i type="int" name="NSIM">     4</i>
   <i type="int" name="NBLK">    -1</i>
   <i type="logical" name="LPLANE"> F  </i>
   <i type="logical" name="LSCALAPACK"> T  </i>
   <i type="logical" name="LSCAAWARE"> F  </i>
   <i type="logical" name="LSCALU"> F  </i>
   <i type="logical" name="LASYNC"> F  </i>
   <i type="logical" name="LORBITALREAL"> F  </i>
  </separator>
  <separator name="miscellaneous" >
   <i type="int" name="IDIOT">     3</i>
   <i type="logical" name="LMUSIC"> F  </i>
   <v name="POMASS">     50.94100000     95.94000000    183.85000000     32.06600000</v>
   <v name="DARWINR">      0.00000000      0.00000000      0.00000000      0.00000000</v>
   <v name="DARWINV">      1.00000000      1.00000000      1.00000000      1.00000000</v>
   <i type="logical" name="LCORR"> T  </i>
  </separator>
  <i type="logical" name="GGA_COMPAT"> T  </i>
  <i type="logical" name="LBERRY"> F  </i>
  <i type="int" name="ICORELEVEL">     0</i>
  <i type="logical" name="LDAU"> F  </i>
  <i type="int" name="I_CONSTRAINED_M">     0</i>
  <separator name="electronic exchange-correlation" >
   <i type="string" name="GGA">--</i>
   <i type="int" name="VOSKOWN">     0</i>
   <i type="logical" name="LHFCALC"> F  </i>
   <i type="string" name="PRECFOCK"></i>
   <i type="logical" name="LSYMGRAD"> F  </i>
   <i type="logical" name="LHFONE"> F  </i>
   <i type="logical" name="LRHFCALC"> F  </i>
   <i type="logical" name="LTHOMAS"> F  </i>
   <i type="logical" name="LMODELHF"> F  </i>
   <i name="ENCUT4O">     -1.00000000</i>
   <i type="int" name="EXXOEP">     0</i>
   <i type="int" name="FOURORBIT">     0</i>
   <i name="AEXX">      0.00000000</i>
   <i name="HFALPHA">      0.00000000</i>
   <i name="MCALPHA">      0.00000000</i>
   <i name="ALDAX">      1.00000000</i>
   <i name="AGGAX">      1.00000000</i>
   <i name="ALDAC">      1.00000000</i>
   <i name="AGGAC">      1.00000000</i>
   <i type="int" name="NKREDX">     1</i>
   <i type="int" name="NKREDY">     1</i>
   <i type="int" name="NKREDZ">     1</i>
   <i type="logical" name="SHIFTRED"> F  </i>
   <i type="logical" name="ODDONLY"> F  </i>
   <i type="logical" name="EVENONLY"> F  </i>
   <i type="int" name="LMAXFOCK">     0</i>
   <i type="int" name="NMAXFOCKAE">     0</i>
   <i type="logical" name="LFOCKAEDFT"> F  </i>
   <i name="HFSCREEN">      0.00000000</i>
   <i name="HFSCREENC">      0.00000000</i>
   <i type="int" name="NBANDSGWLOW">     0</i>
  </separator>
  <separator name="vdW DFT" >
   <i type="logical" name="LUSE_VDW"> F  </i>
   <i name="Zab_VDW">     -0.84910000</i>
   <i name="PARAM1">      0.12340000</i>
   <i name="PARAM2">      1.00000000</i>
   <i name="PARAM3">      0.00000000</i>
  </separator>
  <separator name="model GW" >
   <i type="int" name="MODEL_GW">     0</i>
   <i name="MODEL_EPS0">     58.26239943</i>
   <i name="MODEL_ALPHA">      1.00000000</i>
  </separator>
  <separator name="linear response parameters" >
   <i type="logical" name="LEPSILON"> F  </i>
   <i type="logical" name="LRPA"> F  </i>
   <i type="logical" name="LNABLA"> F  </i>
   <i type="logical" name="LVEL"> F  </i>
   <i type="int" name="KINTER">     0</i>
   <i name="CSHIFT">      0.10000000</i>
   <i name="OMEGAMAX">     -1.00000000</i>
   <i name="DEG_THRESHOLD">      0.00200000</i>
  </separator>
  <separator name="orbital magnetization" >
   <i type="logical" name="NUCIND"> F  </i>
   <v name="MAGPOS">      0.00000000      0.00000000      0.00000000</v>
   <i type="logical" name="LNICSALL"> T  </i>
   <i type="logical" name="ORBITALMAG"> F  </i>
   <i type="logical" name="LMAGBLOCH"> F  </i>
   <i type="logical" name="LCHIMAG"> F  </i>
   <i type="logical" name="LGAUGE"> T  </i>
   <i type="int" name="MAGATOM">     0</i>
   <v name="MAGDIPOL">      0.00000000      0.00000000      0.00000000</v>
   <v name="AVECCONST">      0.00000000      0.00000000      0.00000000</v>
  </separator>
  <separator name="response functions" >
   <i type="logical" name="LADDER"> F  </i>
   <i type="logical" name="LFXC"> F  </i>
   <i type="logical" name="LHARTREE"> T  </i>
   <i type="int" name="IBSE">     0</i>
   <v type="int" name="KPOINT">    -1     0     0     0</v>
   <i type="logical" name="LTCTE"> F  </i>
   <i type="logical" name="LTETE"> F  </i>
   <i type="logical" name="LTRIPLET"> F  </i>
   <i type="logical" name="LFXCEPS"> F  </i>
   <i type="logical" name="LFXHEG"> F  </i>
   <i type="int" name="NATURALO">     0</i>
   <i type="logical" name="L2ORDER"> F  </i>
   <i type="logical" name="LUSEW"> F  </i>
   <i name="ENCUTGW">     -2.00000000</i>
   <i name="ENCUTGWSOFT">     -2.00000000</i>
   <i name="ENCUTLF">     -1.00000000</i>
   <i type="int" name="LMAXMP2">    -1</i>
   <i name="SCISSOR">      0.00000000</i>
   <i type="int" name="NOMEGA">     0</i>
   <i type="int" name="NOMEGAR">     0</i>
   <i type="int" name="NBANDSGW">    -1</i>
   <i type="int" name="NBANDSO">    -1</i>
   <i type="int" name="NBANDSV">    -1</i>
   <i type="int" name="NELM">     1</i>
   <i type="int" name="NELMHF">     1</i>
   <i type="int" name="DIM">     3</i>
   <i type="int" name="ANTIRES">     0</i>
   <i name="OMEGAMAX">    -30.00000000</i>
   <i name="OMEGAMIN">    -30.00000000</i>
   <i name="OMEGATL">   -200.00000000</i>
   <i type="int" name="OMEGAGRID">     0</i>
   <i name="CSHIFT">     -0.10000000</i>
   <i type="logical" name="SELFENERGY"> F  </i>
   <i type="logical" name="LSPECTRAL"> F  </i>
   <i type="logical" name="LSPECTRALGW"> F  </i>
   <i type="logical" name="LSINGLES"> F  </i>
   <i type="logical" name="LFERMIGW"> F  </i>
   <i type="logical" name="ODDONLYGW"> F  </i>
   <i type="logical" name="EVENONLYGW"> F  </i>
   <i type="int" name="NKREDLFX">     1</i>
   <i type="int" name="NKREDLFY">     1</i>
   <i type="int" name="NKREDLFZ">     1</i>
   <i type="int" name="MAXMEM">  1800</i>
   <i type="int" name="TELESCOPE">     0</i>
   <i type="int" name="TAUPAR">     1</i>
   <i type="int" name="OMEGAPAR">    -1</i>
   <i name="LAMBDA">      1.00000000</i>
  </separator>
  <separator name="External order field" >
   <i name="OFIELD_KAPPA">      0.00000000</i>
   <v name="OFIELD_K">      0.00000000      0.00000000      0.00000000</v>
   <i name="OFIELD_Q6_NEAR">      0.00000000</i>
   <i name="OFIELD_Q6_FAR">      0.00000000</i>
   <i name="OFIELD_A">      0.00000000</i>
  </separator>
 </parameters>
 <atominfo>
  <atoms>      27 </atoms>
  <types>       4 </types>
  <array name="atoms" >
   <dimension dim="1">ion</dimension>
   <field type="string">element</field>
   <field type="int">atomtype</field>
   <set>
    <rc><c>V </c><c>   1</c></rc>
    <rc><c>V </c><c>   1</c></rc>
    <rc><c>V </c><c>   1</c></rc>
    <rc><c>Mo</c><c>   2</c></rc>
    <rc><c>Mo</c><c>   2</c></rc>
    <rc><c>Mo</c><c>   2</c></rc>
    <rc><c>W </c><c>   3</c></rc>
    <rc><c>W </c><c>   3</c></rc>
    <rc><c>W </c><c>   3</c></rc>
    <rc><c>S </c><c>   4</c></rc>
    <rc><c>S </c><c>   4</c></rc>
    <rc><c>S </c><c>   4</c></rc>
    <rc><c>S </c><c>   4</c></rc>
    <rc><c>S </c><c>   4</c></rc>
    <rc><c>S </c><c>   4</c></rc>
    <rc><c>S </c><c>   4</c></rc>
    <rc><c>S </c><c>   4</c></rc>
    <rc><c>S </c><c>   4</c></rc>
    <rc><c>S </c><c>   4</c></rc>
    <rc><c>S </c><c>   4</c></rc>
    <rc><c>S </c><c>   4</c></rc>
    <rc><c>S </c><c>   4</c></rc>
    <rc><c>S </c><c>   4</c></rc>
    <rc><c>S </c><c>   4</c></rc>
    <rc><c>S </c><c>   4</c></rc>
    <rc><c>S </c><c>   4</c></rc>
    <rc><c>S </c><c>   4</c></rc>
   </set>
  </array>
  <array name="atomtypes" >
   <dimension dim="1">type</dimension>
   <field type="int">atomspertype</field>
   <field type="string">element</field>
   <field>mass</field>
   <field>valence</field>
   <field type="string">pseudopotential</field>
   <set>
    <rc><c>   3</c><c>V </c><c>     50.94100000</c><c>      5.00000000</c><c> PAW_PBE V 08Apr2002                    </c></rc>
    <rc><c>   3</c><c>Mo</c><c>     95.94000000</c><c>      6.00000000</c><c> PAW_PBE Mo 08Apr2002                   </c></rc>
    <rc><c>   3</c><c>W </c><c>    183.85000000</c><c>      6.00000000</c><c> PAW_PBE W 08Apr2002                    </c></rc>
    <rc><c>  18</c><c>S </c><c>     32.06600000</c><c>      6.00000000</c><c>  PAW_PBE S 17Jan2003                   </c></rc>
   </set>
  </array>
 </atominfo>
 <structure name="initialpos" >
  <crystal>
   <varray name="basis" >
    <v>       8.66999996       5.03999989       0.00000000 </v>
    <v>      -8.66999982       5.04000013       0.00000000 </v>
    <v>       0.00000000       0.00000000      30.00000000 </v>
   </varray>
   <i name="volume">   2621.80797419 </i>
   <varray name="rec_basis" >
    <v>       0.05767013       0.09920635       0.00000000 </v>
    <v>      -0.05767013       0.09920635       0.00000000 </v>
    <v>       0.00000000       0.00000000       0.03333333 </v>
   </varray>
  </crystal>
  <varray name="positions" >
   <v>       0.00000000       0.66666669       0.00000000 </v>
   <v>       0.00000000       0.00000000       0.00000000 </v>
   <v>       0.66666669       0.00000000       0.00000000 </v>
   <v>       1.00000000       0.33333334       0.00000000 </v>
   <v>       0.33333334       0.00000000       0.00000000 </v>
   <v>       0.66666669       0.66666669       0.00000000 </v>
   <v>       0.33333334       0.33333334       0.00000000 </v>
   <v>       0.33333334       0.66666669       0.00000000 </v>
   <v>       0.66666669       0.33333334       0.00000000 </v>
   <v>       0.11068511       0.22244981       0.95539999 </v>
   <v>       0.22244981       0.11068511       0.04460000 </v>
   <v>       0.11068511       0.55578315       0.95539999 </v>
   <v>       0.22244981       0.44401845       0.04460000 </v>
   <v>       0.11068511       0.88911647       0.95539999 </v>
   <v>       0.22244981       0.77735180       0.04460000 </v>
   <v>       0.44401845       0.22244981       0.95539999 </v>
   <v>       0.55578315       0.11068511       0.04460000 </v>
   <v>       0.44401845       0.55578315       0.95539999 </v>
   <v>       0.55578315       0.44401845       0.04460000 </v>
   <v>       0.44401845       0.88911647       0.95539999 </v>
   <v>       0.55578315       0.77735180       0.04460000 </v>
   <v>       0.77735180       0.22244981       0.95539999 </v>
   <v>       0.88911647       0.11068511       0.04460000 </v>
   <v>       0.77735180       0.55578315       0.95539999 </v>
   <v>       0.88911647       0.44401845       0.04460000 </v>
   <v>       0.77735180       0.88911647       0.95539999 </v>
   <v>       0.88911647       0.77735180       0.04460000 </v>
  </varray>
 </structure>
 <calculation>
  <scstep>
   <time name="dav">   21.70   21.75</time>
   <time name="total">   21.74   21.80</time>
   <energy>
    <i name="alphaZ">     81.65567618 </i>
    <i name="ewald">  41890.25208822 </i>
    <i name="hartreedc"> -47722.90106822 </i>
    <i name="XCdc">   -242.92644672 </i>
    <i name="pawpsdc">   3467.42045192 </i>
    <i name="pawaedc">  -2871.19716117 </i>
    <i name="eentropy">     -0.53109475 </i>
    <i name="bandstr">   -237.63848219 </i>
    <i name="atom">   6761.44252427 </i>
    <i name="e_fr_energy">   1125.57648754 </i>
    <i name="e_wo_entrp">   1126.10758229 </i>
    <i name="e_0_energy">   1125.84203492 </i>
   </energy>
  </scstep>
  <scstep>
   <time name="dav">   27.94   28.01</time>
   <time name="total">   27.94   28.02</time>
   <energy>
    <i name="e_fr_energy">     -1.91473269 </i>
    <i name="e_wo_entrp">     -1.71421352 </i>
    <i name="e_0_energy">     -1.81447310 </i>
   </energy>
  </scstep>
  <scstep>
   <time name="dav">   27.60   27.67</time>
   <time name="total">   27.60   27.68</time>
   <energy>
    <i name="e_fr_energy">   -199.97809831 </i>
    <i name="e_wo_entrp">   -199.69669549 </i>
    <i name="e_0_energy">   -199.83739690 </i>
   </energy>
  </scstep>
  <scstep>
   <time name="dav">   30.05   30.12</time>
   <time name="total">   30.05   30.13</time>
   <energy>
    <i name="e_fr_energy">   -209.08064181 </i>
    <i name="e_wo_entrp">   -208.75536252 </i>
    <i name="e_0_energy">   -208.91800217 </i>
   </energy>
  </scstep>
  <scstep>
   <time name="dav">   28.73   28.80</time>
   <time name="total">   29.19   29.27</time>
   <energy>
    <i name="e_fr_energy">   -209.39273998 </i>
    <i name="e_wo_entrp">   -209.06973299 </i>
    <i name="e_0_energy">   -209.23123649 </i>
   </energy>
  </scstep>
  <scstep>
   <time name="dav">   30.24   30.31</time>
   <time name="total">   30.74   30.82</time>
   <energy>
    <i name="e_fr_energy">   -237.04809325 </i>
    <i name="e_wo_entrp">   -236.74919267 </i>
    <i name="e_0_energy">   -236.89864296 </i>
   </energy>
  </scstep>
  <scstep>
   <time name="dav">   32.53   32.61</time>
   <time name="total">   33.04   33.13</time>
   <energy>
    <i name="e_fr_energy">   -196.39557287 </i>
    <i name="e_wo_entrp">   -196.10917212 </i>
    <i name="e_0_energy">   -196.25237249 </i>
   </energy>
  </scstep>
  <scstep>
   <time name="dav">   29.71   29.78</time>
   <time name="total">   30.22   30.30</time>
   <energy>
    <i name="e_fr_energy">   -189.12347336 </i>
    <i name="e_wo_entrp">   -188.81692913 </i>
    <i name="e_0_energy">   -188.97020125 </i>
   </energy>
  </scstep>
  <scstep>
   <time name="dav">   32.95   33.03</time>
   <time name="total">   33.47   33.56</time>
   <energy>
    <i name="e_fr_energy">   -187.41428045 </i>
    <i name="e_wo_entrp">   -187.09962991 </i>
    <i name="e_0_energy">   -187.25695518 </i>
   </energy>
  </scstep>
  <scstep>
   <time name="dav">   32.45   32.53</time>
   <time name="total">   32.99   33.07</time>
   <energy>
    <i name="e_fr_energy">   -186.97045782 </i>
    <i name="e_wo_entrp">   -186.61545557 </i>
    <i name="e_0_energy">   -186.79295670 </i>
   </energy>
  </scstep>
  <scstep>
   <time name="dav">   30.14   30.21</time>
   <time name="total">   30.67   30.76</time>
   <energy>
    <i name="e_fr_energy">   -186.96697333 </i>
    <i name="e_wo_entrp">   -186.62781098 </i>
    <i name="e_0_energy">   -186.79739215 </i>
   </energy>
  </scstep>
  <scstep>
   <time name="dav">   30.01   30.08</time>
   <time name="total">   30.54   30.62</time>
   <energy>
    <i name="e_fr_energy">   -186.87784486 </i>
    <i name="e_wo_entrp">   -186.53947619 </i>
    <i name="e_0_energy">   -186.70866053 </i>
   </energy>
  </scstep>
  <scstep>
   <time name="dav">   31.90   31.97</time>
   <time name="total">   32.43   32.51</time>
   <energy>
    <i name="e_fr_energy">   -186.85883048 </i>
    <i name="e_wo_entrp">   -186.51278390 </i>
    <i name="e_0_energy">   -186.68580719 </i>
   </energy>
  </scstep>
  <scstep>
   <time name="dav">   31.83   31.90</time>
   <time name="total">   32.36   32.44</time>
   <energy>
    <i name="e_fr_energy">   -186.84970227 </i>
    <i name="e_wo_entrp">   -186.50042794 </i>
    <i name="e_0_energy">   -186.67506511 </i>
   </energy>
  </scstep>
  <scstep>
   <time name="dav">   30.64   30.72</time>
   <time name="total">   31.17   31.26</time>
   <energy>
    <i name="e_fr_energy">   -186.83675090 </i>
    <i name="e_wo_entrp">   -186.48825820 </i>
    <i name="e_0_energy">   -186.66250455 </i>
   </energy>
  </scstep>
  <scstep>
   <time name="dav">   30.79   30.87</time>
   <time name="total">   31.32   31.41</time>
   <energy>
    <i name="e_fr_energy">   -186.83454720 </i>
    <i name="e_wo_entrp">   -186.48900414 </i>
    <i name="e_0_energy">   -186.66177567 </i>
   </energy>
  </scstep>
  <scstep>
   <time name="dav">   30.18   30.25</time>
   <time name="total">   30.71   30.79</time>
   <energy>
    <i name="e_fr_energy">   -186.83432333 </i>
    <i name="e_wo_entrp">   -186.48895247 </i>
    <i name="e_0_energy">   -186.66163790 </i>
   </energy>
  </scstep>
  <scstep>
   <time name="dav">   27.80   27.86</time>
   <time name="total">   28.33   28.40</time>
   <energy>
    <i name="e_fr_energy">   -186.83286284 </i>
    <i name="e_wo_entrp">   -186.48642795 </i>
    <i name="e_0_energy">   -186.65964539 </i>
   </energy>
  </scstep>
  <scstep>
   <time name="dav">   24.12   24.18</time>
   <time name="total">   24.66   24.72</time>
   <energy>
    <i name="e_fr_energy">   -186.83364460 </i>
    <i name="e_wo_entrp">   -186.48763440 </i>
    <i name="e_0_energy">   -186.66063950 </i>
   </energy>
  </scstep>
  <scstep>
   <time name="dav">   21.49   21.54</time>
   <time name="total">   22.02   22.09</time>
   <energy>
    <i name="e_fr_energy">   -186.83455811 </i>
    <i name="e_wo_entrp">   -186.48827719 </i>
    <i name="e_0_energy">   -186.66141765 </i>
   </energy>
  </scstep>
  <scstep>
   <time name="dav">   19.09   19.14</time>
   <time name="total">   19.62   19.68</time>
   <energy>
    <i name="e_fr_energy">   -186.83501321 </i>
    <i name="e_wo_entrp">   -186.48868221 </i>
    <i name="e_0_energy">   -186.66184771 </i>
   </energy>
  </scstep>
  <scstep>
   <time name="dav">   20.28   20.33</time>
   <time name="total">   20.82   20.88</time>
   <energy>
    <i name="e_fr_energy">   -186.83627587 </i>
    <i name="e_wo_entrp">   -186.49013942 </i>
    <i name="e_0_energy">   -186.66320764 </i>
   </energy>
  </scstep>
  <scstep>
   <time name="dav">   18.78   18.82</time>
   <time name="total">   19.31   19.36</time>
   <energy>
    <i name="e_fr_energy">   -186.83673883 </i>
    <i name="e_wo_entrp">   -186.49061086 </i>
    <i name="e_0_energy">   -186.66367485 </i>
   </energy>
  </scstep>
  <scstep>
   <time name="dav">   17.53   17.57</time>
   <time name="total">   18.06   18.11</time>
   <energy>
    <i name="e_fr_energy">   -186.83720766 </i>
    <i name="e_wo_entrp">   -186.49097352 </i>
    <i name="e_0_energy">   -186.66409059 </i>
   </energy>
  </scstep>
  <scstep>
   <time name="dav">   17.06   17.10</time>
   <time name="total">   17.59   17.64</time>
   <energy>
    <i name="e_fr_energy">   -186.83761039 </i>
    <i name="e_wo_entrp">   -186.49136045 </i>
    <i name="e_0_energy">   -186.66448542 </i>
   </energy>
  </scstep>
  <scstep>
   <time name="dav">   19.01   19.05</time>
   <time name="total">   19.54   19.60</time>
   <energy>
    <i name="e_fr_energy">   -186.83785196 </i>
    <i name="e_wo_entrp">   -186.49163193 </i>
    <i name="e_0_energy">   -186.66474195 </i>
   </energy>
  </scstep>
  <scstep>
   <time name="dav">   19.54   19.58</time>
   <time name="total">   20.08   20.35</time>
   <energy>
    <i name="e_fr_energy">   -186.83795418 </i>
    <i name="e_wo_entrp">   -186.49173195 </i>
    <i name="e_0_energy">   -186.66484306 </i>
   </energy>
  </scstep>
  <scstep>
   <time name="dav">   19.34   19.38</time>
   <time name="total">   19.37   19.43</time>
   <energy>
    <i name="alphaZ">     81.65567618 </i>
    <i name="ewald">  41890.25208822 </i>
    <i name="hartreedc"> -47832.78750093 </i>
    <i name="XCdc">   -231.61277336 </i>
    <i name="pawpsdc">   4191.97856770 </i>
    <i name="pawaedc">  -3609.97464324 </i>
    <i name="eentropy">     -0.34622017 </i>
    <i name="bandstr">  -1437.44572676 </i>
    <i name="atom">   6761.44252427 </i>
    <i name="e_fr_energy">   -186.83800810 </i>
    <i name="e_wo_entrp">   -186.49178793 </i>
    <i name="e_0_energy">   -186.66489801 </i>
   </energy>
  </scstep>
  <structure>
   <crystal>
    <varray name="basis" >
     <v>       8.66999996       5.03999989       0.00000000 </v>
     <v>      -8.66999982       5.04000013       0.00000000 </v>
     <v>       0.00000000       0.00000000      30.00000000 </v>
    </varray>
    <i name="volume">   2621.80797419 </i>
    <varray name="rec_basis" >
     <v>       0.05767013       0.09920635       0.00000000 </v>
     <v>      -0.05767013       0.09920635       0.00000000 </v>
     <v>       0.00000000       0.00000000       0.03333333 </v>
    </varray>
   </crystal>
   <varray name="positions" >
    <v>       0.00000000       0.66666669       0.00000000 </v>
    <v>       0.00000000       0.00000000       0.00000000 </v>
    <v>       0.66666669       0.00000000       0.00000000 </v>
    <v>       1.00000000       0.33333334       0.00000000 </v>
    <v>       0.33333334       0.00000000       0.00000000 </v>
    <v>       0.66666669       0.66666669       0.00000000 </v>
    <v>       0.33333334       0.33333334       0.00000000 </v>
    <v>       0.33333334       0.66666669       0.00000000 </v>
    <v>       0.66666669       0.33333334       0.00000000 </v>
    <v>       0.11068511       0.22244981       0.95539999 </v>
    <v>       0.22244981       0.11068511       0.04460000 </v>
    <v>       0.11068511       0.55578315       0.95539999 </v>
    <v>       0.22244981       0.44401845       0.04460000 </v>
    <v>       0.11068511       0.88911647       0.95539999 </v>
    <v>       0.22244981       0.77735180       0.04460000 </v>
    <v>       0.44401845       0.22244981       0.95539999 </v>
    <v>       0.55578315       0.11068511       0.04460000 </v>
    <v>       0.44401845       0.55578315       0.95539999 </v>
    <v>       0.55578315       0.44401845       0.04460000 </v>
    <v>       0.44401845       0.88911647       0.95539999 </v>
    <v>       0.55578315       0.77735180       0.04460000 </v>
    <v>       0.77735180       0.22244981       0.95539999 </v>
    <v>       0.88911647       0.11068511       0.04460000 </v>
    <v>       0.77735180       0.55578315       0.95539999 </v>
    <v>       0.88911647       0.44401845       0.04460000 </v>
    <v>       0.77735180       0.88911647       0.95539999 </v>
    <v>       0.88911647       0.77735180       0.04460000 </v>
   </varray>
  </structure>
  <varray name="forces" >
   <v>      -0.08661633       0.04148995      -0.10209942 </v>
   <v>       0.00000287      -0.09479386       0.00000027 </v>
   <v>       0.08659780       0.04146759       0.10209464 </v>
   <v>       0.02858550      -0.01634774       0.04067187 </v>
   <v>      -0.02857474      -0.01634977      -0.04068133 </v>
   <v>      -0.00000356       0.03277578      -0.00000577 </v>
   <v>      -0.00000055      -0.08182619      -0.00000321 </v>
   <v>      -0.06511718       0.03684129      -0.12481633 </v>
   <v>       0.06511486       0.03682525       0.12480417 </v>
   <v>       0.61444136      -0.53579363      -2.15270467 </v>
   <v>      -0.61439429      -0.53579054       2.15267016 </v>
   <v>      -0.68115959       0.16594149      -2.13765759 </v>
   <v>      -0.03642599       0.12346697       2.89758741 </v>
   <v>      -0.30602819      -0.68324247      -1.43071016 </v>
   <v>      -0.37828898      -0.69583656       2.14656076 </v>
   <v>       0.03645277       0.12344989      -2.89755141 </v>
   <v>       0.68113072       0.16588705       2.13763062 </v>
   <v>       0.03671717      -0.14465250      -2.91740686 </v>
   <v>      -0.03670863      -0.14466922       2.91741374 </v>
   <v>       0.61435187       0.52808959      -2.14102664 </v>
   <v>      -0.61419964       0.58487947       2.16495098 </v>
   <v>       0.37825295      -0.69588130      -2.14658693 </v>
   <v>       0.30605867      -0.68329750       1.43076781 </v>
   <v>       0.61417908       0.58487208      -2.16494096 </v>
   <v>      -0.61438892       0.52807850       2.14106393 </v>
   <v>      -0.31558102       0.66720459      -1.41995345 </v>
   <v>       0.31560198       0.66721179       1.41992837 </v>
  </varray>
  <varray name="stress" >
   <v>       7.32137542       0.00002730      -1.61851323 </v>
   <v>       0.00002722       4.40633047       0.00001239 </v>
   <v>      -1.61851342       0.00001233      30.32102408 </v>
  </varray>
  <energy>
   <i name="e_fr_energy">   -186.83800810 </i>
   <i name="e_wo_entrp">   -186.66489801 </i>
   <i name="e_0_energy">     -0.34622017 </i>
  </energy>
  <time name="totalsc">  787.30  789.66</time>
 </calculation>
 <calculation>
  <scstep>
   <time name="dav">   21.59   21.65</time>
   <time name="total">   22.14   22.19</time>
   <energy>
    <i name="alphaZ">     78.92746502 </i>
    <i name="ewald">  39382.45451320 </i>
    <i name="hartreedc"> -45339.83442172 </i>
    <i name="XCdc">   -239.06751738 </i>
    <i name="pawpsdc">   4191.98244977 </i>
    <i name="pawaedc">  -3609.97857207 </i>
    <i name="eentropy">     -0.29907219 </i>
    <i name="bandstr">  -1413.06295056 </i>
    <i name="atom">   6761.44252427 </i>
    <i name="e_fr_energy">   -187.43558167 </i>
    <i name="e_wo_entrp">   -187.13650947 </i>
    <i name="e_0_energy">   -187.28604557 </i>
   </energy>
  </scstep>
  <scstep>
   <time name="dav">   30.19   30.27</time>
   <time name="total">   30.73   30.81</time>
   <energy>
    <i name="e_fr_energy">   -189.06905493 </i>
    <i name="e_wo_entrp">   -188.76003135 </i>
    <i name="e_0_energy">   -188.91454314 </i>
   </energy>
  </scstep>
  <scstep>
   <time name="dav">   30.40   30.47</time>
   <time name="total">   30.94   31.02</time>
   <energy>
    <i name="e_fr_energy">   -189.38286291 </i>
    <i name="e_wo_entrp">   -189.09269538 </i>
    <i name="e_0_energy">   -189.23777914 </i>
   </energy>
  </scstep>
  <scstep>
   <time name="dav">   30.67   30.75</time>
   <time name="total">   31.21   31.30</time>
   <energy>
    <i name="e_fr_energy">   -188.71425226 </i>
    <i name="e_wo_entrp">   -188.41985996 </i>
    <i name="e_0_energy">   -188.56705611 </i>
   </energy>
  </scstep>
  <scstep>
   <time name="dav">   26.03   26.09</time>
   <time name="total">   26.57   26.64</time>
   <energy>
    <i name="e_fr_energy">   -188.69708574 </i>
    <i name="e_wo_entrp">   -188.39720686 </i>
    <i name="e_0_energy">   -188.54714630 </i>
   </energy>
  </scstep>
  <scstep>
   <time name="dav">   30.85   30.92</time>
   <time name="total">   31.39   31.47</time>
   <energy>
    <i name="e_fr_energy">   -188.71355348 </i>
    <i name="e_wo_entrp">   -188.41193758 </i>
    <i name="e_0_energy">   -188.56274553 </i>
   </energy>
  </scstep>
  <scstep>
   <time name="dav">   30.26   30.33</time>
   <time name="total">   30.81   30.89</time>
   <energy>
    <i name="e_fr_energy">   -188.62703115 </i>
    <i name="e_wo_entrp">   -188.33239734 </i>
    <i name="e_0_energy">   -188.47971425 </i>
   </energy>
  </scstep>
  <scstep>
   <time name="dav">   28.58   28.64</time>
   <time name="total">   29.12   29.20</time>
   <energy>
    <i name="e_fr_energy">   -188.60483107 </i>
    <i name="e_wo_entrp">   -188.30954190 </i>
    <i name="e_0_energy">   -188.45718649 </i>
   </energy>
  </scstep>
  <scstep>
   <time name="dav">   29.05   29.12</time>
   <time name="total">   29.59   29.67</time>
   <energy>
    <i name="e_fr_energy">   -188.60312914 </i>
    <i name="e_wo_entrp">   -188.30758055 </i>
    <i name="e_0_energy">   -188.45535485 </i>
   </energy>
  </scstep>
  <scstep>
   <time name="dav">   31.10   31.17</time>
   <time name="total">   31.64   31.72</time>
   <energy>
    <i name="e_fr_energy">   -188.60254859 </i>
    <i name="e_wo_entrp">   -188.30761561 </i>
    <i name="e_0_energy">   -188.45508210 </i>
   </energy>
  </scstep>
  <scstep>
   <time name="dav">   31.34   31.41</time>
   <time name="total">   31.88   31.96</time>
   <energy>
    <i name="e_fr_energy">   -188.60283026 </i>
    <i name="e_wo_entrp">   -188.30790085 </i>
    <i name="e_0_energy">   -188.45536555 </i>
   </energy>
  </scstep>
  <scstep>
   <time name="dav">   27.14   27.20</time>
   <time name="total">   27.68   27.75</time>
   <energy>
    <i name="e_fr_energy">   -188.60260241 </i>
    <i name="e_wo_entrp">   -188.30766640 </i>
    <i name="e_0_energy">   -188.45513441 </i>
   </energy>
  </scstep>
  <scstep>
   <time name="dav">   20.56   20.61</time>
   <time name="total">   20.60   20.66</time>
   <energy>
    <i name="alphaZ">     78.92746502 </i>
    <i name="ewald">  39382.45451320 </i>
    <i name="hartreedc"> -45350.64107027 </i>
    <i name="XCdc">   -237.98497967 </i>
    <i name="pawpsdc">   3950.08183309 </i>
    <i name="pawaedc">  -3364.57495942 </i>
    <i name="eentropy">     -0.29493810 </i>
    <i name="bandstr">  -1408.01292630 </i>
    <i name="atom">   6761.44252427 </i>
    <i name="e_fr_energy">   -188.60253818 </i>
    <i name="e_wo_entrp">   -188.30760009 </i>
    <i name="e_0_energy">   -188.45506914 </i>
   </energy>
  </scstep>
  <structure>
   <crystal>
    <varray name="basis" >
     <v>       8.85559675       5.10493356       0.00000000 </v>
     <v>      -8.85559580       5.10493242       0.00000000 </v>
     <v>       0.00000000       0.00000000      30.00000000 </v>
    </varray>
    <i name="volume">   2712.43353495 </i>
    <varray name="rec_basis" >
     <v>       0.05646147       0.09794447       0.00000000 </v>
     <v>      -0.05646148       0.09794448       0.00000000 </v>
     <v>       0.00000000       0.00000000       0.03333333 </v>
    </varray>
   </crystal>
   <varray name="positions" >
    <v>      -0.00004241       0.66710624      -0.00016418 </v>
    <v>      -0.00045367      -0.00045369       0.00000000 </v>
    <v>       0.66710608      -0.00004247       0.00016418 </v>
    <v>       1.00000129       0.33317557       0.00006540 </v>
    <v>       0.33317559       0.00000125      -0.00006542 </v>
    <v>       0.66682354       0.66682356      -0.00000001 </v>
    <v>       0.33294172       0.33294173      -0.00000001 </v>
    <v>       0.33332850       0.66702417      -0.00020072 </v>
    <v>       0.66702409       0.33332843       0.00020070 </v>
    <v>       0.10983029       0.21817604       0.95193825 </v>
    <v>       0.21817618       0.10983017       0.04806168 </v>
    <v>       0.10958421       0.55847244       0.95196245 </v>
    <v>       0.22293938       0.44471071       0.04925958 </v>
    <v>       0.10656371       0.88669790       0.95309928 </v>
    <v>       0.21806709       0.77507400       0.04805186 </v>
    <v>       0.44471070       0.22293922       0.95074047 </v>
    <v>       0.55847210       0.10958403       0.04803750 </v>
    <v>       0.44342830       0.55498870       0.95070854 </v>
    <v>       0.55498864       0.44342820       0.04929146 </v>
    <v>       0.44825510       0.88993467       0.95195703 </v>
    <v>       0.55687357       0.78185982       0.04808143 </v>
    <v>       0.77507368       0.21806698       0.95194809 </v>
    <v>       0.88669772       0.10656336       0.04690080 </v>
    <v>       0.78185973       0.55687359       0.95191857 </v>
    <v>       0.88993451       0.44825515       0.04804302 </v>
    <v>       0.77966703       0.89318769       0.95311658 </v>
    <v>       0.89318778       0.77966700       0.04688337 </v>
   </varray>
  </structure>
  <varray name="forces" >
   <v>      -0.00979059       0.02057969      -0.02966193 </v>
   <v>      -0.00049448      -0.01670309      -0.00000928 </v>
   <v>       0.00959939       0.02048985       0.02965340 </v>
   <v>       0.02771869       0.13479238       0.00719531 </v>
   <v>      -0.02685400       0.13622272      -0.00714856 </v>
   <v>      -0.00072852      -0.27956286      -0.00002206 </v>
   <v>      -0.00000023       0.10036017       0.00005078 </v>
   <v>       0.07925752      -0.06741466      -0.03764569 </v>
   <v>      -0.07861008      -0.06821749       0.03760987 </v>
   <v>       0.08424143       0.02710097       0.02151900 </v>
   <v>      -0.08416166       0.02702984      -0.02157610 </v>
   <v>       0.00143526       0.11450907      -0.03482809 </v>
   <v>       0.07343993       0.12309327       0.00001795 </v>
   <v>      -0.01760287      -0.05379402       0.02952005 </v>
   <v>       0.09807429      -0.05941645      -0.07216000 </v>
   <v>      -0.07362907       0.12310433      -0.00014457 </v>
   <v>      -0.00105299       0.11456748       0.03486599 </v>
   <v>      -0.08922215      -0.11839212      -0.04401266 </v>
   <v>       0.08930122      -0.11827466       0.04378002 </v>
   <v>       0.09441470      -0.04011737       0.02171658 </v>
   <v>      -0.09637815      -0.03596932      -0.01692444 </v>
   <v>      -0.09812228      -0.05946018       0.07235549 </v>
   <v>       0.01757739      -0.05403804      -0.02974506 </v>
   <v>       0.09615397      -0.03612771       0.01695103 </v>
   <v>      -0.09444491      -0.04012761      -0.02160776 </v>
   <v>      -0.00033602       0.05294633       0.06976655 </v>
   <v>       0.00021420       0.05281947      -0.06951583 </v>
  </varray>
  <varray name="stress" >
   <v>     -19.86089465       0.00038950       0.00542333 </v>
   <v>       0.00038972     -19.45549188       0.00017980 </v>
   <v>       0.00542337       0.00017981      -1.70765878 </v>
  </varray>
  <energy>
   <i name="e_fr_energy">   -188.60253818 </i>
   <i name="e_wo_entrp">   -188.45506914 </i>
   <i name="e_0_energy">     -0.29493810 </i>
  </energy>
  <time name="totalsc">  415.94  417.04</time>
 </calculation>
 <calculation>
  <scstep>
   <time name="dav">   24.08   24.14</time>
   <time name="total">   24.61   24.68</time>
   <energy>
    <i name="alphaZ">     82.35798446 </i>
    <i name="ewald">  41308.80066242 </i>
    <i name="hartreedc"> -47307.47948653 </i>
    <i name="XCdc">   -233.85893750 </i>
    <i name="pawpsdc">   3949.08159213 </i>
    <i name="pawaedc">  -3363.56582998 </i>
    <i name="eentropy">     -0.24447765 </i>
    <i name="bandstr">  -1387.03942415 </i>
    <i name="atom">   6761.44252427 </i>
    <i name="e_fr_energy">   -190.50539252 </i>
    <i name="e_wo_entrp">   -190.26091488 </i>
    <i name="e_0_energy">   -190.38315370 </i>
   </energy>
  </scstep>
  <scstep>
   <time name="dav">   27.59   27.66</time>
   <time name="total">   28.11   28.19</time>
   <energy>
    <i name="e_fr_energy">   -190.56699865 </i>
    <i name="e_wo_entrp">   -190.31424994 </i>
    <i name="e_0_energy">   -190.44062430 </i>
   </energy>
  </scstep>
  <scstep>
   <time name="dav">   30.17   30.24</time>
   <time name="total">   30.69   30.77</time>
   <energy>
    <i name="e_fr_energy">   -189.97159605 </i>
    <i name="e_wo_entrp">   -189.71878776 </i>
    <i name="e_0_energy">   -189.84519190 </i>
   </energy>
  </scstep>
  <scstep>
   <time name="dav">   30.97   31.04</time>
   <time name="total">   31.50   31.58</time>
   <energy>
    <i name="e_fr_energy">   -189.76936293 </i>
    <i name="e_wo_entrp">   -189.51756874 </i>
    <i name="e_0_energy">   -189.64346583 </i>
   </energy>
  </scstep>
  <scstep>
   <time name="dav">   29.95   30.02</time>
   <time name="total">   30.48   30.56</time>
   <energy>
    <i name="e_fr_energy">   -189.70746656 </i>
    <i name="e_wo_entrp">   -189.45936705 </i>
    <i name="e_0_energy">   -189.58341681 </i>
   </energy>
  </scstep>
  <scstep>
   <time name="dav">   29.92   29.99</time>
   <time name="total">   30.45   30.53</time>
   <energy>
    <i name="e_fr_energy">   -189.67206224 </i>
    <i name="e_wo_entrp">   -189.42259850 </i>
    <i name="e_0_energy">   -189.54733037 </i>
   </energy>
  </scstep>
  <scstep>
   <time name="dav">   29.56   29.63</time>
   <time name="total">   30.09   30.17</time>
   <energy>
    <i name="e_fr_energy">   -189.66600653 </i>
    <i name="e_wo_entrp">   -189.41577645 </i>
    <i name="e_0_energy">   -189.54089149 </i>
   </energy>
  </scstep>
  <scstep>
   <time name="dav">   27.15   27.21</time>
   <time name="total">   27.68   27.75</time>
   <energy>
    <i name="e_fr_energy">   -189.66603112 </i>
    <i name="e_wo_entrp">   -189.41617773 </i>
    <i name="e_0_energy">   -189.54110442 </i>
   </energy>
  </scstep>
  <scstep>
   <time name="dav">   26.31   26.37</time>
   <time name="total">   26.84   26.91</time>
   <energy>
    <i name="e_fr_energy">   -189.66647716 </i>
    <i name="e_wo_entrp">   -189.41671416 </i>
    <i name="e_0_energy">   -189.54159566 </i>
   </energy>
  </scstep>
  <scstep>
   <time name="dav">   25.85   25.92</time>
   <time name="total">   26.38   26.46</time>
   <energy>
    <i name="e_fr_energy">   -189.66616993 </i>
    <i name="e_wo_entrp">   -189.41626064 </i>
    <i name="e_0_energy">   -189.54121528 </i>
   </energy>
  </scstep>
  <scstep>
   <time name="dav">   19.85   19.90</time>
   <time name="total">   19.89   19.94</time>
   <energy>
    <i name="alphaZ">     82.35798446 </i>
    <i name="ewald">  41308.80066242 </i>
    <i name="hartreedc"> -47280.83852926 </i>
    <i name="XCdc">   -235.25486159 </i>
    <i name="pawpsdc">   4038.12053143 </i>
    <i name="pawaedc">  -3453.80906007 </i>
    <i name="eentropy">     -0.24988730 </i>
    <i name="bandstr">  -1410.23556794 </i>
    <i name="atom">   6761.44252427 </i>
    <i name="e_fr_energy">   -189.66620358 </i>
    <i name="e_wo_entrp">   -189.41631627 </i>
    <i name="e_0_energy">   -189.54125993 </i>
   </energy>
  </scstep>
  <structure>
   <crystal>
    <varray name="basis" >
     <v>       8.66728100       4.99859467       0.00000000 </v>
     <v>      -8.66727582       4.99858617       0.00000000 </v>
     <v>       0.00000000       0.00000000      30.00000000 </v>
    </varray>
    <i name="volume">   2599.45048845 </i>
    <varray name="rec_basis" >
     <v>       0.05768819       0.10002817       0.00000000 </v>
     <v>      -0.05768828       0.10002823       0.00000000 </v>
     <v>       0.00000000       0.00000000       0.03333333 </v>
    </varray>
   </crystal>
   <varray name="positions" >
    <v>      -0.00001743       0.66715010      -0.00018107 </v>
    <v>      -0.00048209      -0.00048115      -0.00000000 </v>
    <v>       0.66714960      -0.00001745       0.00018106 </v>
    <v>       1.00025346       0.33337429       0.00006950 </v>
    <v>       0.33337754       0.00025498      -0.00006949 </v>
    <v>       0.66635527       0.66635669      -0.00000002 </v>
    <v>       0.33310958       0.33310958       0.00000002 </v>
    <v>       0.33329216       0.66683501      -0.00022214 </v>
    <v>       0.66683421       0.33329012       0.00022210 </v>
    <v>       0.10995684       0.21814014       0.95195050 </v>
    <v>       0.21814025       0.10995652       0.04804940 </v>
    <v>       0.10977711       0.55866257       0.95194262 </v>
    <v>       0.22321606       0.44484578       0.04925959 </v>
    <v>       0.10645676       0.88662490       0.95311608 </v>
    <v>       0.21806227       0.77488007       0.04801078 </v>
    <v>       0.44484560       0.22321610       0.95074039 </v>
    <v>       0.55866270       0.10977666       0.04805734 </v>
    <v>       0.44314427       0.55487671       0.95068349 </v>
    <v>       0.55487692       0.44314428       0.04931638 </v>
    <v>       0.44827904       0.88977654       0.95196939 </v>
    <v>       0.55672049       0.78189258       0.04807180 </v>
    <v>       0.77487963       0.21806213       0.95198927 </v>
    <v>       0.88662429       0.10645603       0.04688387 </v>
    <v>       0.78189201       0.55672046       0.95192822 </v>
    <v>       0.88977634       0.44827910       0.04803072 </v>
    <v>       0.77975526       0.89327657       0.95315629 </v>
    <v>       0.89327633       0.77975514       0.04684380 </v>
   </varray>
  </structure>
  <varray name="forces" >
   <v>       0.03622748      -0.00400673      -0.00480940 </v>
   <v>      -0.00456437       0.02881140      -0.00003570 </v>
   <v>      -0.03770640      -0.00470761       0.00409290 </v>
   <v>       0.02687370       0.18210004      -0.00535188 </v>
   <v>      -0.02127078       0.19217344       0.00519483 </v>
   <v>      -0.00583326      -0.38373952      -0.00000792 </v>
   <v>      -0.00014338       0.17440643       0.00069305 </v>
   <v>       0.14224707      -0.10267432      -0.00191226 </v>
   <v>      -0.13605506      -0.11184624       0.00179164 </v>
   <v>       0.08633601      -0.10477348      -0.47629109 </v>
   <v>      -0.08604497      -0.10493115       0.47515110 </v>
   <v>      -0.11220419       0.04598237      -0.54647996 </v>
   <v>       0.03442894       0.06910106       0.55733743 </v>
   <v>      -0.06046176      -0.11138097      -0.42533138 </v>
   <v>      -0.01706236      -0.11533651       0.41520520 </v>
   <v>      -0.03473837       0.06913599      -0.55849105 </v>
   <v>       0.11689176       0.04608846       0.54556709 </v>
   <v>      -0.04829231      -0.06089590      -0.61703282 </v>
   <v>       0.04831996      -0.06058694       0.61565461 </v>
   <v>       0.09556449       0.10225874      -0.47726031 </v>
   <v>      -0.09675302       0.08768124       0.48104843 </v>
   <v>       0.01923206      -0.11939185      -0.41272773 </v>
   <v>       0.05823341      -0.11589173       0.42374224 </v>
   <v>       0.09438746       0.08370119      -0.48227765 </v>
   <v>      -0.09317530       0.09856366       0.47967101 </v>
   <v>      -0.03752840       0.11012732      -0.37171383 </v>
   <v>       0.03309158       0.11003160       0.37457344 </v>
  </varray>
  <varray name="stress" >
   <v>     -10.17282160       0.00477424      -0.00547575 </v>
   <v>       0.00477413      -9.82573076       0.00059872 </v>
   <v>      -0.00547590       0.00059878       6.58884125 </v>
  </varray>
  <energy>
   <i name="e_fr_energy">   -189.66620358 </i>
   <i name="e_wo_entrp">   -189.54125993 </i>
   <i name="e_0_energy">     -0.24988730 </i>
  </energy>
  <time name="totalsc">  348.48  349.42</time>
 </calculation>
 <calculation>
  <scstep>
   <time name="dav">   21.60   21.66</time>
   <time name="total">   22.13   22.18</time>
   <energy>
    <i name="alphaZ">     85.85565179 </i>
    <i name="ewald">  42846.78980187 </i>
    <i name="hartreedc"> -48863.66806144 </i>
    <i name="XCdc">   -232.96032867 </i>
    <i name="pawpsdc">   4038.36224372 </i>
    <i name="pawaedc">  -3454.05111733 </i>
    <i name="eentropy">     -0.19677183 </i>
    <i name="bandstr">  -1372.74556841 </i>
    <i name="atom">   6761.44252427 </i>
    <i name="e_fr_energy">   -191.17162603 </i>
    <i name="e_wo_entrp">   -190.97485420 </i>
    <i name="e_0_energy">   -191.07324012 </i>
   </energy>
  </scstep>
  <scstep>
   <time name="dav">   32.61   32.69</time>
   <time name="total">   33.12   33.21</time>
   <energy>
    <i name="e_fr_energy">   -191.12248372 </i>
    <i name="e_wo_entrp">   -190.91128745 </i>
    <i name="e_0_energy">   -191.01688558 </i>
   </energy>
  </scstep>
  <scstep>
   <time name="dav">   29.95   30.02</time>
   <time name="total">   30.46   30.54</time>
   <energy>
    <i name="e_fr_energy">   -191.02742569 </i>
    <i name="e_wo_entrp">   -190.81544790 </i>
    <i name="e_0_energy">   -190.92143680 </i>
   </energy>
  </scstep>
  <scstep>
   <time name="dav">   32.11   32.19</time>
   <time name="total">   32.62   32.71</time>
   <energy>
    <i name="e_fr_energy">   -190.66099950 </i>
    <i name="e_wo_entrp">   -190.45564378 </i>
    <i name="e_0_energy">   -190.55832164 </i>
   </energy>
  </scstep>
  <scstep>
   <time name="dav">   29.96   30.04</time>
   <time name="total">   30.48   30.56</time>
   <energy>
    <i name="e_fr_energy">   -190.60873165 </i>
    <i name="e_wo_entrp">   -190.40406573 </i>
    <i name="e_0_energy">   -190.50639869 </i>
   </energy>
  </scstep>
  <scstep>
   <time name="dav">   30.14   30.21</time>
   <time name="total">   30.65   30.73</time>
   <energy>
    <i name="e_fr_energy">   -190.56499551 </i>
    <i name="e_wo_entrp">   -190.35860290 </i>
    <i name="e_0_energy">   -190.46179921 </i>
   </energy>
  </scstep>
  <scstep>
   <time name="dav">   29.94   30.01</time>
   <time name="total">   30.45   30.53</time>
   <energy>
    <i name="e_fr_energy">   -190.56065787 </i>
    <i name="e_wo_entrp">   -190.35442964 </i>
    <i name="e_0_energy">   -190.45754376 </i>
   </energy>
  </scstep>
  <scstep>
   <time name="dav">   26.32   26.38</time>
   <time name="total">   26.83   26.90</time>
   <energy>
    <i name="e_fr_energy">   -190.55715097 </i>
    <i name="e_wo_entrp">   -190.35151386 </i>
    <i name="e_0_energy">   -190.45433242 </i>
   </energy>
  </scstep>
  <scstep>
   <time name="dav">   25.39   25.45</time>
   <time name="total">   25.90   25.97</time>
   <energy>
    <i name="e_fr_energy">   -190.55736298 </i>
    <i name="e_wo_entrp">   -190.35189011 </i>
    <i name="e_0_energy">   -190.45462655 </i>
   </energy>
  </scstep>
  <scstep>
   <time name="dav">   24.07   24.13</time>
   <time name="total">   24.11   24.17</time>
   <energy>
    <i name="alphaZ">     85.85565179 </i>
    <i name="ewald">  42846.78980187 </i>
    <i name="hartreedc"> -48834.89873465 </i>
    <i name="XCdc">   -234.31557648 </i>
    <i name="pawpsdc">   4061.56761101 </i>
    <i name="pawaedc">  -3477.41241098 </i>
    <i name="eentropy">     -0.20546506 </i>
    <i name="bandstr">  -1399.38069872 </i>
    <i name="atom">   6761.44252427 </i>
    <i name="e_fr_energy">   -190.55729696 </i>
    <i name="e_wo_entrp">   -190.35183190 </i>
    <i name="e_0_energy">   -190.45456443 </i>
   </energy>
  </scstep>
  <structure>
   <crystal>
    <varray name="basis" >
     <v>       8.48402339       4.89881333       0.00000000 </v>
     <v>      -8.48377306       4.89837971       0.00000000 </v>
     <v>       0.00000000       0.00000000      30.00000000 </v>
    </varray>
    <i name="volume">   2493.55165891 </i>
    <varray name="rec_basis" >
     <v>       0.05893256       0.10206855       0.00000000 </v>
     <v>      -0.05893778       0.10207156       0.00000000 </v>
     <v>       0.00000000       0.00000000       0.03333333 </v>
    </varray>
   </crystal>
   <varray name="positions" >
    <v>       0.00009348       0.66686583      -0.00016988 </v>
    <v>      -0.00020970      -0.00016395      -0.00000010 </v>
    <v>       0.66685219       0.00009474       0.00016778 </v>
    <v>       1.00161135       0.33453995       0.00004771 </v>
    <v>       0.33465520       0.00167062      -0.00004820 </v>
    <v>       0.66365661       0.66371502      -0.00000003 </v>
    <v>       0.33438922       0.33439068       0.00000201 </v>
    <v>       0.33316530       0.66549603      -0.00019568 </v>
    <v>       0.66544713       0.33305431       0.00019532 </v>
    <v>       0.10928471       0.21683658       0.95053844 </v>
    <v>       0.21683684       0.10928183       0.04945818 </v>
    <v>       0.10932406       0.55935013       0.95037315 </v>
    <v>       0.22358327       0.44507613       0.05089047 </v>
    <v>       0.10533251       0.88606225       0.95184633 </v>
    <v>       0.21697028       0.77424382       0.04928722 </v>
    <v>       0.44507495       0.22358489       0.94910624 </v>
    <v>       0.55937423       0.10930121       0.04962411 </v>
    <v>       0.44278990       0.55475408       0.94891539 </v>
    <v>       0.55475674       0.44279231       0.05108065 </v>
    <v>       0.44962515       0.89042709       0.95055432 </v>
    <v>       0.55722947       0.78310349       0.04949387 </v>
    <v>       0.77421894       0.21692358       0.95071992 </v>
    <v>       0.88601140       0.10530402       0.04814917 </v>
    <v>       0.78305671       0.55720655       0.95050253 </v>
    <v>       0.89040661       0.44958065       0.04945275 </v>
    <v>       0.78040025       0.89430070       0.95200916 </v>
    <v>       0.89427765       0.78042190       0.04799909 </v>
   </varray>
  </structure>
  <varray name="forces" >
   <v>       0.09483890      -0.02676537       0.05081409 </v>
   <v>      -0.00161385       0.06944479       0.00000160 </v>
   <v>      -0.09671154      -0.02732277      -0.05227273 </v>
   <v>       0.02880791       0.22781176      -0.01631325 </v>
   <v>      -0.02805959       0.23123322       0.01700887 </v>
   <v>      -0.00247314      -0.44622526      -0.00024229 </v>
   <v>      -0.00042786       0.26518646       0.00173683 </v>
   <v>       0.21432645      -0.15232008       0.03472723 </v>
   <v>      -0.21060003      -0.15534687      -0.03461190 </v>
   <v>       0.03789017      -0.03879850      -0.30139395 </v>
   <v>      -0.03701619      -0.03931210       0.29941174 </v>
   <v>      -0.04622269       0.02848098      -0.40316529 </v>
   <v>       0.00780409       0.01574713       0.39595333 </v>
   <v>      -0.01579197      -0.00941508      -0.31645092 </v>
   <v>      -0.02544688      -0.00903908       0.21727906 </v>
   <v>      -0.00842212       0.01666474      -0.39836526 </v>
   <v>       0.04632440       0.02831517       0.41073846 </v>
   <v>      -0.01535577      -0.02951459      -0.49658010 </v>
   <v>       0.01572342      -0.02925516       0.49364180 </v>
   <v>       0.03685931       0.03847364      -0.28976883 </v>
   <v>      -0.01784676       0.02177672       0.32155389 </v>
   <v>       0.02537314      -0.00804227      -0.22208544 </v>
   <v>       0.01675986      -0.00951292       0.32193381 </v>
   <v>       0.01764884       0.02238956      -0.31451629 </v>
   <v>      -0.03710382       0.03870780       0.28471709 </v>
   <v>       0.02326027      -0.01141522      -0.23566762 </v>
   <v>      -0.02252456      -0.01194670       0.23191608 </v>
  </varray>
  <varray name="stress" >
   <v>      -5.90962209      -0.00511656      -0.10255997 </v>
   <v>      -0.00511639      -5.93913801      -0.00258707 </v>
   <v>      -0.10255999      -0.00258698       4.59368742 </v>
  </varray>
  <energy>
   <i name="e_fr_energy">   -190.55729696 </i>
   <i name="e_wo_entrp">   -190.45456443 </i>
   <i name="e_0_energy">     -0.20546506 </i>
  </energy>
  <time name="totalsc">  328.42  329.29</time>
 </calculation>
 <calculation>
  <scstep>
   <time name="dav">   21.61   21.66</time>
   <time name="total">   22.12   22.17</time>
   <energy>
    <i name="alphaZ">     90.52503620 </i>
    <i name="ewald">  44824.27297300 </i>
    <i name="hartreedc"> -50871.28148839 </i>
    <i name="XCdc">   -231.61843788 </i>
    <i name="pawpsdc">   4061.69587160 </i>
    <i name="pawaedc">  -3477.53995674 </i>
    <i name="eentropy">     -0.15929543 </i>
    <i name="bandstr">  -1349.35810831 </i>
    <i name="atom">   6761.44252427 </i>
    <i name="e_fr_energy">   -192.02088168 </i>
    <i name="e_wo_entrp">   -191.86158626 </i>
    <i name="e_0_energy">   -191.94123397 </i>
   </energy>
  </scstep>
  <scstep>
   <time name="dav">   31.71   31.79</time>
   <time name="total">   32.22   32.30</time>
   <energy>
    <i name="e_fr_energy">   -191.69322118 </i>
    <i name="e_wo_entrp">   -191.51268424 </i>
    <i name="e_0_energy">   -191.60295271 </i>
   </energy>
  </scstep>
  <scstep>
   <time name="dav">   29.89   29.97</time>
   <time name="total">   30.40   30.50</time>
   <energy>
    <i name="e_fr_energy">   -192.00543644 </i>
    <i name="e_wo_entrp">   -191.82970700 </i>
    <i name="e_0_energy">   -191.91757172 </i>
   </energy>
  </scstep>
  <scstep>
   <time name="dav">   30.51   30.58</time>
   <time name="total">   31.02   31.10</time>
   <energy>
    <i name="e_fr_energy">   -191.34465329 </i>
    <i name="e_wo_entrp">   -191.17259436 </i>
    <i name="e_0_energy">   -191.25862383 </i>
   </energy>
  </scstep>
  <scstep>
   <time name="dav">   29.96   30.03</time>
   <time name="total">   30.46   30.55</time>
   <energy>
    <i name="e_fr_energy">   -191.28331928 </i>
    <i name="e_wo_entrp">   -191.11462366 </i>
    <i name="e_0_energy">   -191.19897147 </i>
   </energy>
  </scstep>
  <scstep>
   <time name="dav">   29.97   30.04</time>
   <time name="total">   30.48   30.56</time>
   <energy>
    <i name="e_fr_energy">   -191.12689290 </i>
    <i name="e_wo_entrp">   -190.95630127 </i>
    <i name="e_0_energy">   -191.04159708 </i>
   </energy>
  </scstep>
  <scstep>
   <time name="dav">   30.12   30.19</time>
   <time name="total">   30.63   30.71</time>
   <energy>
    <i name="e_fr_energy">   -191.12937009 </i>
    <i name="e_wo_entrp">   -190.95829107 </i>
    <i name="e_0_energy">   -191.04383058 </i>
   </energy>
  </scstep>
  <scstep>
   <time name="dav">   29.08   29.15</time>
   <time name="total">   29.58   29.66</time>
   <energy>
    <i name="e_fr_energy">   -191.12044556 </i>
    <i name="e_wo_entrp">   -190.95020783 </i>
    <i name="e_0_energy">   -191.03532669 </i>
   </energy>
  </scstep>
  <scstep>
   <time name="dav">   28.89   28.96</time>
   <time name="total">   29.40   29.48</time>
   <energy>
    <i name="e_fr_energy">   -191.11902675 </i>
    <i name="e_wo_entrp">   -190.94913328 </i>
    <i name="e_0_energy">   -191.03408001 </i>
   </energy>
  </scstep>
  <scstep>
   <time name="dav">   28.18   28.25</time>
   <time name="total">   28.69   28.77</time>
   <energy>
    <i name="e_fr_energy">   -191.11920309 </i>
    <i name="e_wo_entrp">   -190.94954982 </i>
    <i name="e_0_energy">   -191.03437646 </i>
   </energy>
  </scstep>
  <scstep>
   <time name="dav">   25.26   25.32</time>
   <time name="total">   25.30   25.37</time>
   <energy>
    <i name="alphaZ">     90.52503620 </i>
    <i name="ewald">  44824.27297300 </i>
    <i name="hartreedc"> -50834.46343154 </i>
    <i name="XCdc">   -233.31987524 </i>
    <i name="pawpsdc">   4082.56196644 </i>
    <i name="pawaedc">  -3498.45298958 </i>
    <i name="eentropy">     -0.16963810 </i>
    <i name="bandstr">  -1383.51569741 </i>
    <i name="atom">   6761.44252427 </i>
    <i name="e_fr_energy">   -191.11913196 </i>
    <i name="e_wo_entrp">   -190.94949386 </i>
    <i name="e_0_energy">   -191.03431291 </i>
   </energy>
  </scstep>
  <structure>
   <crystal>
    <varray name="basis" >
     <v>       8.26227478       4.77061319       0.00000000 </v>
     <v>      -8.26221270       4.77050542       0.00000000 </v>
     <v>       0.00000000       0.00000000      30.00000000 </v>
    </varray>
    <i name="volume">   2364.93142577 </i>
    <varray name="rec_basis" >
     <v>       0.06051557       0.10480912       0.00000000 </v>
     <v>      -0.06051693       0.10480991       0.00000000 </v>
     <v>       0.00000000       0.00000000       0.03333333 </v>
    </varray>
   </crystal>
   <varray name="positions" >
    <v>       0.00043599       0.66577230       0.00003497 </v>
    <v>       0.00071922       0.00080913      -0.00000014 </v>
    <v>       0.66573388       0.00044371      -0.00004344 </v>
    <v>       1.00478271       0.33729494      -0.00002675 </v>
    <v>       0.33751082       0.00490507       0.00002845 </v>
    <v>       0.65773857       0.65785810      -0.00000088 </v>
    <v>       0.33782669       0.33783444       0.00000928 </v>
    <v>       0.33281908       0.66192528      -0.00003536 </v>
    <v>       0.66184117       0.33259338       0.00003525 </v>
    <v>       0.10860162       0.21548974       0.94867001 </v>
    <v>       0.21549006       0.10858639       0.05131774 </v>
    <v>       0.10889989       0.56014196       0.94808631 </v>
    <v>       0.22372909       0.44519031       0.05320532 </v>
    <v>       0.10461746       0.88582231       0.94999792 </v>
    <v>       0.21611335       0.77415013       0.05080910 </v>
    <v>       0.44519487       0.22374534       0.94678104 </v>
    <v>       0.56017759       0.10886249       0.05193653 </v>
    <v>       0.44246007       0.55457306       0.94619027 </v>
    <v>       0.55458196       0.44246418       0.05379328 </v>
    <v>       0.45099737       0.89113301       0.94872569 </v>
    <v>       0.55778966       0.78408930       0.05143727 </v>
    <v>       0.77412234       0.21605238       0.94918464 </v>
    <v>       0.88574923       0.10456686       0.05001486 </v>
    <v>       0.78402297       0.55776212       0.94858228 </v>
    <v>       0.89110242       0.45093243       0.05126709 </v>
    <v>       0.78068908       0.89450375       0.95049417 </v>
    <v>       0.89446730       0.78071237       0.04950502 </v>
   </varray>
  </structure>
  <varray name="forces" >
   <v>       0.13057663      -0.02663828       0.02310845 </v>
   <v>       0.00235826       0.06513330      -0.00016269 </v>
   <v>      -0.13100814      -0.02632055      -0.01888907 </v>
   <v>       0.04416993       0.21457532      -0.00361047 </v>
   <v>      -0.04853288       0.21026853       0.00209471 </v>
   <v>       0.00267838      -0.30249510       0.00100409 </v>
   <v>      -0.00040163       0.24384767      -0.00528120 </v>
   <v>       0.24647424      -0.17596211      -0.01665743 </v>
   <v>      -0.24710708      -0.17112766       0.01648896 </v>
   <v>       0.00060608       0.10062956      -0.01086436 </v>
   <v>      -0.00016543       0.10121331       0.01308656 </v>
   <v>       0.03297145       0.04981520      -0.09587368 </v>
   <v>       0.04677120      -0.02366065       0.18062662 </v>
   <v>       0.04119431       0.07777097       0.00861300 </v>
   <v>       0.03744963       0.10909035      -0.06690550 </v>
   <v>      -0.04746366      -0.02401869      -0.17798397 </v>
   <v>      -0.03519043       0.05023114       0.09911544 </v>
   <v>      -0.00954601      -0.03707642      -0.24962296 </v>
   <v>       0.01032813      -0.03505371       0.25094159 </v>
   <v>      -0.01712873      -0.07487591       0.03577666 </v>
   <v>       0.06424824      -0.07687737       0.01688820 </v>
   <v>      -0.03872465       0.11141159       0.06170386 </v>
   <v>      -0.03948988       0.08004082      -0.00548763 </v>
   <v>      -0.06274906      -0.07497878      -0.01392626 </v>
   <v>       0.01521218      -0.07162763      -0.03914876 </v>
   <v>       0.06479091      -0.14695995       0.06616142 </v>
   <v>      -0.06232201      -0.14635497      -0.07119556 </v>
  </varray>
  <varray name="stress" >
   <v>      -0.39951603       0.00051387       0.08303272 </v>
   <v>       0.00051389      -0.08775274       0.00490772 </v>
   <v>       0.08303269       0.00490778      -0.20956101 </v>
  </varray>
  <energy>
   <i name="e_fr_energy">   -191.11913196 </i>
   <i name="e_wo_entrp">   -191.03431291 </i>
   <i name="e_0_energy">     -0.16963810 </i>
  </energy>
  <time name="totalsc">  361.95  362.91</time>
 </calculation>
 <calculation>
  <scstep>
   <time name="dav">   21.64   21.70</time>
   <time name="total">   22.14   22.20</time>
   <energy>
    <i name="alphaZ">     90.73179737 </i>
    <i name="ewald">  44893.77761708 </i>
    <i name="hartreedc"> -50907.20562452 </i>
    <i name="XCdc">   -233.27608140 </i>
    <i name="pawpsdc">   4082.60797813 </i>
    <i name="pawaedc">  -3498.49588128 </i>
    <i name="eentropy">     -0.17352668 </i>
    <i name="bandstr">  -1380.57090462 </i>
    <i name="atom">   6761.44252427 </i>
    <i name="e_fr_energy">   -191.16210165 </i>
    <i name="e_wo_entrp">   -190.98857496 </i>
    <i name="e_0_energy">   -191.07533830 </i>
   </energy>
  </scstep>
  <scstep>
   <time name="dav">   32.36   32.44</time>
   <time name="total">   32.87   32.96</time>
   <energy>
    <i name="e_fr_energy">   -191.19758171 </i>
    <i name="e_wo_entrp">   -191.02491033 </i>
    <i name="e_0_energy">   -191.11124602 </i>
   </energy>
  </scstep>
  <scstep>
   <time name="dav">   30.63   30.71</time>
   <time name="total">   31.14   31.22</time>
   <energy>
    <i name="e_fr_energy">   -191.16866662 </i>
    <i name="e_wo_entrp">   -190.99453050 </i>
    <i name="e_0_energy">   -191.08159856 </i>
   </energy>
  </scstep>
  <scstep>
   <time name="dav">   27.70   27.77</time>
   <time name="total">   28.21   28.29</time>
   <energy>
    <i name="e_fr_energy">   -191.16698862 </i>
    <i name="e_wo_entrp">   -190.99267458 </i>
    <i name="e_0_energy">   -191.07983160 </i>
   </energy>
  </scstep>
  <scstep>
   <time name="dav">   28.82   28.89</time>
   <time name="total">   29.33   29.41</time>
   <energy>
    <i name="e_fr_energy">   -191.16618446 </i>
    <i name="e_wo_entrp">   -190.99280147 </i>
    <i name="e_0_energy">   -191.07949297 </i>
   </energy>
  </scstep>
  <scstep>
   <time name="dav">   29.29   29.36</time>
   <time name="total">   29.80   29.88</time>
   <energy>
    <i name="e_fr_energy">   -191.16521230 </i>
    <i name="e_wo_entrp">   -190.99135797 </i>
    <i name="e_0_energy">   -191.07828514 </i>
   </energy>
  </scstep>
  <scstep>
   <time name="dav">   26.27   26.33</time>
   <time name="total">   26.77   26.85</time>
   <energy>
    <i name="e_fr_energy">   -191.16507745 </i>
    <i name="e_wo_entrp">   -190.99105274 </i>
    <i name="e_0_energy">   -191.07806509 </i>
   </energy>
  </scstep>
  <scstep>
   <time name="dav">   19.79   19.83</time>
   <time name="total">   19.82   19.88</time>
   <energy>
    <i name="alphaZ">     90.73179737 </i>
    <i name="ewald">  44893.77761708 </i>
    <i name="hartreedc"> -50906.40633892 </i>
    <i name="XCdc">   -233.34087632 </i>
    <i name="pawpsdc">   4080.58083079 </i>
    <i name="pawaedc">  -3496.42348379 </i>
    <i name="eentropy">     -0.17390745 </i>
    <i name="bandstr">  -1381.35320423 </i>
    <i name="atom">   6761.44252427 </i>
    <i name="e_fr_energy">   -191.16504120 </i>
    <i name="e_wo_entrp">   -190.99113375 </i>
    <i name="e_0_energy">   -191.07808747 </i>
   </energy>
  </scstep>
  <structure>
   <crystal>
    <varray name="basis" >
     <v>       8.24929082       4.76724667       0.00000000 </v>
     <v>      -8.24921737       4.76711911       0.00000000 </v>
     <v>       0.00000000       0.00000000      30.00000000 </v>
    </varray>
    <i name="volume">   2359.54217967 </i>
    <varray name="rec_basis" >
     <v>       0.06061073       0.10488328       0.00000000 </v>
     <v>      -0.06061235       0.10488421       0.00000000 </v>
     <v>       0.00000000       0.00000000       0.03333333 </v>
    </varray>
   </crystal>
   <varray name="positions" >
    <v>       0.00070377       0.66519949       0.00007969 </v>
    <v>       0.00109914       0.00117628      -0.00000042 </v>
    <v>       0.66516065       0.00071468      -0.00008124 </v>
    <v>       1.00614649       0.33837677      -0.00003510 </v>
    <v>       0.33856035       0.00626167       0.00003430 </v>
    <v>       0.65597027       0.65607562       0.00000079 </v>
    <v>       0.33921698       0.33922737       0.00000060 </v>
    <v>       0.33263124       0.66013601      -0.00005848 </v>
    <v>       0.66007412       0.33242887       0.00005810 </v>
    <v>       0.10910800       0.21597130       0.94858653 </v>
    <v>       0.21597605       0.10909417       0.05140469 </v>
    <v>       0.10924403       0.56032941       0.94784768 </v>
    <v>       0.22374897       0.44492483       0.05358851 </v>
    <v>       0.10512576       0.88609690       0.94994932 </v>
    <v>       0.21677054       0.77460750       0.05075168 </v>
    <v>       0.44492552       0.22376583       0.94640198 </v>
    <v>       0.56036103       0.10921498       0.05218124 </v>
    <v>       0.44222795       0.55440220       0.94567919 </v>
    <v>       0.55442439       0.44224045       0.05430621 </v>
    <v>       0.45059936       0.89081821       0.94872175 </v>
    <v>       0.55760276       0.78352486       0.05153290 </v>
    <v>       0.77458774       0.21672485       0.94923304 </v>
    <v>       0.88603989       0.10508108       0.05006912 </v>
    <v>       0.78347214       0.55758031       0.94849220 </v>
    <v>       0.89079847       0.45055643       0.05126507 </v>
    <v>       0.78012221       0.89354293       0.95055206 </v>
    <v>       0.89351663       0.78014145       0.04943851 </v>
   </varray>
  </structure>
  <varray name="forces" >
   <v>       0.11572021      -0.01117680       0.02690616 </v>
   <v>      -0.00171842       0.03760718      -0.00008619 </v>
   <v>      -0.11863996      -0.01181614      -0.02676631 </v>
   <v>       0.08186374       0.23876831      -0.00364251 </v>
   <v>      -0.07959404       0.24335915       0.00431447 </v>
   <v>      -0.00230857      -0.29367980       0.00003328 </v>
   <v>      -0.00044990       0.20987967       0.00121401 </v>
   <v>       0.25251030      -0.19435100       0.01459849 </v>
   <v>      -0.24760048      -0.19749782      -0.01362570 </v>
   <v>       0.00736746       0.08158362       0.00743872 </v>
   <v>      -0.00745843       0.08270546      -0.00850986 </v>
   <v>       0.02292501       0.04250086      -0.08229319 </v>
   <v>       0.04676243      -0.00482038       0.13601704 </v>
   <v>       0.03733290       0.05103508       0.04484846 </v>
   <v>       0.04625291       0.08360850      -0.10853073 </v>
   <v>      -0.04596290      -0.00499166      -0.13718335 </v>
   <v>      -0.02315343       0.04231116       0.08106265 </v>
   <v>      -0.00072542      -0.03085147      -0.20128085 </v>
   <v>       0.00076698      -0.03148961       0.19954673 </v>
   <v>      -0.00190920      -0.06177890       0.06611889 </v>
   <v>       0.03478057      -0.06375978      -0.01615264 </v>
   <v>      -0.04578504       0.08244060       0.10885792 </v>
   <v>      -0.03697915       0.05086562      -0.04601570 </v>
   <v>      -0.03503333      -0.06364536       0.01539943 </v>
   <v>       0.00192776      -0.06187385      -0.06396364 </v>
   <v>       0.03860672      -0.10736054       0.10596640 </v>
   <v>      -0.03949872      -0.10757213      -0.10427200 </v>
  </varray>
  <varray name="stress" >
   <v>      -0.11583369       0.00315714       0.05322576 </v>
   <v>       0.00315714       0.00847917       0.00258119 </v>
   <v>       0.05322585       0.00258117      -1.06867041 </v>
  </varray>
  <energy>
   <i name="e_fr_energy">   -191.16504120 </i>
   <i name="e_wo_entrp">   -191.07808747 </i>
   <i name="e_0_energy">     -0.17390745 </i>
  </energy>
  <time name="totalsc">  261.95  262.65</time>
 </calculation>
 <calculation>
  <scstep>
   <time name="dav">   21.62   21.68</time>
   <time name="total">   22.13   22.18</time>
   <energy>
    <i name="alphaZ">     90.80389658 </i>
    <i name="ewald">  44918.28026003 </i>
    <i name="hartreedc"> -50931.87954623 </i>
    <i name="XCdc">   -233.32288390 </i>
    <i name="pawpsdc">   4080.60385117 </i>
    <i name="pawaedc">  -3496.44678994 </i>
    <i name="eentropy">     -0.18196035 </i>
    <i name="bandstr">  -1380.51305907 </i>
    <i name="atom">   6761.44252427 </i>
    <i name="e_fr_energy">   -191.21370744 </i>
    <i name="e_wo_entrp">   -191.03174709 </i>
    <i name="e_0_energy">   -191.12272727 </i>
   </energy>
  </scstep>
  <scstep>
   <time name="dav">   32.90   32.98</time>
   <time name="total">   33.41   33.49</time>
   <energy>
    <i name="e_fr_energy">   -191.27488601 </i>
    <i name="e_wo_entrp">   -191.09350193 </i>
    <i name="e_0_energy">   -191.18419397 </i>
   </energy>
  </scstep>
  <scstep>
   <time name="dav">   30.73   30.80</time>
   <time name="total">   31.24   31.32</time>
   <energy>
    <i name="e_fr_energy">   -191.22106729 </i>
    <i name="e_wo_entrp">   -191.03866876 </i>
    <i name="e_0_energy">   -191.12986803 </i>
   </energy>
  </scstep>
  <scstep>
   <time name="dav">   28.21   28.28</time>
   <time name="total">   28.72   28.79</time>
   <energy>
    <i name="e_fr_energy">   -191.21984543 </i>
    <i name="e_wo_entrp">   -191.03714285 </i>
    <i name="e_0_energy">   -191.12849414 </i>
   </energy>
  </scstep>
  <scstep>
   <time name="dav">   28.90   28.97</time>
   <time name="total">   29.41   29.49</time>
   <energy>
    <i name="e_fr_energy">   -191.21928264 </i>
    <i name="e_wo_entrp">   -191.03749048 </i>
    <i name="e_0_energy">   -191.12838656 </i>
   </energy>
  </scstep>
  <scstep>
   <time name="dav">   28.88   28.95</time>
   <time name="total">   29.38   29.46</time>
   <energy>
    <i name="e_fr_energy">   -191.21807337 </i>
    <i name="e_wo_entrp">   -191.03581795 </i>
    <i name="e_0_energy">   -191.12694566 </i>
   </energy>
  </scstep>
  <scstep>
   <time name="dav">   26.19   26.25</time>
   <time name="total">   26.69   26.76</time>
   <energy>
    <i name="e_fr_energy">   -191.21795593 </i>
    <i name="e_wo_entrp">   -191.03553740 </i>
    <i name="e_0_energy">   -191.12674666 </i>
   </energy>
  </scstep>
  <scstep>
   <time name="dav">   22.07   22.12</time>
   <time name="total">   22.10   22.16</time>
   <energy>
    <i name="alphaZ">     90.80389658 </i>
    <i name="ewald">  44918.28026003 </i>
    <i name="hartreedc"> -50931.94943268 </i>
    <i name="XCdc">   -233.33505372 </i>
    <i name="pawpsdc">   4081.63738496 </i>
    <i name="pawaedc">  -3497.48788177 </i>
    <i name="eentropy">     -0.18226300 </i>
    <i name="bandstr">  -1380.42734443 </i>
    <i name="atom">   6761.44252427 </i>
    <i name="e_fr_energy">   -191.21790974 </i>
    <i name="e_wo_entrp">   -191.03564675 </i>
    <i name="e_0_energy">   -191.12677825 </i>
   </energy>
  </scstep>
  <structure>
   <crystal>
    <varray name="basis" >
     <v>       8.24411099       4.76658169       0.00000000 </v>
     <v>      -8.24392726       4.76626325       0.00000000 </v>
     <v>       0.00000000       0.00000000      30.00000000 </v>
    </varray>
    <i name="volume">   2357.66867940 </i>
    <varray name="rec_basis" >
     <v>       0.06064800       0.10489931       0.00000000 </v>
     <v>      -0.06065206       0.10490165       0.00000000 </v>
[...]
      <set comment="kpoint 31">
       <r>  -17.5602    1.0000 </r>
       <r>  -17.2412    1.0000 </r>
       <r>  -16.8896    1.0000 </r>
       <r>  -16.6737    1.0000 </r>
       <r>  -16.4949    1.0000 </r>
       <r>  -16.4068    1.0000 </r>
       <r>  -16.2842    1.0000 </r>
       <r>  -16.1624    1.0000 </r>
       <r>  -16.0514    1.0000 </r>
       <r>  -15.9892    1.0000 </r>
       <r>  -15.9246    1.0000 </r>
       <r>  -15.8745    1.0000 </r>
       <r>  -15.7950    1.0000 </r>
       <r>  -15.6491    1.0000 </r>
       <r>  -15.6143    1.0000 </r>
       <r>  -15.5378    1.0000 </r>
       <r>  -15.4765    1.0000 </r>
       <r>  -15.4103    1.0000 </r>
       <r>   -9.7825    1.0000 </r>
       <r>   -9.4538    1.0000 </r>
       <r>   -9.3671    1.0000 </r>
       <r>   -9.1326    1.0000 </r>
       <r>   -8.8149    1.0000 </r>
       <r>   -8.6780    1.0000 </r>
       <r>   -8.5335    1.0000 </r>
       <r>   -8.4704    1.0000 </r>
       <r>   -8.4098    1.0000 </r>
       <r>   -8.3099    1.0000 </r>
       <r>   -8.2685    1.0000 </r>
       <r>   -8.1715    1.0000 </r>
       <r>   -8.1240    1.0000 </r>
       <r>   -8.0749    1.0000 </r>
       <r>   -8.0002    1.0000 </r>
       <r>   -7.8854    1.0000 </r>
       <r>   -7.8091    1.0000 </r>
       <r>   -7.7306    1.0000 </r>
       <r>   -7.6094    1.0000 </r>
       <r>   -7.3415    1.0000 </r>
       <r>   -7.2213    1.0000 </r>
       <r>   -7.1491    1.0000 </r>
       <r>   -7.1213    1.0000 </r>
       <r>   -7.0746    1.0000 </r>
       <r>   -6.9926    1.0000 </r>
       <r>   -6.9505    1.0000 </r>
       <r>   -6.8317    1.0000 </r>
       <r>   -6.7697    1.0000 </r>
       <r>   -6.6650    1.0000 </r>
       <r>   -6.5983    1.0000 </r>
       <r>   -6.5748    1.0000 </r>
       <r>   -6.4785    1.0000 </r>
       <r>   -6.3892    1.0000 </r>
       <r>   -6.3574    1.0000 </r>
       <r>   -6.3188    1.0000 </r>
       <r>   -6.2352    1.0000 </r>
       <r>   -6.1292    1.0000 </r>
       <r>   -6.0538    1.0000 </r>
       <r>   -5.9801    1.0000 </r>
       <r>   -5.9244    1.0000 </r>
       <r>   -5.8976    1.0000 </r>
       <r>   -5.8322    1.0000 </r>
       <r>   -5.6969    1.0000 </r>
       <r>   -5.6386    1.0000 </r>
       <r>   -5.5647    1.0000 </r>
       <r>   -5.4716    1.0000 </r>
       <r>   -5.2726    1.0000 </r>
       <r>   -5.1097    1.0000 </r>
       <r>   -5.0477    1.0000 </r>
       <r>   -4.9047    1.0000 </r>
       <r>   -4.8109    1.0000 </r>
       <r>   -4.7090    1.0000 </r>
       <r>   -4.5873    1.0000 </r>
       <r>   -4.5184    1.0000 </r>
       <r>   -4.3476    1.0000 </r>
       <r>   -4.2535    1.0000 </r>
       <r>   -4.2150    1.0000 </r>
       <r>   -3.8991    1.0000 </r>
       <r>   -3.7472    1.0000 </r>
       <r>   -3.6306    0.9994 </r>
       <r>   -3.3930    0.9389 </r>
       <r>   -3.0785    0.2490 </r>
       <r>   -3.0197    0.1370 </r>
       <r>   -2.8751    0.0172 </r>
       <r>   -2.7993    0.0040 </r>
       <r>   -2.7363    0.0010 </r>
       <r>   -2.6739    0.0002 </r>
       <r>   -2.6483    0.0001 </r>
       <r>   -2.4844    0.0000 </r>
       <r>   -2.4025    0.0000 </r>
       <r>   -2.3005    0.0000 </r>
       <r>   -2.0427    0.0000 </r>
       <r>   -1.8136    0.0000 </r>
       <r>   -1.7475    0.0000 </r>
       <r>   -1.3182    0.0000 </r>
       <r>   -1.2212    0.0000 </r>
       <r>   -1.1297    0.0000 </r>
       <r>   -1.0534    0.0000 </r>
       <r>   -0.9849    0.0000 </r>
       <r>   -0.9244    0.0000 </r>
       <r>   -0.8438    0.0000 </r>
       <r>   -0.8032    0.0000 </r>
       <r>   -0.7247    0.0000 </r>
       <r>   -0.6851    0.0000 </r>
       <r>   -0.6478    0.0000 </r>
       <r>   -0.5388    0.0000 </r>
       <r>   -0.4827    0.0000 </r>
       <r>   -0.3349    0.0000 </r>
       <r>   -0.2692    0.0000 </r>
       <r>   -0.1669    0.0000 </r>
       <r>   -0.0597    0.0000 </r>
       <r>    0.1818    0.0000 </r>
       <r>    0.3817    0.0000 </r>
       <r>    0.5400    0.0000 </r>
       <r>    0.6542    0.0000 </r>
       <r>    0.9836    0.0000 </r>
       <r>    1.1431    0.0000 </r>
       <r>    1.2941    0.0000 </r>
       <r>    1.4172    0.0000 </r>
       <r>    2.1157    0.0000 </r>
       <r>    2.2997    0.0000 </r>
       <r>    2.3679    0.0000 </r>
      </set>
      <set comment="kpoint 32">
       <r>  -17.5532    1.0000 </r>
       <r>  -17.2080    1.0000 </r>
       <r>  -16.9838    1.0000 </r>
       <r>  -16.6709    1.0000 </r>
       <r>  -16.4451    1.0000 </r>
       <r>  -16.3426    1.0000 </r>
       <r>  -16.2591    1.0000 </r>
       <r>  -16.2146    1.0000 </r>
       <r>  -16.1026    1.0000 </r>
       <r>  -16.0253    1.0000 </r>
       <r>  -15.9079    1.0000 </r>
       <r>  -15.8748    1.0000 </r>
       <r>  -15.7821    1.0000 </r>
       <r>  -15.6412    1.0000 </r>
       <r>  -15.5960    1.0000 </r>
       <r>  -15.5450    1.0000 </r>
       <r>  -15.4835    1.0000 </r>
       <r>  -15.3950    1.0000 </r>
       <r>   -9.7379    1.0000 </r>
       <r>   -9.5487    1.0000 </r>
       <r>   -9.4307    1.0000 </r>
       <r>   -9.1190    1.0000 </r>
       <r>   -8.6824    1.0000 </r>
       <r>   -8.6286    1.0000 </r>
       <r>   -8.5184    1.0000 </r>
       <r>   -8.4330    1.0000 </r>
       <r>   -8.3909    1.0000 </r>
       <r>   -8.3534    1.0000 </r>
       <r>   -8.2886    1.0000 </r>
       <r>   -8.2193    1.0000 </r>
       <r>   -8.1282    1.0000 </r>
       <r>   -8.0933    1.0000 </r>
       <r>   -8.0327    1.0000 </r>
       <r>   -7.9250    1.0000 </r>
       <r>   -7.8279    1.0000 </r>
       <r>   -7.7509    1.0000 </r>
       <r>   -7.5192    1.0000 </r>
       <r>   -7.3573    1.0000 </r>
       <r>   -7.3116    1.0000 </r>
       <r>   -7.2300    1.0000 </r>
       <r>   -7.1296    1.0000 </r>
       <r>   -7.0310    1.0000 </r>
       <r>   -6.9746    1.0000 </r>
       <r>   -6.8632    1.0000 </r>
       <r>   -6.8396    1.0000 </r>
       <r>   -6.7348    1.0000 </r>
       <r>   -6.6593    1.0000 </r>
       <r>   -6.6178    1.0000 </r>
       <r>   -6.5296    1.0000 </r>
       <r>   -6.4846    1.0000 </r>
       <r>   -6.4449    1.0000 </r>
       <r>   -6.3706    1.0000 </r>
       <r>   -6.3265    1.0000 </r>
       <r>   -6.2478    1.0000 </r>
       <r>   -6.1824    1.0000 </r>
       <r>   -6.0206    1.0000 </r>
       <r>   -5.9590    1.0000 </r>
       <r>   -5.9172    1.0000 </r>
       <r>   -5.8425    1.0000 </r>
       <r>   -5.6988    1.0000 </r>
       <r>   -5.6749    1.0000 </r>
       <r>   -5.5704    1.0000 </r>
       <r>   -5.4748    1.0000 </r>
       <r>   -5.4175    1.0000 </r>
       <r>   -5.3368    1.0000 </r>
       <r>   -5.1944    1.0000 </r>
       <r>   -5.0894    1.0000 </r>
       <r>   -4.9864    1.0000 </r>
       <r>   -4.8958    1.0000 </r>
       <r>   -4.7236    1.0000 </r>
       <r>   -4.5396    1.0000 </r>
       <r>   -4.4746    1.0000 </r>
       <r>   -4.4259    1.0000 </r>
       <r>   -4.3162    1.0000 </r>
       <r>   -4.2330    1.0000 </r>
       <r>   -3.9455    1.0000 </r>
       <r>   -3.7450    1.0000 </r>
       <r>   -3.5531    0.9963 </r>
       <r>   -3.2930    0.7993 </r>
       <r>   -3.0960    0.2899 </r>
       <r>   -2.9851    0.0904 </r>
       <r>   -2.9185    0.0352 </r>
       <r>   -2.8142    0.0054 </r>
       <r>   -2.7481    0.0013 </r>
       <r>   -2.6935    0.0003 </r>
       <r>   -2.6666    0.0002 </r>
       <r>   -2.4594    0.0000 </r>
       <r>   -2.4072    0.0000 </r>
       <r>   -2.2729    0.0000 </r>
       <r>   -2.0901    0.0000 </r>
       <r>   -1.8573    0.0000 </r>
       <r>   -1.7281    0.0000 </r>
       <r>   -1.3166    0.0000 </r>
       <r>   -1.2346    0.0000 </r>
       <r>   -1.1338    0.0000 </r>
       <r>   -1.0252    0.0000 </r>
       <r>   -0.9802    0.0000 </r>
       <r>   -0.9181    0.0000 </r>
       <r>   -0.8370    0.0000 </r>
       <r>   -0.8065    0.0000 </r>
       <r>   -0.7118    0.0000 </r>
       <r>   -0.6657    0.0000 </r>
       <r>   -0.6193    0.0000 </r>
       <r>   -0.5366    0.0000 </r>
       <r>   -0.4333    0.0000 </r>
       <r>   -0.3106    0.0000 </r>
       <r>   -0.2588    0.0000 </r>
       <r>   -0.1194    0.0000 </r>
       <r>   -0.0526    0.0000 </r>
       <r>    0.1572    0.0000 </r>
       <r>    0.2849    0.0000 </r>
       <r>    0.5726    0.0000 </r>
       <r>    0.6409    0.0000 </r>
       <r>    0.9555    0.0000 </r>
       <r>    1.1562    0.0000 </r>
       <r>    1.2559    0.0000 </r>
       <r>    1.3928    0.0000 </r>
       <r>    2.0943    0.0000 </r>
       <r>    2.2741    0.0000 </r>
       <r>    2.5334    0.0000 </r>
      </set>
      <set comment="kpoint 33">
       <r>  -17.5207    1.0000 </r>
       <r>  -17.2957    1.0000 </r>
       <r>  -16.8775    1.0000 </r>
       <r>  -16.6676    1.0000 </r>
       <r>  -16.4852    1.0000 </r>
       <r>  -16.4255    1.0000 </r>
       <r>  -16.2929    1.0000 </r>
       <r>  -16.1571    1.0000 </r>
       <r>  -16.1274    1.0000 </r>
       <r>  -16.0043    1.0000 </r>
       <r>  -15.8657    1.0000 </r>
       <r>  -15.8458    1.0000 </r>
       <r>  -15.7739    1.0000 </r>
       <r>  -15.6477    1.0000 </r>
       <r>  -15.6151    1.0000 </r>
       <r>  -15.5317    1.0000 </r>
       <r>  -15.4849    1.0000 </r>
       <r>  -15.4082    1.0000 </r>
       <r>   -9.7921    1.0000 </r>
       <r>   -9.4734    1.0000 </r>
       <r>   -9.3992    1.0000 </r>
       <r>   -9.0832    1.0000 </r>
       <r>   -8.7923    1.0000 </r>
       <r>   -8.7156    1.0000 </r>
       <r>   -8.6176    1.0000 </r>
       <r>   -8.5459    1.0000 </r>
       <r>   -8.3836    1.0000 </r>
       <r>   -8.3040    1.0000 </r>
       <r>   -8.2275    1.0000 </r>
       <r>   -8.1773    1.0000 </r>
       <r>   -8.0848    1.0000 </r>
       <r>   -8.0528    1.0000 </r>
       <r>   -7.9360    1.0000 </r>
       <r>   -7.8728    1.0000 </r>
       <r>   -7.8028    1.0000 </r>
       <r>   -7.7701    1.0000 </r>
       <r>   -7.5153    1.0000 </r>
       <r>   -7.4427    1.0000 </r>
       <r>   -7.3545    1.0000 </r>
       <r>   -7.2817    1.0000 </r>
       <r>   -7.0795    1.0000 </r>
       <r>   -7.0074    1.0000 </r>
       <r>   -6.9665    1.0000 </r>
       <r>   -6.8236    1.0000 </r>
       <r>   -6.7829    1.0000 </r>
       <r>   -6.7433    1.0000 </r>
       <r>   -6.7033    1.0000 </r>
       <r>   -6.6383    1.0000 </r>
       <r>   -6.5744    1.0000 </r>
       <r>   -6.4925    1.0000 </r>
       <r>   -6.4321    1.0000 </r>
       <r>   -6.3413    1.0000 </r>
       <r>   -6.3218    1.0000 </r>
       <r>   -6.2024    1.0000 </r>
       <r>   -6.1189    1.0000 </r>
       <r>   -6.0008    1.0000 </r>
       <r>   -5.9776    1.0000 </r>
       <r>   -5.9336    1.0000 </r>
       <r>   -5.8475    1.0000 </r>
       <r>   -5.7684    1.0000 </r>
       <r>   -5.6355    1.0000 </r>
       <r>   -5.6129    1.0000 </r>
       <r>   -5.5312    1.0000 </r>
       <r>   -5.4320    1.0000 </r>
       <r>   -5.3722    1.0000 </r>
       <r>   -5.1639    1.0000 </r>
       <r>   -5.0984    1.0000 </r>
       <r>   -4.8818    1.0000 </r>
       <r>   -4.7659    1.0000 </r>
       <r>   -4.7301    1.0000 </r>
       <r>   -4.6171    1.0000 </r>
       <r>   -4.4834    1.0000 </r>
       <r>   -4.4183    1.0000 </r>
       <r>   -4.3814    1.0000 </r>
       <r>   -4.2275    1.0000 </r>
       <r>   -3.9966    1.0000 </r>
       <r>   -3.8275    1.0000 </r>
       <r>   -3.4452    0.9723 </r>
       <r>   -3.2326    0.6598 </r>
       <r>   -3.1306    0.3784 </r>
       <r>   -3.0306    0.1546 </r>
       <r>   -2.9139    0.0328 </r>
       <r>   -2.8466    0.0102 </r>
       <r>   -2.7595    0.0017 </r>
       <r>   -2.6855    0.0003 </r>
       <r>   -2.6713    0.0002 </r>
       <r>   -2.4311    0.0000 </r>
       <r>   -2.4075    0.0000 </r>
       <r>   -2.2429    0.0000 </r>
       <r>   -2.1140    0.0000 </r>
       <r>   -1.8964    0.0000 </r>
       <r>   -1.7058    0.0000 </r>
       <r>   -1.3120    0.0000 </r>
       <r>   -1.2412    0.0000 </r>
       <r>   -1.1270    0.0000 </r>
       <r>   -1.0069    0.0000 </r>
       <r>   -0.9345    0.0000 </r>
       <r>   -0.8965    0.0000 </r>
       <r>   -0.8542    0.0000 </r>
       <r>   -0.7957    0.0000 </r>
       <r>   -0.7211    0.0000 </r>
       <r>   -0.6880    0.0000 </r>
       <r>   -0.5904    0.0000 </r>
       <r>   -0.5580    0.0000 </r>
       <r>   -0.4463    0.0000 </r>
       <r>   -0.3843    0.0000 </r>
       <r>   -0.1926    0.0000 </r>
       <r>   -0.1582    0.0000 </r>
       <r>   -0.0196    0.0000 </r>
       <r>    0.2736    0.0000 </r>
       <r>    0.2869    0.0000 </r>
       <r>    0.5602    0.0000 </r>
       <r>    0.5939    0.0000 </r>
       <r>    0.9174    0.0000 </r>
       <r>    1.1747    0.0000 </r>
       <r>    1.2502    0.0000 </r>
       <r>    1.4050    0.0000 </r>
       <r>    2.1318    0.0000 </r>
       <r>    2.3089    0.0000 </r>
       <r>    2.3971    0.0000 </r>
      </set>
      <set comment="kpoint 34">
       <r>  -17.4867    1.0000 </r>
       <r>  -17.3614    1.0000 </r>
       <r>  -16.7281    1.0000 </r>
       <r>  -16.6662    1.0000 </r>
       <r>  -16.6402    1.0000 </r>
       <r>  -16.4453    1.0000 </r>
       <r>  -16.2783    1.0000 </r>
       <r>  -16.1488    1.0000 </r>
       <r>  -16.1379    1.0000 </r>
       <r>  -15.9882    1.0000 </r>
       <r>  -15.8481    1.0000 </r>
       <r>  -15.8065    1.0000 </r>
       <r>  -15.7761    1.0000 </r>
       <r>  -15.6418    1.0000 </r>
       <r>  -15.6264    1.0000 </r>
       <r>  -15.5421    1.0000 </r>
       <r>  -15.4849    1.0000 </r>
       <r>  -15.4184    1.0000 </r>
       <r>   -9.8260    1.0000 </r>
       <r>   -9.4125    1.0000 </r>
       <r>   -9.3362    1.0000 </r>
       <r>   -9.0609    1.0000 </r>
       <r>   -8.8876    1.0000 </r>
       <r>   -8.8333    1.0000 </r>
       <r>   -8.6596    1.0000 </r>
       <r>   -8.5639    1.0000 </r>
       <r>   -8.3758    1.0000 </r>
       <r>   -8.3266    1.0000 </r>
       <r>   -8.1803    1.0000 </r>
       <r>   -8.1598    1.0000 </r>
       <r>   -8.0817    1.0000 </r>
       <r>   -7.9890    1.0000 </r>
       <r>   -7.8747    1.0000 </r>
       <r>   -7.8665    1.0000 </r>
       <r>   -7.7759    1.0000 </r>
       <r>   -7.6684    1.0000 </r>
       <r>   -7.6026    1.0000 </r>
       <r>   -7.5145    1.0000 </r>
       <r>   -7.3862    1.0000 </r>
       <r>   -7.2717    1.0000 </r>
       <r>   -7.0151    1.0000 </r>
       <r>   -6.9951    1.0000 </r>
       <r>   -6.9895    1.0000 </r>
       <r>   -6.8359    1.0000 </r>
       <r>   -6.7583    1.0000 </r>
       <r>   -6.7248    1.0000 </r>
       <r>   -6.6813    1.0000 </r>
       <r>   -6.6688    1.0000 </r>
       <r>   -6.5668    1.0000 </r>
       <r>   -6.4974    1.0000 </r>
       <r>   -6.4749    1.0000 </r>
       <r>   -6.3214    1.0000 </r>
       <r>   -6.3157    1.0000 </r>
       <r>   -6.1641    1.0000 </r>
       <r>   -6.0929    1.0000 </r>
       <r>   -6.0385    1.0000 </r>
       <r>   -6.0148    1.0000 </r>
       <r>   -5.9538    1.0000 </r>
       <r>   -5.8147    1.0000 </r>
       <r>   -5.7633    1.0000 </r>
       <r>   -5.6572    1.0000 </r>
       <r>   -5.6323    1.0000 </r>
       <r>   -5.5443    1.0000 </r>
       <r>   -5.4797    1.0000 </r>
       <r>   -5.4488    1.0000 </r>
       <r>   -5.2082    1.0000 </r>
       <r>   -4.9251    1.0000 </r>
       <r>   -4.8207    1.0000 </r>
       <r>   -4.7529    1.0000 </r>
       <r>   -4.6893    1.0000 </r>
       <r>   -4.6193    1.0000 </r>
       <r>   -4.4851    1.0000 </r>
       <r>   -4.4499    1.0000 </r>
       <r>   -4.3990    1.0000 </r>
       <r>   -4.2382    1.0000 </r>
       <r>   -4.0225    1.0000 </r>
       <r>   -3.8844    1.0000 </r>
       <r>   -3.3301    0.8646 </r>
       <r>   -3.3108    0.8327 </r>
       <r>   -3.1243    0.3618 </r>
       <r>   -3.0558    0.2010 </r>
       <r>   -2.8914    0.0227 </r>
       <r>   -2.8805    0.0189 </r>
       <r>   -2.7598    0.0017 </r>
       <r>   -2.6791    0.0002 </r>
       <r>   -2.6709    0.0002 </r>
       <r>   -2.4252    0.0000 </r>
       <r>   -2.4007    0.0000 </r>
       <r>   -2.2292    0.0000 </r>
       <r>   -2.1172    0.0000 </r>
       <r>   -1.9120    0.0000 </r>
       <r>   -1.6946    0.0000 </r>
       <r>   -1.3101    0.0000 </r>
       <r>   -1.2403    0.0000 </r>
       <r>   -1.1240    0.0000 </r>
       <r>   -0.9835    0.0000 </r>
       <r>   -0.9002    0.0000 </r>
       <r>   -0.8904    0.0000 </r>
       <r>   -0.8654    0.0000 </r>
       <r>   -0.8172    0.0000 </r>
       <r>   -0.7089    0.0000 </r>
       <r>   -0.7031    0.0000 </r>
       <r>   -0.6208    0.0000 </r>
       <r>   -0.5483    0.0000 </r>
       <r>   -0.4941    0.0000 </r>
       <r>   -0.3704    0.0000 </r>
       <r>   -0.2227    0.0000 </r>
       <r>   -0.1474    0.0000 </r>
       <r>   -0.0127    0.0000 </r>
       <r>    0.3332    0.0000 </r>
       <r>    0.3453    0.0000 </r>
       <r>    0.5479    0.0000 </r>
       <r>    0.5559    0.0000 </r>
       <r>    0.8970    0.0000 </r>
       <r>    1.1672    0.0000 </r>
       <r>    1.2719    0.0000 </r>
       <r>    1.4186    0.0000 </r>
       <r>    2.2041    0.0000 </r>
       <r>    2.2666    0.0000 </r>
       <r>    2.4068    0.0000 </r>
      </set>
     </set>
    </set>
   </array>
  </eigenvalues>
  <separator name="orbital magnetization" >
   <v name="MAGDIPOLOUT">      0.00000000      0.00000000      0.00000000</v>
  </separator>
 </calculation>
 <structure name="finalpos" >
  <crystal>
   <varray name="basis" >
    <v>       8.27920029       4.84272559       0.00000000 </v>
    <v>      -8.28125233       4.84623293       0.00000000 </v>
    <v>       0.00000000       0.00000000      30.00000000 </v>
   </varray>
   <i name="volume">   2406.80297024 </i>
   <varray name="rec_basis" >
    <v>       0.06040668       0.10322306       0.00000000 </v>
    <v>      -0.06036297       0.10319748       0.00000000 </v>
    <v>       0.00000000       0.00000000       0.03333333 </v>
   </varray>
  </crystal>
  <varray name="positions" >
   <v>       0.00606883       0.65278317       0.00017732 </v>
   <v>      -0.00240262      -0.00294761       0.00002085 </v>
   <v>       0.65431503       0.00595883      -0.00024624 </v>
   <v>       1.03447259       0.34909320      -0.00018761 </v>
   <v>       0.34908117       0.03494471       0.00024737 </v>
   <v>       0.64301277       0.64322848       0.00000703 </v>
   <v>       0.34221794       0.34227731       0.00000096 </v>
   <v>       0.32644181       0.63855379      -0.00021874 </v>
   <v>       0.63897165       0.32709222       0.00019698 </v>
   <v>       0.11289561       0.21650441       0.94795204 </v>
   <v>       0.21632460       0.11311565       0.05208995 </v>
   <v>       0.11431391       0.55865923       0.94579840 </v>
   <v>       0.22924859       0.44394836       0.05709643 </v>
   <v>       0.10930854       0.88723840       0.95192412 </v>
   <v>       0.22651298       0.78300468       0.04565636 </v>
   <v>       0.44407583       0.22958588       0.94294495 </v>
   <v>       0.55888097       0.11463865       0.05406805 </v>
   <v>       0.44193798       0.55314098       0.94325485 </v>
   <v>       0.55303884       0.44209509       0.05673839 </v>
   <v>       0.44139777       0.88737295       0.95227549 </v>
   <v>       0.55495773       0.78143381       0.05019034 </v>
   <v>       0.78279439       0.22652195       0.95424782 </v>
   <v>       0.88698881       0.10907232       0.04810426 </v>
   <v>       0.78172793       0.55541099       0.94982017 </v>
   <v>       0.88750746       0.44161376       0.04791573 </v>
   <v>       0.77381556       0.89024970       0.95362265 </v>
   <v>       0.89030778       0.77362355       0.04630202 </v>
  </varray>
 </structure>
</modeling>
