   27   27  100    1
  0.9710400E+02  0.1002848E-08  0.1002848E-08  0.3000000E-08  0.5000000E-15
  1.000000000000000E-004
  CAR 
 unknown system                          
    159     34    120
 
  0.0000000E+00  0.0000000E+00  0.0000000E+00  0.1562500E-01
    1      -17.834009   1.000000
    2      -16.637388   1.000000
    3      -16.587431   1.000000
    4      -16.534899   1.000000
    5      -16.476817   1.000000
    6      -16.464581   1.000000
    7      -16.356265   1.000000
    8      -16.307576   1.000000
    9      -16.109942   1.000000
   10      -16.083996   1.000000
   11      -16.033912   1.000000
   12      -15.973666   1.000000
   13      -15.870114   1.000000
   14      -15.859882   1.000000
   15      -15.601487   1.000000
   16      -15.510157   1.000000
   17      -15.479381   1.000000
   18      -15.376468   1.000000
   19       -9.385072   1.000000
   20       -8.942143   1.000000
   21       -8.830019   1.000000
   22       -8.767667   1.000000
   23       -8.697855   1.000000
   24       -8.653900   1.000000
   25       -8.635527   1.000000
   26       -8.494648   1.000000
   27       -8.471290   1.000000
   28       -8.417827   1.000000
   29       -8.376502   1.000000
   30       -8.289833   1.000000
   31       -8.237235   1.000000
   32       -8.189224   1.000000
   33       -8.095332   1.000000
   34       -8.059636   1.000000
   35       -7.893326   1.000000
   36       -7.885331   1.000000
   37       -7.716229   1.000000
   38       -7.565325   1.000000
   39       -7.535599   1.000000
   40       -7.448531   1.000000
   41       -7.355527   1.000000
   42       -7.222075   1.000000
   43       -7.192723   1.000000
   44       -6.872601   1.000000
   45       -6.794255   1.000000
   46       -6.774215   1.000000
   47       -6.700278   1.000000
   48       -6.642441   1.000000
   49       -6.582823   1.000000
   50       -6.536914   1.000000
   51       -6.480320   1.000000
   52       -6.399828   1.000000
   53       -6.323418   1.000000
   54       -6.257350   1.000000
   55       -6.232037   1.000000
   56       -6.084555   1.000000
   57       -6.013536   1.000000
   58       -5.885096   1.000000
   59       -5.650780   1.000000
   60       -5.582393   1.000000
   61       -5.455316   1.000000
   62       -5.428174   1.000000
   63       -5.362399   1.000000
   64       -5.181592   1.000000
   65       -4.996252   1.000000
   66       -4.920440   1.000000
   67       -4.740818   1.000000
   68       -4.727701   1.000000
   69       -4.659549   1.000000
   70       -4.619233   1.000000
   71       -4.512897   1.000000
   72       -4.488462   1.000000
   73       -4.433984   1.000000
   74       -4.312683   1.000000
   75       -4.201532   1.000000
   76       -4.065581   1.000000
   77       -3.540653   0.999688
   78       -3.514183   0.999388
   79       -3.414922   0.994322
   80       -3.117498   0.665848
   81       -3.032619   0.431832
   82       -2.761986   0.018518
   83       -2.582198   0.000394
   84       -2.502782   0.000045
   85       -2.471022   0.000017
   86       -2.440802   0.000007
   87       -2.298482   0.000000
   88       -2.223806   0.000000
   89       -2.180068   0.000000
   90       -2.049450   0.000000
   91       -1.902814   0.000000
   92       -1.700535   0.000000
   93       -1.600399   0.000000
   94       -1.546562   0.000000
   95       -1.425636   0.000000
   96       -1.253849   0.000000
   97       -1.192688   0.000000
   98       -0.988318   0.000000
   99       -0.794912   0.000000
  100       -0.453059   0.000000
  101       -0.382103   0.000000
  102       -0.328759   0.000000
  103       -0.310037   0.000000
  104       -0.244152   0.000000
  105       -0.050789   0.000000
  106        0.240473   0.000000
  107        0.292834   0.000000
  108        0.309664   0.000000
  109        0.358936   0.000000
  110        0.406607   0.000000
  111        0.444220   0.000000
  112        0.648390   0.000000
  113        0.726665   0.000000
  114        0.804794   0.000000
  115        0.881855   0.000000
  116        0.949074   0.000000
  117        1.007522   0.000000
  118        1.676960   0.000000
  119        1.836085   0.000000
  120        2.183952   0.000000
 
  0.1250000E+00  0.2775558E-16  0.0000000E+00  0.3125000E-01
    1      -17.809910   1.000000
    2      -16.696894   1.000000
    3      -16.639827   1.000000
    4      -16.592426   1.000000
    5      -16.535717   1.000000
    6      -16.387243   1.000000
    7      -16.327862   1.000000
    8      -16.267492   1.000000
    9      -16.128079   1.000000
   10      -16.091469   1.000000
   11      -15.974609   1.000000
   12      -15.944971   1.000000
   13      -15.888378   1.000000
   14      -15.781068   1.000000
   15      -15.628646   1.000000
   16      -15.524174   1.000000
   17      -15.476605   1.000000
   18      -15.388731   1.000000
   19       -9.397700   1.000000
   20       -9.030028   1.000000
   21       -8.967849   1.000000
   22       -8.872841   1.000000
   23       -8.775237   1.000000
   24       -8.694034   1.000000
   25       -8.626242   1.000000
   26       -8.543225   1.000000
   27       -8.500419   1.000000
   28       -8.418488   1.000000
   29       -8.354227   1.000000
   30       -8.229064   1.000000
   31       -8.170696   1.000000
   32       -8.088578   1.000000
   33       -8.010063   1.000000
   34       -7.891347   1.000000
   35       -7.824599   1.000000
   36       -7.721851   1.000000
   37       -7.660583   1.000000
   38       -7.594540   1.000000
   39       -7.539616   1.000000
   40       -7.527945   1.000000
   41       -7.281926   1.000000
   42       -7.197190   1.000000
   43       -7.165894   1.000000
   44       -6.956234   1.000000
   45       -6.863128   1.000000
   46       -6.772118   1.000000
   47       -6.726078   1.000000
   48       -6.674048   1.000000
   49       -6.576219   1.000000
   50       -6.530187   1.000000
   51       -6.477710   1.000000
   52       -6.362352   1.000000
   53       -6.331648   1.000000
   54       -6.286720   1.000000
   55       -6.235088   1.000000
   56       -6.126765   1.000000
   57       -5.997403   1.000000
   58       -5.808615   1.000000
   59       -5.706161   1.000000
   60       -5.540307   1.000000
   61       -5.448578   1.000000
   62       -5.397434   1.000000
   63       -5.258481   1.000000
   64       -5.147853   1.000000
   65       -5.085910   1.000000
   66       -5.025731   1.000000
   67       -4.963361   1.000000
   68       -4.869106   1.000000
   69       -4.749959   1.000000
   70       -4.711690   1.000000
   71       -4.607427   1.000000
   72       -4.292999   1.000000
   73       -4.247582   1.000000
   74       -4.174606   1.000000
   75       -4.056831   1.000000
   76       -3.917951   1.000000
   77       -3.746842   0.999999
   78       -3.625034   0.999971
   79       -3.480195   0.998619
   80       -3.009184   0.367899
   81       -2.908476   0.146966
   82       -2.790473   0.029786
   83       -2.597913   0.000586
   84       -2.567704   0.000271
   85       -2.476830   0.000021
   86       -2.439297   0.000006
   87       -2.317889   0.000000
   88       -2.237652   0.000000
   89       -2.191046   0.000000
   90       -2.074577   0.000000
   91       -1.879135   0.000000
   92       -1.710606   0.000000
   93       -1.553428   0.000000
   94       -1.494391   0.000000
   95       -1.394694   0.000000
   96       -1.221593   0.000000
   97       -1.181534   0.000000
   98       -0.976970   0.000000
   99       -0.780751   0.000000
  100       -0.522366   0.000000
  101       -0.469184   0.000000
  102       -0.426130   0.000000
  103       -0.388724   0.000000
  104       -0.217698   0.000000
  105       -0.060299   0.000000
  106        0.123182   0.000000
  107        0.147679   0.000000
  108        0.236464   0.000000
  109        0.284575   0.000000
  110        0.411734   0.000000
  111        0.440982   0.000000
  112        0.678170   0.000000
  113        0.825088   0.000000
  114        0.872387   0.000000
  115        0.954230   0.000000
  116        1.017093   0.000000
  117        1.061135   0.000000
  118        1.719383   0.000000
  119        1.875328   0.000000
  120        2.219172   0.000000
 
  0.2500000E+00  0.5551115E-16  0.0000000E+00  0.3125000E-01
    1      -17.740495   1.000000
    2      -16.913680   1.000000
    3      -16.682922   1.000000
    4      -16.627238   1.000000
    5      -16.563893   1.000000
    6      -16.332857   1.000000
    7      -16.306161   1.000000
    8      -16.231278   1.000000
    9      -16.136505   1.000000
   10      -16.049966   1.000000
   11      -15.949166   1.000000
   12      -15.858852   1.000000
   13      -15.847445   1.000000
   14      -15.704010   1.000000
   15      -15.645696   1.000000
   16      -15.551621   1.000000
   17      -15.487212   1.000000
   18      -15.421159   1.000000
   19       -9.533084   1.000000
   20       -9.165083   1.000000
   21       -9.117493   1.000000
   22       -8.986612   1.000000
   23       -8.901450   1.000000
   24       -8.853034   1.000000
   25       -8.575159   1.000000
   26       -8.507332   1.000000
   27       -8.455913   1.000000
   28       -8.387431   1.000000
   29       -8.285422   1.000000
   30       -8.232249   1.000000
   31       -8.114661   1.000000
   32       -8.015664   1.000000
   33       -7.873171   1.000000
   34       -7.783427   1.000000
   35       -7.718165   1.000000
   36       -7.673748   1.000000
   37       -7.644143   1.000000
   38       -7.519926   1.000000
   39       -7.399745   1.000000
   40       -7.327725   1.000000
   41       -7.227188   1.000000
   42       -7.126515   1.000000
   43       -7.049993   1.000000
   44       -6.973970   1.000000
   45       -6.935488   1.000000
   46       -6.831323   1.000000
   47       -6.785694   1.000000
   48       -6.710050   1.000000
   49       -6.614745   1.000000
   50       -6.591904   1.000000
   51       -6.474079   1.000000
   52       -6.383939   1.000000
   53       -6.307910   1.000000
   54       -6.241857   1.000000
   55       -6.145312   1.000000
   56       -6.113997   1.000000
   57       -5.970100   1.000000
   58       -5.789574   1.000000
   59       -5.691830   1.000000
   60       -5.564730   1.000000
   61       -5.509207   1.000000
   62       -5.464531   1.000000
   63       -5.413374   1.000000
   64       -5.281205   1.000000
   65       -5.221954   1.000000
   66       -5.180484   1.000000
   67       -5.038831   1.000000
   68       -4.887287   1.000000
   69       -4.729386   1.000000
   70       -4.707311   1.000000
   71       -4.633498   1.000000
   72       -4.249412   1.000000
   73       -4.135427   1.000000
   74       -4.031548   1.000000
   75       -3.950506   1.000000
   76       -3.914062   1.000000
   77       -3.765395   1.000000
   78       -3.667334   0.999992
   79       -3.442085   0.996772
   80       -2.940646   0.205522
   81       -2.845763   0.067721
   82       -2.815495   0.043910
   83       -2.667193   0.002929
   84       -2.588330   0.000461
   85       -2.497614   0.000038
   86       -2.404040   0.000002
   87       -2.348571   0.000000
   88       -2.302221   0.000000
   89       -2.234521   0.000000
   90       -2.094046   0.000000
   91       -1.836071   0.000000
   92       -1.689165   0.000000
   93       -1.525592   0.000000
   94       -1.387200   0.000000
   95       -1.311833   0.000000
   96       -1.176498   0.000000
   97       -1.117693   0.000000
   98       -0.952709   0.000000
   99       -0.767650   0.000000
  100       -0.695374   0.000000
  101       -0.633698   0.000000
  102       -0.556483   0.000000
  103       -0.470160   0.000000
  104       -0.308117   0.000000
  105       -0.180494   0.000000
  106       -0.094936   0.000000
  107       -0.051273   0.000000
  108        0.100589   0.000000
  109        0.192734   0.000000
  110        0.355477   0.000000
  111        0.440817   0.000000
  112        0.720557   0.000000
  113        0.919644   0.000000
  114        0.992290   0.000000
  115        1.056637   0.000000
  116        1.172698   0.000000
  117        1.250430   0.000000
  118        1.839257   0.000000
  119        1.989122   0.000000
  120        2.323798   0.000000
 
  0.3750000E+00  0.0000000E+00  0.0000000E+00  0.3125000E-01
    1      -17.639991   1.000000
    2      -17.119205   1.000000
    3      -16.719634   1.000000
    4      -16.667054   1.000000
    5      -16.538732   1.000000
    6      -16.380230   1.000000
    7      -16.277613   1.000000
    8      -16.197268   1.000000
    9      -16.089838   1.000000
   10      -16.013469   1.000000
   11      -15.914938   1.000000
   12      -15.826832   1.000000
   13      -15.781490   1.000000
   14      -15.742800   1.000000
   15      -15.612132   1.000000
   16      -15.535790   1.000000
   17      -15.505487   1.000000
   18      -15.452713   1.000000
   19       -9.730009   1.000000
   20       -9.261563   1.000000
   21       -9.153637   1.000000
   22       -9.021563   1.000000
   23       -8.988157   1.000000
   24       -8.958041   1.000000
   25       -8.512515   1.000000
   26       -8.442471   1.000000
   27       -8.402048   1.000000
   28       -8.358909   1.000000
   29       -8.271623   1.000000
   30       -8.221949   1.000000
   31       -8.140853   1.000000
   32       -7.950510   1.000000
   33       -7.890641   1.000000
   34       -7.807350   1.000000
   35       -7.778238   1.000000
   36       -7.623678   1.000000
   37       -7.568296   1.000000
   38       -7.425114   1.000000
   39       -7.281266   1.000000
   40       -7.226738   1.000000
   41       -7.174117   1.000000
   42       -7.103775   1.000000
   43       -7.002281   1.000000
   44       -6.906667   1.000000
   45       -6.847158   1.000000
   46       -6.803876   1.000000
   47       -6.715064   1.000000
   48       -6.645086   1.000000
   49       -6.609942   1.000000
   50       -6.552328   1.000000
   51       -6.412561   1.000000
   52       -6.307978   1.000000
   53       -6.273794   1.000000
   54       -6.194655   1.000000
   55       -6.094154   1.000000
   56       -5.973603   1.000000
   57       -5.936986   1.000000
   58       -5.904875   1.000000
   59       -5.834008   1.000000
   60       -5.742984   1.000000
   61       -5.722685   1.000000
   62       -5.675243   1.000000
   63       -5.659750   1.000000
   64       -5.521699   1.000000
   65       -5.193493   1.000000
   66       -5.063088   1.000000
   67       -4.948847   1.000000
   68       -4.824758   1.000000
   69       -4.749436   1.000000
   70       -4.676795   1.000000
   71       -4.659070   1.000000
   72       -4.575523   1.000000
   73       -4.192583   1.000000
   74       -4.028078   1.000000
   75       -3.855633   1.000000
   76       -3.753124   1.000000
   77       -3.612539   0.999957
   78       -3.468612   0.998200
   79       -3.362424   0.984628
   80       -3.004724   0.356079
   81       -2.961991   0.251069
   82       -2.837630   0.060512
   83       -2.634889   0.001422
   84       -2.571203   0.000297
   85       -2.503514   0.000046
   86       -2.436060   0.000006
   87       -2.370334   0.000001
   88       -2.297889   0.000000
   89       -2.251007   0.000000
   90       -2.093424   0.000000
   91       -1.813243   0.000000
   92       -1.656182   0.000000
   93       -1.504139   0.000000
   94       -1.362672   0.000000
   95       -1.227266   0.000000
   96       -1.152376   0.000000
   97       -1.028263   0.000000
   98       -0.958911   0.000000
   99       -0.829212   0.000000
  100       -0.789248   0.000000
  101       -0.712774   0.000000
  102       -0.620913   0.000000
  103       -0.546670   0.000000
  104       -0.430835   0.000000
  105       -0.361783   0.000000
  106       -0.268342   0.000000
  107       -0.231872   0.000000
  108        0.035218   0.000000
  109        0.102647   0.000000
  110        0.315854   0.000000
  111        0.438154   0.000000
  112        0.746308   0.000000
  113        0.973623   0.000000
  114        1.092243   0.000000
  115        1.142872   0.000000
  116        1.308434   0.000000
  117        1.404575   0.000000
  118        2.022867   0.000000
  119        2.167776   0.000000
  120        2.493258   0.000000
 
  0.5000000E+00  0.1110223E-15  0.0000000E+00  0.1562500E-01
    1      -17.573515   1.000000
    2      -17.222517   1.000000
    3      -16.732792   1.000000
    4      -16.682072   1.000000
    5      -16.518248   1.000000
    6      -16.409174   1.000000
    7      -16.274414   1.000000
    8      -16.191345   1.000000
    9      -16.030421   1.000000
   10      -16.009124   1.000000
   11      -15.914906   1.000000
   12      -15.836819   1.000000
   13      -15.751334   1.000000
   14      -15.724847   1.000000
   15      -15.636755   1.000000
   16      -15.537524   1.000000
   17      -15.510714   1.000000
   18      -15.443935   1.000000
   19       -9.808716   1.000000
   20       -9.300668   1.000000
   21       -9.172232   1.000000
   22       -9.042288   1.000000
   23       -9.019782   1.000000
   24       -8.944830   1.000000
   25       -8.489110   1.000000
   26       -8.438069   1.000000
   27       -8.389111   1.000000
   28       -8.354268   1.000000
   29       -8.271925   1.000000
   30       -8.202126   1.000000
   31       -8.120173   1.000000
   32       -7.927247   1.000000
   33       -7.871232   1.000000
   34       -7.840815   1.000000
   35       -7.818989   1.000000
   36       -7.667059   1.000000
   37       -7.556427   1.000000
   38       -7.403336   1.000000
   39       -7.296015   1.000000
   40       -7.258076   1.000000
   41       -7.110937   1.000000
   42       -7.040151   1.000000
   43       -6.944345   1.000000
   44       -6.853884   1.000000
   45       -6.804195   1.000000
   46       -6.759861   1.000000
   47       -6.694938   1.000000
   48       -6.597196   1.000000
   49       -6.529843   1.000000
   50       -6.413950   1.000000
   51       -6.403048   1.000000
   52       -6.349951   1.000000
   53       -6.275285   1.000000
   54       -6.152896   1.000000
   55       -6.138874   1.000000
   56       -6.044793   1.000000
   57       -5.989539   1.000000
   58       -5.842317   1.000000
   59       -5.811335   1.000000
   60       -5.788493   1.000000
   61       -5.742485   1.000000
   62       -5.715602   1.000000
   63       -5.686715   1.000000
   64       -5.583833   1.000000
   65       -5.483091   1.000000
   66       -5.028984   1.000000
   67       -5.005544   1.000000
   68       -4.850420   1.000000
   69       -4.730516   1.000000
   70       -4.680258   1.000000
   71       -4.651348   1.000000
   72       -4.490998   1.000000
   73       -4.345355   1.000000
   74       -3.996777   1.000000
   75       -3.765772   1.000000
   76       -3.713827   0.999998
   77       -3.537936   0.999665
   78       -3.399573   0.992305
   79       -3.268013   0.932253
   80       -3.130489   0.698584
   81       -2.993093   0.325924
   82       -2.821172   0.047771
   83       -2.648566   0.001942
   84       -2.604760   0.000694
   85       -2.490890   0.000031
   86       -2.421109   0.000003
   87       -2.390651   0.000001
   88       -2.280418   0.000000
   89       -2.243580   0.000000
   90       -2.091547   0.000000
   91       -1.807105   0.000000
   92       -1.640833   0.000000
   93       -1.497998   0.000000
   94       -1.363650   0.000000
   95       -1.208174   0.000000
   96       -1.152116   0.000000
   97       -0.994553   0.000000
   98       -0.967409   0.000000
   99       -0.875657   0.000000
  100       -0.785806   0.000000
  101       -0.718971   0.000000
  102       -0.640937   0.000000
  103       -0.567219   0.000000
  104       -0.485183   0.000000
  105       -0.450303   0.000000
  106       -0.338919   0.000000
  107       -0.310729   0.000000
  108        0.014817   0.000000
  109        0.072949   0.000000
  110        0.303945   0.000000
  111        0.434493   0.000000
  112        0.753941   0.000000
  113        0.994435   0.000000
  114        1.128423   0.000000
  115        1.177075   0.000000
  116        1.360803   0.000000
  117        1.454494   0.000000
  118        2.246780   0.000000
  119        2.270926   0.000000
  120        2.382024   0.000000
 
  0.0000000E+00  0.1250000E+00  0.0000000E+00  0.3125000E-01
    1      -17.807872   1.000000
    2      -16.764299   1.000000
    3      -16.617599   1.000000
    4      -16.568439   1.000000
    5      -16.508863   1.000000
    6      -16.362266   1.000000
    7      -16.302839   1.000000
    8      -16.281688   1.000000
    9      -16.169866   1.000000
   10      -16.087038   1.000000
   11      -16.030986   1.000000
   12      -15.903287   1.000000
   13      -15.849689   1.000000
   14      -15.814591   1.000000
   15      -15.617147   1.000000
   16      -15.538682   1.000000
   17      -15.477019   1.000000
   18      -15.382267   1.000000
   19       -9.371163   1.000000
   20       -9.175495   1.000000
   21       -8.917952   1.000000
   22       -8.849374   1.000000
   23       -8.775443   1.000000
   24       -8.633620   1.000000
   25       -8.591961   1.000000
   26       -8.536111   1.000000
   27       -8.485033   1.000000
   28       -8.411560   1.000000
   29       -8.301220   1.000000
   30       -8.246230   1.000000
   31       -8.191941   1.000000
   32       -8.133629   1.000000
   33       -7.997284   1.000000
   34       -7.956107   1.000000
   35       -7.840332   1.000000
   36       -7.747429   1.000000
   37       -7.720007   1.000000
   38       -7.569992   1.000000
   39       -7.502505   1.000000
   40       -7.422512   1.000000
   41       -7.355824   1.000000
   42       -7.210187   1.000000
   43       -7.153485   1.000000
   44       -6.963682   1.000000
   45       -6.851520   1.000000
   46       -6.812427   1.000000
   47       -6.728673   1.000000
   48       -6.612877   1.000000
   49       -6.584840   1.000000
   50       -6.529003   1.000000
   51       -6.429610   1.000000
   52       -6.361225   1.000000
   53       -6.352872   1.000000
   54       -6.305559   1.000000
   55       -6.212258   1.000000
   56       -6.116635   1.000000
   57       -6.048277   1.000000
   58       -5.840067   1.000000
   59       -5.662749   1.000000
   60       -5.583080   1.000000
   61       -5.458291   1.000000
   62       -5.322510   1.000000
   63       -5.280537   1.000000
   64       -5.154556   1.000000
   65       -5.127919   1.000000
   66       -5.077854   1.000000
   67       -4.981231   1.000000
   68       -4.877039   1.000000
   69       -4.662645   1.000000
   70       -4.642970   1.000000
   71       -4.541273   1.000000
   72       -4.360463   1.000000
   73       -4.318163   1.000000
   74       -4.103594   1.000000
   75       -4.061477   1.000000
   76       -3.965960   1.000000
   77       -3.685039   0.999996
   78       -3.646618   0.999985
   79       -3.519433   0.999463
   80       -2.995497   0.332071
   81       -2.924366   0.174334
   82       -2.776321   0.023627
   83       -2.651160   0.002059
   84       -2.523829   0.000082
   85       -2.478915   0.000022
   86       -2.425652   0.000004
   87       -2.292052   0.000000
   88       -2.217236   0.000000
   89       -2.191522   0.000000
   90       -2.063000   0.000000
   91       -1.909314   0.000000
   92       -1.678114   0.000000
   93       -1.585642   0.000000
   94       -1.523677   0.000000
   95       -1.404352   0.000000
   96       -1.241607   0.000000
   97       -1.181462   0.000000
   98       -0.936777   0.000000
   99       -0.776164   0.000000
  100       -0.527413   0.000000
  101       -0.479192   0.000000
  102       -0.405736   0.000000
  103       -0.350047   0.000000
  104       -0.271031   0.000000
  105       -0.114651   0.000000
  106        0.110777   0.000000
  107        0.202635   0.000000
  108        0.278605   0.000000
  109        0.328415   0.000000
  110        0.430896   0.000000
  111        0.512994   0.000000
  112        0.551345   0.000000
  113        0.770760   0.000000
  114        0.822543   0.000000
  115        0.922350   0.000000
  116        1.053792   0.000000
  117        1.124751   0.000000
  118        1.719454   0.000000
  119        1.876481   0.000000
  120        2.219134   0.000000
 
  0.1250000E+00  0.1250000E+00  0.0000000E+00  0.3125000E-01
    1      -17.760878   1.000000
    2      -16.843242   1.000000
    3      -16.778456   1.000000
    4      -16.588670   1.000000
    5      -16.417672   1.000000
    6      -16.386585   1.000000
    7      -16.290409   1.000000
    8      -16.248506   1.000000
    9      -16.164895   1.000000
   10      -16.073314   1.000000
   11      -15.988331   1.000000
   12      -15.903605   1.000000
   13      -15.781135   1.000000
   14      -15.730599   1.000000
   15      -15.662163   1.000000
   16      -15.560189   1.000000
   17      -15.485464   1.000000
   18      -15.397057   1.000000
   19       -9.423191   1.000000
   20       -9.316292   1.000000
   21       -9.049735   1.000000
   22       -9.006832   1.000000
   23       -8.798168   1.000000
   24       -8.651100   1.000000
   25       -8.577304   1.000000
   26       -8.534641   1.000000
   27       -8.490148   1.000000
   28       -8.380229   1.000000
   29       -8.279559   1.000000
   30       -8.251111   1.000000
   31       -8.144248   1.000000
   32       -8.068716   1.000000
   33       -7.983962   1.000000
   34       -7.805936   1.000000
   35       -7.780978   1.000000
   36       -7.702100   1.000000
   37       -7.572010   1.000000
   38       -7.477203   1.000000
   39       -7.403575   1.000000
   40       -7.362828   1.000000
   41       -7.266708   1.000000
   42       -7.187869   1.000000
   43       -7.111837   1.000000
   44       -7.056119   1.000000
   45       -6.900541   1.000000
   46       -6.818522   1.000000
   47       -6.744791   1.000000
   48       -6.705074   1.000000
   49       -6.607631   1.000000
   50       -6.547871   1.000000
   51       -6.448786   1.000000
   52       -6.390031   1.000000
   53       -6.320973   1.000000
   54       -6.258970   1.000000
   55       -6.190840   1.000000
   56       -6.118366   1.000000
   57       -6.021560   1.000000
   58       -5.804567   1.000000
   59       -5.722987   1.000000
   60       -5.479684   1.000000
   61       -5.427807   1.000000
   62       -5.395147   1.000000
   63       -5.379878   1.000000
   64       -5.342117   1.000000
   65       -5.177863   1.000000
   66       -5.034852   1.000000
   67       -5.015691   1.000000
   68       -4.940915   1.000000
   69       -4.877440   1.000000
   70       -4.784126   1.000000
   71       -4.386713   1.000000
   72       -4.266415   1.000000
   73       -4.187771   1.000000
   74       -4.035487   1.000000
   75       -3.930005   1.000000
   76       -3.891528   1.000000
   77       -3.801685   1.000000
   78       -3.747319   0.999999
   79       -3.509781   0.999318
   80       -2.940759   0.205750
   81       -2.826648   0.051747
   82       -2.780660   0.025390
   83       -2.645748   0.001823
   84       -2.590605   0.000488
   85       -2.511302   0.000057
   86       -2.440433   0.000007
   87       -2.308696   0.000000
   88       -2.262017   0.000000
   89       -2.212382   0.000000
   90       -2.055821   0.000000
   91       -1.877228   0.000000
   92       -1.671864   0.000000
   93       -1.522472   0.000000
   94       -1.467578   0.000000
   95       -1.358742   0.000000
   96       -1.204183   0.000000
   97       -1.166020   0.000000
   98       -0.922902   0.000000
   99       -0.752646   0.000000
  100       -0.623215   0.000000
  101       -0.606272   0.000000
  102       -0.519467   0.000000
  103       -0.491755   0.000000
  104       -0.300644   0.000000
  105       -0.114590   0.000000
  106       -0.037899   0.000000
  107        0.016585   0.000000
  108        0.175817   0.000000
  109        0.179501   0.000000
  110        0.434839   0.000000
  111        0.504526   0.000000
  112        0.637951   0.000000
  113        0.815735   0.000000
  114        0.951481   0.000000
  115        1.039957   0.000000
  116        1.142887   0.000000
  117        1.203565   0.000000
  118        1.799853   0.000000
  119        1.953304   0.000000
  120        2.288681   0.000000
 
  0.2500000E+00  0.1250000E+00  0.0000000E+00  0.3125000E-01
    1      -17.673245   1.000000
    2      -17.004031   1.000000
    3      -16.902250   1.000000
    4      -16.559010   1.000000
    5      -16.446112   1.000000
    6      -16.343576   1.000000
    7      -16.310272   1.000000
    8      -16.197872   1.000000
    9      -16.150329   1.000000
   10      -16.026725   1.000000
   11      -15.930502   1.000000
   12      -15.893338   1.000000
   13      -15.767540   1.000000
   14      -15.704934   1.000000
   15      -15.615477   1.000000
   16      -15.576110   1.000000
   17      -15.514009   1.000000
   18      -15.410993   1.000000
   19       -9.612849   1.000000
   20       -9.432060   1.000000
   21       -9.177463   1.000000
   22       -9.048045   1.000000
   23       -8.854191   1.000000
   24       -8.705872   1.000000
   25       -8.524513   1.000000
   26       -8.451523   1.000000
   27       -8.429131   1.000000
   28       -8.342386   1.000000
   29       -8.284187   1.000000
   30       -8.221373   1.000000
   31       -8.153631   1.000000
   32       -8.067691   1.000000
   33       -7.980978   1.000000
   34       -7.878009   1.000000
   35       -7.792460   1.000000
   36       -7.579859   1.000000
   37       -7.419810   1.000000
   38       -7.394651   1.000000
   39       -7.314496   1.000000
   40       -7.265416   1.000000
   41       -7.200771   1.000000
   42       -7.123495   1.000000
   43       -7.033822   1.000000
   44       -6.936310   1.000000
   45       -6.874074   1.000000
   46       -6.812046   1.000000
   47       -6.766133   1.000000