<?xml version="1.0" encoding="ISO-8859-1"?>
<modeling>
 <generator>
  <i name="program" type="string">vasp </i>
  <i name="version" type="string">5.4.1  </i>
  <i name="subversion" type="string">05Feb16 (build Jul 05 2020 17:13:04) complex                          parallel </i>
  <i name="platform" type="string">IFC91_ompi </i>
  <i name="date" type="string">2024 04 24 </i>
  <i name="time" type="string">21:34:39 </i>
 </generator>
 <incar>
  <i type="int" name="ISTART">     0</i>
  <i type="string" name="PREC">normal</i>
  <i type="string" name="ALGO"> Normal</i>
  <i type="int" name="ISPIN">     1</i>
  <i type="int" name="ICHARG">     2</i>
  <i type="int" name="IBRION">     1</i>
  <i type="int" name="NSW">   100</i>
  <i type="int" name="ISIF">     3</i>
  <i type="int" name="ISYM">     0</i>
  <i name="SYMPREC">      0.00000001</i>
  <i name="POTIM">      0.50000000</i>
  <i type="logical" name="LREAL"> F  </i>
  <i type="logical" name="LPLANE"> F  </i>
  <i type="int" name="ISMEAR">     0</i>
  <i type="logical" name="LWAVE"> F  </i>
  <i type="logical" name="LCHARG"> F  </i>
  <v type="int" name="KPOINT_BSE">    -1     0     0     0</v>
 </incar>
 <kpoints>
  <generation param="Gamma">
   <v type="int" name="divisions">       8        8        1 </v>
   <v name="usershift">      0.00000000       0.00000000       0.00000000 </v>
   <v name="genvec1">      0.12500000       0.00000000       0.00000000 </v>
   <v name="genvec2">     -0.00000000       0.12500000       0.00000000 </v>
   <v name="genvec3">      0.00000000       0.00000000       1.00000000 </v>
   <v name="shift">      0.00000000       0.00000000       0.00000000 </v>
  </generation>
  <varray name="kpointlist" >
   <v>       0.00000000       0.00000000       0.00000000 </v>
   <v>       0.12500000       0.00000000       0.00000000 </v>
   <v>       0.25000000       0.00000000       0.00000000 </v>
   <v>       0.37500000       0.00000000       0.00000000 </v>
   <v>       0.50000000       0.00000000       0.00000000 </v>
   <v>       0.00000000       0.12500000       0.00000000 </v>
   <v>       0.12500000       0.12500000       0.00000000 </v>
   <v>       0.25000000       0.12500000       0.00000000 </v>
   <v>       0.37500000       0.12500000       0.00000000 </v>
   <v>       0.50000000       0.12500000       0.00000000 </v>
   <v>      -0.37500000       0.12500000       0.00000000 </v>
   <v>      -0.25000000       0.12500000       0.00000000 </v>
   <v>      -0.12500000       0.12500000       0.00000000 </v>
   <v>       0.00000000       0.25000000       0.00000000 </v>
   <v>       0.12500000       0.25000000       0.00000000 </v>
   <v>       0.25000000       0.25000000       0.00000000 </v>
   <v>       0.37500000       0.25000000       0.00000000 </v>
   <v>       0.50000000       0.25000000       0.00000000 </v>
   <v>      -0.37500000       0.25000000       0.00000000 </v>
   <v>      -0.25000000       0.25000000       0.00000000 </v>
   <v>      -0.12500000       0.25000000       0.00000000 </v>
   <v>      -0.00000000       0.37500000       0.00000000 </v>
   <v>       0.12500000       0.37500000       0.00000000 </v>
   <v>       0.25000000       0.37500000       0.00000000 </v>
   <v>       0.37500000       0.37500000       0.00000000 </v>
   <v>       0.50000000       0.37500000       0.00000000 </v>
   <v>      -0.37500000       0.37500000       0.00000000 </v>
   <v>      -0.25000000       0.37500000       0.00000000 </v>
   <v>      -0.12500000       0.37500000       0.00000000 </v>
   <v>       0.00000000       0.50000000       0.00000000 </v>
   <v>       0.12500000       0.50000000       0.00000000 </v>
   <v>       0.25000000       0.50000000       0.00000000 </v>
   <v>       0.37500000       0.50000000       0.00000000 </v>
   <v>       0.50000000       0.50000000       0.00000000 </v>
  </varray>
  <varray name="weights" >
   <v>       0.01562500 </v>
   <v>       0.03125000 </v>
   <v>       0.03125000 </v>
   <v>       0.03125000 </v>
   <v>       0.01562500 </v>
   <v>       0.03125000 </v>
   <v>       0.03125000 </v>
   <v>       0.03125000 </v>
   <v>       0.03125000 </v>
   <v>       0.03125000 </v>
   <v>       0.03125000 </v>
   <v>       0.03125000 </v>
   <v>       0.03125000 </v>
   <v>       0.03125000 </v>
   <v>       0.03125000 </v>
   <v>       0.03125000 </v>
   <v>       0.03125000 </v>
   <v>       0.03125000 </v>
   <v>       0.03125000 </v>
   <v>       0.03125000 </v>
   <v>       0.03125000 </v>
   <v>       0.03125000 </v>
   <v>       0.03125000 </v>
   <v>       0.03125000 </v>
   <v>       0.03125000 </v>
   <v>       0.03125000 </v>
   <v>       0.03125000 </v>
   <v>       0.03125000 </v>
   <v>       0.03125000 </v>
   <v>       0.01562500 </v>
   <v>       0.03125000 </v>
   <v>       0.03125000 </v>
   <v>       0.03125000 </v>
   <v>       0.01562500 </v>
  </varray>
 </kpoints>
 <parameters>
  <separator name="general" >
   <i type="string" name="SYSTEM">unknown system</i>
   <i type="logical" name="LCOMPAT"> F  </i>
  </separator>
  <separator name="electronic" >
   <i type="string" name="PREC">normal</i>
   <i name="ENMAX">    280.00000000</i>
   <i name="ENAUG">    373.43800000</i>
   <i name="EDIFF">      0.00010000</i>
   <i type="int" name="IALGO">    38</i>
   <i type="int" name="IWAVPR">    11</i>
   <i type="int" name="NBANDS">   120</i>
   <i name="NELECT">    159.00000000</i>
   <i type="int" name="TURBO">     0</i>
   <i type="int" name="IRESTART">     0</i>
   <i type="int" name="NREBOOT">     0</i>
   <i type="int" name="NMIN">     0</i>
   <i name="EREF">      0.00000000</i>
   <separator name="electronic smearing" >
    <i type="int" name="ISMEAR">     0</i>
    <i name="SIGMA">      0.20000000</i>
    <i name="KSPACING">      0.50000000</i>
    <i type="logical" name="KGAMMA"> T  </i>
   </separator>
   <separator name="electronic projectors" >
    <i type="logical" name="LREAL"> F  </i>
    <v name="ROPT">      0.00000000      0.00000000      0.00000000      0.00000000</v>
    <i type="int" name="LMAXPAW">  -100</i>
    <i type="int" name="LMAXMIX">     2</i>
    <i type="logical" name="NLSPLINE"> F  </i>
   </separator>
   <separator name="electronic startup" >
    <i type="int" name="ISTART">     0</i>
    <i type="int" name="ICHARG">     2</i>
    <i type="int" name="INIWAV">     1</i>
   </separator>
   <separator name="electronic spin" >
    <i type="int" name="ISPIN">     1</i>
    <i type="logical" name="LNONCOLLINEAR"> F  </i>
    <v name="MAGMOM">      1.00000000      1.00000000      1.00000000      1.00000000      1.00000000      1.00000000      1.00000000      1.00000000      1.00000000      1.00000000      1.00000000      1.00000000      1.00000000      1.00000000      1.00000000      1.00000000      1.00000000      1.00000000      1.00000000      1.00000000
      1.00000000      1.00000000      1.00000000      1.00000000      1.00000000      1.00000000      1.00000000</v>
    <i name="NUPDOWN">     -1.00000000</i>
    <i type="logical" name="LSORBIT"> F  </i>
    <v name="SAXIS">      0.00000000      0.00000000      1.00000000</v>
    <i type="logical" name="LSPIRAL"> F  </i>
    <v name="QSPIRAL">      0.00000000      0.00000000      0.00000000</v>
    <i type="logical" name="LZEROZ"> F  </i>
   </separator>
   <separator name="electronic exchange-correlation" >
    <i type="logical" name="LASPH"> F  </i>
    <i type="logical" name="LMETAGGA"> F  </i>
   </separator>
   <separator name="electronic convergence" >
    <i type="int" name="NELM">    60</i>
    <i type="int" name="NELMDL">    -5</i>
    <i type="int" name="NELMIN">     2</i>
    <i name="ENINI">    280.00000000</i>
    <separator name="electronic convergence detail" >
     <i type="logical" name="LDIAG"> T  </i>
     <i type="logical" name="LSUBROT"> F  </i>
     <i name="WEIMIN">      0.00100000</i>
     <i name="EBREAK">      0.00000021</i>
     <i name="DEPER">      0.30000000</i>
     <i type="int" name="NRMM">     4</i>
     <i name="TIME">      0.40000000</i>
    </separator>
   </separator>
   <separator name="electronic mixer" >
    <i name="AMIX">      0.40000000</i>
    <i name="BMIX">      1.00000000</i>
    <i name="AMIN">      0.10000000</i>
    <i name="AMIX_MAG">      1.60000000</i>
    <i name="BMIX_MAG">      1.00000000</i>
    <separator name="electronic mixer details" >
     <i type="int" name="IMIX">     4</i>
     <i type="logical" name="MIXFIRST"> F  </i>
     <i type="int" name="MAXMIX">   -45</i>
     <i name="WC">    100.00000000</i>
     <i type="int" name="INIMIX">     1</i>
     <i type="int" name="MIXPRE">     1</i>
     <i type="int" name="MREMOVE">     5</i>
    </separator>
   </separator>
   <separator name="electronic dipolcorrection" >
    <i type="logical" name="LDIPOL"> F  </i>
    <i type="logical" name="LMONO"> F  </i>
    <i type="int" name="IDIPOL">     0</i>
    <i name="EPSILON">      1.00000000</i>
    <v name="DIPOL">   -100.00000000   -100.00000000   -100.00000000</v>
    <i name="EFIELD">      0.00000000</i>
   </separator>
  </separator>
  <separator name="grids" >
   <i type="int" name="NGX">    42</i>
   <i type="int" name="NGY">    42</i>
   <i type="int" name="NGZ">   126</i>
   <i type="int" name="NGXF">    84</i>
   <i type="int" name="NGYF">    84</i>
   <i type="int" name="NGZF">   252</i>
   <i type="logical" name="ADDGRID"> F  </i>
  </separator>
  <separator name="ionic" >
   <i type="int" name="NSW">   100</i>
   <i type="int" name="IBRION">     1</i>
   <i type="int" name="ISIF">     3</i>
   <i name="PSTRESS">      0.00000000</i>
   <i name="EDIFFG">      0.00100000</i>
   <i type="int" name="NFREE">     0</i>
   <i name="POTIM">      0.50000000</i>
   <i name="SMASS">     -3.00000000</i>
   <i name="SCALEE">      1.00000000</i>
  </separator>
  <separator name="ionic md" >
   <i name="TEBEG">      0.00010000</i>
   <i name="TEEND">      0.00010000</i>
   <i type="int" name="NBLOCK">     1</i>
   <i type="int" name="KBLOCK">   100</i>
   <i type="int" name="NPACO">   256</i>
   <i name="APACO">     16.00000000</i>
  </separator>
  <separator name="symmetry" >
   <i type="int" name="ISYM">     0</i>
   <i name="SYMPREC">      0.00000001</i>
  </separator>
  <separator name="dos" >
   <i type="logical" name="LORBIT"> F  </i>
   <v name="RWIGS">     -1.00000000     -1.00000000     -1.00000000     -1.00000000</v>
   <i type="int" name="NEDOS">   301</i>
   <i name="EMIN">     10.00000000</i>
   <i name="EMAX">    -10.00000000</i>
   <i name="EFERMI">      0.00000000</i>
  </separator>
  <separator name="writing" >
   <i type="int" name="NWRITE">     2</i>
   <i type="logical" name="LWAVE"> F  </i>
   <i type="logical" name="LCHARG"> F  </i>
   <i type="logical" name="LPARD"> F  </i>
   <i type="logical" name="LVTOT"> F  </i>
   <i type="logical" name="LVHAR"> F  </i>
   <i type="logical" name="LELF"> F  </i>
   <i type="logical" name="LOPTICS"> F  </i>
   <v name="STM">      0.00000000      0.00000000      0.00000000      0.00000000      0.00000000      0.00000000      0.00000000</v>
  </separator>
  <separator name="performance" >
   <i type="int" name="NPAR">    40</i>
   <i type="int" name="NSIM">     4</i>
   <i type="int" name="NBLK">    -1</i>
   <i type="logical" name="LPLANE"> F  </i>
   <i type="logical" name="LSCALAPACK"> T  </i>
   <i type="logical" name="LSCAAWARE"> F  </i>
   <i type="logical" name="LSCALU"> F  </i>
   <i type="logical" name="LASYNC"> F  </i>
   <i type="logical" name="LORBITALREAL"> F  </i>
  </separator>
  <separator name="miscellaneous" >
   <i type="int" name="IDIOT">     3</i>
   <i type="logical" name="LMUSIC"> F  </i>
   <v name="POMASS">     50.94100000     95.94000000    183.85000000     32.06600000</v>
   <v name="DARWINR">      0.00000000      0.00000000      0.00000000      0.00000000</v>
   <v name="DARWINV">      1.00000000      1.00000000      1.00000000      1.00000000</v>
   <i type="logical" name="LCORR"> T  </i>
  </separator>
  <i type="logical" name="GGA_COMPAT"> T  </i>
  <i type="logical" name="LBERRY"> F  </i>
  <i type="int" name="ICORELEVEL">     0</i>
  <i type="logical" name="LDAU"> F  </i>
  <i type="int" name="I_CONSTRAINED_M">     0</i>
  <separator name="electronic exchange-correlation" >
   <i type="string" name="GGA">--</i>
   <i type="int" name="VOSKOWN">     0</i>
   <i type="logical" name="LHFCALC"> F  </i>
   <i type="string" name="PRECFOCK"></i>
   <i type="logical" name="LSYMGRAD"> F  </i>
   <i type="logical" name="LHFONE"> F  </i>
   <i type="logical" name="LRHFCALC"> F  </i>
   <i type="logical" name="LTHOMAS"> F  </i>
   <i type="logical" name="LMODELHF"> F  </i>
   <i name="ENCUT4O">     -1.00000000</i>
   <i type="int" name="EXXOEP">     0</i>
   <i type="int" name="FOURORBIT">     0</i>
   <i name="AEXX">      0.00000000</i>
   <i name="HFALPHA">      0.00000000</i>
   <i name="MCALPHA">      0.00000000</i>
   <i name="ALDAX">      1.00000000</i>
   <i name="AGGAX">      1.00000000</i>
   <i name="ALDAC">      1.00000000</i>
   <i name="AGGAC">      1.00000000</i>
   <i type="int" name="NKREDX">     1</i>
   <i type="int" name="NKREDY">     1</i>
   <i type="int" name="NKREDZ">     1</i>
   <i type="logical" name="SHIFTRED"> F  </i>
   <i type="logical" name="ODDONLY"> F  </i>
   <i type="logical" name="EVENONLY"> F  </i>
   <i type="int" name="LMAXFOCK">     0</i>
   <i type="int" name="NMAXFOCKAE">     0</i>
   <i type="logical" name="LFOCKAEDFT"> F  </i>
   <i name="HFSCREEN">      0.00000000</i>
   <i name="HFSCREENC">      0.00000000</i>
   <i type="int" name="NBANDSGWLOW">     0</i>
  </separator>
  <separator name="vdW DFT" >
   <i type="logical" name="LUSE_VDW"> F  </i>
   <i name="Zab_VDW">     -0.84910000</i>
   <i name="PARAM1">      0.12340000</i>
   <i name="PARAM2">      1.00000000</i>
   <i name="PARAM3">      0.00000000</i>
  </separator>
  <separator name="model GW" >
   <i type="int" name="MODEL_GW">     0</i>
   <i name="MODEL_EPS0">     58.26239943</i>
   <i name="MODEL_ALPHA">      1.00000000</i>
  </separator>
  <separator name="linear response parameters" >
   <i type="logical" name="LEPSILON"> F  </i>
   <i type="logical" name="LRPA"> F  </i>
   <i type="logical" name="LNABLA"> F  </i>
   <i type="logical" name="LVEL"> F  </i>
   <i type="int" name="KINTER">     0</i>
   <i name="CSHIFT">      0.10000000</i>
   <i name="OMEGAMAX">     -1.00000000</i>
   <i name="DEG_THRESHOLD">      0.00200000</i>
  </separator>
  <separator name="orbital magnetization" >
   <i type="logical" name="NUCIND"> F  </i>
   <v name="MAGPOS">      0.00000000      0.00000000      0.00000000</v>
   <i type="logical" name="LNICSALL"> T  </i>
   <i type="logical" name="ORBITALMAG"> F  </i>
   <i type="logical" name="LMAGBLOCH"> F  </i>
   <i type="logical" name="LCHIMAG"> F  </i>
   <i type="logical" name="LGAUGE"> T  </i>
   <i type="int" name="MAGATOM">     0</i>
   <v name="MAGDIPOL">      0.00000000      0.00000000      0.00000000</v>
   <v name="AVECCONST">      0.00000000      0.00000000      0.00000000</v>
  </separator>
  <separator name="response functions" >
   <i type="logical" name="LADDER"> F  </i>
   <i type="logical" name="LFXC"> F  </i>
   <i type="logical" name="LHARTREE"> T  </i>
   <i type="int" name="IBSE">     0</i>
   <v type="int" name="KPOINT">    -1     0     0     0</v>
   <i type="logical" name="LTCTE"> F  </i>
   <i type="logical" name="LTETE"> F  </i>
   <i type="logical" name="LTRIPLET"> F  </i>
   <i type="logical" name="LFXCEPS"> F  </i>
   <i type="logical" name="LFXHEG"> F  </i>
   <i type="int" name="NATURALO">     0</i>
   <i type="logical" name="L2ORDER"> F  </i>
   <i type="logical" name="LUSEW"> F  </i>
   <i name="ENCUTGW">     -2.00000000</i>
   <i name="ENCUTGWSOFT">     -2.00000000</i>
   <i name="ENCUTLF">     -1.00000000</i>
   <i type="int" name="LMAXMP2">    -1</i>
   <i name="SCISSOR">      0.00000000</i>
   <i type="int" name="NOMEGA">     0</i>
   <i type="int" name="NOMEGAR">     0</i>
   <i type="int" name="NBANDSGW">    -1</i>
   <i type="int" name="NBANDSO">    -1</i>
   <i type="int" name="NBANDSV">    -1</i>
   <i type="int" name="NELM">     1</i>
   <i type="int" name="NELMHF">     1</i>
   <i type="int" name="DIM">     3</i>
   <i type="int" name="ANTIRES">     0</i>
   <i name="OMEGAMAX">    -30.00000000</i>
   <i name="OMEGAMIN">    -30.00000000</i>
   <i name="OMEGATL">   -200.00000000</i>
   <i type="int" name="OMEGAGRID">     0</i>
   <i name="CSHIFT">     -0.10000000</i>
   <i type="logical" name="SELFENERGY"> F  </i>
   <i type="logical" name="LSPECTRAL"> F  </i>
   <i type="logical" name="LSPECTRALGW"> F  </i>
   <i type="logical" name="LSINGLES"> F  </i>
   <i type="logical" name="LFERMIGW"> F  </i>
   <i type="logical" name="ODDONLYGW"> F  </i>
   <i type="logical" name="EVENONLYGW"> F  </i>
   <i type="int" name="NKREDLFX">     1</i>
   <i type="int" name="NKREDLFY">     1</i>
   <i type="int" name="NKREDLFZ">     1</i>
   <i type="int" name="MAXMEM">  1800</i>
   <i type="int" name="TELESCOPE">     0</i>
   <i type="int" name="TAUPAR">     1</i>
   <i type="int" name="OMEGAPAR">    -1</i>
   <i name="LAMBDA">      1.00000000</i>
  </separator>
  <separator name="External order field" >
   <i name="OFIELD_KAPPA">      0.00000000</i>
   <v name="OFIELD_K">      0.00000000      0.00000000      0.00000000</v>
   <i name="OFIELD_Q6_NEAR">      0.00000000</i>
   <i name="OFIELD_Q6_FAR">      0.00000000</i>
   <i name="OFIELD_A">      0.00000000</i>
  </separator>
 </parameters>
 <atominfo>
  <atoms>      27 </atoms>
  <types>       4 </types>
  <array name="atoms" >
   <dimension dim="1">ion</dimension>
   <field type="string">element</field>
   <field type="int">atomtype</field>
   <set>
    <rc><c>V </c><c>   1</c></rc>
    <rc><c>V </c><c>   1</c></rc>
    <rc><c>V </c><c>   1</c></rc>
    <rc><c>Mo</c><c>   2</c></rc>
    <rc><c>Mo</c><c>   2</c></rc>
    <rc><c>Mo</c><c>   2</c></rc>
    <rc><c>W </c><c>   3</c></rc>
    <rc><c>W </c><c>   3</c></rc>
    <rc><c>W </c><c>   3</c></rc>
    <rc><c>S </c><c>   4</c></rc>
    <rc><c>S </c><c>   4</c></rc>
    <rc><c>S </c><c>   4</c></rc>
    <rc><c>S </c><c>   4</c></rc>
    <rc><c>S </c><c>   4</c></rc>
    <rc><c>S </c><c>   4</c></rc>
    <rc><c>S </c><c>   4</c></rc>
    <rc><c>S </c><c>   4</c></rc>
    <rc><c>S </c><c>   4</c></rc>
    <rc><c>S </c><c>   4</c></rc>
    <rc><c>S </c><c>   4</c></rc>
    <rc><c>S </c><c>   4</c></rc>
    <rc><c>S </c><c>   4</c></rc>
    <rc><c>S </c><c>   4</c></rc>
    <rc><c>S </c><c>   4</c></rc>
    <rc><c>S </c><c>   4</c></rc>
    <rc><c>S </c><c>   4</c></rc>
    <rc><c>S </c><c>   4</c></rc>
   </set>
  </array>
  <array name="atomtypes" >
   <dimension dim="1">type</dimension>
   <field type="int">atomspertype</field>
   <field type="string">element</field>
   <field>mass</field>
   <field>valence</field>
   <field type="string">pseudopotential</field>
   <set>
    <rc><c>   3</c><c>V </c><c>     50.94100000</c><c>      5.00000000</c><c> PAW_PBE V 08Apr2002                    </c></rc>
    <rc><c>   3</c><c>Mo</c><c>     95.94000000</c><c>      6.00000000</c><c> PAW_PBE Mo 08Apr2002                   </c></rc>
    <rc><c>   3</c><c>W </c><c>    183.85000000</c><c>      6.00000000</c><c> PAW_PBE W 08Apr2002                    </c></rc>
    <rc><c>  18</c><c>S </c><c>     32.06600000</c><c>      6.00000000</c><c>  PAW_PBE S 17Jan2003                   </c></rc>
   </set>
  </array>
 </atominfo>
 <structure name="initialpos" >
  <crystal>
   <varray name="basis" >
    <v>       8.66999996       5.03999989       0.00000000 </v>
    <v>      -8.66999982       5.04000013       0.00000000 </v>
    <v>       0.00000000       0.00000000      30.00000000 </v>
   </varray>
   <i name="volume">   2621.80797419 </i>
   <varray name="rec_basis" >
    <v>       0.05767013       0.09920635       0.00000000 </v>
    <v>      -0.05767013       0.09920635       0.00000000 </v>
    <v>       0.00000000       0.00000000       0.03333333 </v>
   </varray>
  </crystal>
  <varray name="positions" >
   <v>       1.00000000       0.33333334       0.00000000 </v>
   <v>       0.66666669       0.66666669       0.00000000 </v>
   <v>       0.66666669       0.33333334       0.00000000 </v>
   <v>       0.00000000       0.66666669       0.00000000 </v>
   <v>       0.66666669       0.00000000       0.00000000 </v>
   <v>       0.00000000       0.00000000       0.00000000 </v>
   <v>       0.33333334       0.00000000       0.00000000 </v>
   <v>       0.33333334       0.33333334       0.00000000 </v>
   <v>       0.33333334       0.66666669       0.00000000 </v>
   <v>       0.11068511       0.22244981       0.95539999 </v>
   <v>       0.22244981       0.11068511       0.04460000 </v>
   <v>       0.11068511       0.55578315       0.95539999 </v>
   <v>       0.22244981       0.44401845       0.04460000 </v>
   <v>       0.11068511       0.88911647       0.95539999 </v>
   <v>       0.22244981       0.77735180       0.04460000 </v>
   <v>       0.44401845       0.22244981       0.95539999 </v>
   <v>       0.55578315       0.11068511       0.04460000 </v>
   <v>       0.44401845       0.55578315       0.95539999 </v>
   <v>       0.55578315       0.44401845       0.04460000 </v>
   <v>       0.44401845       0.88911647       0.95539999 </v>
   <v>       0.55578315       0.77735180       0.04460000 </v>
   <v>       0.77735180       0.22244981       0.95539999 </v>
   <v>       0.88911647       0.11068511       0.04460000 </v>
   <v>       0.77735180       0.55578315       0.95539999 </v>
   <v>       0.88911647       0.44401845       0.04460000 </v>
   <v>       0.77735180       0.88911647       0.95539999 </v>
   <v>       0.88911647       0.77735180       0.04460000 </v>
  </varray>
 </structure>
 <calculation>
  <scstep>
   <time name="dav">   21.70   21.76</time>
   <time name="total">   21.75   21.81</time>
   <energy>
    <i name="alphaZ">     81.65567618 </i>
    <i name="ewald">  41890.25210247 </i>
    <i name="hartreedc"> -47722.89515838 </i>
    <i name="XCdc">   -242.92702709 </i>
    <i name="pawpsdc">   3467.42045192 </i>
    <i name="pawaedc">  -2871.19716117 </i>
    <i name="eentropy">     -0.53676815 </i>
    <i name="bandstr">   -239.51225706 </i>
    <i name="atom">   6761.44252427 </i>
    <i name="e_fr_energy">   1123.70238299 </i>
    <i name="e_wo_entrp">   1124.23915114 </i>
    <i name="e_0_energy">   1123.97076706 </i>
   </energy>
  </scstep>
  <scstep>
   <time name="dav">   28.08   28.15</time>
   <time name="total">   28.09   28.16</time>
   <energy>
    <i name="e_fr_energy">     -1.33870211 </i>
    <i name="e_wo_entrp">     -1.12310042 </i>
    <i name="e_0_energy">     -1.23090126 </i>
   </energy>
  </scstep>
  <scstep>
   <time name="dav">   27.45   27.52</time>
   <time name="total">   27.45   27.53</time>
   <energy>
    <i name="e_fr_energy">   -199.74345549 </i>
    <i name="e_wo_entrp">   -199.46813108 </i>
    <i name="e_0_energy">   -199.60579328 </i>
   </energy>
  </scstep>
  <scstep>
   <time name="dav">   29.62   29.69</time>
   <time name="total">   29.62   29.70</time>
   <energy>
    <i name="e_fr_energy">   -208.97391660 </i>
    <i name="e_wo_entrp">   -208.66867564 </i>
    <i name="e_0_energy">   -208.82129612 </i>
   </energy>
  </scstep>
  <scstep>
   <time name="dav">   28.76   28.83</time>
   <time name="total">   29.22   29.30</time>
   <energy>
    <i name="e_fr_energy">   -209.32170927 </i>
    <i name="e_wo_entrp">   -209.01929596 </i>
    <i name="e_0_energy">   -209.17050261 </i>
   </energy>
  </scstep>
  <scstep>
   <time name="dav">   30.78   30.85</time>
   <time name="total">   31.27   31.36</time>
   <energy>
    <i name="e_fr_energy">   -237.07517249 </i>
    <i name="e_wo_entrp">   -236.79652322 </i>
    <i name="e_0_energy">   -236.93584785 </i>
   </energy>
  </scstep>
  <scstep>
   <time name="dav">   32.62   32.70</time>
   <time name="total">   33.12   33.21</time>
   <energy>
    <i name="e_fr_energy">   -196.44427448 </i>
    <i name="e_wo_entrp">   -196.12757583 </i>
    <i name="e_0_energy">   -196.28592516 </i>
   </energy>
  </scstep>
  <scstep>
   <time name="dav">   29.55   29.62</time>
   <time name="total">   30.06   30.14</time>
   <energy>
    <i name="e_fr_energy">   -189.40238183 </i>
    <i name="e_wo_entrp">   -189.11079734 </i>
    <i name="e_0_energy">   -189.25658959 </i>
   </energy>
  </scstep>
  <scstep>
   <time name="dav">   31.91   31.99</time>
   <time name="total">   32.43   32.52</time>
   <energy>
    <i name="e_fr_energy">   -188.16946366 </i>
    <i name="e_wo_entrp">   -187.83014165 </i>
    <i name="e_0_energy">   -187.99980266 </i>
   </energy>
  </scstep>
  <scstep>
   <time name="dav">   32.70   32.77</time>
   <time name="total">   33.23   33.31</time>
   <energy>
    <i name="e_fr_energy">   -186.99899491 </i>
    <i name="e_wo_entrp">   -186.65143781 </i>
    <i name="e_0_energy">   -186.82521636 </i>
   </energy>
  </scstep>
  <scstep>
   <time name="dav">   32.26   32.34</time>
   <time name="total">   32.79   32.88</time>
   <energy>
    <i name="e_fr_energy">   -186.96714094 </i>
    <i name="e_wo_entrp">   -186.61733075 </i>
    <i name="e_0_energy">   -186.79223585 </i>
   </energy>
  </scstep>
  <scstep>
   <time name="dav">   30.12   30.20</time>
   <time name="total">   30.65   30.74</time>
   <energy>
    <i name="e_fr_energy">   -187.08954854 </i>
    <i name="e_wo_entrp">   -186.74971407 </i>
    <i name="e_0_energy">   -186.91963131 </i>
   </energy>
  </scstep>
  <scstep>
   <time name="dav">   31.64   31.72</time>
   <time name="total">   32.17   32.26</time>
   <energy>
    <i name="e_fr_energy">   -186.88113574 </i>
    <i name="e_wo_entrp">   -186.54426357 </i>
    <i name="e_0_energy">   -186.71269966 </i>
   </energy>
  </scstep>
  <scstep>
   <time name="dav">   32.27   32.34</time>
   <time name="total">   32.80   32.89</time>
   <energy>
    <i name="e_fr_energy">   -186.85663925 </i>
    <i name="e_wo_entrp">   -186.51196402 </i>
    <i name="e_0_energy">   -186.68430164 </i>
   </energy>
  </scstep>
  <scstep>
   <time name="dav">   29.11   29.18</time>
   <time name="total">   29.64   29.72</time>
   <energy>
    <i name="e_fr_energy">   -186.83709217 </i>
    <i name="e_wo_entrp">   -186.49029885 </i>
    <i name="e_0_energy">   -186.66369551 </i>
   </energy>
  </scstep>
  <scstep>
   <time name="dav">   28.89   28.96</time>
   <time name="total">   29.42   29.50</time>
   <energy>
    <i name="e_fr_energy">   -186.82943645 </i>
    <i name="e_wo_entrp">   -186.48265389 </i>
    <i name="e_0_energy">   -186.65604517 </i>
   </energy>
  </scstep>
  <scstep>
   <time name="dav">   31.01   31.08</time>
   <time name="total">   31.54   31.62</time>
   <energy>
    <i name="e_fr_energy">   -186.82755697 </i>
    <i name="e_wo_entrp">   -186.48273775 </i>
    <i name="e_0_energy">   -186.65514736 </i>
   </energy>
  </scstep>
  <scstep>
   <time name="dav">   28.95   29.02</time>
   <time name="total">   29.48   29.56</time>
   <energy>
    <i name="e_fr_energy">   -186.82709496 </i>
    <i name="e_wo_entrp">   -186.48203263 </i>
    <i name="e_0_energy">   -186.65456379 </i>
   </energy>
  </scstep>
  <scstep>
   <time name="dav">   27.11   27.17</time>
   <time name="total">   27.64   27.71</time>
   <energy>
    <i name="e_fr_energy">   -186.82673912 </i>
    <i name="e_wo_entrp">   -186.48138944 </i>
    <i name="e_0_energy">   -186.65406428 </i>
   </energy>
  </scstep>
  <scstep>
   <time name="dav">   24.11   24.17</time>
   <time name="total">   24.65   24.72</time>
   <energy>
    <i name="e_fr_energy">   -186.82747690 </i>
    <i name="e_wo_entrp">   -186.48230213 </i>
    <i name="e_0_energy">   -186.65488952 </i>
   </energy>
  </scstep>
  <scstep>
   <time name="dav">   21.00   21.05</time>
   <time name="total">   21.54   21.60</time>
   <energy>
    <i name="e_fr_energy">   -186.82806805 </i>
    <i name="e_wo_entrp">   -186.48306337 </i>
    <i name="e_0_energy">   -186.65556571 </i>
   </energy>
  </scstep>
  <scstep>
   <time name="dav">   20.54   20.60</time>
   <time name="total">   21.08   21.13</time>
   <energy>
    <i name="e_fr_energy">   -186.82923416 </i>
    <i name="e_wo_entrp">   -186.48406829 </i>
    <i name="e_0_energy">   -186.65665122 </i>
   </energy>
  </scstep>
  <scstep>
   <time name="dav">   20.20   20.25</time>
   <time name="total">   20.73   20.79</time>
   <energy>
    <i name="e_fr_energy">   -186.83046075 </i>
    <i name="e_wo_entrp">   -186.48540222 </i>
    <i name="e_0_energy">   -186.65793149 </i>
   </energy>
  </scstep>
  <scstep>
   <time name="dav">   18.61   18.66</time>
   <time name="total">   19.15   19.20</time>
   <energy>
    <i name="e_fr_energy">   -186.83104863 </i>
    <i name="e_wo_entrp">   -186.48597280 </i>
    <i name="e_0_energy">   -186.65851071 </i>
   </energy>
  </scstep>
  <scstep>
   <time name="dav">   16.97   17.01</time>
   <time name="total">   17.50   17.55</time>
   <energy>
    <i name="e_fr_energy">   -186.83141403 </i>
    <i name="e_wo_entrp">   -186.48629898 </i>
    <i name="e_0_energy">   -186.65885651 </i>
   </energy>
  </scstep>
  <scstep>
   <time name="dav">   18.84   18.89</time>
   <time name="total">   19.37   19.43</time>
   <energy>
    <i name="e_fr_energy">   -186.83164857 </i>
    <i name="e_wo_entrp">   -186.48654968 </i>
    <i name="e_0_energy">   -186.65909913 </i>
   </energy>
  </scstep>
  <scstep>
   <time name="dav">   19.73   19.78</time>
   <time name="total">   20.26   20.32</time>
   <energy>
    <i name="e_fr_energy">   -186.83175157 </i>
    <i name="e_wo_entrp">   -186.48665066 </i>
    <i name="e_0_energy">   -186.65920111 </i>
   </energy>
  </scstep>
  <scstep>
   <time name="dav">   20.03   20.08</time>
   <time name="total">   20.07   20.12</time>
   <energy>
    <i name="alphaZ">     81.65567618 </i>
    <i name="ewald">  41890.25210247 </i>
    <i name="hartreedc"> -47832.89615824 </i>
    <i name="XCdc">   -231.61129512 </i>
    <i name="pawpsdc">   4192.00686379 </i>
    <i name="pawaedc">  -3610.00932872 </i>
    <i name="eentropy">     -0.34509835 </i>
    <i name="bandstr">  -1437.32707854 </i>
    <i name="atom">   6761.44252427 </i>
    <i name="e_fr_energy">   -186.83179226 </i>
    <i name="e_wo_entrp">   -186.48669391 </i>
    <i name="e_0_energy">   -186.65924308 </i>
   </energy>
  </scstep>
  <structure>
   <crystal>
    <varray name="basis" >
     <v>       8.66999996       5.03999989       0.00000000 </v>
     <v>      -8.66999982       5.04000013       0.00000000 </v>
     <v>       0.00000000       0.00000000      30.00000000 </v>
    </varray>
    <i name="volume">   2621.80797419 </i>
    <varray name="rec_basis" >
     <v>       0.05767013       0.09920635       0.00000000 </v>
     <v>      -0.05767013       0.09920635       0.00000000 </v>
     <v>       0.00000000       0.00000000       0.03333333 </v>
    </varray>
   </crystal>
   <varray name="positions" >
    <v>       1.00000000       0.33333334       0.00000000 </v>
    <v>       0.66666669       0.66666669       0.00000000 </v>
    <v>       0.66666669       0.33333334       0.00000000 </v>
    <v>       0.00000000       0.66666669       0.00000000 </v>
    <v>       0.66666669       0.00000000       0.00000000 </v>
    <v>       0.00000000       0.00000000       0.00000000 </v>
    <v>       0.33333334       0.00000000       0.00000000 </v>
    <v>       0.33333334       0.33333334       0.00000000 </v>
    <v>       0.33333334       0.66666669       0.00000000 </v>
    <v>       0.11068511       0.22244981       0.95539999 </v>
    <v>       0.22244981       0.11068511       0.04460000 </v>
    <v>       0.11068511       0.55578315       0.95539999 </v>
    <v>       0.22244981       0.44401845       0.04460000 </v>
    <v>       0.11068511       0.88911647       0.95539999 </v>
    <v>       0.22244981       0.77735180       0.04460000 </v>
    <v>       0.44401845       0.22244981       0.95539999 </v>
    <v>       0.55578315       0.11068511       0.04460000 </v>
    <v>       0.44401845       0.55578315       0.95539999 </v>
    <v>       0.55578315       0.44401845       0.04460000 </v>
    <v>       0.44401845       0.88911647       0.95539999 </v>
    <v>       0.55578315       0.77735180       0.04460000 </v>
    <v>       0.77735180       0.22244981       0.95539999 </v>
    <v>       0.88911647       0.11068511       0.04460000 </v>
    <v>       0.77735180       0.55578315       0.95539999 </v>
    <v>       0.88911647       0.44401845       0.04460000 </v>
    <v>       0.77735180       0.88911647       0.95539999 </v>
    <v>       0.88911647       0.77735180       0.04460000 </v>
   </varray>
  </structure>
  <varray name="forces" >
   <v>      -0.06559235      -0.28289821      -0.09945406 </v>
   <v>       0.07590949       0.44311160       0.08690247 </v>
   <v>       0.19866542       0.20657272       0.01066599 </v>
   <v>      -0.24615881       0.08550633      -0.01601614 </v>
   <v>       0.25137905       0.15487934       0.00220694 </v>
   <v>      -0.01803534      -0.29167295      -0.09496375 </v>
   <v>       0.00855100      -0.28774977       0.02727756 </v>
   <v>       0.01815437      -0.23788072       0.02982525 </v>
   <v>      -0.25166658       0.12454851       0.09795236 </v>
   <v>      -0.68313138       0.15092162      -2.14105953 </v>
   <v>      -0.03825296       0.14618761       2.88571180 </v>
   <v>       0.62628289      -0.57573411      -2.13731879 </v>
   <v>      -0.46627708      -0.55139247       2.14808931 </v>
   <v>       0.18555944       0.17115205      -2.91127374 </v>
   <v>      -0.03564984       0.15334972       2.95252712 </v>
   <v>       0.46714234       0.56208469      -2.16883899 </v>
   <v>      -0.61325489       0.53920405       2.11294005 </v>
   <v>       0.47747254       0.57173964      -2.12466584 </v>
   <v>       0.22391478       0.53424666       1.41338832 </v>
   <v>       0.04067324      -0.10626450      -2.90990883 </v>
   <v>       0.69053968      -0.16329782       2.13391927 </v>
   <v>      -0.31131486       0.69722705      -1.45154625 </v>
   <v>      -0.53218626       0.69326333       2.14782090 </v>
   <v>      -0.31348730      -0.66304956      -1.41510383 </v>
   <v>       0.31375142      -0.66775578       1.41289714 </v>
   <v>       0.52482649      -0.67512756      -2.17532080 </v>
   <v>      -0.52781453      -0.73117149       2.18334606 </v>
  </varray>
  <varray name="stress" >
   <v>       7.30516313      -0.13885412      -1.63158627 </v>
   <v>      -0.13885415       4.42409366      -0.14736768 </v>
   <v>      -1.63158629      -0.14736762      30.32936686 </v>
  </varray>
  <energy>
   <i name="e_fr_energy">   -186.83179226 </i>
   <i name="e_wo_entrp">   -186.65924308 </i>
   <i name="e_0_energy">     -0.34509835 </i>
  </energy>
  <time name="totalsc">  799.08  801.24</time>
 </calculation>
 <calculation>
  <scstep>
   <time name="dav">   21.71   21.76</time>
   <time name="total">   22.25   22.31</time>
   <energy>
    <i name="alphaZ">     78.92709368 </i>
    <i name="ewald">  39382.17004660 </i>
    <i name="hartreedc"> -45339.65844272 </i>
    <i name="XCdc">   -239.06724308 </i>
    <i name="pawpsdc">   4192.00686539 </i>
    <i name="pawaedc">  -3610.00932353 </i>
    <i name="eentropy">     -0.28733088 </i>
    <i name="bandstr">  -1412.98352636 </i>
    <i name="atom">   6761.44252427 </i>
    <i name="e_fr_energy">   -187.45933663 </i>
    <i name="e_wo_entrp">   -187.17200576 </i>
    <i name="e_0_energy">   -187.31567119 </i>
   </energy>
  </scstep>
  <scstep>
   <time name="dav">   30.29   30.36</time>
   <time name="total">   30.82   30.90</time>
   <energy>
    <i name="e_fr_energy">   -189.26066608 </i>
    <i name="e_wo_entrp">   -188.94520554 </i>
    <i name="e_0_energy">   -189.10293581 </i>
   </energy>
  </scstep>
  <scstep>
   <time name="dav">   30.38   30.45</time>
   <time name="total">   30.92   31.01</time>
   <energy>
    <i name="e_fr_energy">   -189.36717343 </i>
    <i name="e_wo_entrp">   -189.08625227 </i>
    <i name="e_0_energy">   -189.22671285 </i>
   </energy>
  </scstep>
  <scstep>
   <time name="dav">   30.83   30.91</time>
   <time name="total">   31.38   31.46</time>
   <energy>
    <i name="e_fr_energy">   -188.72490125 </i>
    <i name="e_wo_entrp">   -188.43869768 </i>
    <i name="e_0_energy">   -188.58179947 </i>
   </energy>
  </scstep>
  <scstep>
   <time name="dav">   26.02   26.08</time>
   <time name="total">   26.56   26.63</time>
   <energy>
    <i name="e_fr_energy">   -188.72133730 </i>
    <i name="e_wo_entrp">   -188.43343109 </i>
    <i name="e_0_energy">   -188.57738419 </i>
   </energy>
  </scstep>
  <scstep>
   <time name="dav">   27.21   27.28</time>
   <time name="total">   27.76   27.83</time>
   <energy>
    <i name="e_fr_energy">   -188.66022728 </i>
    <i name="e_wo_entrp">   -188.37393641 </i>
    <i name="e_0_energy">   -188.51708184 </i>
   </energy>
  </scstep>
  <scstep>
   <time name="dav">   28.35   28.42</time>
   <time name="total">   28.89   28.97</time>
   <energy>
    <i name="e_fr_energy">   -188.64267120 </i>
    <i name="e_wo_entrp">   -188.35684704 </i>
    <i name="e_0_energy">   -188.49975912 </i>
   </energy>
  </scstep>
  <scstep>
   <time name="dav">   30.58   30.65</time>
   <time name="total">   31.13   31.21</time>
   <energy>
    <i name="e_fr_energy">   -188.63857020 </i>
    <i name="e_wo_entrp">   -188.35374295 </i>
    <i name="e_0_energy">   -188.49615658 </i>
   </energy>
  </scstep>
  <scstep>
   <time name="dav">   31.86   31.94</time>
   <time name="total">   32.40   32.49</time>
   <energy>
    <i name="e_fr_energy">   -188.63412220 </i>
    <i name="e_wo_entrp">   -188.34878754 </i>
    <i name="e_0_energy">   -188.49145487 </i>
   </energy>
  </scstep>
  <scstep>
   <time name="dav">   31.36   31.43</time>
   <time name="total">   31.90   31.99</time>
   <energy>
    <i name="e_fr_energy">   -188.63377141 </i>
    <i name="e_wo_entrp">   -188.34900574 </i>
    <i name="e_0_energy">   -188.49138858 </i>
   </energy>
  </scstep>
  <scstep>
   <time name="dav">   29.78   29.85</time>
   <time name="total">   30.31   30.40</time>
   <energy>
    <i name="e_fr_energy">   -188.63351680 </i>
    <i name="e_wo_entrp">   -188.34911948 </i>
    <i name="e_0_energy">   -188.49131814 </i>
   </energy>
  </scstep>
  <scstep>
   <time name="dav">   27.40   27.47</time>
   <time name="total">   27.94   28.02</time>
   <energy>
    <i name="e_fr_energy">   -188.63385725 </i>
    <i name="e_wo_entrp">   -188.34958394 </i>
    <i name="e_0_energy">   -188.49172060 </i>
   </energy>
  </scstep>
  <scstep>
   <time name="dav">   24.73   24.79</time>
   <time name="total">   25.27   25.34</time>
   <energy>
    <i name="e_fr_energy">   -188.63353216 </i>
    <i name="e_wo_entrp">   -188.34896719 </i>
    <i name="e_0_energy">   -188.49124967 </i>
   </energy>
  </scstep>
  <scstep>
   <time name="dav">   20.14   20.18</time>
   <time name="total">   20.68   20.73</time>
   <energy>
    <i name="e_fr_energy">   -188.63363975 </i>
    <i name="e_wo_entrp">   -188.34901875 </i>
    <i name="e_0_energy">   -188.49132925 </i>
   </energy>
  </scstep>
  <scstep>
   <time name="dav">   20.63   20.68</time>
   <time name="total">   20.66   20.72</time>
   <energy>
    <i name="alphaZ">     78.92709368 </i>
    <i name="ewald">  39382.17004660 </i>
    <i name="hartreedc"> -45350.08521881 </i>
    <i name="XCdc">   -237.98535692 </i>
    <i name="pawpsdc">   3949.08435989 </i>
    <i name="pawaedc">  -3363.57615461 </i>
    <i name="eentropy">     -0.28459619 </i>
    <i name="bandstr">  -1408.32637159 </i>
    <i name="atom">   6761.44252427 </i>
    <i name="e_fr_energy">   -188.63367369 </i>
    <i name="e_wo_entrp">   -188.34907749 </i>
    <i name="e_0_energy">   -188.49137559 </i>
   </energy>
  </scstep>
  <structure>
   <crystal>
    <varray name="basis" >
     <v>       8.85313916       5.10167469       0.00000000 </v>
     <v>      -8.85723140       5.10871482       0.00000000 </v>
     <v>       0.00000000       0.00000000      30.00000000 </v>
    </varray>
    <i name="volume">   2712.44629653 </i>
    <varray name="rec_basis" >
     <v>       0.05650303       0.09796210       0.00000000 </v>
     <v>      -0.05642517       0.09791684       0.00000000 </v>
     <v>       0.00000000       0.00000000       0.03333333 </v>
    </varray>
   </crystal>
   <varray name="positions" >
    <v>       0.99846357       0.33216189      -0.00015993 </v>
    <v>       0.66899860       0.66857622       0.00013975 </v>
    <v>       0.66820806       0.33376928       0.00001715 </v>
    <v>      -0.00027562       0.66776077      -0.00002576 </v>
    <v>       0.66810731       0.00004187       0.00000355 </v>
    <v>      -0.00144612      -0.00134576      -0.00015271 </v>
    <v>       0.33197997      -0.00140095       0.00004386 </v>
    <v>       0.33224536       0.33214434       0.00004796 </v>
    <v>       0.33322925       0.66796295       0.00015752 </v>
    <v>       0.10950684       0.22507270       0.95195698 </v>
    <v>       0.22304303       0.11149119       0.04924048 </v>
    <v>       0.10967208       0.55128528       0.95196299 </v>
    <v>       0.21851360       0.44267676       0.04805432 </v>
    <v>       0.11202050       0.88941934       0.95071840 </v>
    <v>       0.22308455       0.77818491       0.04934792 </v>
    <v>       0.44800824       0.22384027       0.95191231 </v>
    <v>       0.55665760       0.11497190       0.04799779 </v>
    <v>       0.44808319       0.55719108       0.95198334 </v>
    <v>       0.55896301       0.44595238       0.04687285 </v>
    <v>       0.44362303       0.88849473       0.95072060 </v>
    <v>       0.55692280       0.77464907       0.04803153 </v>
    <v>       0.77982258       0.22665285       0.95306578 </v>
    <v>       0.89095378       0.11548368       0.04805388 </v>
    <v>       0.77330628       0.55348198       0.95312438 </v>
    <v>       0.88679351       0.43994968       0.04687206 </v>
    <v>       0.77558080       0.88442517       0.95190188 </v>
    <v>       0.88414863       0.77532089       0.04811101 </v>
   </varray>
  </structure>
  <varray name="forces" >
   <v>       0.01843756      -0.24206604      -0.02245265 </v>
   <v>       0.02223184       0.40525039       0.01492786 </v>
   <v>       0.13982107       0.12080364       0.07285471 </v>
   <v>      -0.16757069       0.43037175      -0.06629079 </v>
   <v>       0.23122054       0.00166241       0.07189228 </v>
   <v>       0.08983972      -0.14829112      -0.02399981 </v>
   <v>       0.03470597      -0.41624118       0.00350843 </v>
   <v>       0.04753791      -0.30697227      -0.01621509 </v>
   <v>      -0.37390276       0.21101845      -0.06643683 </v>
   <v>       0.01073565       0.09723620      -0.03794956 </v>
   <v>       0.06514070       0.08844209       0.01228328 </v>
   <v>       0.08282642       0.05272936       0.09644701 </v>
   <v>       0.03960304       0.05174023      -0.13626905 </v>
   <v>       0.03841022       0.11016602      -0.18821022 </v>
   <v>       0.07187196       0.10410357       0.15737967 </v>
   <v>      -0.05522976      -0.05626893       0.14436225 </v>
   <v>      -0.07765169      -0.03950478      -0.13008224 </v>
   <v>      -0.04143752      -0.06201933       0.26922935 </v>
   <v>      -0.06102185      -0.07269346      -0.18545121 </v>
   <v>      -0.07115195      -0.09983422       0.00423637 </v>
   <v>       0.00323201      -0.11064987       0.03238390 </v>
   <v>       0.00024075       0.06224875      -0.03566877 </v>
   <v>      -0.03165519       0.07278708       0.04278079 </v>
   <v>      -0.00894848      -0.04557315       0.06451253 </v>
   <v>      -0.00477956      -0.04420893      -0.08325214 </v>
   <v>       0.04059695      -0.07426372      -0.16214933 </v>
   <v>      -0.04310285      -0.08997295       0.16762927 </v>
  </varray>
  <varray name="stress" >
   <v>     -19.85559494       0.01329496      -0.02926243 </v>
   <v>       0.01329491     -19.45732396      -0.00994863 </v>
   <v>      -0.02926228      -0.00994860      -1.67464382 </v>
  </varray>
  <energy>
   <i name="e_fr_energy">   -188.63367369 </i>
   <i name="e_wo_entrp">   -188.49137559 </i>
   <i name="e_0_energy">     -0.28459619 </i>
  </energy>
  <time name="totalsc">  461.06  462.28</time>
 </calculation>
 <calculation>
  <scstep>
   <time name="dav">   23.94   24.00</time>
   <time name="total">   24.47   24.53</time>
   <energy>
    <i name="alphaZ">     82.35323656 </i>
    <i name="ewald">  41305.79095933 </i>
    <i name="hartreedc"> -47304.35826461 </i>
    <i name="XCdc">   -233.86214654 </i>
    <i name="pawpsdc">   3949.02777380 </i>
    <i name="pawaedc">  -3363.51951707 </i>
    <i name="eentropy">     -0.23671633 </i>
    <i name="bandstr">  -1387.18984072 </i>
    <i name="atom">   6761.44252427 </i>
    <i name="e_fr_energy">   -190.55199133 </i>
    <i name="e_wo_entrp">   -190.31527499 </i>
    <i name="e_0_energy">   -190.43363316 </i>
   </energy>
  </scstep>
  <scstep>
   <time name="dav">   28.88   28.95</time>
   <time name="total">   29.40   29.48</time>
   <energy>
    <i name="e_fr_energy">   -190.54593983 </i>
    <i name="e_wo_entrp">   -190.30631865 </i>
    <i name="e_0_energy">   -190.42612924 </i>
   </energy>
  </scstep>
  <scstep>
   <time name="dav">   30.20   30.28</time>
   <time name="total">   30.73   30.81</time>
   <energy>
    <i name="e_fr_energy">   -190.02451803 </i>
    <i name="e_wo_entrp">   -189.77593383 </i>
    <i name="e_0_energy">   -189.90022593 </i>
   </energy>
  </scstep>
  <scstep>
   <time name="dav">   31.52   31.60</time>
   <time name="total">   32.05   32.14</time>
   <energy>
    <i name="e_fr_energy">   -189.81991831 </i>
    <i name="e_wo_entrp">   -189.58250880 </i>
    <i name="e_0_energy">   -189.70121356 </i>
   </energy>
  </scstep>
  <scstep>
   <time name="dav">   28.31   28.37</time>
   <time name="total">   28.84   28.92</time>
   <energy>
    <i name="e_fr_energy">   -189.73722328 </i>
    <i name="e_wo_entrp">   -189.49500128 </i>
    <i name="e_0_energy">   -189.61611228 </i>
   </energy>
  </scstep>
  <scstep>
   <time name="dav">   29.38   29.45</time>
   <time name="total">   29.91   29.99</time>
   <energy>
    <i name="e_fr_energy">   -189.72306406 </i>
    <i name="e_wo_entrp">   -189.48414293 </i>
    <i name="e_0_energy">   -189.60360349 </i>
   </energy>
  </scstep>
  <scstep>
   <time name="dav">   29.96   30.04</time>
   <time name="total">   30.50   30.58</time>
   <energy>
    <i name="e_fr_energy">   -189.71710697 </i>
    <i name="e_wo_entrp">   -189.47726667 </i>
    <i name="e_0_energy">   -189.59718682 </i>
   </energy>
  </scstep>
  <scstep>
   <time name="dav">   26.55   26.62</time>
   <time name="total">   27.08   27.16</time>
   <energy>
    <i name="e_fr_energy">   -189.71696016 </i>
    <i name="e_wo_entrp">   -189.47743240 </i>
    <i name="e_0_energy">   -189.59719628 </i>
   </energy>
  </scstep>
  <scstep>
   <time name="dav">   27.66   27.73</time>
   <time name="total">   28.20   28.27</time>
   <energy>
    <i name="e_fr_energy">   -189.71717592 </i>
    <i name="e_wo_entrp">   -189.47739128 </i>
    <i name="e_0_energy">   -189.59728360 </i>
   </energy>
  </scstep>
  <scstep>
   <time name="dav">   25.74   25.81</time>
   <time name="total">   26.27   26.35</time>
   <energy>
    <i name="e_fr_energy">   -189.71757492 </i>
    <i name="e_wo_entrp">   -189.47788121 </i>
    <i name="e_0_energy">   -189.59772807 </i>
   </energy>
  </scstep>
  <scstep>
   <time name="dav">   25.07   25.13</time>
   <time name="total">   25.60   25.67</time>
   <energy>
    <i name="e_fr_energy">   -189.71699144 </i>
    <i name="e_wo_entrp">   -189.47723089 </i>
    <i name="e_0_energy">   -189.59711117 </i>
   </energy>
  </scstep>
  <scstep>
   <time name="dav">   16.85   16.90</time>
   <time name="total">   16.89   16.94</time>
   <energy>
    <i name="alphaZ">     82.35323656 </i>
    <i name="ewald">  41305.79095933 </i>
    <i name="hartreedc"> -47278.02543116 </i>
    <i name="XCdc">   -235.25360148 </i>
    <i name="pawpsdc">   4038.50826034 </i>
    <i name="pawaedc">  -3454.20474077 </i>
    <i name="eentropy">     -0.23969541 </i>
    <i name="bandstr">  -1410.08852565 </i>
    <i name="atom">   6761.44252427 </i>
    <i name="e_fr_energy">   -189.71701397 </i>
    <i name="e_wo_entrp">   -189.47731856 </i>
    <i name="e_0_energy">   -189.59716627 </i>
   </energy>
  </scstep>
  <structure>
   <crystal>
    <varray name="basis" >
     <v>       8.66521147       4.99563737       0.00000000 </v>
     <v>      -8.66907164       5.00227917       0.00000000 </v>
     <v>       0.00000000       0.00000000      30.00000000 </v>
    </varray>
    <i name="volume">   2599.60035435 </i>
    <varray name="rec_basis" >
     <v>       0.05772748       0.10004313       0.00000000 </v>
     <v>      -0.05765083       0.09999858       0.00000000 </v>
     <v>       0.00000000       0.00000000       0.03333333 </v>
    </varray>
   </crystal>
   <varray name="positions" >
    <v>       0.99807687       0.33173986      -0.00017270 </v>
    <v>       0.66969716       0.66923164       0.00014823 </v>
    <v>       0.66854466       0.33383647       0.00005857 </v>
    <v>       0.00028199       0.66864082      -0.00006345 </v>
    <v>       0.66833293      -0.00017788       0.00004442 </v>
    <v>      -0.00160731      -0.00167989      -0.00016636 </v>
    <v>       0.33131792      -0.00212953       0.00004586 </v>
    <v>       0.33177826       0.33158591       0.00003874 </v>
    <v>       0.33322150       0.66867523       0.00011974 </v>
    <v>       0.10967965       0.22522476       0.95193540 </v>
    <v>       0.22325359       0.11157620       0.04924746 </v>
    <v>       0.10984001       0.55129363       0.95201783 </v>
    <v>       0.21863822       0.44272506       0.04797684 </v>
    <v>       0.11224159       0.88956636       0.95061140 </v>
    <v>       0.22332777       0.77828960       0.04943740 </v>
    <v>       0.44786100       0.22379945       0.95199438 </v>
    <v>       0.55651675       0.11498066       0.04792383 </v>
    <v>       0.44793963       0.55712738       0.95213641 </v>
    <v>       0.55878274       0.44588970       0.04676741 </v>
    <v>       0.44338765       0.88839647       0.95072301 </v>
    <v>       0.55674104       0.77446116       0.04804994 </v>
    <v>       0.77992683       0.22675658       0.95304550 </v>
    <v>       0.89104489       0.11563571       0.04807821 </v>
    <v>       0.77322151       0.55341448       0.95316106 </v>
    <v>       0.88671503       0.43988045       0.04682473 </v>
    <v>       0.77549584       0.88426207       0.95180969 </v>
    <v>       0.88395676       0.77521211       0.04820632 </v>
   </varray>
  </structure>
  <varray name="forces" >
   <v>       0.06750636      -0.22044502       0.00231175 </v>
   <v>      -0.01219535       0.39913170      -0.00518980 </v>
   <v>       0.12095965       0.07549131       0.07424083 </v>
   <v>      -0.13730709       0.54226413      -0.05552641 </v>
   <v>       0.22077038      -0.05386257       0.07004291 </v>
   <v>       0.12946033      -0.09777237      -0.00106660 </v>
   <v>       0.04200676      -0.47221737       0.00218724 </v>
   <v>       0.05638183      -0.33784579      -0.02121321 </v>
   <v>      -0.42923896       0.23188577      -0.08356691 </v>
   <v>      -0.10364284       0.00724783      -0.54453621 </v>
   <v>       0.02924832       0.00571935       0.56849269 </v>
   <v>       0.07017816      -0.07870210      -0.38936990 </v>
   <v>      -0.04676546      -0.07052714       0.35378598 </v>
   <v>      -0.00892173       0.04487987      -0.75378912 </v>
   <v>       0.02278117       0.02907035       0.74580474 </v>
   <v>       0.03492520       0.06262215      -0.35272952 </v>
   <v>      -0.07496732       0.07991513       0.34098826 </v>
   <v>       0.03101140       0.06266888      -0.20583560 </v>
   <v>       0.01351660       0.06308364       0.26080049 </v>
   <v>      -0.03527370      -0.01433078      -0.55240706 </v>
   <v>       0.11732447      -0.04403879       0.53306408 </v>
   <v>      -0.03441008       0.11109760      -0.48886433 </v>
   <v>      -0.05823214       0.13746151       0.52326017 </v>
   <v>      -0.04339287      -0.10145829      -0.37198918 </v>
   <v>       0.02533423      -0.08239274       0.34543038 </v>
   <v>       0.07874948      -0.13852578      -0.65713087 </v>
   <v>      -0.07580680      -0.14042050       0.66280519 </v>
  </varray>
  <varray name="stress" >
   <v>     -10.19890105       0.03989609      -0.03483777 </v>
   <v>       0.03989593      -9.84952032       0.02360777 </v>
   <v>      -0.03483787       0.02360768       6.49409124 </v>
  </varray>
  <energy>
   <i name="e_fr_energy">   -189.71701397 </i>
   <i name="e_wo_entrp">   -189.59716627 </i>
   <i name="e_0_energy">     -0.23969541 </i>
  </energy>
  <time name="totalsc">  372.27  373.25</time>
 </calculation>
 <calculation>
  <scstep>
   <time name="dav">   21.71   21.76</time>
   <time name="total">   22.23   22.28</time>
   <energy>
    <i name="alphaZ">     85.86162275 </i>
    <i name="ewald">  42852.74912566 </i>
    <i name="hartreedc"> -48869.76678346 </i>
    <i name="XCdc">   -232.93658861 </i>
    <i name="pawpsdc">   4038.52638486 </i>
    <i name="pawaedc">  -3454.22004553 </i>
    <i name="eentropy">     -0.19608810 </i>
    <i name="bandstr">  -1372.74227599 </i>
    <i name="atom">   6761.44252427 </i>
    <i name="e_fr_energy">   -191.28212415 </i>
    <i name="e_wo_entrp">   -191.08603605 </i>
    <i name="e_0_energy">   -191.18408010 </i>
   </energy>
  </scstep>
  <scstep>
   <time name="dav">   32.43   32.51</time>
   <time name="total">   32.94   33.03</time>
   <energy>
    <i name="e_fr_energy">   -191.15719112 </i>
    <i name="e_wo_entrp">   -190.95463587 </i>
    <i name="e_0_energy">   -191.05591350 </i>
   </energy>
  </scstep>
  <scstep>
   <time name="dav">   30.07   30.14</time>
   <time name="total">   30.58   30.66</time>
   <energy>
    <i name="e_fr_energy">   -191.19699330 </i>
    <i name="e_wo_entrp">   -190.98048556 </i>
    <i name="e_0_energy">   -191.08873943 </i>
   </energy>
  </scstep>
  <scstep>
   <time name="dav">   30.75   30.83</time>
   <time name="total">   31.27   31.35</time>
   <energy>
    <i name="e_fr_energy">   -190.83765261 </i>
    <i name="e_wo_entrp">   -190.63347903 </i>
    <i name="e_0_energy">   -190.73556582 </i>
   </energy>
  </scstep>
  <scstep>
   <time name="dav">   29.46   29.53</time>
   <time name="total">   29.98   30.06</time>
   <energy>
    <i name="e_fr_energy">   -190.83340231 </i>
    <i name="e_wo_entrp">   -190.63550167 </i>
    <i name="e_0_energy">   -190.73445199 </i>
   </energy>
  </scstep>
  <scstep>
   <time name="dav">   29.78   29.85</time>
   <time name="total">   30.30   30.38</time>
   <energy>
    <i name="e_fr_energy">   -190.68852902 </i>
    <i name="e_wo_entrp">   -190.48443464 </i>
    <i name="e_0_energy">   -190.58648183 </i>
   </energy>
  </scstep>
  <scstep>
   <time name="dav">   30.27   30.35</time>
   <time name="total">   30.79   30.87</time>
   <energy>
    <i name="e_fr_energy">   -190.68307105 </i>
    <i name="e_wo_entrp">   -190.48104686 </i>
    <i name="e_0_energy">   -190.58205895 </i>
   </energy>
  </scstep>
  <scstep>
   <time name="dav">   28.85   28.92</time>
   <time name="total">   29.36   29.44</time>
   <energy>
    <i name="e_fr_energy">   -190.68154545 </i>
    <i name="e_wo_entrp">   -190.47930439 </i>
    <i name="e_0_energy">   -190.58042492 </i>
   </energy>
  </scstep>
  <scstep>
   <time name="dav">   28.19   28.26</time>
   <time name="total">   28.71   28.78</time>
   <energy>
    <i name="e_fr_energy">   -190.67935172 </i>
    <i name="e_wo_entrp">   -190.47700431 </i>
    <i name="e_0_energy">   -190.57817802 </i>
   </energy>
  </scstep>
  <scstep>
   <time name="dav">   26.49   26.55</time>
   <time name="total">   27.00   27.08</time>
   <energy>
    <i name="e_fr_energy">   -190.67962401 </i>
    <i name="e_wo_entrp">   -190.47699270 </i>
    <i name="e_0_energy">   -190.57830835 </i>
   </energy>
  </scstep>
  <scstep>
   <time name="dav">   26.51   26.58</time>
   <time name="total">   27.03   27.10</time>
   <energy>
    <i name="e_fr_energy">   -190.67946404 </i>
    <i name="e_wo_entrp">   -190.47705928 </i>
    <i name="e_0_energy">   -190.57826166 </i>
   </energy>
  </scstep>
  <scstep>
   <time name="dav">   19.78   19.82</time>
   <time name="total">   19.81   19.87</time>
   <energy>
    <i name="alphaZ">     85.86162275 </i>
    <i name="ewald">  42852.74912566 </i>
    <i name="hartreedc"> -48840.96807788 </i>
    <i name="XCdc">   -234.28257217 </i>
    <i name="pawpsdc">   4063.65734794 </i>
    <i name="pawaedc">  -3479.53268890 </i>
    <i name="eentropy">     -0.20242353 </i>
    <i name="bandstr">  -1399.40431608 </i>
    <i name="atom">   6761.44252427 </i>
    <i name="e_fr_energy">   -190.67945795 </i>
    <i name="e_wo_entrp">   -190.47703442 </i>
    <i name="e_0_energy">   -190.57824618 </i>
   </energy>
  </scstep>
  <structure>
   <crystal>
    <varray name="basis" >
     <v>       8.48217078       4.89708877       0.00000000 </v>
     <v>      -8.48406220       4.90032608       0.00000000 </v>
     <v>       0.00000000       0.00000000      30.00000000 </v>
    </varray>
    <i name="volume">   2493.37825309 </i>
    <varray name="rec_basis" >
     <v>       0.05896008       0.10207912       0.00000000 </v>
     <v>      -0.05892113       0.10205637       0.00000000 </v>
     <v>       0.00000000       0.00000000       0.03333333 </v>
    </varray>
   </crystal>
   <varray name="positions" >
    <v>       0.99706155       0.33009291      -0.00014665 </v>
    <v>       0.67209713       0.67181902       0.00012020 </v>
    <v>       0.66931664       0.33378578       0.00021398 </v>
    <v>       0.00351950       0.67278466      -0.00016955 </v>
    <v>       0.66864023      -0.00144126       0.00018833 </v>
    <v>      -0.00156734      -0.00269383      -0.00014890 </v>
    <v>       0.32837060      -0.00540138       0.00004927 </v>
    <v>       0.32979354       0.32916752      -0.00000961 </v>
    <v>       0.33309405       0.67182123      -0.00006854 </v>
    <v>       0.10895596       0.22558527       0.95036974 </v>
    <v>       0.22313497       0.11134983       0.05090545 </v>
    <v>       0.10925009       0.55023184       0.95079230 </v>
    <v>       0.21759124       0.44226860       0.04913209 </v>
    <v>       0.11225802       0.88978500       0.94856047 </v>
    <v>       0.22333270       0.77827197       0.05149134 </v>
    <v>       0.44881230       0.22423513       0.95083529 </v>
    <v>       0.55705215       0.11605164       0.04903622 </v>
    <v>       0.44886589       0.55761786       0.95130134 </v>
    <v>       0.55967911       0.44647110       0.04769194 </v>
    <v>       0.44343724       0.88859758       0.94909806 </v>
    <v>       0.55722369       0.77376134       0.04958671 </v>
    <v>       0.78057329       0.22775295       0.95164127 </v>
    <v>       0.89182232       0.11691227       0.04957728 </v>
    <v>       0.77223512       0.55284326       0.95201393 </v>
    <v>       0.88623642       0.43913084       0.04790998 </v>
    <v>       0.77480405       0.88288869       0.95002010 </v>
    <v>       0.88262398       0.77452465       0.05000787 </v>
   </varray>
  </structure>
  <varray name="forces" >
   <v>       0.15277928      -0.21974416       0.04853947 </v>
   <v>      -0.02039380       0.36878458      -0.05218721 </v>
   <v>       0.07266925       0.05820144       0.04901700 </v>
   <v>      -0.09395134       0.60867205      -0.01027163 </v>
   <v>       0.22724143      -0.06807153       0.03204598 </v>
   <v>       0.15038868      -0.02305113       0.02439570 </v>
   <v>       0.03163799      -0.53377118      -0.00617907 </v>
   <v>       0.10847252      -0.38240393      -0.02834129 </v>
   <v>      -0.53433366       0.25803312      -0.05174126 </v>
   <v>      -0.04322948      -0.07967051      -0.41574227 </v>
   <v>       0.01551818      -0.06300715       0.40929319 </v>
   <v>      -0.02855809      -0.02887373      -0.25429816 </v>
   <v>      -0.05491858      -0.01872510       0.15519027 </v>
   <v>      -0.04909346       0.01068729      -0.61580488 </v>
   <v>      -0.01991910      -0.01504031       0.62184014 </v>
   <v>       0.05429241      -0.01376598      -0.20997263 </v>
   <v>      -0.01234878      -0.01276942       0.19110500 </v>
   <v>       0.00154039       0.01820681      -0.01908116 </v>
   <v>      -0.01482472       0.02516820       0.17499087 </v>
   <v>      -0.02382020       0.07001046      -0.40303550 </v>
   <v>       0.04553286      -0.02497871       0.38335568 </v>
   <v>       0.01699164       0.00524290      -0.37606657 </v>
   <v>       0.00173698       0.01947835       0.36598271 </v>
   <v>       0.00997271       0.04011523      -0.24909968 </v>
   <v>      -0.02955772       0.04935727       0.21806448 </v>
   <v>       0.04797573      -0.03009289      -0.46317241 </v>
   <v>      -0.01180112      -0.01799197       0.48117321 </v>
  </varray>
  <varray name="stress" >
   <v>      -5.78580327      -0.07945807      -0.05656513 </v>
   <v>      -0.07945823      -5.72852244      -0.05315595 </v>
   <v>      -0.05656505      -0.05315601       4.56448749 </v>
  </varray>
  <energy>
   <i name="e_fr_energy">   -190.67945795 </i>
   <i name="e_wo_entrp">   -190.57824618 </i>
   <i name="e_0_energy">     -0.20242353 </i>
  </energy>
  <time name="totalsc">  382.55  383.56</time>
 </calculation>
 <calculation>
  <scstep>
   <time name="dav">   21.66   21.71</time>
   <time name="total">   22.17   22.22</time>
   <energy>
    <i name="alphaZ">     90.23224212 </i>
    <i name="ewald">  44691.63721200 </i>
    <i name="hartreedc"> -50735.39657157 </i>
    <i name="XCdc">   -231.81643104 </i>
    <i name="pawpsdc">   4063.60477642 </i>
    <i name="pawaedc">  -3479.47498185 </i>
    <i name="eentropy">     -0.18024982 </i>
    <i name="bandstr">  -1352.11256581 </i>
    <i name="atom">   6761.44252427 </i>
    <i name="e_fr_energy">   -192.06404527 </i>
    <i name="e_wo_entrp">   -191.88379545 </i>
    <i name="e_0_energy">   -191.97392036 </i>
   </energy>
  </scstep>
  <scstep>
   <time name="dav">   29.56   29.63</time>
   <time name="total">   30.06   30.14</time>
   <energy>
    <i name="e_fr_energy">   -191.84181658 </i>
    <i name="e_wo_entrp">   -191.64961201 </i>
    <i name="e_0_energy">   -191.74571430 </i>
   </energy>
  </scstep>
  <scstep>
   <time name="dav">   29.84   29.91</time>
   <time name="total">   30.34   30.42</time>
   <energy>
    <i name="e_fr_energy">   -192.22541098 </i>
    <i name="e_wo_entrp">   -192.02408011 </i>
    <i name="e_0_energy">   -192.12474555 </i>
   </energy>
  </scstep>
  <scstep>
   <time name="dav">   29.78   29.85</time>
   <time name="total">   30.28   30.36</time>
   <energy>
    <i name="e_fr_energy">   -191.56109410 </i>
    <i name="e_wo_entrp">   -191.37342678 </i>
    <i name="e_0_energy">   -191.46726044 </i>
   </energy>
  </scstep>
  <scstep>
   <time name="dav">   30.04   30.12</time>
   <time name="total">   30.55   30.63</time>
   <energy>
    <i name="e_fr_energy">   -191.38799150 </i>
    <i name="e_wo_entrp">   -191.20215914 </i>
    <i name="e_0_energy">   -191.29507532 </i>
   </energy>
  </scstep>
  <scstep>
   <time name="dav">   30.57   30.64</time>
   <time name="total">   31.08   31.16</time>
   <energy>
    <i name="e_fr_energy">   -191.37117785 </i>
    <i name="e_wo_entrp">   -191.17723848 </i>
    <i name="e_0_energy">   -191.27420817 </i>
   </energy>
  </scstep>
  <scstep>
   <time name="dav">   29.87   29.94</time>
   <time name="total">   30.38   30.46</time>
   <energy>
    <i name="e_fr_energy">   -191.34723704 </i>
    <i name="e_wo_entrp">   -191.16031964 </i>
    <i name="e_0_energy">   -191.25377834 </i>
   </energy>
  </scstep>
  <scstep>
   <time name="dav">   27.87   27.94</time>
   <time name="total">   28.37   28.45</time>
   <energy>
    <i name="e_fr_energy">   -191.33987407 </i>
    <i name="e_wo_entrp">   -191.15150423 </i>
    <i name="e_0_energy">   -191.24568915 </i>
   </energy>
  </scstep>
  <scstep>
   <time name="dav">   30.65   30.72</time>
   <time name="total">   31.16   31.24</time>
   <energy>
    <i name="e_fr_energy">   -191.34119136 </i>
    <i name="e_wo_entrp">   -191.15250918 </i>
    <i name="e_0_energy">   -191.24685027 </i>
   </energy>
  </scstep>
  <scstep>
   <time name="dav">   28.06   28.13</time>
   <time name="total">   28.57   28.65</time>
   <energy>
    <i name="e_fr_energy">   -191.34016125 </i>
    <i name="e_wo_entrp">   -191.15155178 </i>
    <i name="e_0_energy">   -191.24585651 </i>
   </energy>
  </scstep>
  <scstep>
   <time name="dav">   26.43   26.49</time>
   <time name="total">   26.94   27.01</time>
   <energy>
    <i name="e_fr_energy">   -191.33999476 </i>
    <i name="e_wo_entrp">   -191.15132996 </i>
    <i name="e_0_energy">   -191.24566236 </i>
   </energy>
  </scstep>
  <scstep>
   <time name="dav">   20.25   20.30</time>
   <time name="total">   20.29   20.34</time>
   <energy>
    <i name="alphaZ">     90.23224212 </i>
    <i name="ewald">  44691.63721200 </i>
    <i name="hartreedc"> -50701.19730488 </i>
    <i name="XCdc">   -233.35930114 </i>
    <i name="pawpsdc">   4084.64530985 </i>
    <i name="pawaedc">  -3500.58692162 </i>
    <i name="eentropy">     -0.18864183 </i>
    <i name="bandstr">  -1383.96508001 </i>
    <i name="atom">   6761.44252427 </i>
    <i name="e_fr_energy">   -191.33996123 </i>
    <i name="e_wo_entrp">   -191.15131940 </i>
    <i name="e_0_energy">   -191.24564031 </i>
   </energy>
  </scstep>
  <structure>
   <crystal>
    <varray name="basis" >
     <v>       8.27005820       4.77498401       0.00000000 </v>
     <v>      -8.27573245       4.78477356       0.00000000 </v>
     <v>       0.00000000       0.00000000      30.00000000 </v>
    </varray>
    <i name="volume">   2372.60537802 </i>
    <varray name="rec_basis" >
     <v>       0.06050025       0.10464107       0.00000000 </v>
     <v>      -0.06037646       0.10456933       0.00000000 </v>
     <v>       0.00000000       0.00000000       0.03333333 </v>
    </varray>
   </crystal>
   <varray name="positions" >
    <v>       0.99551054       0.32638183       0.00004664 </v>
    <v>       0.67645625       0.67656458      -0.00008267 </v>
    <v>       0.67045754       0.33386753       0.00042464 </v>
    <v>       0.01053518       0.68111097      -0.00022434 </v>
    <v>       0.66925396      -0.00399580       0.00033493 </v>
    <v>      -0.00071862      -0.00406501      -0.00004262 </v>
    <v>       0.32201622      -0.01224627       0.00002780 </v>
    <v>       0.32582438       0.32373581      -0.00012385 </v>
    <v>       0.33250009       0.67876948      -0.00030914 </v>
    <v>       0.10730948       0.22504945       0.94814156 </v>
    <v>       0.22230192       0.11039057       0.05317312 </v>
    <v>       0.10830465       0.54954183       0.94922580 </v>
    <v>       0.21639597       0.44212314       0.05034126 </v>
    <v>       0.11186983       0.89017173       0.94547045 </v>
    <v>       0.22282367       0.77812603       0.05462041 </v>
    <v>       0.44963186       0.22402291       0.94943053 </v>
    <v>       0.55725316       0.11653953       0.05034385 </v>
    <v>       0.44968487       0.55811601       0.95065677 </v>
    <v>       0.56049107       0.44718901       0.04887629 </v>
    <v>       0.44428139       0.88968105       0.94686024 </v>
    <v>       0.55766066       0.77303427       0.05169102 </v>
    <v>       0.78096916       0.22812335       0.94963270 </v>
    <v>       0.89235600       0.11762595       0.05159641 </v>
    <v>       0.77228888       0.55297420       0.95052331 </v>
    <v>       0.88640399       0.43950995       0.04927139 </v>
    <v>       0.77450043       0.88171949       0.94757888 </v>
    <v>       0.88185192       0.77415286       0.05251451 </v>
   </varray>
  </structure>
  <varray name="forces" >
   <v>       0.24802590      -0.30615880       0.01349773 </v>
   <v>       0.02803008       0.34178078      -0.00580323 </v>
   <v>      -0.01117831       0.10821586       0.05272992 </v>
   <v>      -0.03367516       0.29850715       0.02248381 </v>
   <v>       0.18828198      -0.00813700      -0.02471110 </v>
   <v>       0.01199941       0.08597067      -0.03876561 </v>
   <v>      -0.07210075      -0.27946922      -0.06654581 </v>
   <v>       0.24710200      -0.45367616      -0.04637750 </v>
   <v>      -0.46943247       0.22400104       0.05327854 </v>
   <v>       0.01740136      -0.12430940      -0.13463081 </v>
   <v>       0.07433420      -0.09695390       0.19821858 </v>
   <v>      -0.13392817       0.07125242       0.06921060 </v>
   <v>      -0.03164296       0.08043406      -0.18539992 </v>
   <v>      -0.09116322       0.01424719      -0.28322594 </v>
   <v>      -0.02962553      -0.00047855       0.35909637 </v>
   <v>       0.07455639      -0.15550138       0.02183524 </v>
   <v>       0.04206148      -0.17607746      -0.12086128 </v>
   <v>      -0.11632070      -0.07684513       0.31536684 </v>
   <v>      -0.06581586      -0.03011951      -0.09984154 </v>
   <v>      -0.09514170       0.13780497      -0.15316824 </v>
   <v>      -0.04003051      -0.04615856       0.04977486 </v>
   <v>       0.06544685      -0.06620495      -0.02853499 </v>
   <v>       0.08086602      -0.10522111       0.11810572 </v>
   <v>       0.06403781       0.19877989       0.01073191 </v>
   <v>      -0.04417594       0.18491374      -0.09133065 </v>
   <v>       0.02310582       0.07780627      -0.13150321 </v>
   <v>       0.06898197       0.10159708       0.12636970 </v>
  </varray>
  <varray name="stress" >
   <v>      -0.30633290      -0.18481382       0.27760770 </v>
   <v>      -0.18481412       0.11812119      -0.18651182 </v>
   <v>       0.27760782      -0.18651189      -0.43394050 </v>
  </varray>
  <energy>
   <i name="e_fr_energy">   -191.33996123 </i>
   <i name="e_wo_entrp">   -191.24564031 </i>
   <i name="e_0_energy">     -0.18864183 </i>
  </energy>
  <time name="totalsc">  382.18  383.19</time>
 </calculation>
 <calculation>
  <scstep>
   <time name="dav">   21.68   21.74</time>
   <time name="total">   22.19   22.25</time>
   <energy>
    <i name="alphaZ">     90.31744994 </i>
    <i name="ewald">  44707.98624622 </i>
    <i name="hartreedc"> -50719.26984545 </i>
    <i name="XCdc">   -233.39214456 </i>
    <i name="pawpsdc">   4084.53905633 </i>
    <i name="pawaedc">  -3500.47552921 </i>
    <i name="eentropy">     -0.18942636 </i>
    <i name="bandstr">  -1382.38500133 </i>
    <i name="atom">   6761.44252427 </i>
    <i name="e_fr_energy">   -191.42667016 </i>
    <i name="e_wo_entrp">   -191.23724380 </i>
    <i name="e_0_energy">   -191.33195698 </i>
   </energy>
  </scstep>
  <scstep>
   <time name="dav">   32.12   32.20</time>
   <time name="total">   32.63   32.71</time>
   <energy>
    <i name="e_fr_energy">   -191.48932698 </i>
    <i name="e_wo_entrp">   -191.28875473 </i>
    <i name="e_0_energy">   -191.38904085 </i>
   </energy>
  </scstep>
  <scstep>
   <time name="dav">   30.06   30.13</time>
   <time name="total">   30.56   30.64</time>
   <energy>
    <i name="e_fr_energy">   -191.44246363 </i>
    <i name="e_wo_entrp">   -191.25242428 </i>
    <i name="e_0_energy">   -191.34744395 </i>
   </energy>
  </scstep>
  <scstep>
   <time name="dav">   28.92   28.99</time>
   <time name="total">   29.43   29.50</time>
   <energy>
    <i name="e_fr_energy">   -191.44289282 </i>
    <i name="e_wo_entrp">   -191.25181153 </i>
    <i name="e_0_energy">   -191.34735218 </i>
   </energy>
  </scstep>
  <scstep>
   <time name="dav">   28.84   28.91</time>
   <time name="total">   29.35   29.43</time>
   <energy>
    <i name="e_fr_energy">   -191.43753106 </i>
    <i name="e_wo_entrp">   -191.24618729 </i>
    <i name="e_0_energy">   -191.34185917 </i>
   </energy>
  </scstep>
  <scstep>
   <time name="dav">   27.38   27.44</time>
   <time name="total">   27.88   27.96</time>
   <energy>
    <i name="e_fr_energy">   -191.43707952 </i>
    <i name="e_wo_entrp">   -191.24548724 </i>
    <i name="e_0_energy">   -191.34128338 </i>
   </energy>
  </scstep>
  <scstep>
   <time name="dav">   26.15   26.21</time>
   <time name="total">   26.65   26.73</time>
   <energy>
    <i name="e_fr_energy">   -191.43684459 </i>
    <i name="e_wo_entrp">   -191.24507075 </i>
    <i name="e_0_energy">   -191.34095767 </i>
   </energy>
  </scstep>
  <scstep>
   <time name="dav">   24.49   24.55</time>
   <time name="total">   24.53   24.59</time>
   <energy>
    <i name="alphaZ">     90.31744994 </i>
    <i name="ewald">  44707.98624622 </i>
    <i name="hartreedc"> -50719.53890638 </i>
    <i name="XCdc">   -233.39716061 </i>
    <i name="pawpsdc">   4083.04861761 </i>
    <i name="pawaedc">  -3498.95403735 </i>
    <i name="eentropy">     -0.19158766 </i>
    <i name="bandstr">  -1382.14994562 </i>
    <i name="atom">   6761.44252427 </i>
    <i name="e_fr_energy">   -191.43679958 </i>
    <i name="e_wo_entrp">   -191.24521191 </i>
    <i name="e_0_energy">   -191.34100575 </i>
   </energy>
  </scstep>
  <structure>
   <crystal>
    <varray name="basis" >
     <v>       8.25894670       4.77132189       0.00000000 </v>
     <v>      -8.26944786       4.78947706       0.00000000 </v>
     <v>       0.00000000       0.00000000      30.00000000 </v>
    </varray>
    <i name="volume">   2370.36700081 </i>
    <varray name="rec_basis" >
     <v>       0.06061691       0.10466035       0.00000000 </v>
     <v>      -0.06038713       0.10452744       0.00000000 </v>
     <v>       0.00000000       0.00000000       0.03333333 </v>
    </varray>
   </crystal>
   <varray name="positions" >
    <v>       0.99464614       0.32400428       0.00007174 </v>
    <v>       0.67837274       0.67831907      -0.00009519 </v>
    <v>       0.67100000       0.33446039       0.00051481 </v>
    <v>       0.01208500       0.68288025      -0.00018823 </v>
    <v>       0.66978253      -0.00463890       0.00029656 </v>
    <v>      -0.00022472      -0.00367697      -0.00010485 </v>
    <v>       0.32026015      -0.01357819      -0.00008215 </v>
    <v>       0.32415708       0.32057244      -0.00020198 </v>
    <v>       0.33224627       0.68143189      -0.00022524 </v>
    <v>       0.10669038       0.22434825       0.94788102 </v>
    <v>       0.22200862       0.10965245       0.05353969 </v>
    <v>       0.10825477       0.55029437       0.94931115 </v>
    <v>       0.21669396       0.44262823       0.05005952 </v>
    <v>       0.11166339       0.89052233       0.94495163 </v>
    <v>       0.22272320       0.77820880       0.05526498 </v>
    <v>       0.44906858       0.22299670       0.94944006 </v>
    <v>       0.55647548       0.11551649       0.05016948 </v>
    <v>       0.44895738       0.55807619       0.95116126 </v>
    <v>       0.56015649       0.44724344       0.04873414 </v>
    <v>       0.44472379       0.89069411       0.94656841 </v>
    <v>       0.55731281       0.77290336       0.05180994 </v>
    <v>       0.78083039       0.22759547       0.94955087 </v>
    <v>       0.89206426       0.11685603       0.05182652 </v>
    <v>       0.77350451       0.55380976       0.95051397 </v>
    <v>       0.88722869       0.44059907       0.04914595 </v>
    <v>       0.77496482       0.88203082       0.94732010 </v>
    <v>       0.88256773       0.77446433       0.05276574 </v>
   </varray>
  </structure>
  <varray name="forces" >
   <v>       0.24874848      -0.34397796       0.02205719 </v>
   <v>       0.07457161       0.39072313       0.00185805 </v>
   <v>      -0.03365347       0.16299097       0.10396068 </v>
   <v>      -0.08327273       0.29386278       0.00263450 </v>
   <v>       0.22288089      -0.00718846      -0.00410975 </v>
   <v>      -0.02697434       0.08315080      -0.01165718 </v>
   <v>      -0.10164679      -0.28401430      -0.00902032 </v>
   <v>       0.32824522      -0.52126978      -0.02506449 </v>
   <v>      -0.49669865       0.27772439       0.00342082 </v>
   <v>       0.00722327      -0.08796799      -0.15160706 </v>
   <v>       0.05306224      -0.07973552       0.17427651 </v>
   <v>      -0.07545680       0.05108472       0.12711835 </v>
   <v>      -0.00523189       0.06647682      -0.24232935 </v>
   <v>      -0.07589414      -0.00673132      -0.19930633 </v>
   <v>      -0.05422806       0.02962171       0.25478358 </v>
   <v>       0.06244814      -0.10538314      -0.00848476 </v>
   <v>       0.02288336      -0.12150644      -0.18632339 </v>
   <v>      -0.08510613      -0.08988317       0.39796318 </v>
   <v>      -0.07020538      -0.03005870      -0.15906228 </v>
   <v>      -0.07599598       0.09725925      -0.08241942 </v>
   <v>      -0.01968296      -0.02984749       0.01148798 </v>
   <v>       0.04728546      -0.04166848      -0.00177917 </v>
   <v>       0.05530322      -0.08207598       0.10120661 </v>
   <v>       0.03439719       0.13188643       0.02845396 </v>
   <v>      -0.00793196       0.12623505      -0.12641527 </v>
   <v>       0.03125475       0.04375321      -0.11573441 </v>
   <v>       0.02367544       0.07653945       0.09409178 </v>
  </varray>
  <varray name="stress" >
   <v>       0.05766425      -0.05964677       0.13853501 </v>
   <v>      -0.05964663       0.09515665      -0.04378853 </v>
   <v>       0.13853501      -0.04378855      -1.22657305 </v>
  </varray>
  <energy>
   <i name="e_fr_energy">   -191.43679958 </i>
   <i name="e_wo_entrp">   -191.34100575 </i>
   <i name="e_0_energy">     -0.19158766 </i>
  </energy>
  <time name="totalsc">  265.82  266.52</time>
 </calculation>
 <calculation>
  <scstep>
   <time name="dav">   21.64   21.69</time>
   <time name="total">   22.14   22.20</time>
   <energy>
    <i name="alphaZ">     90.29929410 </i>
    <i name="ewald">  44700.81087039 </i>
    <i name="hartreedc"> -50712.10870299 </i>
    <i name="XCdc">   -233.40538345 </i>
    <i name="pawpsdc">   4083.04380497 </i>
    <i name="pawaedc">  -3498.94933276 </i>
    <i name="eentropy">     -0.19118574 </i>
    <i name="bandstr">  -1382.40186854 </i>
    <i name="atom">   6761.44252427 </i>
    <i name="e_fr_energy">   -191.45997975 </i>
    <i name="e_wo_entrp">   -191.26879401 </i>
    <i name="e_0_energy">   -191.36438688 </i>
   </energy>
  </scstep>
  <scstep>
   <time name="dav">   32.95   33.03</time>
   <time name="total">   33.45   33.54</time>
   <energy>
    <i name="e_fr_energy">   -191.46326470 </i>
    <i name="e_wo_entrp">   -191.26934595 </i>
    <i name="e_0_energy">   -191.36630532 </i>
   </energy>
  </scstep>
  <scstep>
   <time name="dav">   28.43   28.50</time>
   <time name="total">   28.94   29.02</time>
   <energy>
    <i name="e_fr_energy">   -191.46063115 </i>
    <i name="e_wo_entrp">   -191.26932559 </i>
    <i name="e_0_energy">   -191.36497837 </i>
   </energy>
  </scstep>
  <scstep>
   <time name="dav">   25.26   25.32</time>
   <time name="total">   25.77   25.84</time>
   <energy>
    <i name="e_fr_energy">   -191.46079835 </i>
    <i name="e_wo_entrp">   -191.26928148 </i>
    <i name="e_0_energy">   -191.36503991 </i>
   </energy>
  </scstep>
  <scstep>
   <time name="dav">   22.84   22.90</time>
   <time name="total">   23.35   23.41</time>
   <energy>
    <i name="e_fr_energy">   -191.46045546 </i>
    <i name="e_wo_entrp">   -191.26882360 </i>
    <i name="e_0_energy">   -191.36463953 </i>
   </energy>
  </scstep>
  <scstep>
[...]
      <set comment="kpoint 31">
       <r>  -17.4993    1.0000 </r>
       <r>  -17.3359    1.0000 </r>
       <r>  -16.8562    1.0000 </r>
       <r>  -16.5385    1.0000 </r>
       <r>  -16.4318    1.0000 </r>
       <r>  -16.3756    1.0000 </r>
       <r>  -16.2610    1.0000 </r>
       <r>  -16.1783    1.0000 </r>
       <r>  -16.1327    1.0000 </r>
       <r>  -15.9973    1.0000 </r>
       <r>  -15.9517    1.0000 </r>
       <r>  -15.8183    1.0000 </r>
       <r>  -15.8011    1.0000 </r>
       <r>  -15.7309    1.0000 </r>
       <r>  -15.6337    1.0000 </r>
       <r>  -15.5409    1.0000 </r>
       <r>  -15.4853    1.0000 </r>
       <r>  -15.4329    1.0000 </r>
       <r>   -9.8100    1.0000 </r>
       <r>   -9.4030    1.0000 </r>
       <r>   -9.3373    1.0000 </r>
       <r>   -8.9930    1.0000 </r>
       <r>   -8.7999    1.0000 </r>
       <r>   -8.6810    1.0000 </r>
       <r>   -8.6080    1.0000 </r>
       <r>   -8.4565    1.0000 </r>
       <r>   -8.3694    1.0000 </r>
       <r>   -8.3334    1.0000 </r>
       <r>   -8.2473    1.0000 </r>
       <r>   -8.1985    1.0000 </r>
       <r>   -8.1289    1.0000 </r>
       <r>   -8.0741    1.0000 </r>
       <r>   -7.9478    1.0000 </r>
       <r>   -7.9197    1.0000 </r>
       <r>   -7.8232    1.0000 </r>
       <r>   -7.5385    1.0000 </r>
       <r>   -7.4969    1.0000 </r>
       <r>   -7.4013    1.0000 </r>
       <r>   -7.2712    1.0000 </r>
       <r>   -7.1532    1.0000 </r>
       <r>   -7.0971    1.0000 </r>
       <r>   -7.0726    1.0000 </r>
       <r>   -6.9827    1.0000 </r>
       <r>   -6.9211    1.0000 </r>
       <r>   -6.8561    1.0000 </r>
       <r>   -6.7796    1.0000 </r>
       <r>   -6.7084    1.0000 </r>
       <r>   -6.6585    1.0000 </r>
       <r>   -6.5560    1.0000 </r>
       <r>   -6.4871    1.0000 </r>
       <r>   -6.4498    1.0000 </r>
       <r>   -6.3354    1.0000 </r>
       <r>   -6.2879    1.0000 </r>
       <r>   -6.1695    1.0000 </r>
       <r>   -6.0893    1.0000 </r>
       <r>   -5.9980    1.0000 </r>
       <r>   -5.9396    1.0000 </r>
       <r>   -5.9111    1.0000 </r>
       <r>   -5.8745    1.0000 </r>
       <r>   -5.8304    1.0000 </r>
       <r>   -5.7521    1.0000 </r>
       <r>   -5.6547    1.0000 </r>
       <r>   -5.6260    1.0000 </r>
       <r>   -5.5267    1.0000 </r>
       <r>   -5.2412    1.0000 </r>
       <r>   -5.1017    1.0000 </r>
       <r>   -5.0577    1.0000 </r>
       <r>   -4.8995    1.0000 </r>
       <r>   -4.8644    1.0000 </r>
       <r>   -4.7151    1.0000 </r>
       <r>   -4.5308    1.0000 </r>
       <r>   -4.4012    1.0000 </r>
       <r>   -4.1726    1.0000 </r>
       <r>   -4.0876    1.0000 </r>
       <r>   -3.9177    1.0000 </r>
       <r>   -3.6946    1.0000 </r>
       <r>   -3.5629    0.9998 </r>
       <r>   -3.5009    0.9992 </r>
       <r>   -3.3046    0.9601 </r>
       <r>   -3.0089    0.3671 </r>
       <r>   -2.9240    0.1736 </r>
       <r>   -2.7798    0.0250 </r>
       <r>   -2.6614    0.0026 </r>
       <r>   -2.6155    0.0009 </r>
       <r>   -2.5247    0.0001 </r>
       <r>   -2.4156    0.0000 </r>
       <r>   -2.3123    0.0000 </r>
       <r>   -2.2263    0.0000 </r>
       <r>   -2.2001    0.0000 </r>
       <r>   -2.0425    0.0000 </r>
       <r>   -1.8926    0.0000 </r>
       <r>   -1.6580    0.0000 </r>
       <r>   -1.5080    0.0000 </r>
       <r>   -1.4106    0.0000 </r>
       <r>   -1.3172    0.0000 </r>
       <r>   -1.1810    0.0000 </r>
       <r>   -1.1277    0.0000 </r>
       <r>   -0.8484    0.0000 </r>
       <r>   -0.8368    0.0000 </r>
       <r>   -0.7769    0.0000 </r>
       <r>   -0.6860    0.0000 </r>
       <r>   -0.6561    0.0000 </r>
       <r>   -0.5771    0.0000 </r>
       <r>   -0.5158    0.0000 </r>
       <r>   -0.3608    0.0000 </r>
       <r>   -0.2959    0.0000 </r>
       <r>   -0.1626    0.0000 </r>
       <r>   -0.0153    0.0000 </r>
       <r>    0.0808    0.0000 </r>
       <r>    0.3479    0.0000 </r>
       <r>    0.4994    0.0000 </r>
       <r>    0.6909    0.0000 </r>
       <r>    0.7879    0.0000 </r>
       <r>    0.9625    0.0000 </r>
       <r>    1.2117    0.0000 </r>
       <r>    1.2837    0.0000 </r>
       <r>    1.6414    0.0000 </r>
       <r>    2.1616    0.0000 </r>
       <r>    2.2981    0.0000 </r>
       <r>    2.4178    0.0000 </r>
      </set>
      <set comment="kpoint 32">
       <r>  -17.5199    1.0000 </r>
       <r>  -17.2668    1.0000 </r>
       <r>  -16.9628    1.0000 </r>
       <r>  -16.5282    1.0000 </r>
       <r>  -16.3785    1.0000 </r>
       <r>  -16.3209    1.0000 </r>
       <r>  -16.2631    1.0000 </r>
       <r>  -16.1984    1.0000 </r>
       <r>  -16.1368    1.0000 </r>
       <r>  -16.0129    1.0000 </r>
       <r>  -15.9191    1.0000 </r>
       <r>  -15.8971    1.0000 </r>
       <r>  -15.8045    1.0000 </r>
       <r>  -15.7276    1.0000 </r>
       <r>  -15.6462    1.0000 </r>
       <r>  -15.5367    1.0000 </r>
       <r>  -15.4659    1.0000 </r>
       <r>  -15.4133    1.0000 </r>
       <r>   -9.7758    1.0000 </r>
       <r>   -9.4799    1.0000 </r>
       <r>   -9.4183    1.0000 </r>
       <r>   -8.9599    1.0000 </r>
       <r>   -8.6715    1.0000 </r>
       <r>   -8.5810    1.0000 </r>
       <r>   -8.5670    1.0000 </r>
       <r>   -8.4451    1.0000 </r>
       <r>   -8.3785    1.0000 </r>
       <r>   -8.3128    1.0000 </r>
       <r>   -8.2707    1.0000 </r>
       <r>   -8.2347    1.0000 </r>
       <r>   -8.1894    1.0000 </r>
       <r>   -8.1214    1.0000 </r>
       <r>   -8.0913    1.0000 </r>
       <r>   -7.8974    1.0000 </r>
       <r>   -7.8277    1.0000 </r>
       <r>   -7.5015    1.0000 </r>
       <r>   -7.4441    1.0000 </r>
       <r>   -7.3347    1.0000 </r>
       <r>   -7.3049    1.0000 </r>
       <r>   -7.2537    1.0000 </r>
       <r>   -7.1189    1.0000 </r>
       <r>   -7.0598    1.0000 </r>
       <r>   -6.9768    1.0000 </r>
       <r>   -6.9385    1.0000 </r>
       <r>   -6.8407    1.0000 </r>
       <r>   -6.7530    1.0000 </r>
       <r>   -6.7182    1.0000 </r>
       <r>   -6.6281    1.0000 </r>
       <r>   -6.5561    1.0000 </r>
       <r>   -6.5313    1.0000 </r>
       <r>   -6.4472    1.0000 </r>
       <r>   -6.4199    1.0000 </r>
       <r>   -6.2769    1.0000 </r>
       <r>   -6.2241    1.0000 </r>
       <r>   -6.1105    1.0000 </r>
       <r>   -5.9611    1.0000 </r>
       <r>   -5.9204    1.0000 </r>
       <r>   -5.8674    1.0000 </r>
       <r>   -5.8441    1.0000 </r>
       <r>   -5.7420    1.0000 </r>
       <r>   -5.6727    1.0000 </r>
       <r>   -5.5126    1.0000 </r>
       <r>   -5.4542    1.0000 </r>
       <r>   -5.3727    1.0000 </r>
       <r>   -5.3446    1.0000 </r>
       <r>   -5.2708    1.0000 </r>
       <r>   -5.2003    1.0000 </r>
       <r>   -5.0393    1.0000 </r>
       <r>   -4.9201    1.0000 </r>
       <r>   -4.7041    1.0000 </r>
       <r>   -4.5687    1.0000 </r>
       <r>   -4.4229    1.0000 </r>
       <r>   -4.2034    1.0000 </r>
       <r>   -3.9605    1.0000 </r>
       <r>   -3.8808    1.0000 </r>
       <r>   -3.7350    1.0000 </r>
       <r>   -3.5659    0.9998 </r>
       <r>   -3.4844    0.9987 </r>
       <r>   -3.2719    0.9358 </r>
       <r>   -3.0012    0.3469 </r>
       <r>   -2.8979    0.1304 </r>
       <r>   -2.7736    0.0226 </r>
       <r>   -2.7016    0.0060 </r>
       <r>   -2.5996    0.0006 </r>
       <r>   -2.5521    0.0002 </r>
       <r>   -2.4391    0.0000 </r>
       <r>   -2.3766    0.0000 </r>
       <r>   -2.2635    0.0000 </r>
       <r>   -2.1652    0.0000 </r>
       <r>   -2.0747    0.0000 </r>
       <r>   -1.8704    0.0000 </r>
       <r>   -1.6972    0.0000 </r>
       <r>   -1.5125    0.0000 </r>
       <r>   -1.3868    0.0000 </r>
       <r>   -1.2991    0.0000 </r>
       <r>   -1.1568    0.0000 </r>
       <r>   -1.0861    0.0000 </r>
       <r>   -0.8600    0.0000 </r>
       <r>   -0.8143    0.0000 </r>
       <r>   -0.7606    0.0000 </r>
       <r>   -0.7295    0.0000 </r>
       <r>   -0.6055    0.0000 </r>
       <r>   -0.5699    0.0000 </r>
       <r>   -0.5106    0.0000 </r>
       <r>   -0.3685    0.0000 </r>
       <r>   -0.2481    0.0000 </r>
       <r>   -0.1330    0.0000 </r>
       <r>   -0.0050    0.0000 </r>
       <r>    0.1531    0.0000 </r>
       <r>    0.2485    0.0000 </r>
       <r>    0.3985    0.0000 </r>
       <r>    0.6608    0.0000 </r>
       <r>    0.7987    0.0000 </r>
       <r>    0.9694    0.0000 </r>
       <r>    1.2298    0.0000 </r>
       <r>    1.2700    0.0000 </r>
       <r>    1.6466    0.0000 </r>
       <r>    2.1328    0.0000 </r>
       <r>    2.2722    0.0000 </r>
       <r>    2.5987    0.0000 </r>
      </set>
      <set comment="kpoint 33">
       <r>  -17.4963    1.0000 </r>
       <r>  -17.3272    1.0000 </r>
       <r>  -16.8716    1.0000 </r>
       <r>  -16.5262    1.0000 </r>
       <r>  -16.4452    1.0000 </r>
       <r>  -16.3975    1.0000 </r>
       <r>  -16.2651    1.0000 </r>
       <r>  -16.1991    1.0000 </r>
       <r>  -16.0982    1.0000 </r>
       <r>  -16.0095    1.0000 </r>
       <r>  -15.9198    1.0000 </r>
       <r>  -15.8213    1.0000 </r>
       <r>  -15.8001    1.0000 </r>
       <r>  -15.7207    1.0000 </r>
       <r>  -15.6424    1.0000 </r>
       <r>  -15.5622    1.0000 </r>
       <r>  -15.4741    1.0000 </r>
       <r>  -15.4201    1.0000 </r>
       <r>   -9.8174    1.0000 </r>
       <r>   -9.3916    1.0000 </r>
       <r>   -9.3652    1.0000 </r>
       <r>   -8.9642    1.0000 </r>
       <r>   -8.7604    1.0000 </r>
       <r>   -8.7226    1.0000 </r>
       <r>   -8.6271    1.0000 </r>
       <r>   -8.5053    1.0000 </r>
       <r>   -8.3932    1.0000 </r>
       <r>   -8.3265    1.0000 </r>
       <r>   -8.2653    1.0000 </r>
       <r>   -8.1895    1.0000 </r>
       <r>   -8.1408    1.0000 </r>
       <r>   -8.0411    1.0000 </r>
       <r>   -7.9607    1.0000 </r>
       <r>   -7.8656    1.0000 </r>
       <r>   -7.7105    1.0000 </r>
       <r>   -7.5895    1.0000 </r>
       <r>   -7.5259    1.0000 </r>
       <r>   -7.4519    1.0000 </r>
       <r>   -7.3153    1.0000 </r>
       <r>   -7.2399    1.0000 </r>
       <r>   -7.0664    1.0000 </r>
       <r>   -6.9923    1.0000 </r>
       <r>   -6.9680    1.0000 </r>
       <r>   -6.8905    1.0000 </r>
       <r>   -6.8401    1.0000 </r>
       <r>   -6.7751    1.0000 </r>
       <r>   -6.7308    1.0000 </r>
       <r>   -6.6469    1.0000 </r>
       <r>   -6.5965    1.0000 </r>
       <r>   -6.5024    1.0000 </r>
       <r>   -6.4816    1.0000 </r>
       <r>   -6.3344    1.0000 </r>
       <r>   -6.2576    1.0000 </r>
       <r>   -6.1867    1.0000 </r>
       <r>   -6.0586    1.0000 </r>
       <r>   -5.9645    1.0000 </r>
       <r>   -5.8817    1.0000 </r>
       <r>   -5.8635    1.0000 </r>
       <r>   -5.8052    1.0000 </r>
       <r>   -5.7981    1.0000 </r>
       <r>   -5.7339    1.0000 </r>
       <r>   -5.6845    1.0000 </r>
       <r>   -5.6051    1.0000 </r>
       <r>   -5.5449    1.0000 </r>
       <r>   -5.3267    1.0000 </r>
       <r>   -5.1277    1.0000 </r>
       <r>   -5.0249    1.0000 </r>
       <r>   -4.9493    1.0000 </r>
       <r>   -4.8335    1.0000 </r>
       <r>   -4.7651    1.0000 </r>
       <r>   -4.5656    1.0000 </r>
       <r>   -4.3874    1.0000 </r>
       <r>   -4.3610    1.0000 </r>
       <r>   -3.9242    1.0000 </r>
       <r>   -3.8451    1.0000 </r>
       <r>   -3.6691    1.0000 </r>
       <r>   -3.6059    0.9999 </r>
       <r>   -3.4778    0.9985 </r>
       <r>   -3.2656    0.9299 </r>
       <r>   -3.0379    0.4465 </r>
       <r>   -2.9951    0.3310 </r>
       <r>   -2.8166    0.0446 </r>
       <r>   -2.7050    0.0064 </r>
       <r>   -2.5631    0.0002 </r>
       <r>   -2.5160    0.0001 </r>
       <r>   -2.4462    0.0000 </r>
       <r>   -2.3521    0.0000 </r>
       <r>   -2.2662    0.0000 </r>
       <r>   -2.1535    0.0000 </r>
       <r>   -2.1339    0.0000 </r>
       <r>   -1.8541    0.0000 </r>
       <r>   -1.7166    0.0000 </r>
       <r>   -1.5483    0.0000 </r>
       <r>   -1.3700    0.0000 </r>
       <r>   -1.2445    0.0000 </r>
       <r>   -1.1125    0.0000 </r>
       <r>   -1.0406    0.0000 </r>
       <r>   -0.8653    0.0000 </r>
       <r>   -0.8444    0.0000 </r>
       <r>   -0.7288    0.0000 </r>
       <r>   -0.6889    0.0000 </r>
       <r>   -0.6413    0.0000 </r>
       <r>   -0.5756    0.0000 </r>
       <r>   -0.4688    0.0000 </r>
       <r>   -0.4093    0.0000 </r>
       <r>   -0.3031    0.0000 </r>
       <r>   -0.1614    0.0000 </r>
       <r>   -0.0801    0.0000 </r>
       <r>    0.1525    0.0000 </r>
       <r>    0.3377    0.0000 </r>
       <r>    0.4269    0.0000 </r>
       <r>    0.6355    0.0000 </r>
       <r>    0.7634    0.0000 </r>
       <r>    0.9690    0.0000 </r>
       <r>    1.2855    0.0000 </r>
       <r>    1.3123    0.0000 </r>
       <r>    1.6611    0.0000 </r>
       <r>    2.1694    0.0000 </r>
       <r>    2.3070    0.0000 </r>
       <r>    2.4342    0.0000 </r>
      </set>
      <set comment="kpoint 34">
       <r>  -17.4467    1.0000 </r>
       <r>  -17.4063    1.0000 </r>
       <r>  -16.7110    1.0000 </r>
       <r>  -16.6457    1.0000 </r>
       <r>  -16.4925    1.0000 </r>
       <r>  -16.4215    1.0000 </r>
       <r>  -16.2466    1.0000 </r>
       <r>  -16.1965    1.0000 </r>
       <r>  -16.1046    1.0000 </r>
       <r>  -16.0049    1.0000 </r>
       <r>  -15.9102    1.0000 </r>
       <r>  -15.8237    1.0000 </r>
       <r>  -15.7421    1.0000 </r>
       <r>  -15.6867    1.0000 </r>
       <r>  -15.6328    1.0000 </r>
       <r>  -15.5895    1.0000 </r>
       <r>  -15.5174    1.0000 </r>
       <r>  -15.4174    1.0000 </r>
       <r>   -9.8469    1.0000 </r>
       <r>   -9.3021    1.0000 </r>
       <r>   -9.2566    1.0000 </r>
       <r>   -9.0608    1.0000 </r>
       <r>   -8.8404    1.0000 </r>
       <r>   -8.8154    1.0000 </r>
       <r>   -8.6775    1.0000 </r>
       <r>   -8.5145    1.0000 </r>
       <r>   -8.4028    1.0000 </r>
       <r>   -8.3262    1.0000 </r>
       <r>   -8.2360    1.0000 </r>
       <r>   -8.1978    1.0000 </r>
       <r>   -8.1353    1.0000 </r>
       <r>   -7.9286    1.0000 </r>
       <r>   -7.8774    1.0000 </r>
       <r>   -7.8023    1.0000 </r>
       <r>   -7.7282    1.0000 </r>
       <r>   -7.6081    1.0000 </r>
       <r>   -7.5284    1.0000 </r>
       <r>   -7.4570    1.0000 </r>
       <r>   -7.3650    1.0000 </r>
       <r>   -7.3016    1.0000 </r>
       <r>   -7.1510    1.0000 </r>
       <r>   -6.9773    1.0000 </r>
       <r>   -6.9005    1.0000 </r>
       <r>   -6.8749    1.0000 </r>
       <r>   -6.8420    1.0000 </r>
       <r>   -6.7268    1.0000 </r>
       <r>   -6.6894    1.0000 </r>
       <r>   -6.6319    1.0000 </r>
       <r>   -6.5309    1.0000 </r>
       <r>   -6.4908    1.0000 </r>
       <r>   -6.4595    1.0000 </r>
       <r>   -6.3748    1.0000 </r>
       <r>   -6.2464    1.0000 </r>
       <r>   -6.2017    1.0000 </r>
       <r>   -6.0936    1.0000 </r>
       <r>   -5.9938    1.0000 </r>
       <r>   -5.9393    1.0000 </r>
       <r>   -5.8449    1.0000 </r>
       <r>   -5.8187    1.0000 </r>
       <r>   -5.7779    1.0000 </r>
       <r>   -5.7529    1.0000 </r>
       <r>   -5.6941    1.0000 </r>
       <r>   -5.6478    1.0000 </r>
       <r>   -5.5926    1.0000 </r>
       <r>   -5.5160    1.0000 </r>
       <r>   -5.0438    1.0000 </r>
       <r>   -4.8856    1.0000 </r>
       <r>   -4.8642    1.0000 </r>
       <r>   -4.7743    1.0000 </r>
       <r>   -4.6674    1.0000 </r>
       <r>   -4.6303    1.0000 </r>
       <r>   -4.4922    1.0000 </r>
       <r>   -4.3532    1.0000 </r>
       <r>   -3.9273    1.0000 </r>
       <r>   -3.8546    1.0000 </r>
       <r>   -3.6829    1.0000 </r>
       <r>   -3.5548    0.9998 </r>
       <r>   -3.4736    0.9984 </r>
       <r>   -3.2756    0.9390 </r>
       <r>   -3.1138    0.6562 </r>
       <r>   -3.0015    0.3476 </r>
       <r>   -2.8429    0.0651 </r>
       <r>   -2.7088    0.0069 </r>
       <r>   -2.5835    0.0004 </r>
       <r>   -2.5016    0.0000 </r>
       <r>   -2.3718    0.0000 </r>
       <r>   -2.3424    0.0000 </r>
       <r>   -2.2594    0.0000 </r>
       <r>   -2.1802    0.0000 </r>
       <r>   -2.1455    0.0000 </r>
       <r>   -1.8471    0.0000 </r>
       <r>   -1.7242    0.0000 </r>
       <r>   -1.5643    0.0000 </r>
       <r>   -1.3636    0.0000 </r>
       <r>   -1.2160    0.0000 </r>
       <r>   -1.0838    0.0000 </r>
       <r>   -1.0231    0.0000 </r>
       <r>   -0.8859    0.0000 </r>
       <r>   -0.8496    0.0000 </r>
       <r>   -0.6996    0.0000 </r>
       <r>   -0.6876    0.0000 </r>
       <r>   -0.6238    0.0000 </r>
       <r>   -0.5922    0.0000 </r>
       <r>   -0.4630    0.0000 </r>
       <r>   -0.4390    0.0000 </r>
       <r>   -0.3426    0.0000 </r>
       <r>   -0.2053    0.0000 </r>
       <r>   -0.1253    0.0000 </r>
       <r>    0.1579    0.0000 </r>
       <r>    0.4263    0.0000 </r>
       <r>    0.4594    0.0000 </r>
       <r>    0.5982    0.0000 </r>
       <r>    0.7417    0.0000 </r>
       <r>    0.9858    0.0000 </r>
       <r>    1.3125    0.0000 </r>
       <r>    1.3402    0.0000 </r>
       <r>    1.6700    0.0000 </r>
       <r>    2.2691    0.0000 </r>
       <r>    2.2715    0.0000 </r>
       <r>    2.3934    0.0000 </r>
      </set>
     </set>
    </set>
   </array>
  </eigenvalues>
  <separator name="orbital magnetization" >
   <v name="MAGDIPOLOUT">      0.00000000      0.00000000      0.00000000</v>
  </separator>
 </calculation>
 <structure name="finalpos" >
  <crystal>
   <varray name="basis" >
    <v>       8.26357410       4.78237746       0.00000000 </v>
    <v>      -8.28417271       4.81801649       0.00000000 </v>
    <v>       0.00000000       0.00000000      30.00000000 </v>
   </varray>
   <i name="volume">   2382.96231597 </i>
   <varray name="rec_basis" >
    <v>       0.06065580       0.10429254       0.00000000 </v>
    <v>      -0.06020713       0.10403321       0.00000000 </v>
    <v>       0.00000000       0.00000000       0.03333333 </v>
   </varray>
  </crystal>
  <varray name="positions" >
   <v>       0.99734370       0.33930772       0.00032239 </v>
   <v>       0.67528041       0.68239816       0.00047805 </v>
   <v>       0.67206833       0.33031255      -0.00017876 </v>
   <v>       0.02012533       0.68723835       0.00012309 </v>
   <v>       0.66551662      -0.01203896       0.00021135 </v>
   <v>      -0.00504689      -0.01936099      -0.00046928 </v>
   <v>       0.31467244      -0.02336450      -0.00045332 </v>
   <v>       0.32982380       0.33654655      -0.00070230 </v>
   <v>       0.33232230       0.68137379       0.00047300 </v>
   <v>       0.10376528       0.22229132       0.95006168 </v>
   <v>       0.22212633       0.10940186       0.05127784 </v>
   <v>       0.11070187       0.55375321       0.94844997 </v>
   <v>       0.21609409       0.44462872       0.05078225 </v>
   <v>       0.11169010       0.88914128       0.94329340 </v>
   <v>       0.22463991       0.77948692       0.05705250 </v>
   <v>       0.44629199       0.22001334       0.95108736 </v>
   <v>       0.55376998       0.11230621       0.04923166 </v>
   <v>       0.44991009       0.56219144       0.95043369 </v>
   <v>       0.56031923       0.44796993       0.04841253 </v>
   <v>       0.44434062       0.89008089       0.94590592 </v>
   <v>       0.55643691       0.77273325       0.05303864 </v>
   <v>       0.78080709       0.22586758       0.95006396 </v>
   <v>       0.89345764       0.11485917       0.04935392 </v>
   <v>       0.77680681       0.55590104       0.95241819 </v>
   <v>       0.88721421       0.44322261       0.04956639 </v>
   <v>       0.77460192       0.88020885       0.94650822 </v>
   <v>       0.88313434       0.77174417       0.05325755 </v>
  </varray>
 </structure>
</modeling>
