unknown system                          
           1
     8.853139    5.101675    0.000000
    -8.857231    5.108715    0.000000
     0.000000    0.000000   30.000000
   V    Mo   W    S 
   3   3   3  18
Direct configuration=     1
   1.00000000  0.33333334  0.00000000
   0.66666669  0.66666669  0.00000000
   0.66666669  0.33333334  0.00000000
   0.00000000  0.66666669  0.00000000
   0.66666669  0.00000000  0.00000000
   0.00000000  0.00000000  0.00000000
   0.33333334  0.00000000  0.00000000
   0.33333334  0.33333334  0.00000000
   0.33333334  0.66666669  0.00000000
   0.11068511  0.22244981  0.95539999
   0.22244981  0.11068511  0.04460000
   0.11068511  0.55578315  0.95539999
   0.22244981  0.44401845  0.04460000
   0.11068511  0.88911647  0.95539999
   0.22244981  0.77735180  0.04460000
   0.44401845  0.22244981  0.95539999
   0.55578315  0.11068511  0.04460000
   0.44401845  0.55578315  0.95539999
   0.55578315  0.44401845  0.04460000
   0.44401845  0.88911647  0.95539999
   0.55578315  0.77735180  0.04460000
   0.77735180  0.22244981  0.95539999
   0.88911647  0.11068511  0.04460000
   0.77735180  0.55578315  0.95539999
   0.88911647  0.44401845  0.04460000
   0.77735180  0.88911647  0.95539999
   0.88911647  0.77735180  0.04460000
unknown system                          
           1
     8.665211    4.995637    0.000000
    -8.669072    5.002279    0.000000
     0.000000    0.000000   30.000000
   V    Mo   W    S 
   3   3   3  18
Direct configuration=     2
   0.99846357  0.33216189 -0.00015993
   0.66899860  0.66857622  0.00013975
   0.66820806  0.33376928  0.00001715
  -0.00027562  0.66776077 -0.00002576
   0.66810731  0.00004187  0.00000355
  -0.00144612 -0.00134576 -0.00015271
   0.33197997 -0.00140095  0.00004386
   0.33224536  0.33214434  0.00004796
   0.33322925  0.66796295  0.00015752
   0.10950684  0.22507270  0.95195698
   0.22304303  0.11149119  0.04924048
   0.10967208  0.55128528  0.95196299
   0.21851360  0.44267676  0.04805432
   0.11202050  0.88941934  0.95071840
   0.22308455  0.77818491  0.04934792
   0.44800824  0.22384027  0.95191231
   0.55665760  0.11497190  0.04799779
   0.44808319  0.55719108  0.95198334
   0.55896301  0.44595238  0.04687285
   0.44362303  0.88849473  0.95072060
   0.55692280  0.77464907  0.04803153
   0.77982258  0.22665285  0.95306578
   0.89095378  0.11548368  0.04805388
   0.77330628  0.55348198  0.95312438
   0.88679351  0.43994968  0.04687206
   0.77558080  0.88442517  0.95190188
   0.88414863  0.77532089  0.04811101
unknown system                          
           1
     8.482171    4.897089    0.000000
    -8.484062    4.900326    0.000000
     0.000000    0.000000   30.000000
   V    Mo   W    S 
   3   3   3  18
Direct configuration=     3
   0.99807687  0.33173986 -0.00017270
   0.66969716  0.66923164  0.00014823
   0.66854466  0.33383647  0.00005857
   0.00028199  0.66864082 -0.00006345
   0.66833293 -0.00017788  0.00004442
  -0.00160731 -0.00167989 -0.00016636
   0.33131792 -0.00212953  0.00004586
   0.33177826  0.33158591  0.00003874
   0.33322150  0.66867523  0.00011974
   0.10967965  0.22522476  0.95193540
   0.22325359  0.11157620  0.04924746
   0.10984001  0.55129363  0.95201783
   0.21863822  0.44272506  0.04797684
   0.11224159  0.88956636  0.95061140
   0.22332777  0.77828960  0.04943740
   0.44786100  0.22379945  0.95199438
   0.55651675  0.11498066  0.04792383
   0.44793963  0.55712738  0.95213641
   0.55878274  0.44588970  0.04676741
   0.44338765  0.88839647  0.95072301
   0.55674104  0.77446116  0.04804994
   0.77992683  0.22675658  0.95304550
   0.89104489  0.11563571  0.04807821
   0.77322151  0.55341448  0.95316106
   0.88671503  0.43988045  0.04682473
   0.77549584  0.88426207  0.95180969
   0.88395676  0.77521211  0.04820632
unknown system                          
           1
     8.270058    4.774984    0.000000
    -8.275732    4.784774    0.000000
     0.000000    0.000000   30.000000
   V    Mo   W    S 
   3   3   3  18
Direct configuration=     4
   0.99706155  0.33009291 -0.00014665
   0.67209713  0.67181902  0.00012020
   0.66931664  0.33378578  0.00021398
   0.00351950  0.67278466 -0.00016955
   0.66864023 -0.00144126  0.00018833
  -0.00156734 -0.00269383 -0.00014890
   0.32837060 -0.00540138  0.00004927
   0.32979354  0.32916752 -0.00000961
   0.33309405  0.67182123 -0.00006854
   0.10895596  0.22558527  0.95036974
   0.22313497  0.11134983  0.05090545
   0.10925009  0.55023184  0.95079230
   0.21759124  0.44226860  0.04913209
   0.11225802  0.88978500  0.94856047
   0.22333270  0.77827197  0.05149134
   0.44881230  0.22423513  0.95083529
   0.55705215  0.11605164  0.04903622
   0.44886589  0.55761786  0.95130134
   0.55967911  0.44647110  0.04769194
   0.44343724  0.88859758  0.94909806
   0.55722369  0.77376134  0.04958671
   0.78057329  0.22775295  0.95164127
   0.89182232  0.11691227  0.04957728
   0.77223512  0.55284326  0.95201393
   0.88623642  0.43913084  0.04790998
   0.77480405  0.88288869  0.95002010
   0.88262398  0.77452465  0.05000787
unknown system                          
           1
     8.258947    4.771322    0.000000
    -8.269448    4.789477    0.000000
     0.000000    0.000000   30.000000
   V    Mo   W    S 
   3   3   3  18
Direct configuration=     5
   0.99551054  0.32638183  0.00004664
   0.67645625  0.67656458 -0.00008267
   0.67045754  0.33386753  0.00042464
   0.01053518  0.68111097 -0.00022434
   0.66925396 -0.00399580  0.00033493
  -0.00071862 -0.00406501 -0.00004262
   0.32201622 -0.01224627  0.00002780
   0.32582438  0.32373581 -0.00012385
   0.33250009  0.67876948 -0.00030914
   0.10730948  0.22504945  0.94814156
   0.22230192  0.11039057  0.05317312
   0.10830465  0.54954183  0.94922580
   0.21639597  0.44212314  0.05034126
   0.11186983  0.89017173  0.94547045
   0.22282367  0.77812603  0.05462041
   0.44963186  0.22402291  0.94943053
   0.55725316  0.11653953  0.05034385
   0.44968487  0.55811601  0.95065677
   0.56049107  0.44718901  0.04887629
   0.44428139  0.88968105  0.94686024
   0.55766066  0.77303427  0.05169102
   0.78096916  0.22812335  0.94963270
   0.89235600  0.11762595  0.05159641
   0.77228888  0.55297420  0.95052331
   0.88640399  0.43950995  0.04927139
   0.77450043  0.88171949  0.94757888
   0.88185192  0.77415286  0.05251451
unknown system                          
           1
     8.259532    4.771540    0.000000
    -8.270384    4.790302    0.000000
     0.000000    0.000000   30.000000
   V    Mo   W    S 
   3   3   3  18
Direct configuration=     6
   0.99464614  0.32400428  0.00007174
   0.67837274  0.67831907 -0.00009519
   0.67100000  0.33446039  0.00051481
   0.01208500  0.68288025 -0.00018823
   0.66978253 -0.00463890  0.00029656
  -0.00022472 -0.00367697 -0.00010485
   0.32026015 -0.01357819 -0.00008215
   0.32415708  0.32057244 -0.00020198
   0.33224627  0.68143189 -0.00022524
   0.10669038  0.22434825  0.94788102
   0.22200862  0.10965245  0.05353969
   0.10825477  0.55029437  0.94931115
   0.21669396  0.44262823  0.05005952
   0.11166339  0.89052233  0.94495163
   0.22272320  0.77820880  0.05526498
   0.44906858  0.22299670  0.94944006
   0.55647548  0.11551649  0.05016948
   0.44895738  0.55807619  0.95116126
   0.56015649  0.44724344  0.04873414
   0.44472379  0.89069411  0.94656841
   0.55731281  0.77290336  0.05180994
   0.78083039  0.22759547  0.94955087
   0.89206426  0.11685603  0.05182652
   0.77350451  0.55380976  0.95051397
   0.88722869  0.44059907  0.04914595
   0.77496482  0.88203082  0.94732010
   0.88256773  0.77446433  0.05276574
unknown system                          
           1
     8.253261    4.767239    0.000000
    -8.260821    4.780300    0.000000
     0.000000    0.000000   30.000000
   V    Mo   W    S 
   3   3   3  18
Direct configuration=     7
   0.99439777  0.32340056  0.00008006
   0.67890822  0.67874216 -0.00009372
   0.67117870  0.33469217  0.00055632
   0.01237069  0.68328431 -0.00018714
   0.66993529 -0.00480219  0.00029457
  -0.00014311 -0.00354747 -0.00010966
   0.31984766 -0.01383929 -0.00008521
   0.32375168  0.31969100 -0.00021150
   0.33223662  0.68212280 -0.00022344
   0.10659166  0.22423473  0.94782844
   0.22195001  0.10951743  0.05360075
   0.10826839  0.55041563  0.94936906
   0.21677922  0.44271616  0.04995640
   0.11160074  0.89056722  0.94488371
   0.22272344  0.77828753  0.05535486
   0.44897843  0.22281993  0.94944220
   0.55633844  0.11534568  0.05008857
   0.44877793  0.55802177  0.95132527
   0.56006320  0.44725374  0.04866477
   0.44478708  0.89086694  0.94654457
   0.55725918  0.77288278  0.05180611
   0.78081101  0.22750735  0.94955804
   0.89199898  0.11670997  0.05185925
   0.77369471  0.55394977  0.95053150
   0.88738111  0.44076146  0.04908932
   0.77504366  0.88206696  0.94728297
   0.88268375  0.77454531  0.05279382
unknown system                          
           1
     8.251778    4.767835    0.000000
    -8.260444    4.782814    0.000000
     0.000000    0.000000   30.000000
   V    Mo   W    S 
   3   3   3  18
Direct configuration=     8
   0.99562753  0.32624569  0.00007811
   0.67689628  0.67761022 -0.00009912
   0.67004714  0.33350862  0.00036542
   0.01148929  0.68223306 -0.00019164
   0.66884925 -0.00478511  0.00031500
  -0.00067471 -0.00494776 -0.00005266
   0.32129031 -0.01330418 -0.00002263
   0.32561920  0.32357560 -0.00007301
   0.33238317  0.67962762 -0.00026746
   0.10694223  0.22449613  0.94801884
   0.22227318  0.11014327  0.05326388
   0.10828129  0.55020683  0.94906526
   0.21647170  0.44253345  0.05046667
   0.11183326  0.89039498  0.94505498
   0.22278441  0.77797488  0.05507748
   0.44919006  0.22334179  0.94943235
   0.55673935  0.11578421  0.05046474
   0.44958275  0.55843565  0.95059249
   0.56051423  0.44732740  0.04894262
   0.44456178  0.89007693  0.94658347
   0.55748787  0.77293009  0.05183995
   0.78073231  0.22765770  0.94946328
   0.89221141  0.11698472  0.05173900
   0.77318687  0.55358867  0.95052735
   0.88682827  0.44049661  0.04933696
   0.77479557  0.88184495  0.94745167
   0.88227046  0.77423246  0.05262689
unknown system                          
           1
     8.243699    4.763613    0.000000
    -8.252519    4.778862    0.000000
     0.000000    0.000000   30.000000
   V    Mo   W    S 
   3   3   3  18
Direct configuration=     9
   0.99647211  0.32816303  0.00010193
   0.67518927  0.67707947 -0.00013328
   0.66885056  0.33183610  0.00022549
   0.01202187  0.68225921 -0.00019868
   0.66768957 -0.00479439  0.00034263
  -0.00068384 -0.00610035 -0.00011048
   0.32216819 -0.01353815 -0.00005663
   0.32671862  0.32678372 -0.00007446
   0.33221600  0.67801085 -0.00027163
   0.10696376  0.22436673  0.94826011
   0.22250465  0.11024507  0.05311605
   0.10830028  0.55052565  0.94880712
   0.21625366  0.44274103  0.05085733
   0.11214572  0.89049221  0.94489629
   0.22283487  0.77771205  0.05519131
   0.44885948  0.22313613  0.94948034
   0.55662468  0.11548104  0.05075753
   0.44988027  0.55887982  0.95008104
   0.56085965  0.44749865  0.04915551
   0.44452089  0.88984288  0.94640714
   0.55738775  0.77280084  0.05205045
   0.78068929  0.22744491  0.94944343
   0.89226208  0.11678086  0.05156494
   0.77358118  0.55379981  0.95058617
   0.88661881  0.44081496  0.04939001
   0.77496640  0.88195990  0.94738050
   0.88231868  0.77399242  0.05274971
unknown system                          
           1
     8.247944    4.766344    0.000000
    -8.257341    4.782592    0.000000
     0.000000    0.000000   30.000000
   V    Mo   W    S 
   3   3   3  18
Direct configuration=    10
   0.99553120  0.32607073  0.00016314
   0.67688782  0.67846102 -0.00010624
   0.66937791  0.33213669  0.00037003
   0.01350468  0.68410276 -0.00017691
   0.66811166 -0.00515749  0.00031550
  -0.00025637 -0.00580394 -0.00008223
   0.32061825 -0.01479296 -0.00007339
   0.32531530  0.32428337 -0.00006670
   0.33210707  0.68028187 -0.00021177
   0.10657237  0.22405623  0.94811933
   0.22240445  0.10984740  0.05322199
   0.10836800  0.55090588  0.94902572
   0.21648000  0.44303363  0.05046156
   0.11210444  0.89067366  0.94467902
   0.22294941  0.77806350  0.05546558
   0.44843772  0.22252701  0.94954130
   0.55611348  0.11486286  0.05048735
   0.44917053  0.55865498  0.95063914
   0.56046906  0.44746257  0.04885384
   0.44467345  0.89033013  0.94634084
   0.55711301  0.77277460  0.05201981
   0.78070906  0.22712705  0.94951693
   0.89208062  0.11633859  0.05156924
   0.77427671  0.55423601  0.95074089
   0.88711500  0.44129771  0.04910971
   0.77520257  0.88216518  0.94727677
   0.88277706  0.77427543  0.05279943
unknown system                          
           1
     8.254723    4.771123    0.000000
    -8.266535    4.791552    0.000000
     0.000000    0.000000   30.000000
   V    Mo   W    S 
   3   3   3  18
Direct configuration=    11
   0.99525388  0.32545377  0.00016714
   0.67734755  0.67883207 -0.00010913
   0.66949976  0.33219382  0.00040182
   0.01382554  0.68452107 -0.00017617
   0.66823967 -0.00523106  0.00030313
  -0.00013612 -0.00565214 -0.00010457
   0.32028960 -0.01501169 -0.00009921
   0.32490241  0.32351518 -0.00008695
   0.33210201  0.68089392 -0.00021011
   0.10645952  0.22397482  0.94806558
   0.22236538  0.10972793  0.05329724
   0.10836699  0.55098250  0.94907414
   0.21651187  0.44310203  0.05038460
   0.11207736  0.89073883  0.94459610
   0.22295814  0.77813316  0.05558122
   0.44836438  0.22239639  0.94953995
   0.55599396  0.11472360  0.05044162
   0.44902303  0.55862760  0.95077615
   0.56040201  0.44747448  0.04879539
   0.44471903  0.89047222  0.94630212
   0.55706124  0.77275421  0.05203692
   0.78071849  0.22707349  0.94951258
   0.89204263  0.11622811  0.05160627
   0.77443860  0.55433945  0.95076809
   0.88724378  0.44142006  0.04905397
   0.77526608  0.88219856  0.94723241
   0.88287765  0.77433206  0.05284959
unknown system                          
           1
     8.248056    4.767317    0.000000
    -8.251693    4.773601    0.000000
     0.000000    0.000000   30.000000
   V    Mo   W    S 
   3   3   3  18
Direct configuration=    12
   0.99402582  0.32270206  0.00018456
   0.67952157  0.68051986 -0.00011356
   0.67009552  0.33270553  0.00056314
   0.01499880  0.68620890 -0.00016195
   0.66883313 -0.00569322  0.00026870
   0.00029315 -0.00491372 -0.00017562
   0.31888878 -0.01580246 -0.00017159
   0.32310512  0.31978150 -0.00016202
   0.33218959  0.68372565 -0.00019035
   0.10607495  0.22365734  0.94782491
   0.22218173  0.10923680  0.05359095
   0.10840454  0.55132088  0.94933823
   0.21674017  0.44335705  0.04997870
   0.11192659  0.89097927  0.94431659
   0.22299740  0.77847583  0.05595405
   0.44810186  0.22190079  0.94953843
   0.55552850  0.11418683  0.05017465
   0.44838341  0.55843034  0.95144926
   0.56005689  0.44749474  0.04850000
   0.44491106  0.89110455  0.94619917
   0.55688944  0.77269998  0.05203987
   0.78070889  0.22685258  0.94951132
   0.89181994  0.11574955  0.05176559
   0.77502465  0.55475054  0.95088809
   0.88777484  0.44189041  0.04880006
   0.77548100  0.88228925  0.94708605
   0.88325713  0.77460362  0.05300267
unknown system                          
           1
     8.241520    4.763480    0.000000
    -8.247173    4.773253    0.000000
     0.000000    0.000000   30.000000
   V    Mo   W    S 
   3   3   3  18
Direct configuration=    13
   0.99765592  0.33068519  0.00013776
   0.67310712  0.67614239 -0.00014763
   0.66781385  0.33058545  0.00003826
   0.01303111  0.68234349 -0.00019260
   0.66625422 -0.00518067  0.00030675
  -0.00053103 -0.00748799 -0.00006220
   0.32258478 -0.01465940 -0.00005251
   0.32826391  0.33094797  0.00005437
   0.33180950  0.67654477 -0.00032697
   0.10685948  0.22422428  0.94848784
   0.22299715  0.11066256  0.05273765
   0.10830492  0.55082374  0.94848693
   0.21598811  0.44287894  0.05131342
   0.11257507  0.89043891  0.94485990
   0.22300831  0.77757419  0.05520070
   0.44834158  0.22280837  0.94968754
   0.55636520  0.11511739  0.05097300
   0.45006938  0.55932547  0.94948394
   0.56113776  0.44749992  0.04931997
   0.44429569  0.88923661  0.94643360
   0.55729833  0.77289773  0.05213100
   0.78071680  0.22717910  0.94949004
   0.89238508  0.11668948  0.05133481
   0.77404182  0.55395866  0.95072133
   0.88639714  0.44112883  0.04944134
   0.77502772  0.88206618  0.94750819
   0.88241551  0.77378291  0.05263347
unknown system                          
           1
     8.244943    4.766631    0.000000
    -8.252696    4.780040    0.000000
     0.000000    0.000000   30.000000
   V    Mo   W    S 
   3   3   3  18
Direct configuration=    14
   0.99864858  0.33295859  0.00019019
   0.67117656  0.67512253 -0.00013587
   0.66715181  0.32934458 -0.00011507
   0.01340734  0.68222730 -0.00018866
   0.66537376 -0.00494830  0.00040208
  -0.00081582 -0.00892789  0.00001168
   0.32318677 -0.01526354  0.00000095
   0.32974214  0.33546713  0.00008771
   0.33150421  0.67410729 -0.00020827
   0.10705783  0.22445679  0.94879252
   0.22343336  0.11105042  0.05236612
   0.10837245  0.55083318  0.94821470
   0.21575009  0.44295968  0.05164779
   0.11293856  0.89041141  0.94487120
   0.22315109  0.77730402  0.05518223
   0.44801189  0.22282242  0.94984297
   0.55637502  0.11510257  0.05116098
   0.45033248  0.55966950  0.94893456
   0.56136218  0.44754264  0.04948290
   0.44418922  0.88881409  0.94628951
   0.55712051  0.77283274  0.05215992
   0.78076647  0.22712601  0.94953259
   0.89251288  0.11674828  0.05101641
   0.77410064  0.55388970  0.95084230
   0.88606952  0.44104503  0.04950615
   0.77500264  0.88209160  0.94759960
   0.88229226  0.77342671  0.05251268
unknown system                          
           1
     8.247366    4.770595    0.000000
    -8.258997    4.790717    0.000000
     0.000000    0.000000   30.000000
   V    Mo   W    S 
   3   3   3  18
Direct configuration=    15
   0.99812560  0.33194533  0.00019328
   0.67204136  0.67610145 -0.00013048
   0.66748394  0.32886622 -0.00006384
   0.01470203  0.68394167 -0.00019591
   0.66536663 -0.00506895  0.00036889
  -0.00093601 -0.00974712 -0.00002464
   0.32221241 -0.01671144 -0.00006573
   0.32928133  0.33578661  0.00000481
   0.33147544  0.67489693 -0.00018891
   0.10686466  0.22441594  0.94881461
   0.22365180  0.11100011  0.05230723
   0.10845151  0.55106011  0.94834189
   0.21573127  0.44320476  0.05154355
   0.11303226  0.89063680  0.94464925
   0.22328635  0.77743787  0.05551515
   0.44746910  0.22242044  0.94999755
   0.55597447  0.11469766  0.05105294
   0.44999690  0.55971043  0.94918197
   0.56112876  0.44763276  0.04928592
   0.44421866  0.88896634  0.94617435
   0.55690592  0.77274031  0.05220535
   0.78081046  0.22690099  0.94956490
   0.89245543  0.11640551  0.05094581
   0.77455135  0.55413464  0.95106544
   0.88638292  0.44135235  0.04932021
   0.77510460  0.88216179  0.94754076
   0.88244533  0.77332496  0.05259553
unknown system                          
           1
     8.251557    4.772403    0.000000
    -8.265005    4.795665    0.000000
     0.000000    0.000000   30.000000
   V    Mo   W    S 
   3   3   3  18
Direct configuration=    16
   0.99675622  0.32946282  0.00022839
   0.67389891  0.67806871 -0.00004345
   0.66815346  0.32719706  0.00000862
   0.01745848  0.68750770 -0.00010413
   0.66541576 -0.00484852  0.00034947
  -0.00098250 -0.01152069 -0.00007179
   0.32025504 -0.02014213 -0.00016930
   0.32829773  0.33744191 -0.00003928
   0.33114077  0.67653969 -0.00006702
   0.10622478  0.22405123  0.94887446
   0.22407675  0.11094068  0.05193641
   0.10853088  0.55163602  0.94867802
   0.21536896  0.44360254  0.05139827
   0.11326936  0.89120718  0.94412783
   0.22354987  0.77764434  0.05608488
   0.44637200  0.22159057  0.95047596
   0.55505806  0.11378103  0.05082657
   0.44965898  0.56023051  0.94949190
   0.56071807  0.44775783  0.04881208
   0.44421873  0.88905877  0.94597926
   0.55658911  0.77276197  0.05224620
   0.78083524  0.22641328  0.94955989
   0.89242943  0.11555034  0.05077183
   0.77561799  0.55461132  0.95160734
   0.88703602  0.44211644  0.04885842
   0.77535914  0.88233541  0.94739588
   0.88290720  0.77321844  0.05278319
unknown system                          
           1
     8.252732    4.773256    0.000000
    -8.268508    4.800544    0.000000
     0.000000    0.000000   30.000000
   V    Mo   W    S 
   3   3   3  18
Direct configuration=    17
   0.99610303  0.32827793  0.00021978
   0.67456888  0.67858668 -0.00004912
   0.66828131  0.32695433  0.00001059
   0.01732974  0.68778791 -0.00010059
   0.66560310 -0.00479726  0.00033254
  -0.00107048 -0.01146749 -0.00014293
   0.32025305 -0.02028901 -0.00024977
   0.32806707  0.33735706 -0.00006391
   0.33139664  0.67721073 -0.00007325
   0.10613014  0.22390022  0.94879648
   0.22407468  0.11087173  0.05191958
   0.10844974  0.55170000  0.94879448
   0.21519677  0.44359742  0.05138989
   0.11329256  0.89130454  0.94407901
   0.22349689  0.77766350  0.05618461
   0.44635200  0.22152147  0.95054642
   0.55492229  0.11366250  0.05081573
   0.44976084  0.56039719  0.94958451
   0.56072171  0.44777278  0.04873006
   0.44428698  0.88915243  0.94596651
   0.55668339  0.77284883  0.05222731
   0.78075469  0.22632816  0.94946019
   0.89238994  0.11535025  0.05087324
   0.77570336  0.55465779  0.95167780
   0.88712294  0.44224268  0.04881425
   0.77536940  0.88229407  0.94738497
   0.88297380  0.77332802  0.05287154
unknown system                          
           1
     8.249993    4.771583    0.000000
    -8.264065    4.795925    0.000000
     0.000000    0.000000   30.000000
   V    Mo   W    S 
   3   3   3  18
Direct configuration=    18
   0.99501113  0.32629591  0.00022279
   0.67571458  0.67956035 -0.00000616
   0.66860750  0.32614906  0.00004579
   0.01799857  0.68913322 -0.00005016
   0.66584002 -0.00449637  0.00031844
  -0.00117422 -0.01189827 -0.00018985
   0.31971989 -0.02150302 -0.00030088
   0.32755474  0.33800089 -0.00005940
   0.33150159  0.67818144 -0.00002316
   0.10589694  0.22369724  0.94874838
   0.22422939  0.11083623  0.05173628
   0.10839096  0.55188763  0.94903821
   0.21489598  0.44368196  0.05131789
   0.11339008  0.89153287  0.94390663
   0.22352110  0.77777181  0.05636318
   0.44601496  0.22126728  0.95075378
   0.55456384  0.11329736  0.05073862
   0.44979204  0.56071617  0.94973358
   0.56061753  0.44781076  0.04849992
   0.44438486  0.88924236  0.94589414
   0.55669082  0.77295004  0.05221185
   0.78068618  0.22608326  0.94936331
   0.89233959  0.11492863  0.05091248
   0.77604614  0.55480357  0.95189505
   0.88735873  0.44251019  0.04861839
   0.77544146  0.88231330  0.94732677
   0.88318006  0.77346059  0.05298403
unknown system                          
           1
     8.250091    4.771839    0.000000
    -8.261953    4.792363    0.000000
     0.000000    0.000000   30.000000
   V    Mo   W    S 
   3   3   3  18
Direct configuration=    19
   0.99560473  0.32733978  0.00022817
   0.67512535  0.67900245 -0.00002304
   0.66846513  0.32670635  0.00004032
   0.01763394  0.68836960 -0.00007267
   0.66577606 -0.00463831  0.00033511
  -0.00105889 -0.01151516 -0.00014781
   0.31996576 -0.02079763 -0.00023745
   0.32773338  0.33733595 -0.00004532
   0.33140752  0.67772777 -0.00003585
   0.10602079  0.22380141  0.94876086
   0.22409804  0.11081769  0.05184998
   0.10842722  0.55178296  0.94891365
   0.21509610  0.44361562  0.05131951
   0.11330469  0.89137671  0.94400960
   0.22351390  0.77775209  0.05622260
   0.44624685  0.22142187  0.95061907
   0.55477012  0.11350836  0.05075999
   0.44975716  0.56050969  0.94967683
   0.56066238  0.44777235  0.04861916
   0.44434047  0.88921890  0.94593965
   0.55669751  0.77290518  0.05220668
   0.78072599  0.22623668  0.94942030
   0.89236755  0.11518332  0.05089371
   0.77584119  0.55471428  0.95176056
   0.88721959  0.44234335  0.04872269
   0.77539806  0.88230181  0.94735422
   0.88307386  0.77342141  0.05290936
unknown system                          
           1
     8.250927    4.772666    0.000000
    -8.263272    4.794026    0.000000
     0.000000    0.000000   30.000000
   V    Mo   W    S 
   3   3   3  18
Direct configuration=    20
   0.99642406  0.32887320  0.00023251
   0.67434170  0.67829097 -0.00006008
   0.66825706  0.32743193  0.00002382
   0.01731634  0.68749176 -0.00011611
   0.66561044 -0.00490425  0.00034206
  -0.00087679 -0.01114220 -0.00011627
   0.32018581 -0.01996484 -0.00019431
   0.32800188  0.33641753 -0.00005915
   0.33127319  0.67719980 -0.00006818
   0.10614315  0.22390325  0.94877885
   0.22392379  0.11076413  0.05203592
   0.10849570  0.55168973  0.94871738
   0.21539003  0.44357460  0.05134388
   0.11320467  0.89119924  0.94411335
   0.22351919  0.77770832  0.05611370
   0.44653773  0.22156792  0.95045021
   0.55500138  0.11378121  0.05078665
   0.44967107  0.56024463  0.94961679
   0.56072696  0.44773029  0.04878519
   0.44424658  0.88919377  0.94599661
   0.55668059  0.77282307  0.05221766
   0.78077130  0.22645848  0.94950575
   0.89241549  0.11548933  0.05086614
   0.77562954  0.55460979  0.95160224
   0.88704423  0.44218588  0.04886585
   0.77534735  0.88228586  0.94739117
   0.88293201  0.77331104  0.05282832
unknown system                          
           1
     8.249098    4.771106    0.000000
    -8.263151    4.795417    0.000000
     0.000000    0.000000   30.000000
   V    Mo   W    S 
   3   3   3  18
Direct configuration=    21
   0.99613792  0.32838801  0.00024653
   0.67476535  0.67848543 -0.00005405
   0.66848435  0.32750911  0.00005412
   0.01761386  0.68774483 -0.00010394
   0.66585859 -0.00474964  0.00033763
  -0.00059605 -0.01087897 -0.00013398
   0.31980283 -0.02010025 -0.00022851
   0.32746500  0.33550104 -0.00008556
   0.33112806  0.67772898 -0.00006061
   0.10598842  0.22381161  0.94875359
   0.22383391  0.11060418  0.05209984
   0.10852621  0.55178473  0.94876931
   0.21541859  0.44358493  0.05124534
   0.11318441  0.89125381  0.94404582
   0.22352465  0.77776956  0.05620649
   0.44651950  0.22143984  0.95046737
   0.55486948  0.11368741  0.05071896
   0.44951359  0.56021979  0.94976730
   0.56062889  0.44768708  0.04872323
   0.44424902  0.88930745  0.94599631
   0.55663271  0.77282684  0.05220336
   0.78080090  0.22648357  0.94951675
   0.89242732  0.11543187  0.05085664
   0.77581447  0.55468694  0.95163662
   0.88716242  0.44230989  0.04880389
   0.77539324  0.88233500  0.94736901
   0.88306680  0.77336139  0.05284845
unknown system                          
           1
     8.248797    4.771416    0.000000
    -8.261110    4.792721    0.000000
     0.000000    0.000000   30.000000
   V    Mo   W    S 
   3   3   3  18
Direct configuration=    22
   0.99568659  0.32755875  0.00021809
   0.67486777  0.67878365 -0.00003120
   0.66833773  0.32661475  0.00000642
   0.01753150  0.68824356 -0.00007792
   0.66565146 -0.00460032  0.00032593
  -0.00116155 -0.01162296 -0.00015226
   0.32017202 -0.02073092 -0.00026438
   0.32804740  0.33783103 -0.00005336
   0.33145284  0.67748062 -0.00005460
   0.10611361  0.22382639  0.94878679
   0.22412376  0.11087169  0.05183097
   0.10842147  0.55176088  0.94888286
   0.21510805  0.44363623  0.05137328
   0.11334803  0.89139127  0.94403821
   0.22347557  0.77766436  0.05622518
   0.44628521  0.22147213  0.95062139
   0.55484108  0.11358089  0.05079670
   0.44982075  0.56053673  0.94959483
   0.56074193  0.44778321  0.04867464
   0.44432733  0.88918097  0.94593307
   0.55670285  0.77289488  0.05224071
   0.78067612  0.22625026  0.94943153
   0.89235067  0.11519422  0.05089865
   0.77576993  0.55464060  0.95173895
   0.88712390  0.44228396  0.04874834
   0.77538239  0.88231309  0.94734365
   0.88301605  0.77337455  0.05292341
unknown system                          
           1
     8.245769    4.770178    0.000000
    -8.256705    4.789103    0.000000
     0.000000    0.000000   30.000000
   V    Mo   W    S 
   3   3   3  18
Direct configuration=    23
   0.99627616  0.32865912  0.00023388
   0.67458793  0.67841213 -0.00006103
   0.66838056  0.32746083  0.00003288
   0.01749665  0.68762480 -0.00011504
   0.66573026 -0.00482621  0.00033000
  -0.00067345 -0.01097300 -0.00013608
   0.31996504 -0.02000681 -0.00024290
   0.32766541  0.33583421 -0.00008913
   0.33119460  0.67750334 -0.00007997
   0.10605316  0.22383727  0.94876732
   0.22386435  0.11066779  0.05208544
   0.10852701  0.55176062  0.94874651
   0.21541479  0.44359058  0.05129328
   0.11320144  0.89123982  0.94408053
   0.22351046  0.77771850  0.05618222
   0.44653323  0.22149579  0.95047002
   0.55493769  0.11373146  0.05074270
   0.44956434  0.56021705  0.94971422
   0.56066867  0.44770245  0.04874789
   0.44423687  0.88926191  0.94601193
   0.55663877  0.77280912  0.05221972
   0.78077528  0.22647313  0.94952839
   0.89242014  0.11544547  0.05085876
   0.77573387  0.55464918  0.95162662
   0.88711321  0.44226982  0.04883096
   0.77538313  0.88232581  0.94737454
   0.88301491  0.77333027  0.05284625
unknown system                          
           1
     8.253091    4.774411    0.000000
    -8.265062    4.795129    0.000000
     0.000000    0.000000   30.000000
   V    Mo   W    S 
   3   3   3  18
Direct configuration=    24
   0.99636076  0.32861490  0.00027634
   0.67498953  0.67890459 -0.00004656
   0.66837562  0.32761024  0.00008673
   0.01768189  0.68782504 -0.00007224
   0.66565986 -0.00525334  0.00035701
  -0.00036284 -0.01072375 -0.00010571
   0.31962807 -0.01998370 -0.00015849
   0.32705857  0.33467441 -0.00005917
   0.33129575  0.67801532 -0.00000685
   0.10588715  0.22368354  0.94864450
   0.22379674  0.11055074  0.05219507
   0.10855449  0.55183787  0.94870293
   0.21549409  0.44363442  0.05123189
   0.11310775  0.89121604  0.94394797
   0.22357834  0.77785186  0.05621054
   0.44650619  0.22139939  0.95039281
   0.55485082  0.11361368  0.05069416
   0.44946187  0.56015248  0.94983664
   0.56056388  0.44769639  0.04869973
   0.44433841  0.88939884  0.94595121