unknown system                          
           1
     8.854544    5.104528    0.000000
    -8.855603    5.106350    0.000000
     0.000000    0.000000   30.000000
   V    Mo   W    S 
   3   3   3  18
Direct configuration=     1
   0.00000000  0.66666669  0.00000000
   0.66666669  0.33333334  0.00000000
   0.33333334  0.66666669  0.00000000
   0.33333334  0.00000000  0.00000000
   0.66666669  0.66666669  0.00000000
   0.66666669  0.00000000  0.00000000
   0.00000000  0.00000000  0.00000000
   1.00000000  0.33333334  0.00000000
   0.33333334  0.33333334  0.00000000
   0.11068511  0.22244981  0.95539999
   0.22244981  0.11068511  0.04460000
   0.11068511  0.55578315  0.95539999
   0.22244981  0.44401845  0.04460000
   0.11068511  0.88911647  0.95539999
   0.22244981  0.77735180  0.04460000
   0.44401845  0.22244981  0.95539999
   0.55578315  0.11068511  0.04460000
   0.44401845  0.55578315  0.95539999
   0.55578315  0.44401845  0.04460000
   0.44401845  0.88911647  0.95539999
   0.55578315  0.77735180  0.04460000
   0.77735180  0.22244981  0.95539999
   0.88911647  0.11068511  0.04460000
   0.77735180  0.55578315  0.95539999
   0.88911647  0.44401845  0.04460000
   0.77735180  0.88911647  0.95539999
   0.88911647  0.77735180  0.04460000
unknown system                          
           1
     8.666388    4.998321    0.000000
    -8.667223    4.999754    0.000000
     0.000000    0.000000   30.000000
   V    Mo   W    S 
   3   3   3  18
Direct configuration=     2
  -0.00005832  0.66736040 -0.00004297
   0.66589278  0.33256859 -0.00019715
   0.33522375  0.66904221  0.00018977
   0.33472987 -0.00028597  0.00011480
   0.66674073  0.66781026 -0.00011211
   0.66521241 -0.00135211  0.00023152
  -0.00154494 -0.00176052 -0.00000760
   0.99849336  0.33258336 -0.00002129
   0.33504531  0.33351103 -0.00019204
   0.11116980  0.22207490  0.95069091
   0.22156194  0.11137177  0.04919072
   0.11251850  0.55892562  0.95316078
   0.22392087  0.44821674  0.04806811
   0.10839189  0.88483530  0.95193963
   0.22024802  0.77323307  0.04689728
   0.44851086  0.22494903  0.95184770
   0.55766523  0.11539559  0.04805526
   0.44143036  0.55682795  0.95203179
   0.55696187  0.44154724  0.04799624
   0.44209744  0.88434334  0.95189880
   0.55087675  0.77548714  0.04813211
   0.77621406  0.22518290  0.95199734
   0.88954744  0.11140877  0.04929362
   0.77978268  0.55321440  0.95308276
   0.88707336  0.44607904  0.04695365
   0.77877243  0.88931881  0.95076086
   0.89173602  0.77632560  0.04803940
unknown system                          
           1
     8.486787    4.899761    0.000000
    -8.487305    4.900648    0.000000
     0.000000    0.000000   30.000000
   V    Mo   W    S 
   3   3   3  18
Direct configuration=     3
  -0.00008123  0.66766511 -0.00009447
   0.66549701  0.33226426 -0.00021913
   0.33592652  0.66980932  0.00021533
   0.33518495 -0.00006819  0.00016330
   0.66685122  0.66847427 -0.00015435
   0.66503469 -0.00182196  0.00025704
  -0.00209896 -0.00205541 -0.00001355
   0.99814370  0.33193579 -0.00002703
   0.33534510  0.33335482 -0.00016426
   0.11116817  0.22206116  0.95074833
   0.22145113  0.11150605  0.04913336
   0.11245294  0.55874501  0.95328800
   0.22387623  0.44807835  0.04794286
   0.10822122  0.88483551  0.95196946
   0.22019412  0.77314494  0.04688102
   0.44855899  0.22515718  0.95178914
   0.55776782  0.11555383  0.04810259
   0.44123939  0.55663694  0.95203971
   0.55680081  0.44141558  0.04796633
   0.44199695  0.88418625  0.95183321
   0.55070232  0.77538810  0.04824716
   0.77637950  0.22532858  0.95199609
   0.88976084  0.11148233  0.04932025
   0.77982139  0.55319707  0.95315343
   0.88715862  0.44598442  0.04686464
   0.77898694  0.88946980  0.95068069
   0.89187406  0.77648533  0.04808075
unknown system                          
           1
     8.267925    4.773464    0.000000
    -8.268901    4.775145    0.000000
     0.000000    0.000000   30.000000
   V    Mo   W    S 
   3   3   3  18
Direct configuration=     4
  -0.00019064  0.66900890 -0.00026854
   0.66359556  0.33077798 -0.00021952
   0.33864172  0.67249448  0.00021567
   0.33683553  0.00131142  0.00026462
   0.66738125  0.67133644 -0.00024381
   0.66510039 -0.00341510  0.00024485
  -0.00410707 -0.00240975 -0.00002693
   0.99706219  0.32882095 -0.00004297
   0.33576524  0.33216749  0.00001377
   0.11119338  0.22193316  0.94932022
   0.22131989  0.11155644  0.05049020
   0.11301314  0.55957380  0.95247998
   0.22439571  0.44901024  0.04890830
   0.10777936  0.88379080  0.95067191
   0.21953462  0.77203402  0.04812701
   0.44989455  0.22575785  0.95005875
   0.55867255  0.11698255  0.04970322
   0.44050186  0.55712480  0.95062729
   0.55756465  0.44114028  0.04927165
   0.44130282  0.88291573  0.95018753
   0.54932965  0.77464735  0.05016835
   0.77567462  0.22563187  0.95054157
   0.88971767  0.11129986  0.05107890
   0.78034420  0.55275475  0.95213498
   0.88667669  0.44644270  0.04784272
   0.77891893  0.88973204  0.94874503
   0.89229601  0.77579340  0.04970514
unknown system                          
           1
     8.265118    4.768943    0.000000
    -8.268876    4.775441    0.000000
     0.000000    0.000000   30.000000
   V    Mo   W    S 
   3   3   3  18
Direct configuration=     5
  -0.00044587  0.67172124 -0.00048172
   0.65932222  0.32749229 -0.00003609
   0.34397163  0.67771260  0.00002366
   0.34038584  0.00472804  0.00031056
   0.66878847  0.67774775 -0.00023605
   0.66644006 -0.00640435  0.00012250
  -0.00871891 -0.00249111 -0.00004051
   0.99476327  0.32225053 -0.00008545
   0.33615558  0.32900386  0.00028041
   0.11140341  0.22126553  0.94725199
   0.22093579  0.11082335  0.05230125
   0.11368841  0.56011605  0.95160678
   0.22495635  0.45019482  0.05003478
   0.10782144  0.88312848  0.94899275
   0.21916839  0.77142628  0.04998380
   0.45144350  0.22607102  0.94744830
   0.55983263  0.11814769  0.05197307
   0.44009898  0.55786596  0.94888138
   0.55907529  0.44182497  0.05083513
   0.44085766  0.88201035  0.94793588
   0.54820483  0.77424570  0.05312116
   0.77440804  0.22511250  0.94856306
   0.88862257  0.11022744  0.05380620
   0.78043803  0.55259212  0.95064790
   0.88603987  0.44664377  0.04901441
   0.77830971  0.88981546  0.94581766
   0.89224727  0.77494211  0.05192709
unknown system                          
           1
     8.265639    4.768814    0.000000
    -8.269891    4.776168    0.000000
     0.000000    0.000000   30.000000
   V    Mo   W    S 
   3   3   3  18
Direct configuration=     6
  -0.00042370  0.67264106 -0.00052797
   0.65777810  0.32628819  0.00000439
   0.34545532  0.67964675  0.00003849
   0.34146434  0.00592876  0.00033284
   0.66953072  0.67960590 -0.00018386
   0.66758226 -0.00665333  0.00013336
  -0.01026590 -0.00214337 -0.00008345
   0.99377161  0.32003822 -0.00010688
   0.33576607  0.32716691  0.00025065
   0.11150877  0.22072410  0.94703564
   0.22041963  0.10993901  0.05235801
   0.11367371  0.55952371  0.95190073
   0.22488203  0.44995496  0.04978112
   0.10811862  0.88401855  0.94906601
   0.21966134  0.77206140  0.05002287
   0.45135812  0.22594085  0.94715601
   0.56001851  0.11757747  0.05210003
   0.44049388  0.55781219  0.94904047
   0.55939275  0.44268110  0.05072311
   0.44138433  0.88269853  0.94776292
   0.54864090  0.77468660  0.05340122
   0.77422183  0.22446702  0.94850539
   0.88792143  0.10951423  0.05425052
   0.77976565  0.55287676  0.95073330
   0.88597668  0.44614524  0.04884952
   0.77814136  0.88977486  0.94539100
   0.89197608  0.77529879  0.05206446
unknown system                          
           1
     8.262179    4.767950    0.000000
    -8.264851    4.772568    0.000000
     0.000000    0.000000   30.000000
   V    Mo   W    S 
   3   3   3  18
Direct configuration=     7
  -0.00037550  0.67325594 -0.00058459
   0.65682786  0.32557215  0.00004004
   0.34634069  0.68105644  0.00002794
   0.34221579  0.00664654  0.00033343
   0.67016316  0.68089104 -0.00018066
   0.66824575 -0.00679471  0.00010891
  -0.01124880 -0.00192751 -0.00010567
   0.99308100  0.31854221 -0.00009957
   0.33544135  0.32580013  0.00027688
   0.11152080  0.22046265  0.94692182
   0.22011291  0.10947125  0.05236464
   0.11366974  0.55920264  0.95213043
   0.22485814  0.44979211  0.04956954
   0.10824646  0.88446805  0.94914554
   0.21990934  0.77234627  0.05002599
   0.45134563  0.22586433  0.94698479
   0.56015888  0.11736417  0.05215697
   0.44059036  0.55771443  0.94920255
   0.55946059  0.44299913  0.05060745
   0.44166764  0.88303704  0.94770753
   0.54883296  0.77491199  0.05354293
   0.77413383  0.22419373  0.94847063
   0.88764635  0.10920940  0.05449002
   0.77944372  0.55295901  0.95084057
   0.88594020  0.44587647  0.04870711
   0.77807491  0.88978399  0.94518236
   0.89191069  0.77551556  0.05213233
unknown system                          
           1
     8.258469    4.765382    0.000000
    -8.258788    4.765923    0.000000
     0.000000    0.000000   30.000000
   V    Mo   W    S 
   3   3   3  18
Direct configuration=     8
  -0.00058934  0.67233908 -0.00050543
   0.65787426  0.32636173  0.00000832
   0.34524476  0.67898243  0.00001126
   0.34128602  0.00598410  0.00031072
   0.66935622  0.67935615 -0.00020556
   0.66777199 -0.00661201  0.00010526
  -0.01032257 -0.00225296 -0.00008362
   0.99389171  0.32034481 -0.00008968
   0.33612212  0.32783750  0.00027281
   0.11154969  0.22068529  0.94703149
   0.22050955  0.11010399  0.05235649
   0.11364527  0.55955124  0.95180272
   0.22484828  0.44993882  0.04989297
   0.10812053  0.88398955  0.94903779
   0.21966909  0.77214564  0.05004105
   0.45137424  0.22595700  0.94717109
   0.56000635  0.11753776  0.05209382
   0.44064438  0.55790703  0.94890024
   0.55950537  0.44274247  0.05078230
   0.44137801  0.88273539  0.94778128
   0.54868717  0.77472362  0.05345679
   0.77410601  0.22432939  0.94852328
   0.88789588  0.10949882  0.05422629
   0.77971204  0.55290587  0.95067718
   0.88594407  0.44612233  0.04890337
   0.77806382  0.88970723  0.94541830
   0.89191953  0.77529217  0.05207939
unknown system                          
           1
     8.252683    4.761056    0.000000
    -8.254341    4.763916    0.000000
     0.000000    0.000000   30.000000
   V    Mo   W    S 
   3   3   3  18
Direct configuration=     9
  -0.00117824  0.67037572 -0.00033358
   0.65971086  0.32778185 -0.00003742
   0.34333984  0.67413787 -0.00000823
   0.33923268  0.00494902  0.00031184
   0.66733543  0.67650547 -0.00012439
   0.66747675 -0.00659509  0.00020430
  -0.00924268 -0.00329478 -0.00004328
   0.99559238  0.32379433 -0.00016452
   0.33826644  0.33297400  0.00024839
   0.11174984  0.22099748  0.94729647
   0.22105398  0.11145177  0.05227404
   0.11355005  0.56011790  0.95113889
   0.22477177  0.45022709  0.05067067
   0.10774045  0.88316607  0.94885938
   0.21930544  0.77194019  0.04995981
   0.45150604  0.22638160  0.94743951
   0.55972192  0.11760336  0.05195100
   0.44108156  0.55846183  0.94807136
   0.55994638  0.44267839  0.05124789
   0.44088522  0.88222547  0.94799026
   0.54848236  0.77442338  0.05328535
   0.77390702  0.22432658  0.94860325
   0.88822052  0.10984832  0.05386147
   0.78000938  0.55288877  0.95028853
   0.88588525  0.44644778  0.04937332
   0.77804410  0.88943280  0.94564385
   0.89181971  0.77496730  0.05199171
unknown system                          
           1
     8.259153    4.764352    0.000000
    -8.261414    4.768256    0.000000
     0.000000    0.000000   30.000000
   V    Mo   W    S 
   3   3   3  18
Direct configuration=    10
  -0.00119205  0.67056161 -0.00039914
   0.65900811  0.32732774 -0.00002635
   0.34403610  0.67378145 -0.00006174
   0.33943225  0.00563982  0.00030788
   0.66670901  0.67687769 -0.00019447
   0.66833921 -0.00684778  0.00010882
  -0.01054803 -0.00369066 -0.00005668
   0.99531952  0.32302232 -0.00020287
   0.33921893  0.33386250  0.00025275
   0.11206442  0.22091586  0.94734732
   0.22079384  0.11162544  0.05211869
   0.11352892  0.55976456  0.95132203
   0.22474076  0.45016163  0.05060240
   0.10770166  0.88346170  0.94893885
   0.21959700  0.77209302  0.04981906
   0.45146289  0.22662461  0.94735714
   0.55978719  0.11723980  0.05195304
   0.44132023  0.55859584  0.94799797
   0.56014568  0.44308638  0.05128324
   0.44104306  0.88236882  0.94816007
   0.54843046  0.77450680  0.05345869
   0.77390264  0.22397535  0.94864574
   0.88819154  0.10977912  0.05406745
   0.77965691  0.55300068  0.95039276
   0.88593593  0.44608944  0.04930040
   0.77792823  0.88928588  0.94543279
   0.89166005  0.77510484  0.05207407
unknown system                          
           1
     8.261868    4.765071    0.000000
    -8.264308    4.769287    0.000000
     0.000000    0.000000   30.000000
   V    Mo   W    S 
   3   3   3  18
Direct configuration=    11
  -0.00100702  0.67140778 -0.00045381
   0.65802709  0.32657847  0.00001065
   0.34497756  0.67563871 -0.00003280
   0.34033230  0.00630285  0.00032823
   0.66749247  0.67820194 -0.00016050
   0.66882350 -0.00689216  0.00012616
  -0.01143589 -0.00344925 -0.00006308
   0.99446867  0.32134517 -0.00018205
   0.33872986  0.33205995  0.00027218
   0.11202583  0.22070122  0.94723551
   0.22046879  0.11109511  0.05213143
   0.11356629  0.55948108  0.95159098
   0.22475930  0.45003688  0.05032248
   0.10783074  0.88386490  0.94901039
   0.21978374  0.77224790  0.04982831
   0.45147307  0.22652287  0.94718797
   0.55994115  0.11715179  0.05200786
   0.44122749  0.55841437  0.94823016
   0.56012150  0.44326536  0.05113152
   0.44128536  0.88263984  0.94806026
   0.54856833  0.77469030  0.05355298
   0.77389138  0.22387587  0.94858611
   0.88797886  0.10954278  0.05428768
   0.77942678  0.55299490  0.95053513
   0.88591615  0.44589608  0.04911609
   0.77790986  0.88934062  0.94522284
   0.89163133  0.77525912  0.05211724
unknown system                          
           1
     8.259462    4.763828    0.000000
    -8.261773    4.767818    0.000000
     0.000000    0.000000   30.000000
   V    Mo   W    S 
   3   3   3  18
Direct configuration=    12
  -0.00081210  0.67240196 -0.00053528
   0.65661257  0.32553215  0.00005558
   0.34630442  0.67750604 -0.00003056
   0.34142472  0.00736906  0.00034485
   0.66809750  0.67977498 -0.00014324
   0.66985839 -0.00701565  0.00012007
  -0.01314207 -0.00346657 -0.00009060
   0.99330211  0.31912162 -0.00018029
   0.33890061  0.33069598  0.00030185
   0.11205449  0.22036544  0.94717302
   0.21998007  0.11061011  0.05205297
   0.11359190  0.55904617  0.95195488
   0.22472984  0.44983461  0.05000597
   0.10795046  0.88443170  0.94913629
   0.22007024  0.77250872  0.04977652
   0.45150251  0.22649983  0.94697241
   0.56013203  0.11693405  0.05205652
   0.44123241  0.55828703  0.94841470
   0.56025372  0.44362220  0.05100214
   0.44161765  0.88300644  0.94802744
   0.54874087  0.77496250  0.05371427
   0.77382263  0.22361230  0.94853940
   0.88773027  0.10923768  0.05461026
   0.77903772  0.55300138  0.95073940
   0.88588777  0.44556348  0.04888371
   0.77781102  0.88930408  0.94491882
   0.89152271  0.77546714  0.05217878
unknown system                          
           1
     8.259271    4.763357    0.000000
    -8.261958    4.767999    0.000000
     0.000000    0.000000   30.000000
   V    Mo   W    S 
   3   3   3  18
Direct configuration=    13
  -0.00091300  0.67195929 -0.00049626
   0.65718325  0.32595896  0.00003949
   0.34578123  0.67664861 -0.00002918
   0.34095353  0.00696042  0.00033701
   0.66780986  0.67916935 -0.00014360
   0.66948399 -0.00699832  0.00012790
  -0.01247278 -0.00343719 -0.00007424
   0.99381670  0.32001300 -0.00017770
   0.33880911  0.33129956  0.00028914
   0.11207025  0.22050635  0.94719605
   0.22018936  0.11084506  0.05208198
   0.11358468  0.55921621  0.95180195
   0.22474851  0.44992371  0.05014583
   0.10790094  0.88419949  0.94908622
   0.21997143  0.77240881  0.04978532
   0.45148013  0.22652150  0.94706695
   0.56005184  0.11700340  0.05202702
   0.44124373  0.55834638  0.94832532
   0.56019389  0.44348994  0.05105162
   0.44147414  0.88285274  0.94805221
   0.54866237  0.77485432  0.05365026
   0.77385533  0.22370303  0.94856588
   0.88783713  0.10937612  0.05447264
   0.77917626  0.55300504  0.95065485
   0.88590472  0.44568164  0.04897788
   0.77786053  0.88931920  0.94503584
   0.89155732  0.77538784  0.05214953
unknown system                          
           1
     8.259676    4.763115    0.000000
    -8.262171    4.767424    0.000000
     0.000000    0.000000   30.000000
   V    Mo   W    S 
   3   3   3  18
Direct configuration=    14
  -0.00113849  0.67080850 -0.00041112
   0.65834507  0.32681540 -0.00000158
   0.34487789  0.67455692 -0.00005551
   0.33993803  0.00621410  0.00029947
   0.66697829  0.67818593 -0.00014764
   0.66891184 -0.00714206  0.00012245
  -0.01123080 -0.00320209 -0.00005285
   0.99500880  0.32171217 -0.00019547
   0.33847656  0.33271847  0.00025432
   0.11220179  0.22076820  0.94717581
   0.22053206  0.11137351  0.05217742
   0.11364126  0.55955938  0.95147042
   0.22483809  0.45021316  0.05051961
   0.10774651  0.88373446  0.94898332
   0.21980695  0.77219022  0.04977626
   0.45143914  0.22664937  0.94722342
   0.55994193  0.11704483  0.05198048
   0.44134161  0.55856924  0.94805261
   0.56014676  0.44336704  0.05118513
   0.44118241  0.88250131  0.94815079
   0.54841653  0.77464065  0.05359613
   0.77388024  0.22380033  0.94862839
   0.88801511  0.10963068  0.05428837
   0.77935512  0.55301893  0.95047135
   0.88593830  0.44588080  0.04920160
   0.77799767  0.88936411  0.94519256
   0.89162577  0.77524091  0.05211417
unknown system                          
           1
     8.261168    4.763892    0.000000
    -8.263694    4.768253    0.000000
     0.000000    0.000000   30.000000
   V    Mo   W    S 
   3   3   3  18
Direct configuration=    15
  -0.00101680  0.67182899 -0.00051099
   0.65691633  0.32582013  0.00005703
   0.34609498  0.67631785 -0.00005037
   0.34099627  0.00737825  0.00034376
   0.66776240  0.67970446 -0.00012848
   0.66999914 -0.00720720  0.00012494
  -0.01293021 -0.00335759 -0.00007191
   0.99388794  0.31958658 -0.00019477
   0.33871902  0.33135539  0.00030752
   0.11216302  0.22041819  0.94712905
   0.22003759  0.11089101  0.05206255
   0.11360769  0.55906138  0.95185926
   0.22474276  0.44993355  0.05018996
   0.10780474  0.88425882  0.94914184
   0.22004737  0.77243499  0.04970714
   0.45148733  0.22665757  0.94703217
   0.56012290  0.11686991  0.05199190
   0.44137425  0.55842486  0.94824868
   0.56025825  0.44371451  0.05100735
   0.44155509  0.88291679  0.94811645
   0.54864915  0.77494350  0.05374736
   0.77383945  0.22355012  0.94860205
   0.88778274  0.10933064  0.05458974
   0.77898009  0.55304041  0.95071572
   0.88592388  0.44553601  0.04893819
   0.77790476  0.88932344  0.94491419
   0.89150435  0.77548188  0.05212956
unknown system                          
           1
     8.267000    4.767099    0.000000
    -8.269813    4.771959    0.000000
     0.000000    0.000000   30.000000
   V    Mo   W    S 
   3   3   3  18
Direct configuration=    16
  -0.00098041  0.67199480 -0.00052614
   0.65668399  0.32565158  0.00006322
   0.34630544  0.67663154 -0.00005207
   0.34117578  0.00755472  0.00034552
   0.66786784  0.67994215 -0.00012967
   0.67014896 -0.00721971  0.00012185
  -0.01318960 -0.00336486 -0.00008048
   0.99370474  0.31924040 -0.00019587
   0.33875086  0.33112838  0.00030878
   0.11215620  0.22036034  0.94711917
   0.21995109  0.11080218  0.05205347
   0.11361215  0.55899059  0.95191854
   0.22473122  0.44989475  0.05013947
   0.10782469  0.88435040  0.94916042
   0.22008604  0.77247319  0.04970158
   0.45149533  0.22665348  0.94699506
   0.56015483  0.11684378  0.05200325
   0.44137546  0.55840350  0.94828237
   0.56028476  0.44377236  0.05098965
   0.44161194  0.88297871  0.94811097
   0.54867998  0.77498750  0.05377361
   0.77382778  0.22351289  0.94859273
   0.88774462  0.10928146  0.05464632
   0.77892016  0.55303688  0.95074770
   0.88591732  0.44548498  0.04890160
   0.77788537  0.88931636  0.94486495
   0.89148793  0.77551211  0.05214389
unknown system                          
           1
     8.267400    4.766964    0.000000
    -8.269991    4.771438    0.000000
     0.000000    0.000000   30.000000
   V    Mo   W    S 
   3   3   3  18
Direct configuration=    17
  -0.00086352  0.67245702 -0.00057231
   0.65589395  0.32506733  0.00007868
   0.34699654  0.67764321 -0.00005905
   0.34185034  0.00815039  0.00034340
   0.66810768  0.68061935 -0.00013889
   0.67052586 -0.00727004  0.00010662
  -0.01398591 -0.00336316 -0.00011671
   0.99310968  0.31819477 -0.00020333
   0.33893471  0.33043658  0.00030430
   0.11212956  0.22018031  0.94708546
   0.21968308  0.11052241  0.05203695
   0.11366253  0.55878770  0.95209480
   0.22470617  0.44979460  0.04997988
   0.10790801  0.88465444  0.94920569
   0.22023704  0.77259214  0.04969638
   0.45155979  0.22665156  0.94687370
   0.56027788  0.11680717  0.05204216
   0.44137205  0.55835634  0.94839348
   0.56039225  0.44393358  0.05094020
   0.44178480  0.88315655  0.94808704
   0.54875294  0.77511631  0.05386698
   0.77376943  0.22341563  0.94856074
   0.88762539  0.10913910  0.05484422
   0.77870002  0.55298229  0.95084385
   0.88585054  0.44529787  0.04879490
   0.77781528  0.88929012  0.94469576
   0.89141838  0.77560090  0.05221499
unknown system                          
           1
     8.267093    4.766752    0.000000
    -8.269722    4.771292    0.000000
     0.000000    0.000000   30.000000
   V    Mo   W    S 
   3   3   3  18
Direct configuration=    18
  -0.00062219  0.67344370 -0.00064828
   0.65481809  0.32428076  0.00011363
   0.34806158  0.67945410 -0.00004745
   0.34269339  0.00889467  0.00037617
   0.66874566  0.68183261 -0.00013111
   0.67123461 -0.00732136  0.00010530
  -0.01528038 -0.00344968 -0.00013124
   0.99211708  0.31640048 -0.00019195
   0.33903051  0.32916577  0.00034292
   0.11207466  0.21990244  0.94706655
   0.21928079  0.11004554  0.05194397
   0.11364866  0.55842578  0.95242101
   0.22464640  0.44956482  0.04966859
   0.10801890  0.88512087  0.94932340
   0.22041690  0.77280677  0.04965746
   0.45154225  0.22657115  0.94669102
   0.56038985  0.11663794  0.05210121
   0.44133085  0.55819768  0.94859661
   0.56046255  0.44419359  0.05083158
   0.44205827  0.88346895  0.94804910
   0.54893752  0.77532840  0.05394644
   0.77375850  0.22324711  0.94851518
   0.88743635  0.10887026  0.05505538
   0.77847591  0.55301802  0.95101800
   0.88586653  0.44509086  0.04858975
   0.77770896  0.88925579  0.94450605
   0.89136228  0.77576745  0.05223062
unknown system                          
           1
     8.273053    4.768694    0.000000
    -8.275009    4.772066    0.000000
     0.000000    0.000000   30.000000
   V    Mo   W    S 
   3   3   3  18
Direct configuration=    19
  -0.00055050  0.67370377 -0.00066948
   0.65448003  0.32402707  0.00012250
   0.34839269  0.67999899 -0.00004219
   0.34299913  0.00913002  0.00038565
   0.66888135  0.68214512 -0.00012952
   0.67137367 -0.00734810  0.00010368
  -0.01563852 -0.00346930 -0.00013649
   0.99182154  0.31590812 -0.00018956
   0.33910096  0.32880355  0.00035449
   0.11205508  0.21982508  0.94706165
   0.21916881  0.10990790  0.05191691
   0.11366327  0.55832855  0.95251345
   0.22463632  0.44951029  0.04957334
   0.10805992  0.88526419  0.94935401
   0.22048597  0.77286854  0.04964899
   0.45155572  0.22655392  0.94663717
   0.56043218  0.11661311  0.05211733
   0.44131167  0.55816139  0.94865938
   0.56048969  0.44425547  0.05079849
   0.44213235  0.88354972  0.94803455
   0.54897781  0.77538289  0.05397112
   0.77374848  0.22321243  0.94850391
   0.88738144  0.10879705  0.05511967
   0.77839666  0.55300704  0.95106972
   0.88584869  0.44501708  0.04853135
   0.77767383  0.88924494  0.94444861
   0.89133622  0.77581562  0.05224116
unknown system                          
           1
     8.268560    4.767178    0.000000
    -8.270985    4.771364    0.000000
     0.000000    0.000000   30.000000
   V    Mo   W    S 
   3   3   3  18
Direct configuration=    20
  -0.00111765  0.67149283 -0.00050320
   0.65670380  0.32596114  0.00008958
   0.34665847  0.67620988 -0.00010308
   0.34105238  0.00760091  0.00035732
   0.66742972  0.68007187 -0.00009823
   0.67047080 -0.00765628  0.00014897
  -0.01354311 -0.00321136 -0.00007174
   0.99390362  0.31919921 -0.00020302
   0.33887661  0.33167544  0.00032406
   0.11219487  0.22029822  0.94713601
   0.21990561  0.11105729  0.05199666
   0.11373319  0.55901584  0.95194709
   0.22467204  0.44986173  0.05017302
   0.10774987  0.88431994  0.94919107
   0.22011272  0.77241154  0.04959446
   0.45150514  0.22678821  0.94704108
   0.56013467  0.11682132  0.05188225
   0.44154148  0.55855786  0.94829443
   0.56025365  0.44382454  0.05090852
   0.44159948  0.88284752  0.94826937
   0.54855329  0.77496118  0.05371613
   0.77388822  0.22350629  0.94868006
   0.88789101  0.10944576  0.05469606
   0.77878216  0.55300804  0.95077841
   0.88587607  0.44531402  0.04886913
   0.77791683  0.88925606  0.94475894
   0.89146953  0.77557547  0.05212656
unknown system                          
           1
     8.271276    4.768647    0.000000
    -8.273711    4.772850    0.000000
     0.000000    0.000000   30.000000
   V    Mo   W    S 
   3   3   3  18
Direct configuration=    21
  -0.00082943  0.67275989 -0.00062942
   0.65514886  0.32482871  0.00008089
   0.34784529  0.67842028 -0.00007439
   0.34224499  0.00878962  0.00037065
   0.66840854  0.68159747 -0.00013893
   0.67145337 -0.00753919  0.00008760
  -0.01521398 -0.00341617 -0.00013306
   0.99259024  0.31691421 -0.00023076
   0.33909712  0.32995497  0.00032254
   0.11211860  0.21994954  0.94711248
   0.21931422  0.11034168  0.05189262
   0.11370742  0.55849273  0.95236202
   0.22460859  0.44961380  0.04979431
   0.10785596  0.88493413  0.94937428
   0.22035795  0.77267741  0.04956376
   0.45153242  0.22671489  0.94682297
   0.56036682  0.11663446  0.05197492
   0.44147749  0.55833463  0.94849926
   0.56046414  0.44423839  0.05083285
   0.44203592  0.88337690  0.94818409
   0.54881489  0.77525618  0.05393076
   0.77380168  0.22323262  0.94864549
   0.88756253  0.10902763  0.05501202
   0.77845636  0.55304077  0.95101855
   0.88586225  0.44503781  0.04862325
   0.77777775  0.88921607  0.94454020
   0.89135448  0.77578505  0.05216093
unknown system                          
           1
     8.279675    4.773605    0.000000
    -8.282194    4.777955    0.000000
     0.000000    0.000000   30.000000
   V    Mo   W    S 
   3   3   3  18
Direct configuration=    22
  -0.00077908  0.67298840 -0.00064590
   0.65485578  0.32463392  0.00009687
   0.34810528  0.67886570 -0.00006893
   0.34249241  0.00900710  0.00038046
   0.66855530  0.68186094 -0.00013164
   0.67161066 -0.00754143  0.00009597
  -0.01553300 -0.00345587 -0.00013616
   0.99233538  0.31648722 -0.00022210
   0.33917343  0.32965897  0.00033287
   0.11211026  0.21987836  0.94709599
   0.21919923  0.11021473  0.05187932
   0.11371203  0.55840638  0.95243433
   0.22459694  0.44956819  0.04972454
   0.10788486  0.88504876  0.94939301
   0.22039677  0.77272128  0.04956244
   0.45154141  0.22669781  0.94676481
   0.56041253  0.11661304  0.05198797
   0.44146390  0.55829899  0.94853932
   0.56049442  0.44430229  0.05081428
   0.44211064  0.88346424  0.94816471
   0.54886421  0.77531112  0.05395860
   0.77377327  0.22318959  0.94862474
   0.88750541  0.10895799  0.05507668
   0.77839545  0.55303078  0.95105040
   0.88585177  0.44498728  0.04857713
   0.77774810  0.88920293  0.94447237
   0.89133708  0.77581573  0.05217781
unknown system                          
           1
     8.278437    4.773278    0.000000
    -8.281230    4.778104    0.000000
     0.000000    0.000000   30.000000
   V    Mo   W    S 
   3   3   3  18
Direct configuration=    23
  -0.00049576  0.67422242 -0.00073223
   0.65357507  0.32366868  0.00015481
   0.34921252  0.68105329 -0.00004765
   0.34359415  0.00989431  0.00041448
   0.66935383  0.68307778 -0.00012097
   0.67223780 -0.00746365  0.00010637
  -0.01688860 -0.00366024 -0.00016386
   0.99112339  0.31453466 -0.00019781
   0.33941336  0.32813479  0.00036853
   0.11204422  0.21956974  0.94704318
   0.21871567  0.10959325  0.05182591
   0.11368238  0.55801402  0.95277726
   0.22455301  0.44934362  0.04938297
   0.10803553  0.88557154  0.94947936
   0.22056389  0.77294303  0.04957429
   0.45156296  0.22658121  0.94651445
   0.56059204  0.11649906  0.05207813
   0.44136853  0.55809637  0.94875895
   0.56060257  0.44456110  0.05072823
   0.44243685  0.88386466  0.94806066
   0.54911414  0.77555771  0.05407647
   0.77367830  0.22301151  0.94852545
   0.88723802  0.10861083  0.05534984
   0.77817448  0.55301777  0.95120723
   0.88583916  0.44480500  0.04836190
   0.77760883  0.88916731  0.94422144
   0.89127809  0.77594467  0.05225250
unknown system                          
           1
     8.276276    4.772386    0.000000
    -8.279445    4.777864    0.000000
     0.000000    0.000000   30.000000
   V    Mo   W    S 
   3   3   3  18
Direct configuration=    24
  -0.00035102  0.67491379 -0.00078347
   0.65293303  0.32314845  0.00017022
   0.34978455  0.68224331 -0.00003906
   0.34420360  0.01031935  0.00042954
   0.66976279  0.68367809 -0.00013416
   0.67247195 -0.00742727  0.00008749
  -0.01755061 -0.00379843 -0.00019056
   0.99047414  0.31356789 -0.00020348
   0.33955718  0.32731719  0.00038007
   0.11198524  0.21942160  0.94705051
   0.21849296  0.10927880  0.05178514
   0.11365683  0.55781643  0.95297237
   0.22453957  0.44923191  0.04918104
   0.10811724  0.88583986  0.94953062
   0.22065619  0.77305332  0.04957500
   0.45158441  0.22652313  0.94641926
   0.56067673  0.11646195  0.05211717
   0.44130448  0.55799065  0.94890970
   0.56063313  0.44465444  0.05066832
   0.44259113  0.88405737  0.94801851