       N       E                     dE             d eps       ncg     rms          rms(c)
DAV:   1     0.112442004422E+04    0.11244E+04   -0.35860E+04  8160   0.577E+02
DAV:   2    -0.273310598362E+01   -0.11272E+04   -0.10862E+04 11120   0.173E+02
DAV:   3    -0.199887130428E+03   -0.19715E+03   -0.18933E+03 10960   0.819E+01
DAV:   4    -0.209027547430E+03   -0.91404E+01   -0.88269E+01 12080   0.258E+01
DAV:   5    -0.209354894400E+03   -0.32735E+00   -0.32643E+00 11480   0.368E+00    0.277E+01
DAV:   6    -0.240934137807E+03   -0.31579E+02   -0.11696E+02 12440   0.599E+01    0.606E+01
DAV:   7    -0.196273996154E+03    0.44660E+02   -0.17774E+02 13240   0.151E+02    0.199E+01
DAV:   8    -0.189531884766E+03    0.67421E+01   -0.18751E+01 12000   0.128E+01    0.126E+01
DAV:   9    -0.188082946990E+03    0.14489E+01   -0.31509E+00 12640   0.623E+00    0.892E+00
DAV:  10    -0.186929193529E+03    0.11538E+01   -0.16062E+00 13440   0.743E+00    0.205E+00
DAV:  11    -0.187080212118E+03   -0.15102E+00   -0.66490E-01 13360   0.399E+00    0.464E+00
DAV:  12    -0.186924507139E+03    0.15570E+00   -0.65401E-01 12920   0.442E+00    0.282E+00
DAV:  13    -0.186855795632E+03    0.68712E-01   -0.18202E-01 13080   0.227E+00    0.149E+00
DAV:  14    -0.186843066855E+03    0.12729E-01   -0.91988E-02 12840   0.170E+00    0.133E+00
DAV:  15    -0.186829672562E+03    0.13394E-01   -0.35170E-02 13160   0.889E-01    0.477E-01
DAV:  16    -0.186827449770E+03    0.22228E-02   -0.74063E-03 12160   0.281E-01    0.277E-01
DAV:  17    -0.186826128982E+03    0.13208E-02   -0.47943E-03 12720   0.290E-01    0.207E-01
DAV:  18    -0.186825630232E+03    0.49875E-03   -0.17038E-03 12800   0.200E-01    0.709E-02
DAV:  19    -0.186826278027E+03   -0.64779E-03   -0.89225E-04 10520   0.984E-02    0.762E-02
DAV:  20    -0.186826745106E+03   -0.46708E-03   -0.28186E-04  7640   0.460E-02    0.682E-02
DAV:  21    -0.186827808459E+03   -0.10634E-02   -0.27413E-04  7560   0.540E-02    0.195E-02
DAV:  22    -0.186828892490E+03   -0.10840E-02   -0.10965E-04  8040   0.245E-02    0.208E-02
DAV:  23    -0.186829365738E+03   -0.47325E-03   -0.32035E-05  6360   0.174E-02    0.107E-02
DAV:  24    -0.186830013675E+03   -0.64794E-03   -0.39294E-05  7160   0.159E-02    0.652E-03
DAV:  25    -0.186830363341E+03   -0.34967E-03   -0.90924E-06  6400   0.101E-02    0.289E-03
DAV:  26    -0.186830607719E+03   -0.24438E-03   -0.75132E-06  6800   0.630E-03    0.185E-03
DAV:  27    -0.186830677124E+03   -0.69405E-04   -0.24926E-06  7600   0.415E-03
   1 F= -.18683068E+03 E0= -.18665776E+03  d E =-.186831E+03
       N       E                     dE             d eps       ncg     rms          rms(c)
DAV:   1    -0.187522417218E+03   -0.69181E+00   -0.27747E+02  8160   0.354E+01    0.466E+00
DAV:   2    -0.189507585315E+03   -0.19852E+01   -0.20316E+01 12240   0.155E+01    0.938E+00
DAV:   3    -0.189349612450E+03    0.15797E+00   -0.40736E+00 12560   0.122E+01    0.651E+00
DAV:   4    -0.188772700948E+03    0.57691E+00   -0.67248E-01 12800   0.449E+00    0.171E+00
DAV:   5    -0.188730621824E+03    0.42079E-01   -0.28298E-01 10400   0.158E+00    0.175E+00
DAV:   6    -0.188779344749E+03   -0.48723E-01   -0.33370E-01 13280   0.300E+00    0.318E+00
DAV:   7    -0.188712161098E+03    0.67184E-01   -0.19533E-01 12800   0.254E+00    0.137E+00
DAV:   8    -0.188688914300E+03    0.23247E-01   -0.43461E-02 11480   0.915E-01    0.461E-01
DAV:   9    -0.188689925590E+03   -0.10113E-02   -0.12173E-02 12520   0.567E-01    0.557E-01
DAV:  10    -0.188687832026E+03    0.20936E-02   -0.62047E-03 13120   0.405E-01    0.177E-01
DAV:  11    -0.188687348332E+03    0.48369E-03   -0.15724E-03 11560   0.123E-01    0.795E-02
DAV:  12    -0.188687433160E+03   -0.84828E-04   -0.52988E-04 10080   0.630E-02
   2 F= -.18868743E+03 E0= -.18854508E+03  d E =-.185676E+01
       N       E                     dE             d eps       ncg     rms          rms(c)
DAV:   1    -0.190627801093E+03   -0.19405E+01   -0.31772E+01  9160   0.143E+01    0.444E+00
DAV:   2    -0.190546534915E+03    0.81266E-01   -0.27599E+00 11640   0.910E+00    0.714E+00
DAV:   3    -0.190123533937E+03    0.42300E+00   -0.15130E+00 12400   0.840E+00    0.432E+00
DAV:   4    -0.189895686123E+03    0.22785E+00   -0.72128E-01 12680   0.437E+00    0.242E+00
DAV:   5    -0.189812311348E+03    0.83375E-01   -0.29913E-01 11880   0.203E+00    0.109E+00
DAV:   6    -0.189800288743E+03    0.12023E-01   -0.62039E-02 11920   0.133E+00    0.918E-01
DAV:   7    -0.189793995201E+03    0.62935E-02   -0.17648E-02 11640   0.732E-01    0.246E-01
DAV:   8    -0.189793667241E+03    0.32796E-03   -0.22349E-03 11560   0.160E-01    0.132E-01
DAV:   9    -0.189794180986E+03   -0.51374E-03   -0.11163E-03 10720   0.126E-01    0.169E-01
DAV:  10    -0.189794000829E+03    0.18016E-03   -0.10892E-03 10720   0.183E-01    0.157E-01
DAV:  11    -0.189793821179E+03    0.17965E-03   -0.42577E-04  8880   0.127E-01    0.331E-02
DAV:  12    -0.189793824604E+03   -0.34251E-05   -0.44075E-05  6000   0.290E-02
   3 F= -.18979382E+03 E0= -.18967216E+03  d E =-.110639E+01
       N       E                     dE             d eps       ncg     rms          rms(c)
DAV:   1    -0.191407859826E+03   -0.16140E+01   -0.83542E+01  8160   0.207E+01    0.459E+00
DAV:   2    -0.191159242289E+03    0.24862E+00   -0.53749E+00 12880   0.677E+00    0.378E+00
DAV:   3    -0.191375264022E+03   -0.21602E+00   -0.14883E+00 12240   0.849E+00    0.670E+00
DAV:   4    -0.190984643679E+03    0.39062E+00   -0.13505E+00 12240   0.812E+00    0.295E+00
DAV:   5    -0.190858671868E+03    0.12597E+00   -0.32008E-01 12200   0.255E+00    0.121E+00
DAV:   6    -0.190859986171E+03   -0.13143E-02   -0.12947E-01 12160   0.214E+00    0.169E+00
DAV:   7    -0.190838543058E+03    0.21443E-01   -0.67545E-02 11720   0.162E+00    0.543E-01
DAV:   8    -0.190834709603E+03    0.38335E-02   -0.79109E-03 11600   0.461E-01    0.268E-01
DAV:   9    -0.190834668800E+03    0.40803E-04   -0.27991E-03 12760   0.330E-01    0.244E-01
DAV:  10    -0.190834463582E+03    0.20522E-03   -0.19719E-03 11080   0.219E-01    0.608E-02
DAV:  11    -0.190834461702E+03    0.18798E-05   -0.20544E-04  7160   0.579E-02
   4 F= -.19083446E+03 E0= -.19072661E+03  d E =-.104064E+01
       N       E                     dE             d eps       ncg     rms          rms(c)
DAV:   1    -0.192264685641E+03   -0.14302E+01   -0.19444E+02  8160   0.309E+01    0.584E+00
DAV:   2    -0.191972822512E+03    0.29186E+00   -0.10052E+01  9960   0.767E+00    0.325E+00
DAV:   3    -0.191847960259E+03    0.12486E+00   -0.15539E+00 10880   0.498E+00    0.361E+00
DAV:   4    -0.191864026633E+03   -0.16066E-01   -0.96238E-01 12160   0.704E+00    0.499E+00
DAV:   5    -0.191612554554E+03    0.25147E+00   -0.73274E-01 12320   0.571E+00    0.183E+00
DAV:   6    -0.191610987223E+03    0.15673E-02   -0.23240E-01 12240   0.296E+00    0.193E+00
DAV:   7    -0.191575508192E+03    0.35479E-01   -0.93995E-02 12280   0.204E+00    0.570E-01
DAV:   8    -0.191571706250E+03    0.38019E-02   -0.17167E-02 11560   0.706E-01    0.473E-01
DAV:   9    -0.191570227630E+03    0.14786E-02   -0.68607E-03 11920   0.503E-01    0.240E-01
DAV:  10    -0.191570066679E+03    0.16095E-03   -0.24618E-03 11600   0.227E-01    0.888E-02
DAV:  11    -0.191570020237E+03    0.46442E-04   -0.40985E-04  9680   0.832E-02
   5 F= -.19157002E+03 E0= -.19146203E+03  d E =-.735559E+00
       N       E                     dE             d eps       ncg     rms          rms(c)
DAV:   1    -0.191645410265E+03   -0.75344E-01   -0.54924E+00  8160   0.500E+00    0.769E-01
DAV:   2    -0.191722875386E+03   -0.77465E-01   -0.36108E-01 12480   0.328E+00    0.261E+00
DAV:   3    -0.191656508524E+03    0.66367E-01   -0.14299E-01 12480   0.253E+00    0.532E-01
DAV:   4    -0.191661200587E+03   -0.46921E-02   -0.29892E-02 10680   0.111E+00    0.910E-01
DAV:   5    -0.191652188975E+03    0.90116E-02   -0.16069E-02 10800   0.862E-01    0.229E-01
DAV:   6    -0.191651766890E+03    0.42208E-03   -0.45748E-03 11280   0.250E-01    0.126E-01
DAV:   7    -0.191651554457E+03    0.21243E-03   -0.13564E-03 10960   0.172E-01    0.130E-01
DAV:   8    -0.191651452651E+03    0.10181E-03   -0.60600E-04  8600   0.145E-01    0.713E-02
DAV:   9    -0.191651418611E+03    0.34039E-04   -0.11812E-04  6000   0.607E-02
   6 F= -.19165142E+03 E0= -.19154196E+03  d E =-.813984E-01
       N       E                     dE             d eps       ncg     rms          rms(c)
DAV:   1    -0.191728926634E+03   -0.77474E-01   -0.65127E+00  8160   0.538E+00    0.641E-01
DAV:   2    -0.191785061005E+03   -0.56134E-01   -0.24340E-01 13160   0.232E+00    0.226E+00
DAV:   3    -0.191737144221E+03    0.47917E-01   -0.11534E-01 12480   0.221E+00    0.533E-01
DAV:   4    -0.191738711255E+03   -0.15670E-02   -0.19265E-02 10480   0.868E-01    0.654E-01
DAV:   5    -0.191733898449E+03    0.48128E-02   -0.85852E-03 11080   0.668E-01    0.173E-01
DAV:   6    -0.191733677691E+03    0.22076E-03   -0.23743E-03 10560   0.190E-01    0.110E-01
DAV:   7    -0.191733564850E+03    0.11284E-03   -0.11678E-03 10960   0.158E-01    0.128E-01
DAV:   8    -0.191733473054E+03    0.91796E-04   -0.66294E-04  8520   0.150E-01
   7 F= -.19173347E+03 E0= -.19162349E+03  d E =-.820544E-01
       N       E                     dE             d eps       ncg     rms          rms(c)
DAV:   1    -0.191813407191E+03   -0.79842E-01   -0.69363E+00  8160   0.562E+00    0.768E-01
DAV:   2    -0.191906073372E+03   -0.92666E-01   -0.36699E-01 12160   0.331E+00    0.306E+00
DAV:   3    -0.191822502775E+03    0.83571E-01   -0.18409E-01 12440   0.276E+00    0.508E-01
DAV:   4    -0.191825005558E+03   -0.25028E-02   -0.22199E-02 10240   0.100E+00    0.730E-01
DAV:   5    -0.191818827558E+03    0.61780E-02   -0.11785E-02 11360   0.797E-01    0.230E-01
DAV:   6    -0.191818935738E+03   -0.10818E-03   -0.52173E-03 11400   0.344E-01    0.300E-01
DAV:   7    -0.191819088662E+03   -0.15292E-03   -0.59631E-03 11400   0.451E-01    0.346E-01
DAV:   8    -0.191817925772E+03    0.11629E-02   -0.22148E-03 10120   0.259E-01    0.300E-02
DAV:   9    -0.191817951844E+03   -0.26072E-04   -0.11785E-04  6280   0.338E-02
   8 F= -.19181795E+03 E0= -.19170894E+03  d E =-.844788E-01
       N       E                     dE             d eps       ncg     rms          rms(c)
DAV:   1    -0.191921558446E+03   -0.10363E+00   -0.26198E+01  8160   0.109E+01    0.130E+00
DAV:   2    -0.192151996157E+03   -0.23044E+00   -0.11071E+00 11200   0.511E+00    0.466E+00
DAV:   3    -0.191966865320E+03    0.18513E+00   -0.47539E-01 12360   0.446E+00    0.883E-01
DAV:   4    -0.191957848015E+03    0.90173E-02   -0.33146E-02 12240   0.944E-01    0.617E-01
DAV:   5    -0.191956934908E+03    0.91311E-03   -0.22444E-02 11480   0.114E+00    0.699E-01
DAV:   6    -0.191954247268E+03    0.26876E-02   -0.21617E-02 12600   0.942E-01    0.544E-01
DAV:   7    -0.191955109042E+03   -0.86177E-03   -0.18616E-02 11800   0.818E-01    0.664E-01
DAV:   8    -0.191950902464E+03    0.42066E-02   -0.76477E-03 11840   0.523E-01    0.591E-02
DAV:   9    -0.191950932691E+03   -0.30227E-04   -0.48614E-04 10160   0.678E-02
   9 F= -.19195093E+03 E0= -.19184715E+03  d E =-.132981E+00
       N       E                     dE             d eps       ncg     rms          rms(c)
DAV:   1    -0.191964341714E+03   -0.13439E-01   -0.53848E-01  8160   0.167E+00    0.330E-01
DAV:   2    -0.191964061248E+03    0.28047E-03   -0.27319E-02 10520   0.654E-01    0.400E-01
DAV:   3    -0.191963759640E+03    0.30161E-03   -0.93392E-03 11520   0.711E-01    0.384E-01
DAV:   4    -0.191962379952E+03    0.13797E-02   -0.55105E-03 11560   0.480E-01    0.283E-01
DAV:   5    -0.191962369495E+03    0.10456E-04   -0.38351E-03 11360   0.433E-01    0.294E-01
DAV:   6    -0.191961417957E+03    0.95154E-03   -0.19732E-03 11160   0.294E-01    0.742E-02
DAV:   7    -0.191961522983E+03   -0.10503E-03   -0.62030E-04  8720   0.147E-01    0.131E-01
DAV:   8    -0.191961368277E+03    0.15471E-03   -0.28605E-04  7400   0.106E-01    0.189E-02
DAV:   9    -0.191961372875E+03   -0.45979E-05   -0.22992E-05  6600   0.198E-02
  10 F= -.19196137E+03 E0= -.19185766E+03  d E =-.104402E-01
       N       E                     dE             d eps       ncg     rms          rms(c)
DAV:   1    -0.191990065294E+03   -0.28697E-01   -0.18440E+00  8160   0.287E+00    0.323E-01
DAV:   2    -0.191998833905E+03   -0.87686E-02   -0.65225E-02 10680   0.997E-01    0.765E-01
DAV:   3    -0.191994004694E+03    0.48292E-02   -0.17430E-02 12600   0.918E-01    0.344E-01
DAV:   4    -0.191992993110E+03    0.10116E-02   -0.30610E-03 11400   0.322E-01    0.169E-01
DAV:   5    -0.191992919914E+03    0.73195E-04   -0.17221E-03 11400   0.307E-01    0.180E-01
DAV:   6    -0.191992698490E+03    0.22142E-03   -0.11632E-03 10720   0.233E-01    0.114E-01
DAV:   7    -0.191992866218E+03   -0.16773E-03   -0.11586E-03 10000   0.207E-01    0.193E-01
DAV:   8    -0.191992529961E+03    0.33626E-03   -0.59144E-04  8400   0.150E-01    0.191E-02
DAV:   9    -0.191992544230E+03   -0.14269E-04   -0.37242E-05  5840   0.222E-02
  11 F= -.19199254E+03 E0= -.19189095E+03  d E =-.311714E-01
       N       E                     dE             d eps       ncg     rms          rms(c)
DAV:   1    -0.192013021412E+03   -0.20491E-01   -0.78175E-01  8160   0.190E+00    0.230E-01
DAV:   2    -0.192015488598E+03   -0.24672E-02   -0.27407E-02 11600   0.573E-01    0.401E-01
DAV:   3    -0.192014682385E+03    0.80621E-03   -0.65325E-03 12680   0.559E-01    0.289E-01
DAV:   4    -0.192013822244E+03    0.86014E-03   -0.18256E-03 11200   0.262E-01    0.105E-01
DAV:   5    -0.192014036894E+03   -0.21465E-03   -0.12037E-03 10440   0.215E-01    0.211E-01
DAV:   6    -0.192013737607E+03    0.29929E-03   -0.12007E-03  9240   0.210E-01    0.947E-02
DAV:   7    -0.192013708173E+03    0.29434E-04   -0.31996E-04  8600   0.126E-01
  12 F= -.19201371E+03 E0= -.19191368E+03  d E =-.211639E-01
       N       E                     dE             d eps       ncg     rms          rms(c)
DAV:   1    -0.192023764473E+03   -0.10027E-01   -0.17933E-01  8160   0.915E-01    0.105E-01
DAV:   2    -0.192024126372E+03   -0.36190E-03   -0.55421E-03 11960   0.210E-01    0.117E-01
DAV:   3    -0.192024288476E+03   -0.16210E-03   -0.11649E-03 11120   0.243E-01    0.182E-01
DAV:   4    -0.192023973661E+03    0.31481E-03   -0.56475E-04  8640   0.166E-01    0.524E-02
DAV:   5    -0.192024007789E+03   -0.34128E-04   -0.21045E-04  6920   0.939E-02
  13 F= -.19202401E+03 E0= -.19192471E+03  d E =-.102996E-01
       N       E                     dE             d eps       ncg     rms          rms(c)
DAV:   1    -0.192013902307E+03    0.10071E-01   -0.29289E-01  8160   0.120E+00    0.200E-01
DAV:   2    -0.192017043366E+03   -0.31411E-02   -0.15538E-02 12680   0.597E-01    0.643E-01
DAV:   3    -0.192013831282E+03    0.32121E-02   -0.93120E-03 11040   0.585E-01    0.199E-01
DAV:   4    -0.192013484764E+03    0.34652E-03   -0.13366E-03  9680   0.171E-01    0.913E-02
DAV:   5    -0.192013550730E+03   -0.65966E-04   -0.83704E-04 10080   0.181E-01
  14 F= -.19201355E+03 E0= -.19191281E+03  d E =0.104571E-01
       N       E                     dE             d eps       ncg     rms          rms(c)
DAV:   1    -0.192060614466E+03   -0.47130E-01   -0.35118E+00  8160   0.409E+00    0.530E-01
DAV:   2    -0.192070432257E+03   -0.98178E-02   -0.11594E-01 11880   0.123E+00    0.976E-01
DAV:   3    -0.192066054042E+03    0.43782E-02   -0.37076E-02 11520   0.126E+00    0.682E-01
DAV:   4    -0.192063079949E+03    0.29741E-02   -0.14854E-02 12240   0.740E-01    0.503E-01
DAV:   5    -0.192061880617E+03    0.11993E-02   -0.10022E-02 10040   0.662E-01    0.424E-01
DAV:   6    -0.192060411451E+03    0.14692E-02   -0.52737E-03 11400   0.439E-01    0.186E-01
DAV:   7    -0.192060434319E+03   -0.22868E-04   -0.20323E-03 10280   0.348E-01    0.182E-01
DAV:   8    -0.192059979655E+03    0.45466E-03   -0.59286E-04  9840   0.195E-01    0.297E-02
DAV:   9    -0.192059969151E+03    0.10504E-04   -0.66931E-05  6240   0.327E-02
  15 F= -.19205997E+03 E0= -.19196329E+03  d E =-.464184E-01
       N       E                     dE             d eps       ncg     rms          rms(c)
DAV:   1    -0.192075502737E+03   -0.15523E-01   -0.36707E-01  8160   0.131E+00    0.146E-01
DAV:   2    -0.192076147645E+03   -0.64491E-03   -0.11095E-02 11400   0.284E-01    0.141E-01
DAV:   3    -0.192076752708E+03   -0.60506E-03   -0.26718E-03 11480   0.321E-01    0.311E-01
DAV:   4    -0.192075908256E+03    0.84445E-03   -0.17282E-03  9760   0.256E-01    0.705E-02
DAV:   5    -0.192075913848E+03   -0.55922E-05   -0.28347E-04  7560   0.947E-02
  16 F= -.19207591E+03 E0= -.19198065E+03  d E =-.159447E-01
       N       E                     dE             d eps       ncg     rms          rms(c)
DAV:   1    -0.191990902785E+03    0.85005E-01   -0.99326E+00  8160   0.680E+00    0.761E-01
DAV:   2    -0.192010222494E+03   -0.19320E-01   -0.30007E-01 12240   0.161E+00    0.885E-01
DAV:   3    -0.192020913126E+03   -0.10691E-01   -0.75501E-02 12320   0.171E+00    0.154E+00
DAV:   4    -0.192004134960E+03    0.16778E-01   -0.49029E-02 12120   0.132E+00    0.603E-01
DAV:   5    -0.192001583499E+03    0.25515E-02   -0.13839E-02 10360   0.870E-01    0.422E-01
DAV:   6    -0.192000145972E+03    0.14375E-02   -0.68052E-03 13400   0.547E-01    0.207E-01
DAV:   7    -0.191999294058E+03    0.85191E-03   -0.18189E-03 10800   0.195E-01    0.515E-02
DAV:   8    -0.191999318552E+03   -0.24494E-04   -0.29122E-04  8800   0.933E-02
  17 F= -.19199932E+03 E0= -.19189827E+03  d E =0.765953E-01
       N       E                     dE             d eps       ncg     rms          rms(c)
DAV:   1    -0.191986195754E+03    0.13098E-01   -0.74387E-01  8160   0.186E+00    0.209E-01
DAV:   2    -0.191986978645E+03   -0.78289E-03   -0.17729E-02 12400   0.359E-01    0.171E-01
DAV:   3    -0.191988006922E+03   -0.10283E-02   -0.44221E-03 12480   0.405E-01    0.405E-01
DAV:   4    -0.191986757626E+03    0.12493E-02   -0.36871E-03 10200   0.366E-01    0.160E-01
DAV:   5    -0.191986677943E+03    0.79684E-04   -0.10807E-03  9960   0.215E-01    0.135E-01
DAV:   6    -0.191986528356E+03    0.14959E-03   -0.60483E-04  9160   0.185E-01    0.654E-02
DAV:   7    -0.191986496477E+03    0.31879E-04   -0.17605E-04  7320   0.847E-02
  18 F= -.19198650E+03 E0= -.19188340E+03  d E =0.128221E-01
       N       E                     dE             d eps       ncg     rms          rms(c)
DAV:   1    -0.191973992872E+03    0.12535E-01   -0.41423E+00  8160   0.437E+00    0.466E-01
DAV:   2    -0.191980140990E+03   -0.61481E-02   -0.10803E-01 12240   0.876E-01    0.382E-01
DAV:   3    -0.191983932735E+03   -0.37917E-02   -0.21632E-02 12560   0.915E-01    0.793E-01
DAV:   4    -0.191978749931E+03    0.51828E-02   -0.14074E-02 11320   0.774E-01    0.320E-01
DAV:   5    -0.191978507287E+03    0.24264E-03   -0.61110E-03 11520   0.431E-01    0.367E-01
DAV:   6    -0.191978044205E+03    0.46308E-03   -0.50870E-03 11480   0.450E-01    0.260E-01
DAV:   7    -0.191977568573E+03    0.47563E-03   -0.17371E-03  9720   0.260E-01    0.144E-01
DAV:   8    -0.191977341780E+03    0.22679E-03   -0.50230E-04  9160   0.170E-01    0.350E-02
DAV:   9    -0.191977331308E+03    0.10471E-04   -0.55135E-05  6720   0.395E-02
  19 F= -.19197733E+03 E0= -.19187232E+03  d E =0.916517E-02
       N       E                     dE             d eps       ncg     rms          rms(c)
DAV:   1    -0.191985755679E+03   -0.84139E-02   -0.57312E+00  8160   0.511E+00    0.587E-01
DAV:   2    -0.192004339666E+03   -0.18584E-01   -0.19709E-01 11880   0.155E+00    0.102E+00
DAV:   3    -0.191999199808E+03    0.51399E-02   -0.45697E-02 12360   0.150E+00    0.776E-01
DAV:   4    -0.191993660958E+03    0.55389E-02   -0.12998E-02 12360   0.704E-01    0.338E-01
DAV:   5    -0.191993647410E+03    0.13548E-04   -0.82799E-03 11360   0.583E-01    0.446E-01
DAV:   6    -0.191992874118E+03    0.77329E-03   -0.84591E-03 11520   0.540E-01    0.345E-01
DAV:   7    -0.191992564291E+03    0.30983E-03   -0.48301E-03 10640   0.438E-01    0.274E-01
DAV:   8    -0.191991706583E+03    0.85771E-03   -0.15897E-03  9720   0.274E-01    0.374E-02
DAV:   9    -0.191991694841E+03    0.11741E-04   -0.98728E-05  6480   0.376E-02
  20 F= -.19199169E+03 E0= -.19188713E+03  d E =-.143635E-01
       N       E                     dE             d eps       ncg     rms          rms(c)
DAV:   1    -0.191997486008E+03   -0.57794E-02   -0.59442E-01  8160   0.166E+00    0.223E-01
DAV:   2    -0.192002070248E+03   -0.45842E-02   -0.28152E-02 11400   0.762E-01    0.614E-01
DAV:   3    -0.191998677301E+03    0.33929E-02   -0.82093E-03 12440   0.656E-01    0.180E-01
DAV:   4    -0.191998352646E+03    0.32465E-03   -0.94638E-04 10080   0.166E-01    0.107E-01
DAV:   5    -0.191998388025E+03   -0.35379E-04   -0.83336E-04 10560   0.209E-01
  21 F= -.19199839E+03 E0= -.19189463E+03  d E =-.669318E-02
       N       E                     dE             d eps       ncg     rms          rms(c)
DAV:   1    -0.192002479750E+03   -0.41271E-02   -0.30220E-01  8160   0.119E+00    0.176E-01
DAV:   2    -0.192007606220E+03   -0.51265E-02   -0.18897E-02 11080   0.669E-01    0.767E-01
DAV:   3    -0.192002804261E+03    0.48020E-02   -0.11000E-02 11360   0.615E-01    0.123E-01
DAV:   4    -0.192002953299E+03   -0.14904E-03   -0.99285E-04 10040   0.179E-01    0.163E-01
DAV:   5    -0.192002734787E+03    0.21851E-03   -0.68202E-04  8920   0.188E-01    0.899E-02
DAV:   6    -0.192002695879E+03    0.38908E-04   -0.30191E-04  7760   0.113E-01
  22 F= -.19200270E+03 E0= -.19189937E+03  d E =-.430785E-02
       N       E                     dE             d eps       ncg     rms          rms(c)
DAV:   1    -0.192005972393E+03   -0.32376E-02   -0.15330E-01  8160   0.846E-01    0.111E-01
DAV:   2    -0.192006843827E+03   -0.87143E-03   -0.49216E-03 13240   0.347E-01    0.257E-01
DAV:   3    -0.192006069355E+03    0.77447E-03   -0.17722E-03 11160   0.317E-01    0.841E-02
DAV:   4    -0.192006106718E+03   -0.37362E-04   -0.36946E-04  8560   0.127E-01
  23 F= -.19200611E+03 E0= -.19190273E+03  d E =-.341084E-02
       N       E                     dE             d eps       ncg     rms          rms(c)
DAV:   1    -0.192005860342E+03    0.20901E-03   -0.11783E-03 12280   0.153E-01    0.631E-02
DAV:   2    -0.192006778511E+03   -0.91817E-03   -0.17006E-03 11040   0.322E-01    0.302E-01
DAV:   3    -0.192005816260E+03    0.96225E-03   -0.12609E-03 10080   0.276E-01    0.434E-02
DAV:   4    -0.192005827764E+03   -0.11504E-04   -0.72224E-05  5920   0.537E-02
  24 F= -.19200583E+03 E0= -.19190277E+03  d E =0.278954E-03
       N       E                     dE             d eps       ncg     rms          rms(c)
DAV:   1    -0.192007203445E+03   -0.13872E-02   -0.13272E-01  8160   0.777E-01    0.117E-01
DAV:   2    -0.192009068733E+03   -0.18653E-02   -0.71454E-03 10920   0.514E-01    0.390E-01
DAV:   3    -0.192007385683E+03    0.16831E-02   -0.27912E-03 10520   0.415E-01    0.919E-02
DAV:   4    -0.192007433095E+03   -0.47412E-04   -0.49861E-04  8280   0.147E-01
  25 F= -.19200743E+03 E0= -.19190435E+03  d E =-.160533E-02
       N       E                     dE             d eps       ncg     rms          rms(c)
DAV:   1    -0.192013126273E+03   -0.57406E-02   -0.35924E-01  8160   0.129E+00    0.166E-01
DAV:   2    -0.192015425841E+03   -0.22996E-02   -0.11366E-02 13360   0.532E-01    0.468E-01
DAV:   3    -0.192013421938E+03    0.20039E-02   -0.49267E-03 11360   0.499E-01    0.162E-01
DAV:   4    -0.192013627506E+03   -0.20557E-03   -0.15985E-03  9840   0.249E-01    0.212E-01
DAV:   5    -0.192013241643E+03    0.38586E-03   -0.11359E-03  9520   0.232E-01    0.991E-02
DAV:   6    -0.192013231258E+03    0.10385E-04   -0.38134E-04  8440   0.136E-01
  26 F= -.19201323E+03 E0= -.19191059E+03  d E =-.579816E-02
       N       E                     dE             d eps       ncg     rms          rms(c)
DAV:   1    -0.192011268627E+03    0.19730E-02   -0.24398E-01  8160   0.107E+00    0.149E-01
DAV:   2    -0.192012160803E+03   -0.89218E-03   -0.84154E-03 13160   0.389E-01    0.298E-01
DAV:   3    -0.192011503626E+03    0.65718E-03   -0.31165E-03 12040   0.401E-01    0.181E-01
DAV:   4    -0.192011187274E+03    0.31635E-03   -0.85924E-04  9520   0.180E-01    0.850E-02
DAV:   5    -0.192011264387E+03   -0.77113E-04   -0.64780E-04  8800   0.155E-01
  27 F= -.19201126E+03 E0= -.19190871E+03  d E =0.196687E-02
       N       E                     dE             d eps       ncg     rms          rms(c)
DAV:   1    -0.192008441338E+03    0.27459E-02   -0.41547E-01  8160   0.140E+00    0.168E-01
DAV:   2    -0.192009046028E+03   -0.60469E-03   -0.10554E-02 12040   0.367E-01    0.193E-01
DAV:   3    -0.192009100319E+03   -0.54291E-04   -0.23396E-03 11040   0.374E-01    0.215E-01
DAV:   4    -0.192008703006E+03    0.39731E-03   -0.11210E-03 10040   0.253E-01    0.128E-01
DAV:   5    -0.192008655006E+03    0.47999E-04   -0.69223E-04  8960   0.192E-01
  28 F= -.19200866E+03 E0= -.19190660E+03  d E =0.260938E-02
       N       E                     dE             d eps       ncg     rms          rms(c)
DAV:   1    -0.192008476671E+03    0.22633E-03   -0.30172E-01  8160   0.118E+00    0.158E-01
DAV:   2    -0.192009494971E+03   -0.10183E-02   -0.89794E-03 12640   0.442E-01    0.313E-01
DAV:   3    -0.192008653004E+03    0.84197E-03   -0.32484E-03 12200   0.396E-01    0.168E-01
DAV:   4    -0.192008947716E+03   -0.29471E-03   -0.19655E-03  9800   0.275E-01    0.248E-01
DAV:   5    -0.192008353698E+03    0.59402E-03   -0.12171E-03  9040   0.235E-01    0.564E-02
DAV:   6    -0.192008367783E+03   -0.14085E-04   -0.19715E-04  6320   0.762E-02
  29 F= -.19200837E+03 E0= -.19190632E+03  d E =0.287223E-03
       N       E                     dE             d eps       ncg     rms          rms(c)
DAV:   1    -0.192012250757E+03   -0.38971E-02   -0.27262E-01  8160   0.113E+00    0.130E-01
DAV:   2    -0.192013465549E+03   -0.12148E-02   -0.87471E-03 12040   0.374E-01    0.304E-01
DAV:   3    -0.192012648709E+03    0.81684E-03   -0.26548E-03 10960   0.341E-01    0.132E-01
DAV:   4    -0.192012770626E+03   -0.12192E-03   -0.97622E-04  8600   0.199E-01    0.173E-01
DAV:   5    -0.192012488559E+03    0.28207E-03   -0.63802E-04  8280   0.170E-01    0.600E-02
DAV:   6    -0.192012555897E+03   -0.67338E-04   -0.27313E-04  7800   0.122E-01
  30 F= -.19201256E+03 E0= -.19191064E+03  d E =-.418811E-02
       N       E                     dE             d eps       ncg     rms          rms(c)
DAV:   1    -0.192011956065E+03    0.53249E-03   -0.40186E-03  8160   0.170E-01    0.259E-02
DAV:   2    -0.192012034291E+03   -0.78226E-04   -0.27938E-04  8480   0.941E-02
  31 F= -.19201203E+03 E0= -.19191002E+03  d E =0.521606E-03
       N       E                     dE             d eps       ncg     rms          rms(c)
DAV:   1    -0.192013645349E+03   -0.16893E-02   -0.78241E-02  8160   0.617E-01    0.924E-02
DAV:   2    -0.192014002258E+03   -0.35691E-03   -0.25946E-03 11600   0.252E-01    0.206E-01
DAV:   3    -0.192013623341E+03    0.37892E-03   -0.11171E-03 10120   0.235E-01    0.917E-02
DAV:   4    -0.192013652563E+03   -0.29221E-04   -0.48394E-04  8240   0.142E-01
  32 F= -.19201365E+03 E0= -.19191170E+03  d E =-.161827E-02
       N       E                     dE             d eps       ncg     rms          rms(c)
DAV:   1    -0.192019415498E+03   -0.57922E-02   -0.39171E-01  8160   0.136E+00    0.182E-01
DAV:   2    -0.192022663773E+03   -0.32483E-02   -0.15984E-02 12880   0.585E-01    0.547E-01
DAV:   3    -0.192019919254E+03    0.27445E-02   -0.69913E-03 11600   0.546E-01    0.176E-01
DAV:   4    -0.192019990075E+03   -0.70821E-04   -0.16671E-03  9760   0.239E-01    0.194E-01
DAV:   5    -0.192019699742E+03    0.29033E-03   -0.10756E-03 10320   0.227E-01    0.111E-01
DAV:   6    -0.192019600661E+03    0.99081E-04   -0.36099E-04  8120   0.129E-01
  33 F= -.19201960E+03 E0= -.19191818E+03  d E =-.594810E-02
       N       E                     dE             d eps       ncg     rms          rms(c)
DAV:   1    -0.192019925124E+03   -0.22538E-03   -0.39976E-02  8160   0.461E-01    0.817E-02
DAV:   2    -0.192020769135E+03   -0.84401E-03   -0.25606E-03 12480   0.342E-01    0.277E-01
DAV:   3    -0.192019898597E+03    0.87054E-03   -0.13297E-03 10240   0.293E-01    0.575E-02
DAV:   4    -0.192019942475E+03   -0.43878E-04   -0.21843E-04  7280   0.100E-01
  34 F= -.19201994E+03 E0= -.19191830E+03  d E =-.341814E-03
       N       E                     dE             d eps       ncg     rms          rms(c)
DAV:   1    -0.192026223747E+03   -0.63252E-02   -0.39291E-01  8160   0.136E+00    0.178E-01
DAV:   2    -0.192029631167E+03   -0.34074E-02   -0.15965E-02 12160   0.614E-01    0.577E-01
DAV:   3    -0.192026618019E+03    0.30131E-02   -0.70631E-03 11240   0.543E-01    0.149E-01
DAV:   4    -0.192026868189E+03   -0.25017E-03   -0.14012E-03  9640   0.259E-01    0.210E-01
DAV:   5    -0.192026403893E+03    0.46430E-03   -0.94621E-04  9400   0.223E-01    0.745E-02
DAV:   6    -0.192026504066E+03   -0.10017E-03   -0.38715E-04  8760   0.154E-01    0.116E-01
DAV:   7    -0.192026361039E+03    0.14303E-03   -0.24864E-04  7720   0.126E-01    0.221E-02
DAV:   8    -0.192026358405E+03    0.26341E-05   -0.27908E-05  6400   0.255E-02
  35 F= -.19202636E+03 E0= -.19192563E+03  d E =-.641593E-02
       N       E                     dE             d eps       ncg     rms          rms(c)
DAV:   1    -0.192025502005E+03    0.85903E-03   -0.12718E-01  8160   0.792E-01    0.132E-01
DAV:   2    -0.192025994722E+03   -0.49272E-03   -0.54720E-03 11920   0.327E-01    0.275E-01
DAV:   3    -0.192025454758E+03    0.53996E-03   -0.23549E-03 10400   0.321E-01    0.144E-01
DAV:   4    -0.192025420124E+03    0.34634E-04   -0.10022E-03  9080   0.202E-01    0.150E-01
DAV:   5    -0.192025255603E+03    0.16452E-03   -0.69574E-04  8600   0.181E-01    0.881E-02
DAV:   6    -0.192025208745E+03    0.46858E-04   -0.28834E-04  7320   0.113E-01
  36 F= -.19202521E+03 E0= -.19192437E+03  d E =0.114966E-02
       N       E                     dE             d eps       ncg     rms          rms(c)
DAV:   1    -0.192023781394E+03    0.14742E-02   -0.41370E-02  8160   0.447E-01    0.580E-02
DAV:   2    -0.192024037548E+03   -0.25615E-03   -0.16120E-03 12640   0.174E-01    0.148E-01
DAV:   3    -0.192023838205E+03    0.19934E-03   -0.61632E-04  8600   0.167E-01    0.622E-02
DAV:   4    -0.192023868042E+03   -0.29837E-04   -0.21357E-04  6560   0.982E-02
  37 F= -.19202387E+03 E0= -.19192291E+03  d E =0.134070E-02
       N       E                     dE             d eps       ncg     rms          rms(c)
DAV:   1    -0.192034324609E+03   -0.10486E-01   -0.87289E-01  8160   0.202E+00    0.238E-01
DAV:   2    -0.192037552555E+03   -0.32279E-02   -0.26538E-02 12600   0.669E-01    0.501E-01
DAV:   3    -0.192035691065E+03    0.18615E-02   -0.88596E-03 12360   0.626E-01    0.289E-01
DAV:   4    -0.192035558169E+03    0.13290E-03   -0.33579E-03 10640   0.371E-01    0.259E-01
DAV:   5    -0.192034898702E+03    0.65947E-03   -0.17340E-03  9760   0.312E-01    0.107E-01
DAV:   6    -0.192034795346E+03    0.10336E-03   -0.50812E-04  9440   0.120E-01    0.577E-02
DAV:   7    -0.192034828447E+03   -0.33101E-04   -0.26906E-04  9080   0.121E-01
  38 F= -.19203483E+03 E0= -.19193502E+03  d E =-.109604E-01
       N       E                     dE             d eps       ncg     rms          rms(c)
DAV:   1    -0.192036882885E+03   -0.20875E-02   -0.10181E-01  8160   0.701E-01    0.980E-02
DAV:   2    -0.192037151603E+03   -0.26872E-03   -0.30073E-03 12600   0.246E-01    0.174E-01
DAV:   3    -0.192036925640E+03    0.22596E-03   -0.10069E-03 10160   0.252E-01    0.108E-01
DAV:   4    -0.192036830196E+03    0.95444E-04   -0.30139E-04  7120   0.120E-01
  39 F= -.19203683E+03 E0= -.19193724E+03  d E =-.200175E-02
       N       E                     dE             d eps       ncg     rms          rms(c)
DAV:   1    -0.192040282036E+03   -0.33564E-02   -0.74255E-01  8160   0.190E+00    0.256E-01
DAV:   2    -0.192045283459E+03   -0.50014E-02   -0.29723E-02 12760   0.813E-01    0.646E-01
DAV:   3    -0.192041105509E+03    0.41779E-02   -0.11903E-02 12360   0.766E-01    0.258E-01
DAV:   4    -0.192041497539E+03   -0.39203E-03   -0.40014E-03 10760   0.406E-01    0.334E-01
DAV:   5    -0.192040322704E+03    0.11748E-02   -0.21165E-03  9960   0.330E-01    0.692E-02
DAV:   6    -0.192040360229E+03   -0.37525E-04   -0.44436E-04  9040   0.115E-01
  40 F= -.19204036E+03 E0= -.19194081E+03  d E =-.353003E-02
       N       E                     dE             d eps       ncg     rms          rms(c)
DAV:   1    -0.192042180188E+03   -0.18575E-02   -0.15281E-01  8160   0.858E-01    0.129E-01
DAV:   2    -0.192044267461E+03   -0.20873E-02   -0.74208E-03 12640   0.493E-01    0.429E-01
DAV:   3    -0.192042271612E+03    0.19958E-02   -0.31822E-03 10520   0.429E-01    0.779E-02
DAV:   4    -0.192042428908E+03   -0.15730E-03   -0.52937E-04  8520   0.164E-01    0.139E-01
DAV:   5    -0.192042236512E+03    0.19240E-03   -0.43042E-04  8440   0.148E-01    0.525E-02
DAV:   6    -0.192042281482E+03   -0.44970E-04   -0.20924E-04  6720   0.105E-01
  41 F= -.19204228E+03 E0= -.19194231E+03  d E =-.192125E-02
       N       E                     dE             d eps       ncg     rms          rms(c)
DAV:   1    -0.192052730617E+03   -0.10494E-01   -0.92464E-01  8160   0.208E+00    0.264E-01
DAV:   2    -0.192057935210E+03   -0.52046E-02   -0.32698E-02 12560   0.844E-01    0.641E-01
DAV:   3    -0.192053927338E+03    0.40079E-02   -0.89509E-03 12000   0.736E-01    0.211E-01
DAV:   4    -0.192053760287E+03    0.16705E-03   -0.21150E-03 11200   0.271E-01    0.195E-01
DAV:   5    -0.192053662557E+03    0.97729E-04   -0.19846E-03 11240   0.289E-01    0.196E-01
DAV:   6    -0.192053340993E+03    0.32156E-03   -0.91985E-04  9120   0.191E-01    0.725E-02
DAV:   7    -0.192053379734E+03   -0.38741E-04   -0.38678E-04  8800   0.146E-01
  42 F= -.19205338E+03 E0= -.19195408E+03  d E =-.110983E-01
       N       E                     dE             d eps       ncg     rms          rms(c)
DAV:   1    -0.192059025651E+03   -0.56847E-02   -0.24584E-01  8160   0.107E+00    0.139E-01
DAV:   2    -0.192060131304E+03   -0.11057E-02   -0.85331E-03 12400   0.379E-01    0.309E-01
DAV:   3    -0.192059380970E+03    0.75033E-03   -0.30320E-03 11480   0.373E-01    0.153E-01
DAV:   4    -0.192059269238E+03    0.11173E-03   -0.78796E-04  8760   0.166E-01    0.114E-01
DAV:   5    -0.192059169678E+03    0.99560E-04   -0.42477E-04  9040   0.156E-01
  43 F= -.19205917E+03 E0= -.19196022E+03  d E =-.578994E-02
       N       E                     dE             d eps       ncg     rms          rms(c)
DAV:   1    -0.192063938402E+03   -0.46692E-02   -0.17944E-01  8160   0.917E-01    0.113E-01
DAV:   2    -0.192064337439E+03   -0.39904E-03   -0.44742E-03 13120   0.240E-01    0.176E-01
DAV:   3    -0.192064175947E+03    0.16149E-03   -0.13690E-03 10960   0.281E-01    0.141E-01
DAV:   4    -0.192064099149E+03    0.76799E-04   -0.59475E-04  8200   0.164E-01
  44 F= -.19206410E+03 E0= -.19196515E+03  d E =-.492947E-02
       N       E                     dE             d eps       ncg     rms          rms(c)
DAV:   1    -0.192062447429E+03    0.17285E-02   -0.37709E-01  8160   0.132E+00    0.175E-01
DAV:   2    -0.192066604003E+03   -0.41566E-02   -0.16263E-02 13600   0.693E-01    0.637E-01
DAV:   3    -0.192062705635E+03    0.38984E-02   -0.81080E-03 11480   0.607E-01    0.131E-01
DAV:   4    -0.192062896793E+03   -0.19116E-03   -0.11996E-03  9800   0.253E-01    0.176E-01
DAV:   5    -0.192062528447E+03    0.36835E-03   -0.63083E-04  9080   0.190E-01    0.429E-02
DAV:   6    -0.192062530583E+03   -0.21364E-05   -0.13369E-04  6280   0.545E-02
  45 F= -.19206253E+03 E0= -.19196345E+03  d E =0.156857E-02
       N       E                     dE             d eps       ncg     rms          rms(c)
DAV:   1    -0.192069425688E+03   -0.68972E-02   -0.64304E-01  8160   0.173E+00    0.210E-01
DAV:   2    -0.192073055262E+03   -0.36296E-02   -0.23034E-02 12400   0.669E-01    0.514E-01
DAV:   3    -0.192070425196E+03    0.26301E-02   -0.62456E-03 11800   0.602E-01    0.179E-01
DAV:   4    -0.192070402995E+03    0.22201E-04   -0.16277E-03  9960   0.240E-01    0.186E-01
DAV:   5    -0.192070145435E+03    0.25756E-03   -0.11469E-03  9880   0.230E-01    0.115E-01
DAV:   6    -0.192070065462E+03    0.79974E-04   -0.46222E-04  8440   0.136E-01
  46 F= -.19207007E+03 E0= -.19197103E+03  d E =-.753488E-02
       N       E                     dE             d eps       ncg     rms          rms(c)
DAV:   1    -0.192074557128E+03   -0.44117E-02   -0.26793E-01  8160   0.112E+00    0.145E-01
DAV:   2    -0.192075059159E+03   -0.50203E-03   -0.67413E-03 12000   0.339E-01    0.218E-01
DAV:   3    -0.192074690881E+03    0.36828E-03   -0.19146E-03 10440   0.342E-01    0.143E-01
DAV:   4    -0.192074587035E+03    0.10385E-03   -0.85760E-04  8480   0.198E-01    0.128E-01
DAV:   5    -0.192074521145E+03    0.65890E-04   -0.65063E-04  8360   0.181E-01
  47 F= -.19207452E+03 E0= -.19197602E+03  d E =-.445568E-02
       N       E                     dE             d eps       ncg     rms          rms(c)
DAV:   1    -0.192077896568E+03   -0.33095E-02   -0.37269E-01  8160   0.132E+00    0.161E-01
DAV:   2    -0.192079863629E+03   -0.19671E-02   -0.14309E-02 13200   0.472E-01    0.379E-01
DAV:   3    -0.192078616410E+03    0.12472E-02   -0.45241E-03 11600   0.454E-01    0.167E-01
DAV:   4    -0.192078494089E+03    0.12232E-03   -0.10836E-03  9600   0.205E-01    0.127E-01
DAV:   5    -0.192078362597E+03    0.13149E-03   -0.54955E-04  8960   0.180E-01    0.859E-02
DAV:   6    -0.192078300085E+03    0.62512E-04   -0.25101E-04  7800   0.107E-01
  48 F= -.19207830E+03 E0= -.19197978E+03  d E =-.377894E-02
       N       E                     dE             d eps       ncg     rms          rms(c)
DAV:   1    -0.192088558069E+03   -0.10195E-01   -0.63436E-01  8160   0.172E+00    0.201E-01
DAV:   2    -0.192089702217E+03   -0.11441E-02   -0.15280E-02 13160   0.436E-01    0.276E-01
DAV:   3    -0.192089437113E+03    0.26510E-03   -0.34298E-03 12320   0.468E-01    0.250E-01
DAV:   4    -0.192088886661E+03    0.55045E-03   -0.13862E-03  9680   0.276E-01    0.107E-01
DAV:   5    -0.192088842940E+03    0.43721E-04   -0.75941E-04  9120   0.185E-01
  49 F= -.19208884E+03 E0= -.19199149E+03  d E =-.105429E-01
       N       E                     dE             d eps       ncg     rms          rms(c)
DAV:   1    -0.192086316141E+03    0.25705E-02   -0.20211E-01  8160   0.979E-01    0.125E-01
DAV:   2    -0.192087102989E+03   -0.78685E-03   -0.65539E-03 13560   0.326E-01    0.254E-01
DAV:   3    -0.192086610723E+03    0.49227E-03   -0.25817E-03 11120   0.350E-01    0.165E-01
DAV:   4    -0.192086394286E+03    0.21644E-03   -0.73126E-04  8480   0.166E-01    0.738E-02
DAV:   5    -0.192086379328E+03    0.14958E-04   -0.31671E-04  8320   0.133E-01
  50 F= -.19208638E+03 E0= -.19198823E+03  d E =0.246361E-02
       N       E                     dE             d eps       ncg     rms          rms(c)
DAV:   1    -0.192074743905E+03    0.11650E-01   -0.39330E+00  8160   0.425E+00    0.478E-01
DAV:   2    -0.192079407196E+03   -0.46633E-02   -0.85085E-02 12960   0.928E-01    0.493E-01
DAV:   3    -0.192080630485E+03   -0.12233E-02   -0.19941E-02 12200   0.102E+00    0.623E-01
DAV:   4    -0.192076901680E+03    0.37288E-02   -0.10225E-02 12240   0.707E-01    0.310E-01
DAV:   5    -0.192076977749E+03   -0.76069E-04   -0.61167E-03 12560   0.528E-01    0.364E-01
DAV:   6    -0.192075986617E+03    0.99113E-03   -0.36709E-03 11480   0.411E-01    0.138E-01
DAV:   7    -0.192075879187E+03    0.10743E-03   -0.95280E-04 10120   0.206E-01    0.128E-01
DAV:   8    -0.192075703544E+03    0.17564E-03   -0.31256E-04  8800   0.146E-01    0.348E-02
DAV:   9    -0.192075698887E+03    0.46564E-05   -0.42168E-05  6040   0.364E-02
  51 F= -.19207570E+03 E0= -.19197630E+03  d E =0.106804E-01
       N       E                     dE             d eps       ncg     rms          rms(c)
DAV:   1    -0.192077680102E+03   -0.19766E-02   -0.55423E-01  8160   0.159E+00    0.178E-01
DAV:   2    -0.192078992702E+03   -0.13126E-02   -0.13966E-02 13000   0.453E-01    0.277E-01
DAV:   3    -0.192078395389E+03    0.59731E-03   -0.35441E-03 12200   0.438E-01    0.187E-01
DAV:   4    -0.192078246623E+03    0.14877E-03   -0.14268E-03  9680   0.248E-01    0.167E-01
DAV:   5    -0.192078042097E+03    0.20453E-03   -0.90262E-04  8680   0.205E-01    0.961E-02
DAV:   6    -0.192077970794E+03    0.71303E-04   -0.34302E-04  8120   0.107E-01
  52 F= -.19207797E+03 E0= -.19197844E+03  d E =-.227191E-02
       N       E                     dE             d eps       ncg     rms          rms(c)
DAV:   1    -0.192082523919E+03   -0.44818E-02   -0.62782E-01  8160   0.170E+00    0.190E-01
DAV:   2    -0.192084185253E+03   -0.16613E-02   -0.18903E-02 12360   0.453E-01    0.280E-01
DAV:   3    -0.192083858512E+03    0.32674E-03   -0.42443E-03 12400   0.470E-01    0.243E-01
DAV:   4    -0.192083454219E+03    0.40429E-03   -0.17431E-03 10200   0.280E-01    0.156E-01
DAV:   5    -0.192083262720E+03    0.19150E-03   -0.83531E-04  8960   0.204E-01    0.960E-02
DAV:   6    -0.192083216820E+03    0.45899E-04   -0.39570E-04  8880   0.129E-01
  53 F= -.19208322E+03 E0= -.19198371E+03  d E =-.524603E-02
       N       E                     dE             d eps       ncg     rms          rms(c)
DAV:   1    -0.192086068321E+03   -0.28056E-02   -0.14817E-01  8160   0.835E-01    0.120E-01
DAV:   2    -0.192087891035E+03   -0.18227E-02   -0.67933E-03 12280   0.484E-01    0.390E-01
DAV:   3    -0.192086171534E+03    0.17195E-02   -0.26858E-03 10600   0.409E-01    0.656E-02
DAV:   4    -0.192086285843E+03   -0.11431E-03   -0.42366E-04  8360   0.141E-01    0.116E-01
DAV:   5    -0.192086151820E+03    0.13402E-03   -0.33006E-04  8040   0.128E-01    0.417E-02
DAV:   6    -0.192086191827E+03   -0.40007E-04   -0.12853E-04  6040   0.872E-02
  54 F= -.19208619E+03 E0= -.19198656E+03  d E =-.297501E-02
       N       E                     dE             d eps       ncg     rms          rms(c)
DAV:   1    -0.192087748515E+03   -0.15967E-02   -0.46712E-02  8160   0.470E-01    0.524E-02
DAV:   2    -0.192087843598E+03   -0.95084E-04   -0.13783E-03 11520   0.109E-01    0.618E-02
DAV:   3    -0.192087850956E+03   -0.73573E-05   -0.26891E-04  9320   0.121E-01
  55 F= -.19208785E+03 E0= -.19198862E+03  d E =-.165913E-02
       N       E                     dE             d eps       ncg     rms          rms(c)
DAV:   1    -0.192088740447E+03   -0.89685E-03   -0.15040E-02  8160   0.274E-01    0.504E-02
DAV:   2    -0.192088993448E+03   -0.25300E-03   -0.91270E-04 11760   0.176E-01    0.156E-01
DAV:   3    -0.192088735243E+03    0.25820E-03   -0.55570E-04  8640   0.163E-01    0.425E-02
DAV:   4    -0.192088743541E+03   -0.82984E-05   -0.79806E-05  5600   0.632E-02
  56 F= -.19208874E+03 E0= -.19198938E+03  d E =-.892586E-03
       N       E                     dE             d eps       ncg     rms          rms(c)
DAV:   1    -0.192092161058E+03   -0.34258E-02   -0.20921E-01  8160   0.980E-01    0.115E-01
DAV:   2    -0.192092578722E+03   -0.41766E-03   -0.59009E-03 11720   0.253E-01    0.146E-01
DAV:   3    -0.192092533171E+03    0.45551E-04   -0.15565E-03 10560   0.262E-01    0.152E-01
DAV:   4    -0.192092363009E+03    0.17016E-03   -0.74008E-04  8640   0.182E-01    0.915E-02
DAV:   5    -0.192092331342E+03    0.31667E-04   -0.37036E-04  8040   0.138E-01
  57 F= -.19209233E+03 E0= -.19199305E+03  d E =-.358780E-02
       N       E                     dE             d eps       ncg     rms          rms(c)
DAV:   1    -0.192088004094E+03    0.43589E-02   -0.27002E-01  8160   0.111E+00    0.116E-01
DAV:   2    -0.192088885801E+03   -0.88171E-03   -0.80172E-03 11880   0.312E-01    0.226E-01
DAV:   3    -0.192088510946E+03    0.37486E-03   -0.23041E-03 11520   0.315E-01    0.146E-01
DAV:   4    -0.192088344221E+03    0.16672E-03   -0.64067E-04  8440   0.155E-01    0.663E-02
DAV:   5    -0.192088324452E+03    0.19769E-04   -0.23387E-04  7720   0.109E-01
  58 F= -.19208832E+03 E0= -.19198885E+03  d E =0.400689E-02
       N       E                     dE             d eps       ncg     rms          rms(c)
DAV:   1    -0.192077811998E+03    0.10532E-01   -0.17045E+00  8160   0.280E+00    0.315E-01
DAV:   2    -0.192082463011E+03   -0.46510E-02   -0.48460E-02 12800   0.834E-01    0.555E-01
DAV:   3    -0.192080615965E+03    0.18470E-02   -0.13512E-02 12400   0.771E-01    0.382E-01
DAV:   4    -0.192079402952E+03    0.12130E-02   -0.41397E-03 11400   0.401E-01    0.177E-01
DAV:   5    -0.192079360754E+03    0.42198E-04   -0.19917E-03 11280   0.317E-01    0.196E-01
DAV:   6    -0.192079045871E+03    0.31488E-03   -0.13006E-03 10680   0.271E-01    0.952E-02
DAV:   7    -0.192078986871E+03    0.59000E-04   -0.33492E-04  8240   0.135E-01
  59 F= -.19207899E+03 E0= -.19197954E+03  d E =0.933758E-02
       N       E                     dE             d eps       ncg     rms          rms(c)
DAV:   1    -0.192069210148E+03    0.98357E-02   -0.19191E+00  8160   0.296E+00    0.311E-01
DAV:   2    -0.192072728800E+03   -0.35187E-02   -0.48485E-02 12400   0.693E-01    0.393E-01
DAV:   3    -0.192073321847E+03   -0.59305E-03   -0.11763E-02 12160   0.714E-01    0.497E-01
DAV:   4    -0.192071210405E+03    0.21114E-02   -0.56494E-03 11560   0.493E-01    0.169E-01
DAV:   5    -0.192071033992E+03    0.17641E-03   -0.16120E-03 10280   0.258E-01    0.154E-01
DAV:   6    -0.192070963750E+03    0.70242E-04   -0.12520E-03 10680   0.267E-01    0.121E-01
DAV:   7    -0.192070760841E+03    0.20291E-03   -0.37659E-04  8720   0.130E-01    0.208E-02
DAV:   8    -0.192070761913E+03   -0.10721E-05   -0.44481E-05  6840   0.344E-02
  60 F= -.19207076E+03 E0= -.19197179E+03  d E =0.822496E-02
       N       E                     dE             d eps       ncg     rms          rms(c)
DAV:   1    -0.192074181698E+03   -0.34209E-02   -0.25603E-01  8160   0.108E+00    0.136E-01
DAV:   2    -0.192076143528E+03   -0.19618E-02   -0.10824E-02 12400   0.501E-01    0.391E-01
DAV:   3    -0.192074613465E+03    0.15301E-02   -0.36631E-03 11240   0.428E-01    0.113E-01
DAV:   4    -0.192074579776E+03    0.33690E-04   -0.66506E-04  8520   0.160E-01
  61 F= -.19207458E+03 E0= -.19197510E+03  d E =-.381786E-02
       N       E                     dE             d eps       ncg     rms          rms(c)
DAV:   1    -0.192075332443E+03   -0.71898E-03   -0.13772E-02  8160   0.280E-01    0.816E-02
DAV:   2    -0.192076232802E+03   -0.90036E-03   -0.20775E-03 11480   0.324E-01    0.295E-01
DAV:   3    -0.192075265810E+03    0.96699E-03   -0.13998E-03  9800   0.296E-01    0.546E-02
DAV:   4    -0.192075277975E+03   -0.12165E-04   -0.15710E-04  5880   0.852E-02
  62 F= -.19207528E+03 E0= -.19197588E+03  d E =-.698199E-03
       N       E                     dE             d eps       ncg     rms          rms(c)
DAV:   1    -0.192078370169E+03   -0.31044E-02   -0.21055E-01  8160   0.985E-01    0.133E-01
DAV:   2    -0.192079686405E+03   -0.13162E-02   -0.84460E-03 12200   0.416E-01    0.319E-01
DAV:   3    -0.192078675011E+03    0.10114E-02   -0.28704E-03 11480   0.385E-01    0.123E-01
DAV:   4    -0.192078625472E+03    0.49539E-04   -0.69037E-04  8520   0.166E-01
  63 F= -.19207863E+03 E0= -.19197911E+03  d E =-.334750E-02
       N       E                     dE             d eps       ncg     rms          rms(c)
DAV:   1    -0.192078920823E+03   -0.24581E-03   -0.30920E-03  9960   0.181E-01    0.895E-02
DAV:   2    -0.192080531538E+03   -0.16107E-02   -0.32214E-03 11000   0.423E-01    0.395E-01
DAV:   3    -0.192078827189E+03    0.17043E-02   -0.24024E-03  9760   0.368E-01    0.555E-02
DAV:   4    -0.192078839697E+03   -0.12508E-04   -0.14461E-04  6200   0.828E-02
  64 F= -.19207884E+03 E0= -.19197943E+03  d E =-.214226E-03
       N       E                     dE             d eps       ncg     rms          rms(c)
DAV:   1    -0.192081676813E+03   -0.28496E-02   -0.19352E-01  8160   0.943E-01    0.119E-01
DAV:   2    -0.192082449334E+03   -0.77252E-03   -0.72383E-03 12320   0.315E-01    0.219E-01
DAV:   3    -0.192082095635E+03    0.35370E-03   -0.19701E-03 11320   0.313E-01    0.140E-01
DAV:   4    -0.192081942693E+03    0.15294E-03   -0.58878E-04  8600   0.155E-01    0.730E-02
DAV:   5    -0.192081941510E+03    0.11834E-05   -0.29573E-04  8360   0.125E-01
  65 F= -.19208194E+03 E0= -.19198279E+03  d E =-.310181E-02
       N       E                     dE             d eps       ncg     rms          rms(c)
DAV:   1    -0.192080564984E+03    0.13777E-02   -0.41966E-02  8160   0.460E-01    0.662E-02
DAV:   2    -0.192081133986E+03   -0.56900E-03   -0.24990E-03 12360   0.253E-01    0.218E-01
DAV:   3    -0.192080632291E+03    0.50170E-03   -0.99411E-04  9720   0.231E-01    0.533E-02
DAV:   4    -0.192080616497E+03    0.15793E-04   -0.11516E-04  5800   0.639E-02
  66 F= -.19208062E+03 E0= -.19198119E+03  d E =0.132501E-02
       N       E                     dE             d eps       ncg     rms          rms(c)
DAV:   1    -0.192083025682E+03   -0.23934E-02   -0.14919E-01  8160   0.833E-01    0.975E-02
DAV:   2    -0.192083352094E+03   -0.32641E-03   -0.51850E-03 11520   0.216E-01    0.115E-01
DAV:   3    -0.192083441667E+03   -0.89573E-04   -0.10603E-03 11080   0.233E-01    0.155E-01
DAV:   4    -0.192083189209E+03    0.25246E-03   -0.46009E-04  8160   0.154E-01    0.468E-02
DAV:   5    -0.192083213304E+03   -0.24095E-04   -0.16349E-04  6360   0.961E-02
  67 F= -.19208321E+03 E0= -.19198359E+03  d E =-.259681E-02
       N       E                     dE             d eps       ncg     rms          rms(c)
DAV:   1    -0.192084024504E+03   -0.83529E-03   -0.15218E-02  8160   0.280E-01    0.449E-02
DAV:   2    -0.192084144535E+03   -0.12003E-03   -0.74866E-04 10360   0.131E-01    0.105E-01
DAV:   3    -0.192084031602E+03    0.11293E-03   -0.27852E-04  8760   0.132E-01    0.410E-02
DAV:   4    -0.192084027579E+03    0.40226E-05   -0.56583E-05  5840   0.533E-02
  68 F= -.19208403E+03 E0= -.19198456E+03  d E =-.814275E-03
       N       E                     dE             d eps       ncg     rms          rms(c)
DAV:   1    -0.192087781307E+03   -0.37497E-02   -0.36072E-01  8160   0.130E+00    0.172E-01
DAV:   2    -0.192088896609E+03   -0.11153E-02   -0.13343E-02 12000   0.481E-01    0.277E-01
DAV:   3    -0.192088285603E+03    0.61101E-03   -0.31604E-03 12400   0.411E-01    0.165E-01
DAV:   4    -0.192088115251E+03    0.17035E-03   -0.12164E-03 10040   0.220E-01    0.142E-01
DAV:   5    -0.192088016749E+03    0.98502E-04   -0.83052E-04  8760   0.212E-01
  69 F= -.19208802E+03 E0= -.19198851E+03  d E =-.398917E-02
       N       E                     dE             d eps       ncg     rms          rms(c)
DAV:   1    -0.192089513560E+03   -0.13983E-02   -0.67824E-02  8160   0.570E-01    0.730E-02
DAV:   2    -0.192089748504E+03   -0.23494E-03   -0.22856E-03 13600   0.179E-01    0.127E-01
DAV:   3    -0.192089618125E+03    0.13038E-03   -0.54867E-04  9520   0.179E-01    0.744E-02
DAV:   4    -0.192089588093E+03    0.30032E-04   -0.14335E-04  6240   0.871E-02
  70 F= -.19208959E+03 E0= -.19199038E+03  d E =-.157134E-02
       N       E                     dE             d eps       ncg     rms          rms(c)
DAV:   1    -0.192091257536E+03   -0.16394E-02   -0.64252E-02  8160   0.547E-01    0.929E-02
DAV:   2    -0.192092306328E+03   -0.10488E-02   -0.42137E-03 12720   0.379E-01    0.299E-01
DAV:   3    -0.192091299218E+03    0.10071E-02   -0.19202E-03  9960   0.314E-01    0.628E-02
DAV:   4    -0.192091359591E+03   -0.60373E-04   -0.31361E-04  8280   0.126E-01
  71 F= -.19209136E+03 E0= -.19199197E+03  d E =-.177150E-02
       N       E                     dE             d eps       ncg     rms          rms(c)
DAV:   1    -0.192095411340E+03   -0.41121E-02   -0.44285E-01  8160   0.143E+00    0.168E-01
DAV:   2    -0.192096115152E+03   -0.70381E-03   -0.13000E-02 12520   0.350E-01    0.150E-01
DAV:   3    -0.192096250285E+03   -0.13513E-03   -0.22161E-03 11000   0.326E-01    0.205E-01
DAV:   4    -0.192095835958E+03    0.41433E-03   -0.11603E-03 10520   0.267E-01    0.103E-01
DAV:   5    -0.192095778173E+03    0.57784E-04   -0.45145E-04  8360   0.142E-01
  72 F= -.19209578E+03 E0= -.19199645E+03  d E =-.441858E-02
       N       E                     dE             d eps       ncg     rms          rms(c)
DAV:   1    -0.192091747531E+03    0.40884E-02   -0.29774E-01  8160   0.118E+00    0.145E-01
DAV:   2    -0.192094078550E+03   -0.23310E-02   -0.11990E-02 13080   0.513E-01    0.432E-01
DAV:   3    -0.192092251812E+03    0.18267E-02   -0.47146E-03 10760   0.481E-01    0.132E-01
DAV:   4    -0.192092129222E+03    0.12259E-03   -0.65408E-04  8520   0.155E-01    0.899E-02
DAV:   5    -0.192092083161E+03    0.46060E-04   -0.36503E-04  9080   0.143E-01
  73 F= -.19209208E+03 E0= -.19199290E+03  d E =0.369501E-02
       N       E                     dE             d eps       ncg     rms          rms(c)
DAV:   1    -0.192087587454E+03    0.45418E-02   -0.50316E-01  8160   0.153E+00    0.196E-01
DAV:   2    -0.192089412730E+03   -0.18253E-02   -0.16647E-02 12960   0.579E-01    0.374E-01
DAV:   3    -0.192088253828E+03    0.11589E-02   -0.47926E-03 12360   0.515E-01    0.202E-01
DAV:   4    -0.192088070081E+03    0.18375E-03   -0.15999E-03 10160   0.267E-01    0.172E-01
DAV:   5    -0.192087854375E+03    0.21571E-03   -0.11466E-03 10160   0.243E-01    0.109E-01
DAV:   6    -0.192087745997E+03    0.10838E-03   -0.42458E-04  8840   0.132E-01    0.522E-02
DAV:   7    -0.192087771812E+03   -0.25815E-04   -0.20823E-04  7480   0.115E-01
  74 F= -.19208777E+03 E0= -.19198857E+03  d E =0.431135E-02
       N       E                     dE             d eps       ncg     rms          rms(c)
DAV:   1    -0.192093884397E+03   -0.61384E-02   -0.12068E+00  8160   0.236E+00    0.261E-01
DAV:   2    -0.192095919875E+03   -0.20355E-02   -0.35656E-02 12320   0.560E-01    0.235E-01
DAV:   3    -0.192096895703E+03   -0.97583E-03   -0.63879E-03 12280   0.562E-01    0.420E-01
DAV:   4    -0.192095178980E+03    0.17167E-02   -0.39001E-03 11600   0.444E-01    0.138E-01
DAV:   5    -0.192095209908E+03   -0.30928E-04   -0.13253E-03  9920   0.236E-01    0.164E-01
DAV:   6    -0.192095000541E+03    0.20937E-03   -0.10249E-03 10440   0.236E-01    0.869E-02
DAV:   7    -0.192094935826E+03    0.64715E-04   -0.25385E-04  7640   0.115E-01
  75 F= -.19209494E+03 E0= -.19199575E+03  d E =-.716401E-02
       N       E                     dE             d eps       ncg     rms          rms(c)
DAV:   1    -0.192095710741E+03   -0.71020E-03   -0.20644E-02  8160   0.311E-01    0.415E-02
DAV:   2    -0.192095760370E+03   -0.49629E-04   -0.75130E-04 11920   0.904E-02
  76 F= -.19209576E+03 E0= -.19199671E+03  d E =-.824544E-03
       N       E                     dE             d eps       ncg     rms          rms(c)
DAV:   1    -0.192096795048E+03   -0.10843E-02   -0.24957E-02  8160   0.352E-01    0.741E-02
DAV:   2    -0.192097613019E+03   -0.81797E-03   -0.20930E-03 11480   0.325E-01    0.272E-01
DAV:   3    -0.192096750424E+03    0.86260E-03   -0.11175E-03 10080   0.273E-01    0.326E-02
DAV:   4    -0.192096804862E+03   -0.54438E-04   -0.12899E-04  6280   0.837E-02
  77 F= -.19209680E+03 E0= -.19199773E+03  d E =-.104449E-02
       N       E                     dE             d eps       ncg     rms          rms(c)
DAV:   1    -0.192099370008E+03   -0.26196E-02   -0.16412E-01  8160   0.870E-01    0.977E-02
DAV:   2    -0.192099628196E+03   -0.25819E-03   -0.46659E-03 12240   0.201E-01    0.823E-02
DAV:   3    -0.192099721911E+03   -0.93715E-04   -0.81883E-04 11040   0.193E-01
  78 F= -.19209972E+03 E0= -.19200124E+03  d E =-.291705E-02
       N       E                     dE             d eps       ncg     rms          rms(c)
DAV:   1    -0.192097140294E+03    0.24879E-02   -0.11038E-01  8160   0.732E-01    0.931E-02
DAV:   2    -0.192099009819E+03   -0.18695E-02   -0.63749E-03 12720   0.447E-01    0.406E-01
DAV:   3    -0.192097281083E+03    0.17287E-02   -0.28526E-03 10360   0.379E-01    0.287E-02
DAV:   4    -0.192097305066E+03   -0.23983E-04   -0.59915E-05  5920   0.439E-02
  79 F= -.19209731E+03 E0= -.19199832E+03  d E =0.241685E-02
       N       E                     dE             d eps       ncg     rms          rms(c)
DAV:   1    -0.192090539319E+03    0.67418E-02   -0.10751E+00  8160   0.221E+00    0.249E-01
DAV:   2    -0.192094361094E+03   -0.38218E-02   -0.30532E-02 13560   0.779E-01    0.519E-01
DAV:   3    -0.192091835303E+03    0.25258E-02   -0.92163E-03 12440   0.687E-01    0.236E-01
DAV:   4    -0.192091677833E+03    0.15747E-03   -0.26457E-03 10880   0.337E-01    0.220E-01
DAV:   5    -0.192091300806E+03    0.37703E-03   -0.15804E-03 10320   0.289E-01    0.131E-01
DAV:   6    -0.192091116538E+03    0.18427E-03   -0.63242E-04  9800   0.152E-01    0.502E-02
DAV:   7    -0.192091125135E+03   -0.85964E-05   -0.16022E-04  6760   0.839E-02
  80 F= -.19209113E+03 E0= -.19199172E+03  d E =0.617993E-02
       N       E                     dE             d eps       ncg     rms          rms(c)
DAV:   1    -0.192089850764E+03    0.12658E-02   -0.85559E-02  8160   0.627E-01    0.738E-02
DAV:   2    -0.192090228055E+03   -0.37729E-03   -0.27396E-03 13600   0.216E-01    0.156E-01
DAV:   3    -0.192089971875E+03    0.25618E-03   -0.77122E-04  9720   0.215E-01    0.696E-02
DAV:   4    -0.192089948826E+03    0.23049E-04   -0.14322E-04  6120   0.882E-02
  81 F= -.19208995E+03 E0= -.19199023E+03  d E =0.117631E-02
       N       E                     dE             d eps       ncg     rms          rms(c)
DAV:   1    -0.192088421454E+03    0.15504E-02   -0.24371E-01  8160   0.104E+00    0.120E-01
DAV:   2    -0.192088995898E+03   -0.57444E-03   -0.54972E-03 13360   0.290E-01    0.203E-01
DAV:   3    -0.192088727944E+03    0.26795E-03   -0.19968E-03 11240   0.322E-01    0.160E-01
DAV:   4    -0.192088508954E+03    0.21899E-03   -0.65302E-04  8400   0.165E-01    0.665E-02
DAV:   5    -0.192088523789E+03   -0.14836E-04   -0.28883E-04  7440   0.121E-01
  82 F= -.19208852E+03 E0= -.19198878E+03  d E =0.142504E-02
       N       E                     dE             d eps       ncg     rms          rms(c)
DAV:   1    -0.192091300433E+03   -0.27915E-02   -0.30343E-01  8160   0.118E+00    0.132E-01
DAV:   2    -0.192092563759E+03   -0.12633E-02   -0.98661E-03 13280   0.441E-01    0.287E-01
DAV:   3    -0.192091778614E+03    0.78514E-03   -0.28086E-03 11720   0.373E-01    0.129E-01
DAV:   4    -0.192091712631E+03    0.65983E-04   -0.73500E-04  8760   0.178E-01
  83 F= -.19209171E+03 E0= -.19199176E+03  d E =-.318884E-02
       N       E                     dE             d eps       ncg     rms          rms(c)
DAV:   1    -0.192092780444E+03   -0.10018E-02   -0.37057E-02  8160   0.431E-01    0.872E-02
DAV:   2    -0.192093427490E+03   -0.64705E-03   -0.23805E-03 12680   0.295E-01    0.239E-01
DAV:   3    -0.192092735767E+03    0.69172E-03   -0.13929E-03 10040   0.276E-01    0.628E-02
DAV:   4    -0.192092757367E+03   -0.21600E-04   -0.24715E-04  6880   0.105E-01
  84 F= -.19209276E+03 E0= -.19199281E+03  d E =-.104474E-02
       N       E                     dE             d eps       ncg     rms          rms(c)
DAV:   1    -0.192093302950E+03   -0.56718E-03   -0.27504E-02  8160   0.369E-01    0.650E-02
DAV:   2    -0.192093849163E+03   -0.54621E-03   -0.18067E-03 12840   0.257E-01    0.231E-01
DAV:   3    -0.192093283462E+03    0.56570E-03   -0.10626E-03  9040   0.234E-01    0.439E-02
DAV:   4    -0.192093292931E+03   -0.94696E-05   -0.95751E-05  5720   0.662E-02
  85 F= -.19209329E+03 E0= -.19199348E+03  d E =-.535564E-03
       N       E                     dE             d eps       ncg     rms          rms(c)
DAV:   1    -0.192095672153E+03   -0.23887E-02   -0.16735E-01  8160   0.876E-01    0.106E-01
DAV:   2    -0.192096212761E+03   -0.54061E-03   -0.48615E-03 12120   0.275E-01    0.207E-01
DAV:   3    -0.192095871295E+03    0.34147E-03   -0.16446E-03 10320   0.275E-01    0.118E-01
DAV:   4    -0.192095760961E+03    0.11033E-03   -0.39231E-04  8240   0.126E-01    0.579E-02
DAV:   5    -0.192095768521E+03   -0.75609E-05   -0.20548E-04  7920   0.107E-01
  86 F= -.19209577E+03 E0= -.19199611E+03  d E =-.247559E-02
       N       E                     dE             d eps       ncg     rms          rms(c)
DAV:   1    -0.192095997869E+03   -0.23691E-03   -0.79057E-03  8160   0.208E-01    0.367E-02
DAV:   2    -0.192096129868E+03   -0.13200E-03   -0.40428E-04 10000   0.135E-01    0.110E-01
DAV:   3    -0.192095990179E+03    0.13969E-03   -0.20826E-04  7560   0.127E-01    0.239E-02
DAV:   4    -0.192095993462E+03   -0.32828E-05   -0.31141E-05  5880   0.349E-02
  87 F= -.19209599E+03 E0= -.19199631E+03  d E =-.224941E-03
       N       E                     dE             d eps       ncg     rms          rms(c)
DAV:   1    -0.192097189560E+03   -0.11994E-02   -0.41778E-02  8160   0.439E-01    0.577E-02
DAV:   2    -0.192097305263E+03   -0.11570E-03   -0.13815E-03 11240   0.152E-01    0.933E-02
DAV:   3    -0.192097240673E+03    0.64590E-04   -0.35305E-04  8880   0.143E-01
  88 F= -.19209724E+03 E0= -.19199792E+03  d E =-.124721E-02
       N       E                     dE             d eps       ncg     rms          rms(c)
DAV:   1    -0.192098116795E+03   -0.81153E-03   -0.27746E-02  8160   0.368E-01    0.597E-02
DAV:   2    -0.192098467734E+03   -0.35094E-03   -0.14669E-03 13320   0.207E-01    0.175E-01
DAV:   3    -0.192098133231E+03    0.33450E-03   -0.68087E-04  9080   0.189E-01    0.464E-02
DAV:   4    -0.192098144444E+03   -0.11214E-04   -0.99819E-05  5640   0.698E-02
  89 F= -.19209814E+03 E0= -.19199870E+03  d E =-.903771E-03
       N       E                     dE             d eps       ncg     rms          rms(c)
DAV:   1    -0.192099912832E+03   -0.17796E-02   -0.98507E-02  8160   0.675E-01    0.853E-02
DAV:   2    -0.192100169818E+03   -0.25699E-03   -0.29484E-03 12200   0.200E-01    0.135E-01
DAV:   3    -0.192100068362E+03    0.10146E-03   -0.90621E-04 10160   0.208E-01    0.108E-01
DAV:   4    -0.192099973391E+03    0.94970E-04   -0.29676E-04  7440   0.115E-01
  90 F= -.19209997E+03 E0= -.19200066E+03  d E =-.182895E-02
       N       E                     dE             d eps       ncg     rms          rms(c)
DAV:   1    -0.192101941231E+03   -0.18729E-02   -0.10166E-01  8160   0.690E-01    0.101E-01
DAV:   2    -0.192102935331E+03   -0.99410E-03   -0.44859E-03 13280   0.371E-01    0.294E-01
DAV:   3    -0.192102004429E+03    0.93090E-03   -0.18629E-03 10400   0.325E-01    0.671E-02
DAV:   4    -0.192102030338E+03   -0.25908E-04   -0.26145E-04  7440   0.101E-01
  91 F= -.19210203E+03 E0= -.19200275E+03  d E =-.205695E-02
       N       E                     dE             d eps       ncg     rms          rms(c)
DAV:   1    -0.192103388176E+03   -0.13837E-02   -0.47797E-02  8160   0.484E-01    0.866E-02
DAV:   2    -0.192104179236E+03   -0.79106E-03   -0.28683E-03 13280   0.311E-01    0.277E-01
DAV:   3    -0.192103369188E+03    0.81005E-03   -0.15901E-03  9760   0.287E-01    0.615E-02
DAV:   4    -0.192103388306E+03   -0.19117E-04   -0.18916E-04  6280   0.890E-02
  92 F= -.19210339E+03 E0= -.19200444E+03  d E =-.135797E-02
       N       E                     dE             d eps       ncg     rms          rms(c)
DAV:   1    -0.192105540706E+03   -0.21715E-02   -0.11847E-01  8160   0.744E-01    0.102E-01
DAV:   2    -0.192106194290E+03   -0.65358E-03   -0.43284E-03 13120   0.308E-01    0.234E-01
DAV:   3    -0.192105655366E+03    0.53892E-03   -0.16597E-03 10400   0.292E-01    0.918E-02
DAV:   4    -0.192105613980E+03    0.41386E-04   -0.30743E-04  7600   0.107E-01
  93 F= -.19210561E+03 E0= -.19200682E+03  d E =-.222567E-02
       N       E                     dE             d eps       ncg     rms          rms(c)
DAV:   1    -0.192107300028E+03   -0.16447E-02   -0.65871E-02  8160   0.563E-01    0.113E-01
DAV:   2    -0.192109215086E+03   -0.19151E-02   -0.53536E-03 12560   0.472E-01    0.432E-01
DAV:   3    -0.192107232809E+03    0.19823E-02   -0.33088E-03 10480   0.425E-01    0.636E-02
DAV:   4    -0.192107303828E+03   -0.71019E-04   -0.31315E-04  8280   0.115E-01
  94 F= -.19210730E+03 E0= -.19200888E+03  d E =-.168985E-02
       N       E                     dE             d eps       ncg     rms          rms(c)
DAV:   1    -0.192109397634E+03   -0.21648E-02   -0.11251E-01  8160   0.727E-01    0.101E-01
DAV:   2    -0.192109947295E+03   -0.54966E-03   -0.39562E-03 13080   0.278E-01    0.218E-01
DAV:   3    -0.192109500163E+03    0.44713E-03   -0.16257E-03 10440   0.282E-01    0.985E-02
DAV:   4    -0.192109443063E+03    0.57100E-04   -0.32281E-04  7640   0.111E-01
  95 F= -.19210944E+03 E0= -.19201125E+03  d E =-.213923E-02
       N       E                     dE             d eps       ncg     rms          rms(c)
DAV:   1    -0.192110785466E+03   -0.12853E-02   -0.42298E-02  8160   0.457E-01    0.104E-01
DAV:   2    -0.192112496974E+03   -0.17115E-02   -0.43404E-03 12240   0.464E-01    0.405E-01
DAV:   3    -0.192110702172E+03    0.17948E-02   -0.26870E-03 10240   0.405E-01    0.557E-02
DAV:   4    -0.192110763121E+03   -0.60948E-04   -0.24249E-04  7800   0.109E-01
  96 F= -.19211076E+03 E0= -.19201294E+03  d E =-.132006E-02
       N       E                     dE             d eps       ncg     rms          rms(c)
DAV:   1    -0.192113209018E+03   -0.25068E-02   -0.14595E-01  8160   0.824E-01    0.115E-01
DAV:   2    -0.192114006524E+03   -0.79751E-03   -0.54033E-03 12320   0.341E-01    0.265E-01
DAV:   3    -0.192113312621E+03    0.69390E-03   -0.21575E-03 10920   0.325E-01    0.994E-02
DAV:   4    -0.192113292690E+03    0.19931E-04   -0.42019E-04  8600   0.134E-01
  97 F= -.19211329E+03 E0= -.19201565E+03  d E =-.252957E-02
       N       E                     dE             d eps       ncg     rms          rms(c)
DAV:   1    -0.192114608692E+03   -0.12961E-02   -0.42850E-02  8160   0.466E-01    0.921E-02
DAV:   2    -0.192115666658E+03   -0.10580E-02   -0.32529E-03 12360   0.370E-01    0.315E-01
DAV:   3    -0.192114567384E+03    0.10993E-02   -0.18679E-03 10120   0.330E-01    0.598E-02
DAV:   4    -0.192114607108E+03   -0.39724E-04   -0.22635E-04  7200   0.103E-01
  98 F= -.19211461E+03 E0= -.19201732E+03  d E =-.131442E-02
       N       E                     dE             d eps       ncg     rms          rms(c)
DAV:   1    -0.192117751573E+03   -0.31842E-02   -0.25460E-01  8160   0.108E+00    0.141E-01
DAV:   2    -0.192118720490E+03   -0.96892E-03   -0.82501E-03 11960   0.354E-01    0.277E-01
DAV:   3    -0.192118040874E+03    0.67962E-03   -0.30012E-03 11520   0.373E-01    0.141E-01
DAV:   4    -0.192117956857E+03    0.84017E-04   -0.69546E-04  8320   0.175E-01
  99 F= -.19211796E+03 E0= -.19202108E+03  d E =-.334975E-02
       N       E                     dE             d eps       ncg     rms          rms(c)
DAV:   1    -0.192117703703E+03    0.33717E-03   -0.20217E-03 11120   0.186E-01    0.795E-02
DAV:   2    -0.192119018751E+03   -0.13150E-02   -0.27489E-03 11320   0.418E-01    0.342E-01
DAV:   3    -0.192117636079E+03    0.13827E-02   -0.18896E-03 10040   0.346E-01    0.453E-02
DAV:   4    -0.192117645760E+03   -0.96813E-05   -0.78786E-05  5920   0.628E-02
 100 F= -.19211765E+03 E0= -.19202094E+03  d E =0.311097E-03
