unknown system                          
           1
     8.856288    5.109779    0.000000
    -8.852332    5.102975    0.000000
     0.000000    0.000000   30.000000
   V    Mo   W    S 
   3   3   3  18
Direct configuration=     1
   0.33333334  0.66666669  0.00000000
   0.33333334  0.33333334  0.00000000
   0.33333334  0.00000000  0.00000000
   0.00000000  0.00000000  0.00000000
   0.66666669  0.00000000  0.00000000
   0.66666669  0.66666669  0.00000000
   1.00000000  0.33333334  0.00000000
   0.00000000  0.66666669  0.00000000
   0.66666669  0.33333334  0.00000000
   0.11068511  0.22244981  0.95539999
   0.22244981  0.11068511  0.04460000
   0.11068511  0.55578315  0.95539999
   0.22244981  0.44401845  0.04460000
   0.11068511  0.88911647  0.95539999
   0.22244981  0.77735180  0.04460000
   0.44401845  0.22244981  0.95539999
   0.55578315  0.11068511  0.04460000
   0.44401845  0.55578315  0.95539999
   0.55578315  0.44401845  0.04460000
   0.44401845  0.88911647  0.95539999
   0.55578315  0.77735180  0.04460000
   0.77735180  0.22244981  0.95539999
   0.88911647  0.11068511  0.04460000
   0.77735180  0.55578315  0.95539999
   0.88911647  0.44401845  0.04460000
   0.77735180  0.88911647  0.95539999
   0.88911647  0.77735180  0.04460000
unknown system                          
           1
     8.667801    5.002829    0.000000
    -8.664429    4.997033    0.000000
     0.000000    0.000000   30.000000
   V    Mo   W    S 
   3   3   3  18
Direct configuration=     2
   0.33578170  0.66784405 -0.00009108
   0.33324207  0.33329502  0.00004252
   0.33324820 -0.00003214  0.00004474
  -0.00254512 -0.00123093  0.00027951
   0.66791414 -0.00152783 -0.00022028
   0.66777899  0.66932772 -0.00021287
   0.99904955  0.33047016  0.00018368
  -0.00106893  0.66846495  0.00019316
   0.66616367  0.33311288 -0.00014758
   0.11512875  0.22481504  0.95193214
   0.22655565  0.11298014  0.04682119
   0.11469075  0.55719965  0.95203332
   0.22560870  0.44585149  0.04687583
   0.11510671  0.89006271  0.95194538
   0.22561410  0.77918915  0.04687063
   0.44090324  0.22063214  0.95309623
   0.55145494  0.10977429  0.04798537
   0.43994967  0.55352881  0.95313404
   0.55143739  0.44173415  0.04799853
   0.43994223  0.88679893  0.95313940
   0.55091896  0.77546451  0.04808501
   0.77793991  0.22287837  0.95070630
   0.88950373  0.11211905  0.04930763
   0.77792072  0.55490197  0.95071143
   0.88902106  0.44453006  0.04930606
   0.77746824  0.88869819  0.95066904
   0.88948544  0.77733191  0.04931058
unknown system                          
           1
     8.486032    4.903054    0.000000
    -8.482830    4.897545    0.000000
     0.000000    0.000000   30.000000
   V    Mo   W    S 
   3   3   3  18
Direct configuration=     3
   0.33648880  0.66820217 -0.00015383
   0.33323688  0.33328488  0.00009299
   0.33324059 -0.00002708  0.00009551
  -0.00378427 -0.00185135  0.00029200
   0.66879443 -0.00171457 -0.00024132
   0.66866676  0.67039291 -0.00023168
   0.99836011  0.32943787  0.00013933
  -0.00175689  0.66879638  0.00015217
   0.66646031  0.33327197 -0.00009724
   0.11510522  0.22497647  0.95197288
   0.22662379  0.11303657  0.04674325
   0.11449597  0.55712642  0.95225144
   0.22544185  0.44577977  0.04679907
   0.11508520  0.88991758  0.95198635
   0.22544258  0.77913435  0.04679053
   0.44105491  0.22068545  0.95312352
   0.55148007  0.10992243  0.04788873
   0.43987843  0.55348628  0.95316486
   0.55146616  0.44157714  0.04790153
   0.43987297  0.88672496  0.95317294
   0.55077212  0.77537482  0.04815155
   0.77803950  0.22309462  0.95068742
   0.88960283  0.11231137  0.04947374
   0.77802128  0.55481913  0.95068831
   0.88905542  0.44452662  0.04924135
   0.77748428  0.88871277  0.95044222
   0.88958515  0.77721452  0.04947228
unknown system                          
           1
     8.277538    4.794865    0.000000
    -8.263428    4.770462    0.000000
     0.000000    0.000000   30.000000
   V    Mo   W    S 
   3   3   3  18
Direct configuration=     4
   0.33897730  0.66946818 -0.00034312
   0.33323253  0.33322321  0.00026597
   0.33324317  0.00001552  0.00026858
  -0.00911907 -0.00451360  0.00023473
   0.67291487 -0.00171010 -0.00021047
   0.67280320  0.67451855 -0.00020325
   0.99500425  0.32537432 -0.00008697
  -0.00507072  0.66944532 -0.00007377
   0.66843162  0.33427857  0.00014101
   0.11610906  0.22528575  0.95068652
   0.22734614  0.11349321  0.04771235
   0.11509920  0.55751227  0.95170551
   0.22628286  0.44633202  0.04782662
   0.11608675  0.89073393  0.95069921
   0.22626895  0.77957132  0.04781399
   0.44006461  0.22011597  0.95187113
   0.55060189  0.10916468  0.04892251
   0.43907288  0.55298183  0.95199048
   0.55057797  0.44132866  0.04893775
   0.43909226  0.88625633  0.95200546
   0.54960859  0.77476491  0.04980260
   0.77790361  0.22298653  0.94897086
   0.88940380  0.11204154  0.05177560
   0.77789631  0.55489635  0.94895677
   0.88932232  0.44458966  0.05062562
   0.77765868  0.88882386  0.94794073
   0.88940143  0.77723569  0.05176348
unknown system                          
           1
     8.291840    4.819842    0.000000
    -8.263721    4.771170    0.000000
     0.000000    0.000000   30.000000
   V    Mo   W    S 
   3   3   3  18
Direct configuration=     5
   0.34434347  0.67217089 -0.00058531
   0.33320832  0.33319069  0.00049530
   0.33320749 -0.00001539  0.00049675
  -0.01926160 -0.00956593  0.00005232
   0.68117901 -0.00096453 -0.00007034
   0.68108778  0.68199151 -0.00008328
   0.98792713  0.31652502 -0.00035883
  -0.01212136  0.67113790 -0.00037171
   0.67284261  0.33654518  0.00047755
   0.11644297  0.22436836  0.94906757
   0.22656917  0.11324087  0.04903681
   0.11508778  0.55752335  0.95147061
   0.22652184  0.44665293  0.04910542
   0.11640475  0.89199527  0.94909448
   0.22651213  0.77973665  0.04909967
   0.43938212  0.21966143  0.95025307
   0.55035805  0.10792805  0.05012171
   0.43952499  0.55303165  0.95031957
   0.55031774  0.44231413  0.05014703
   0.43955427  0.88641129  0.95032825
   0.54940625  0.77467689  0.05202290
   0.77680463  0.22165531  0.94647675
   0.88903558  0.11104572  0.05517616
   0.77680073  0.55514835  0.94645914
   0.89036573  0.44509181  0.05243602
   0.77767562  0.88881102  0.94417585
   0.88903725  0.77790602  0.05515646
unknown system                          
           1
     8.287237    4.817457    0.000000
    -8.258858    4.768334    0.000000
     0.000000    0.000000   30.000000
   V    Mo   W    S 
   3   3   3  18
Direct configuration=     6
   0.34696246  0.67347765 -0.00068922
   0.33307788  0.33326851  0.00057301
   0.33307361 -0.00024096  0.00057934
  -0.01884379 -0.00935568  0.00015035
   0.68129931 -0.00051951 -0.00024695
   0.68122808  0.68162064 -0.00024572
   0.98635531  0.31425906 -0.00022624
  -0.01371746  0.67186018 -0.00021988
   0.67417801  0.33723179  0.00040199
   0.11529566  0.22317591  0.94913947
   0.22526035  0.11257890  0.04889050
   0.11396672  0.55694174  0.95213269
   0.22566445  0.44633183  0.04886380
   0.11526628  0.89204685  0.94916043
   0.22565596  0.77919936  0.04885835
   0.43994345  0.21994765  0.95040047
   0.55134119  0.10796863  0.04990808
   0.44069852  0.55358330  0.95037973
   0.55129923  0.44328240  0.04993700
   0.44073465  0.88705774  0.95038581
   0.55052861  0.77523238  0.05207507
   0.77605486  0.22083732  0.94630665
   0.88923603  0.11065809  0.05544403
   0.77604646  0.55519838  0.94627428
   0.89117286  0.44551051  0.05238821
   0.77719194  0.88857183  0.94396365
   0.88924382  0.77848998  0.05541501
unknown system                          
           1
     8.297718    4.828559    0.000000
    -8.264968    4.771865    0.000000
     0.000000    0.000000   30.000000
   V    Mo   W    S 
   3   3   3  18
Direct configuration=     7
   0.35021324  0.67509826 -0.00074971
   0.33274348  0.33326050  0.00068190
   0.33273097 -0.00058296  0.00069067
  -0.01984208 -0.00985302  0.00007865
   0.68238588 -0.00014161 -0.00023949
   0.68231539  0.68227652 -0.00024496
   0.98427708  0.31123246 -0.00023642
  -0.01581127  0.67280926 -0.00023708
   0.67588639  0.33812733  0.00040705
   0.11460714  0.22246907  0.94911473
   0.22460826  0.11225950  0.04885260
   0.11328694  0.55659585  0.95284567
   0.22508011  0.44618890  0.04866910
   0.11457850  0.89205582  0.94913591
   0.22507051  0.77877191  0.04866535
   0.44029835  0.22012059  0.95049532
   0.55183577  0.10804517  0.04974224
   0.44140696  0.55382874  0.95028865
   0.55178660  0.44371467  0.04977958
   0.44144629  0.88752010  0.95029263
   0.55113736  0.77553634  0.05220065
   0.77570027  0.22043713  0.94603479
   0.88898975  0.11014207  0.05582117
   0.77570764  0.55524171  0.94599715
   0.89165512  0.44575965  0.05240679
   0.77711407  0.88852180  0.94370675
   0.88900573  0.77877869  0.05580019
unknown system                          
           1
     8.306075    4.842731    0.000000
    -8.265828    4.773043    0.000000
     0.000000    0.000000   30.000000
   V    Mo   W    S 
   3   3   3  18
Direct configuration=     8
   0.35407724  0.67707381 -0.00088150
   0.33214966  0.33315420  0.00082222
   0.33210761 -0.00115101  0.00083726
  -0.02037484 -0.01013736  0.00010445
   0.68307014  0.00013629 -0.00028659
   0.68301961  0.68263910 -0.00029368
   0.98239686  0.30821595 -0.00021511
  -0.01765618  0.67400751 -0.00021695
   0.67764760  0.33904307  0.00038837
   0.11381583  0.22173420  0.94908834
   0.22408319  0.11197669  0.04875470
   0.11261583  0.55625440  0.95381188
   0.22445670  0.44611838  0.04836047
   0.11382011  0.89200742  0.94911285
   0.22446491  0.77825680  0.04835259
   0.44063807  0.22027166  0.95069764
   0.55231534  0.10825034  0.04948179
   0.44210629  0.55406126  0.95024451
   0.55228926  0.44402239  0.04953934
   0.44212930  0.88800292  0.95025382
   0.55180835  0.77586794  0.05234169
   0.77525662  0.22000806  0.94579495
   0.88874737  0.10953870  0.05615555
   0.77528071  0.55522533  0.94574583
   0.89227438  0.44607760  0.05233227
   0.77690451  0.88840299  0.94353551
   0.88877000  0.77915587  0.05613771
unknown system                          
           1
     8.318910    4.849083    0.000000
    -8.279272    4.780456    0.000000
     0.000000    0.000000   30.000000
   V    Mo   W    S 
   3   3   3  18
Direct configuration=     9
   0.36181176  0.68089014 -0.00123559
   0.33019677  0.33267432  0.00111852
   0.33005681 -0.00268843  0.00114267
  -0.02127318 -0.01057566  0.00018939
   0.68430889  0.00034755 -0.00036038
   0.68422574  0.68348169 -0.00036582
   0.97941948  0.30272364 -0.00021872
  -0.02067780  0.67649874 -0.00021580
   0.68123035  0.34101215  0.00032649
   0.11237332  0.22049867  0.94901387
   0.22347783  0.11168091  0.04859520
   0.11175318  0.55582784  0.95600406
   0.22348810  0.44624947  0.04764743
   0.11239306  0.89181298  0.94901637
   0.22347310  0.77714258  0.04765658
   0.44110420  0.22050609  0.95123610
   0.55300422  0.10885086  0.04886012
   0.44325513  0.55431931  0.95017645
   0.55293590  0.44411413  0.04894034
   0.44330326  0.88892860  0.95017310
   0.55306191  0.77648377  0.05265934
   0.77452803  0.21933788  0.94543287
   0.88805669  0.10821726  0.05675227
   0.77460317  0.55517244  0.94535723
   0.89345518  0.44670043  0.05205058
   0.77655654  0.88821064  0.94330531
   0.88809281  0.77979646  0.05674194
unknown system                          
           1
     8.318400    4.849829    0.000000
    -8.277980    4.779846    0.000000
     0.000000    0.000000   30.000000
   V    Mo   W    S 
   3   3   3  18
Direct configuration=    10
   0.36160835  0.68079861 -0.00127528
   0.32943060  0.33234297  0.00111143
   0.32923818 -0.00316944  0.00114207
  -0.02106164 -0.01047004  0.00023862
   0.68423502  0.00007981 -0.00033068
   0.68413248  0.68361666 -0.00033572
   0.97990343  0.30316847 -0.00019335
  -0.02016512  0.67655831 -0.00019117
   0.68151427  0.34121245  0.00028333
   0.11236349  0.22042874  0.94891487
   0.22354299  0.11173106  0.04868003
   0.11205532  0.55597886  0.95619280
   0.22360211  0.44647646  0.04762980
   0.11236996  0.89185397  0.94891677
   0.22358518  0.77702552  0.04763669
   0.44099738  0.22046226  0.95131664
   0.55287457  0.10890309  0.04877343
   0.44336984  0.55423163  0.95013162
   0.55278879  0.44393138  0.04887032
   0.44342336  0.88910947  0.95013791
   0.55322256  0.77656473  0.05271909
   0.77452139  0.21931036  0.94541342
   0.88792183  0.10807116  0.05678725
   0.77460446  0.55519751  0.94532156
   0.89358424  0.44676478  0.05205595
   0.77659420  0.88821868  0.94327688
   0.88795720  0.77981700  0.05677564
unknown system                          
           1
     8.322412    4.852591    0.000000
    -8.281731    4.782154    0.000000
     0.000000    0.000000   30.000000
   V    Mo   W    S 
   3   3   3  18
Direct configuration=    11
   0.36327722  0.68162277 -0.00140575
   0.32814189  0.33184602  0.00114828
   0.32785830 -0.00402311  0.00118825
  -0.02105819 -0.01046089  0.00026903
   0.68457013 -0.00013366 -0.00033122
   0.68443699  0.68404283 -0.00033780
   0.97950404  0.30206896 -0.00018077
  -0.02057036  0.67725770 -0.00017801
   0.68267718  0.34190697  0.00024456
   0.11199184  0.22011827  0.94886508
   0.22345804  0.11169815  0.04870478
   0.11213640  0.55601928  0.95680298
   0.22350695  0.44667338  0.04746377
   0.11200248  0.89179243  0.94885896
   0.22348617  0.77672791  0.04747489
   0.44102169  0.22047849  0.95154440
   0.55292524  0.10908550  0.04849902
   0.44370914  0.55425712  0.95014526
   0.55282245  0.44380484  0.04862108
   0.44377243  0.88942420  0.95015603
   0.55357624  0.77673776  0.05277373
   0.77445618  0.21918289  0.94539938
   0.88771620  0.10777274  0.05687060
   0.77456536  0.55527428  0.94528796
   0.89387362  0.44691611  0.05197078
   0.77660268  0.88820756  0.94328529
   0.88775415  0.77991596  0.05685933
unknown system                          
           1
     8.323128    4.853339    0.000000
    -8.282216    4.782500    0.000000
     0.000000    0.000000   30.000000
   V    Mo   W    S 
   3   3   3  18
Direct configuration=    12
   0.36409410  0.68202677 -0.00149529
   0.32695013  0.33132199  0.00115067
   0.32656728 -0.00475650  0.00119988
  -0.02082978 -0.01033992  0.00029916
   0.68474900 -0.00036452 -0.00032124
   0.68458563  0.68433508 -0.00032934
   0.97943997  0.30163987 -0.00016319
  -0.02063625  0.67762132 -0.00015992
   0.68350660  0.34243132  0.00021829
   0.11179574  0.21994748  0.94879159
   0.22343919  0.11169108  0.04877313
   0.11229971  0.55610082  0.95714716
   0.22351418  0.44685405  0.04740194
   0.11181804  0.89176975  0.94878019
   0.22349293  0.77655472  0.04741598
   0.44099592  0.22046321  0.95170248
   0.55288203  0.10916784  0.04828714
   0.44393927  0.55425213  0.95015560
   0.55277310  0.44368900  0.04843834
   0.44400689  0.88966342  0.95017430
   0.55379247  0.77684301  0.05281148
   0.77445818  0.21911069  0.94539515
   0.88760456  0.10760366  0.05692332
   0.77459330  0.55536492  0.94526360
   0.89408099  0.44702458  0.05195022
   0.77665713  0.88821962  0.94327770
   0.88764415  0.77997907  0.05691157
unknown system                          
           1
     8.317769    4.850793    0.000000
    -8.276218    4.778851    0.000000
     0.000000    0.000000   30.000000
   V    Mo   W    S 
   3   3   3  18
Direct configuration=    13
   0.36441735  0.68218797 -0.00153515
   0.32632282  0.33102001  0.00114767
   0.32587911 -0.00512307  0.00120207
  -0.02068799 -0.01026509  0.00031292
   0.68486618 -0.00046203 -0.00031573
   0.68468462  0.68448255 -0.00032464
   0.97941094  0.30148366 -0.00015306
  -0.02066394  0.67774839 -0.00014970
   0.68392613  0.34270353  0.00020700
   0.11171057  0.21988326  0.94875303
   0.22343440  0.11169134  0.04881729
   0.11236334  0.55613157  0.95728883
   0.22351401  0.44692358  0.04738211
   0.11173866  0.89174970  0.94873811
   0.22349173  0.77648382  0.04739852
   0.44099425  0.22046170  0.95177988
   0.55285760  0.10920217  0.04817679
   0.44405438  0.55424548  0.95016422
   0.55274512  0.44363629  0.04834476
   0.44412434  0.88978662  0.95018691
   0.55389775  0.77689401  0.05282799
   0.77446551  0.21908099  0.94539550
   0.88756417  0.10753203  0.05694544
   0.77461468  0.55541036  0.94525233
   0.89418506  0.44707934  0.05194830
   0.77669930  0.88823249  0.94327489
   0.88760438  0.78001377  0.05693362
unknown system                          
           1
     8.329571    4.857855    0.000000
    -8.288181    4.786187    0.000000
     0.000000    0.000000   30.000000
   V    Mo   W    S 
   3   3   3  18
Direct configuration=    14
   0.36430373  0.68204265 -0.00150152
   0.32712871  0.33151069  0.00117804
   0.32690921 -0.00458539  0.00121428
  -0.02113332 -0.01045680  0.00030897
   0.68483600 -0.00025544 -0.00032480
   0.68467712  0.68432485 -0.00033073
   0.97931894  0.30137094 -0.00017354
  -0.02088261  0.67764261 -0.00016384
   0.68356815  0.34245312  0.00022508
   0.11175156  0.21984486  0.94880184
   0.22337026  0.11171917  0.04873681
   0.11224441  0.55607904  0.95728745
   0.22351702  0.44686771  0.04735051
   0.11169657  0.89179666  0.94877950
   0.22344243  0.77645224  0.04737517
   0.44101473  0.22053031  0.95170981
   0.55302627  0.10928726  0.04830376
   0.44400181  0.55421430  0.95012204
   0.55281657  0.44365469  0.04841550
   0.44410161  0.88972730  0.95012636
   0.55391119  0.77690492  0.05284715
   0.77439484  0.21907588  0.94539488
   0.88749905  0.10749406  0.05694555
   0.77452386  0.55533437  0.94526420
   0.89405479  0.44701855  0.05189347
   0.77658571  0.88818881  0.94327874
   0.88753583  0.77997709  0.05693521
unknown system                          
           1
     8.331027    4.858600    0.000000
    -8.289710    4.787058    0.000000
     0.000000    0.000000   30.000000
   V    Mo   W    S 
   3   3   3  18
Direct configuration=    15
   0.36552281  0.68276582 -0.00166771
   0.32422291  0.32999565  0.00113576
   0.32353909 -0.00638302  0.00121086
  -0.02014198 -0.00999086  0.00035862
   0.68520116 -0.00082209 -0.00029619
   0.68496118  0.68495919 -0.00030826
   0.97933910  0.30099454 -0.00011663
  -0.02069311  0.67820499 -0.00011481
   0.68530086  0.34359395  0.00016537
   0.11142962  0.21967788  0.94861798
   0.22343107  0.11167792  0.04896772
   0.11259013  0.55624052  0.95774675
   0.22350420  0.44716259  0.04732232
   0.11150027  0.89168599  0.94859604
   0.22349555  0.77626115  0.04734207
   0.44097844  0.22043324  0.95203254
   0.55273759  0.10928123  0.04781269
   0.44442487  0.55423648  0.95019406
   0.55264452  0.44347459  0.04804657
   0.44449221  0.89018195  0.95023466
   0.55422242  0.77705029  0.05288083
   0.77449057  0.21897939  0.94538261
   0.88744587  0.10730232  0.05702825
   0.77468688  0.55556445  0.94520145
   0.89455527  0.44727119  0.05195818
   0.77684365  0.88827641  0.94325247
   0.88748932  0.78013869  0.05701572
unknown system                          
           1
     8.321259    4.852581    0.000000
    -8.281048    4.782942    0.000000
     0.000000    0.000000   30.000000
   V    Mo   W    S 
   3   3   3  18
Direct configuration=    16
   0.36597588  0.68292988 -0.00172138
   0.32325330  0.32954151  0.00112813
   0.32260581 -0.00682089  0.00120335
  -0.01987472 -0.00983029  0.00037912
   0.68534032 -0.00097258 -0.00028775
   0.68508659  0.68514536 -0.00030075
   0.97938555  0.30079509 -0.00010348
  -0.02073688  0.67835813 -0.00009558
   0.68587929  0.34399187  0.00013235
   0.11134207  0.21960328  0.94856447
   0.22343780  0.11172431  0.04902567
   0.11269000  0.55629290  0.95793722
   0.22353103  0.44724343  0.04729726
   0.11137075  0.89165057  0.94853379
   0.22348612  0.77614977  0.04732442
   0.44096599  0.22045739  0.95214942
   0.55270397  0.10932452  0.04766547
   0.44456172  0.55417782  0.95021160
   0.55254508  0.44337265  0.04790639
   0.44465483  0.89035817  0.95025183
   0.55436799  0.77711965  0.05290532
   0.77449497  0.21894219  0.94538027
   0.88738950  0.10720348  0.05706699
   0.77471037  0.55562215  0.94517583
   0.89471047  0.44735735  0.05197536
   0.77690351  0.88829379  0.94324057
   0.88743315  0.78018293  0.05705401
unknown system                          
           1
     8.322477    4.852142    0.000000
    -8.283151    4.784037    0.000000
     0.000000    0.000000   30.000000
   V    Mo   W    S 
   3   3   3  18
Direct configuration=    17
   0.36411740  0.68222188 -0.00147326
   0.32864814  0.33217353  0.00121128
   0.32754198 -0.00453285  0.00126969
  -0.02116194 -0.01060693  0.00025647
   0.68448327 -0.00019395 -0.00032245
   0.68422403  0.68405486 -0.00033149
   0.97938588  0.30134732 -0.00022068
  -0.02039624  0.67815136 -0.00023796
   0.68259517  0.34174242  0.00027592
   0.11169799  0.21984596  0.94892173
   0.22342743  0.11151554  0.04858093
   0.11216625  0.55602113  0.95715486
   0.22345777  0.44687561  0.04731503
   0.11197071  0.89195243  0.94887956
   0.22353136  0.77661488  0.04737272
   0.44089746  0.22026866  0.95155619
   0.55290952  0.10910812  0.04848799
   0.44383034  0.55450130  0.95010507
   0.55310247  0.44392039  0.04867091
   0.44382110  0.88951911  0.95010685
   0.55363177  0.77678626  0.05282250
   0.77434327  0.21911236  0.94536518
   0.88754317  0.10760400  0.05692048
   0.77448875  0.55522865  0.94531964
   0.89391186  0.44693723  0.05184277
   0.77647896  0.88815251  0.94324203
   0.88756658  0.77989265  0.05690792
unknown system                          
           1
     8.324979    4.849444    0.000000
    -8.289055    4.787231    0.000000
     0.000000    0.000000   30.000000
   V    Mo   W    S 
   3   3   3  18
Direct configuration=    18
   0.36401616  0.68222962 -0.00141379
   0.33039083  0.33316003  0.00124314
   0.32885557 -0.00407502  0.00129468
  -0.02184935 -0.01099640  0.00025868
   0.68428988 -0.00000317 -0.00034440
   0.68397695  0.68383930 -0.00034417
   0.97919860  0.30120109 -0.00023623
  -0.02042556  0.67821252 -0.00025748
   0.68177763  0.34113799  0.00030965
   0.11179653  0.21978167  0.94899244
   0.22334954  0.11145965  0.04844448
   0.11203701  0.55595180  0.95712504
   0.22345110  0.44687030  0.04725836
   0.11210149  0.89215345  0.94891815
   0.22350905  0.77660097  0.04735730
   0.44087452  0.22021862  0.95144203
   0.55295821  0.10908640  0.04868394
   0.44370321  0.55457708  0.95003925
   0.55326423  0.44402456  0.04886412
   0.44368671  0.88939749  0.95003579
   0.55348474  0.77673764  0.05282133
   0.77427106  0.21910327  0.94536826
   0.88750648  0.10759749  0.05689560
   0.77439899  0.55513859  0.94536993
   0.89377482  0.44688375  0.05173541
   0.77631340  0.88809087  0.94325546
   0.88750266  0.77983492  0.05688294
unknown system                          
           1
     8.335010    4.851407    0.000000
    -8.302572    4.795226    0.000000
     0.000000    0.000000   30.000000
   V    Mo   W    S 
   3   3   3  18
Direct configuration=    19
   0.36436634  0.68241240 -0.00137110
   0.33429049  0.33555362  0.00134529
   0.33118774 -0.00340623  0.00139034
  -0.02362501 -0.01203229  0.00025925
   0.68392782  0.00045698 -0.00038905
   0.68336954  0.68333036 -0.00037645
   0.97904001  0.30035198 -0.00035347
  -0.02028004  0.67909285 -0.00037879
   0.67999281  0.33981834  0.00027238
   0.11181017  0.21935440  0.94925845
   0.22312082  0.11146167  0.04797189
   0.11172567  0.55577975  0.95749197
   0.22356411  0.44692660  0.04698486
   0.11199724  0.89258172  0.94906086
   0.22345763  0.77646580  0.04722580
   0.44082885  0.22018310  0.95139101
   0.55298968  0.10908563  0.04897473
   0.44362439  0.55454178  0.94982435
   0.55352995  0.44405958  0.04917026
   0.44365089  0.88950224  0.94983169
   0.55365870  0.77691359  0.05290289
   0.77407121  0.21895941  0.94539326
   0.88716035  0.10729956  0.05694612
   0.77414868  0.55505136  0.94551039
   0.89374165  0.44689570  0.05146269
   0.77578732  0.88787977  0.94327136
   0.88707742  0.77969480  0.05692891
unknown system                          
           1
     8.338984    4.853051    0.000000
    -8.307298    4.798170    0.000000
     0.000000    0.000000   30.000000
   V    Mo   W    S 
   3   3   3  18
Direct configuration=    20
   0.36641553  0.68337410 -0.00144703
   0.33775969  0.33843376  0.00141443
   0.33176770 -0.00412999  0.00151777
  -0.02576318 -0.01336928  0.00044523
   0.68368355  0.00062053 -0.00038628
   0.68254604  0.68291823 -0.00036426
   0.97856665  0.29862180 -0.00030951
  -0.02033391  0.68064006 -0.00033315
   0.67939328  0.33917038  0.00019337
   0.11161278  0.21841533  0.94944843
   0.22253870  0.11149981  0.04744693
   0.11174313  0.55576483  0.95846143
   0.22392695  0.44735776  0.04658774
   0.11147316  0.89314865  0.94905327
   0.22354128  0.77611298  0.04699511
   0.44085771  0.22022961  0.95161203
   0.55284475  0.10919776  0.04889229
   0.44380741  0.55434202  0.94954804
   0.55377880  0.44381116  0.04923395
   0.44387006  0.88995078  0.94966684
   0.55417152  0.77728389  0.05297860
   0.77396144  0.21875664  0.94537194
   0.88662115  0.10682207  0.05705378
   0.77398197  0.55518054  0.94558230
   0.89398415  0.44699488  0.05107320
   0.77507022  0.88756151  0.94323687
   0.88639391  0.77950462  0.05702655
unknown system                          
           1
     8.340194    4.853552    0.000000
    -8.308900    4.799346    0.000000
     0.000000    0.000000   30.000000
   V    Mo   W    S 
   3   3   3  18
Direct configuration=    21
   0.36702721  0.68367386 -0.00149725
   0.33851058  0.33951933  0.00136357
   0.33095800 -0.00499712  0.00154087
  -0.02616265 -0.01370426  0.00044089
   0.68372679  0.00057859 -0.00044496
   0.68218581  0.68268579 -0.00041641
   0.97841436  0.29838001 -0.00034561
  -0.02034658  0.68080955 -0.00037462
   0.67997978  0.33947701  0.00012446
   0.11139037  0.21805218  0.94953487
   0.22223469  0.11153585  0.04730427
   0.11194361  0.55585798  0.95874493
   0.22419338  0.44764327  0.04653761
   0.11115622  0.89319121  0.94904964
   0.22369748  0.77600472  0.04698336
   0.44090768  0.22024170  0.95167605
   0.55272181  0.10926567  0.04877402
   0.44385597  0.55433067  0.94944457
   0.55395558  0.44368726  0.04926793
   0.44387288  0.89001072  0.94966643
   0.55423001  0.77733883  0.05301111
   0.77415770  0.21878766  0.94539591
   0.88642036  0.10669427  0.05715798
   0.77419298  0.55536676  0.94561990
   0.89404346  0.44696900  0.05103003
   0.77485302  0.88744949  0.94327665
   0.88609396  0.77936444  0.05713370
unknown system                          
           1
     8.340496    4.854239    0.000000
    -8.308933    4.799566    0.000000
     0.000000    0.000000   30.000000
   V    Mo   W    S 
   3   3   3  18
Direct configuration=    22
   0.36735071  0.68380476 -0.00150495
   0.33934883  0.34041723  0.00134745
   0.33046629 -0.00550060  0.00157728
  -0.02659519 -0.01402068  0.00050364
   0.68380441  0.00062264 -0.00042743
   0.68193164  0.68245727 -0.00039305
   0.97831549  0.29811914 -0.00030641
  -0.02035638  0.68100170 -0.00033167
   0.68020619  0.33963621  0.00010006
   0.11129422  0.21782909  0.94960235
   0.22206320  0.11161024  0.04717048
   0.11202286  0.55588942  0.95891700
   0.22436121  0.44779335  0.04648004
   0.11096740  0.89323897  0.94903455
   0.22374458  0.77589997  0.04697469
   0.44095825  0.22027012  0.95172681
   0.55266421  0.10932576  0.04868656
   0.44388377  0.55431150  0.94934773
   0.55407063  0.44358161  0.04928927
   0.44390367  0.89009322  0.94963773
   0.55432705  0.77741408  0.05301672
   0.77422386  0.21877331  0.94538189
   0.88629266  0.10663457  0.05715955
   0.77426803  0.55544465  0.94561500
   0.89411257  0.44697600  0.05099151
   0.77468515  0.88735668  0.94326937
   0.88589914  0.77923425  0.05713374
unknown system                          
           1
     8.340598    4.854274    0.000000
    -8.309052    4.799628    0.000000
     0.000000    0.000000   30.000000
   V    Mo   W    S 
   3   3   3  18
Direct configuration=    23
   0.36739892  0.68382845 -0.00150640
   0.33942110  0.34071544  0.00130808
   0.32966503 -0.00597012  0.00158755
  -0.02656652 -0.01405568  0.00054226
   0.68390282  0.00055566 -0.00040627
   0.68177905  0.68230018 -0.00036794
   0.97829989  0.29817684 -0.00025767
  -0.02033810  0.68091746 -0.00027778
   0.68064668  0.34001697  0.00008592
   0.11124784  0.21778935  0.94961597
   0.22202794  0.11169560  0.04715329
   0.11213327  0.55593769  0.95892281
   0.22446031  0.44788078  0.04649575
   0.11088118  0.89317190  0.94900044
   0.22377021  0.77584019  0.04700941
   0.44100715  0.22029075  0.95176294
   0.55260828  0.10935899  0.04857463
   0.44388920  0.55434373  0.94931191
   0.55411707  0.44350512  0.04927935
   0.44390405  0.89009408  0.94965873
   0.55432950  0.77742264  0.05299948
   0.77430000  0.21878513  0.94536739
   0.88628150  0.10666580  0.05714267
   0.77437020  0.55549822  0.94557889
   0.89416694  0.44698008  0.05103916
   0.77466554  0.88731952  0.94326280
   0.88584540  0.77914967  0.05711652
unknown system                          
           1
     8.340549    4.854502    0.000000
    -8.309092    4.800007    0.000000
     0.000000    0.000000   30.000000
   V    Mo   W    S 
   3   3   3  18
Direct configuration=    24
   0.36741506  0.68383629 -0.00150506
   0.33943993  0.34072508  0.00131112
   0.32972487 -0.00594961  0.00158792
  -0.02658057 -0.01406106  0.00054327
   0.68388535  0.00055480 -0.00040566
   0.68177396  0.68230762 -0.00036734
   0.97829794  0.29816696 -0.00025787
  -0.02033996  0.68092715 -0.00027837
   0.68061803  0.33998624  0.00008689
   0.11124922  0.21778525  0.94961605
   0.22202396  0.11169030  0.04714949
   0.11213305  0.55593795  0.95892667
   0.22445966  0.44788261  0.04649273
   0.11088273  0.89317983  0.94900221
   0.22377190  0.77584016  0.04700598
   0.44100540  0.22029032  0.95176064
   0.55261171  0.10935841  0.04858198
   0.44388716  0.55434385  0.94931210
   0.55411926  0.44350856  0.04928120
   0.44390141  0.89008997  0.94965653