unknown system                          
           1
     8.855373    5.105155    0.000000
    -8.855272    5.104981    0.000000
     0.000000    0.000000   30.000000
   V    Mo   W    S 
   3   3   3  18
Direct configuration=     1
   0.33333334  0.33333334  0.00000000
   0.00000000  0.66666669  0.00000000
   0.66666669  0.66666669  0.00000000
   0.33333334  0.66666669  0.00000000
   0.66666669  0.33333334  0.00000000
   0.00000000  0.00000000  0.00000000
   1.00000000  0.33333334  0.00000000
   0.33333334  0.00000000  0.00000000
   0.66666669  0.00000000  0.00000000
   0.11068511  0.22244981  0.95539999
   0.22244981  0.11068511  0.04460000
   0.11068511  0.55578315  0.95539999
   0.22244981  0.44401845  0.04460000
   0.11068511  0.88911647  0.95539999
   0.22244981  0.77735180  0.04460000
   0.44401845  0.22244981  0.95539999
   0.55578315  0.11068511  0.04460000
   0.44401845  0.55578315  0.95539999
   0.55578315  0.44401845  0.04460000
   0.44401845  0.88911647  0.95539999
   0.55578315  0.77735180  0.04460000
   0.77735180  0.22244981  0.95539999
   0.88911647  0.11068511  0.04460000
   0.77735180  0.55578315  0.95539999
   0.88911647  0.44401845  0.04460000
   0.77735180  0.88911647  0.95539999
   0.88911647  0.77735180  0.04460000
unknown system                          
           1
     8.667135    4.998991    0.000000
    -8.666952    4.998677    0.000000
     0.000000    0.000000   30.000000
   V    Mo   W    S 
   3   3   3  18
Direct configuration=     2
   0.33383620  0.33382321 -0.00016823
  -0.00043998  0.66675394  0.00017480
   0.66666945  0.66614280 -0.00000432
   0.33348577  0.66661195 -0.00007349
   0.66659928  0.33351487  0.00001485
  -0.00015258 -0.00019062  0.00005856
   1.00027093  0.33357945 -0.00021049
   0.33290490 -0.00002981  0.00021671
   0.66673554 -0.00030761 -0.00000913
   0.11513946  0.22490034  0.95188758
   0.22480194  0.11495935  0.04805636
   0.10812145  0.55679887  0.95202535
   0.22362120  0.44151741  0.04798137
   0.10972819  0.88477595  0.95195565
   0.21803017  0.77644426  0.04809312
   0.44144412  0.22374513  0.95198008
   0.55490393  0.11010324  0.04928748
   0.44640407  0.55317234  0.95303351
   0.55331585  0.44651060  0.04694856
   0.44495669  0.88961036  0.95074315
   0.55836145  0.77630107  0.04800428
   0.77820463  0.22169550  0.95072179
   0.88824796  0.11133042  0.04925118
   0.77962215  0.55986072  0.95311196
   0.89146640  0.44856910  0.04808934
   0.77502784  0.88479419  0.95192797
   0.88690743  0.77322743  0.04690192
unknown system                          
           1
     8.483995    4.897745    0.000000
    -8.484311    4.898293    0.000000
     0.000000    0.000000   30.000000
   V    Mo   W    S 
   3   3   3  18
Direct configuration=     3
   0.33385425  0.33386828 -0.00018669
  -0.00045399  0.66678649  0.00019432
   0.66666775  0.66609733 -0.00000550
   0.33354390  0.66686731 -0.00007814
   0.66660000  0.33305599  0.00001575
  -0.00020045  0.00001782  0.00006234
   1.00010011  0.33337387 -0.00023136
   0.33305297 -0.00006410  0.00023805
   0.66674535 -0.00013293 -0.00000913
   0.11515962  0.22512640  0.95187936
   0.22501702  0.11497893  0.04804242
   0.10793207  0.55660821  0.95203089
   0.22343924  0.44135591  0.04795030
   0.10987679  0.88476112  0.95199201
   0.21800200  0.77660091  0.04810577
   0.44126023  0.22355840  0.95198068
   0.55477591  0.10981737  0.04931241
   0.44645340  0.55312561  0.95305816
   0.55328996  0.44657128  0.04690212
   0.44506285  0.88989112  0.95074482
   0.55852744  0.77646266  0.04799809
   0.77834244  0.22158159  0.95069218
   0.88813999  0.11147122  0.04925450
   0.77967745  0.55994777  0.95315101
   0.89169124  0.44859261  0.04807482
   0.77483029  0.88476797  0.95194404
   0.88682663  0.77312531  0.04688667
unknown system                          
           1
     8.265075    4.770861    0.000000
    -8.265978    4.772427    0.000000
     0.000000    0.000000   30.000000
   V    Mo   W    S 
   3   3   3  18
Direct configuration=     4
   0.33342904  0.33359970 -0.00017623
  -0.00001340  0.66694762  0.00018445
   0.66662894  0.66635290 -0.00000698
   0.33374331  0.66829169 -0.00005521
   0.66658249  0.33041578  0.00001192
  -0.00037513  0.00125667  0.00004335
   0.99887206  0.33196268 -0.00020118
   0.33420534 -0.00026850  0.00020633
   0.66674720  0.00112957 -0.00000621
   0.11643554  0.22594134  0.95034729
   0.22581436  0.11629512  0.04944877
   0.10724723  0.55714914  0.95059090
   0.22393538  0.44082019  0.04925615
   0.10930512  0.88362436  0.95070579
   0.21673939  0.77602352  0.04964690
   0.44058998  0.22393715  0.95053469
   0.55467337  0.10945121  0.05107618
   0.44709875  0.55262266  0.95182239
   0.55283157  0.44714118  0.04802299
   0.44509157  0.89027782  0.94912093
   0.55916367  0.77589738  0.04942499
   0.77845706  0.22145133  0.94891035
   0.88810420  0.11170929  0.05090121
   0.78023290  0.56095757  0.95200405
   0.89249900  0.44975631  0.04948516
   0.77409244  0.88347458  0.95054500
   0.88608306  0.77199619  0.04815593
unknown system                          
           1
     8.250039    4.759000    0.000000
    -8.254002    4.765867    0.000000
     0.000000    0.000000   30.000000
   V    Mo   W    S 
   3   3   3  18
Direct configuration=     5
   0.33192422  0.33248857  0.00003370
   0.00150390  0.66738726 -0.00002636
   0.66658168  0.66722644 -0.00000737
   0.33408790  0.67151732  0.00002131
   0.66657114  0.32453348  0.00000744
  -0.00074376  0.00411460 -0.00002880
   0.99557234  0.32826083 -0.00004017
   0.33729110 -0.00072930  0.00004487
   0.66681612  0.00468253 -0.00000694
   0.11786817  0.22683771  0.94807565
   0.22649811  0.11766555  0.05126815
   0.10667547  0.55775926  0.94875154
   0.22463411  0.44080673  0.05080908
   0.10851857  0.88273482  0.94916938
   0.21533269  0.77549129  0.05192749
   0.44026622  0.22439790  0.94857676
   0.55453283  0.10910662  0.05378999
   0.44775955  0.55244435  0.94998054
   0.55273161  0.44733300  0.04951923
   0.44512942  0.89044624  0.94680084
   0.55974807  0.77529413  0.05131906
   0.77860713  0.22127723  0.94618663
   0.88809467  0.11181948  0.05323391
   0.78045545  0.56117472  0.95049328
   0.89294486  0.45073958  0.05140497
   0.77345046  0.88213191  0.94868039
   0.88536243  0.77127221  0.05001535
unknown system                          
           1
     8.251940    4.758624    0.000000
    -8.257263    4.767846    0.000000
     0.000000    0.000000   30.000000
   V    Mo   W    S 
   3   3   3  18
Direct configuration=     6
   0.33106980  0.33190261  0.00007772
   0.00238231  0.66769305 -0.00007212
   0.66655236  0.66757300 -0.00000526
   0.33436903  0.67294289  0.00003069
   0.66656553  0.32263896  0.00000925
  -0.00103516  0.00523499 -0.00003801
   0.99390092  0.32640494 -0.00005605
   0.33891933 -0.00093326  0.00006027
   0.66682176  0.00617215 -0.00000312
   0.11770877  0.22702640  0.94780872
   0.22641677  0.11728680  0.05128535
   0.10676825  0.55743817  0.94874375
   0.22441244  0.44125942  0.05075255
   0.10872903  0.88341210  0.94921137
   0.21549180  0.77586090  0.05220050
   0.44064274  0.22421849  0.94847581
   0.55444511  0.10887705  0.05432462
   0.44753200  0.55272256  0.94991333
   0.55312517  0.44674971  0.04947209
   0.44544480  0.89046506  0.94640427
   0.55976778  0.77580852  0.05140317
   0.77869801  0.22111147  0.94564312
   0.88779924  0.11154688  0.05363453
   0.78007162  0.56020609  0.95054516
   0.89255024  0.45017618  0.05150835
   0.77345195  0.88262782  0.94859017
   0.88561285  0.77179154  0.05007966
unknown system                          
           1
     8.251959    4.755449    0.000000
    -8.260126    4.769597    0.000000
     0.000000    0.000000   30.000000
   V    Mo   W    S 
   3   3   3  18
Direct configuration=     7
   0.33038388  0.33151223  0.00012011
   0.00309607  0.66803113 -0.00011494
   0.66652695  0.66773334 -0.00000662
   0.33487159  0.67445269  0.00003763
   0.66655696  0.32113288  0.00000649
  -0.00152826  0.00622457 -0.00004403
   0.99240170  0.32463247 -0.00003817
   0.34038438 -0.00122319  0.00004152
   0.66682329  0.00723851 -0.00000398
   0.11756769  0.22717047  0.94766777
   0.22639511  0.11695772  0.05118294
   0.10679190  0.55711727  0.94885185
   0.22412113  0.44155104  0.05057389
   0.10901567  0.88399516  0.94937928
   0.21563244  0.77616180  0.05234557
   0.44086116  0.22400216  0.94849889
   0.55441515  0.10871478  0.05466246
   0.44732060  0.55287663  0.94998804
   0.55337643  0.44631624  0.04930344
   0.44575157  0.89057723  0.94617142
   0.55981555  0.77625555  0.05138602
   0.77872398  0.22096073  0.94530473
   0.88750334  0.11136595  0.05386948
   0.77982576  0.55953001  0.95072062
   0.89232063  0.44973656  0.05148487
   0.77341861  0.88303045  0.94860849
   0.88584116  0.77216007  0.05000212
unknown system                          
           1
     8.252726    4.756650    0.000000
    -8.260203    4.769604    0.000000
     0.000000    0.000000   30.000000
   V    Mo   W    S 
   3   3   3  18
Direct configuration=     8
   0.32941150  0.33099030  0.00019264
   0.00414974  0.66857638 -0.00018836
   0.66650589  0.66776092 -0.00000868
   0.33589991  0.67711464  0.00006564
   0.66655161  0.31899679  0.00000629
  -0.00255085  0.00778376 -0.00006826
   0.99004616  0.32181467 -0.00004928
   0.34266619 -0.00175136  0.00005405
   0.66681808  0.00863765 -0.00000012
   0.11736767  0.22738054  0.94748492
   0.22635584  0.11645443  0.05095555
   0.10683375  0.55664281  0.94908785
   0.22363565  0.44193791  0.05023851
   0.10948966  0.88485538  0.94970045
   0.21582624  0.77658332  0.05253594
   0.44110014  0.22365930  0.94856048
   0.55437841  0.10850665  0.05511358
   0.44703590  0.55305928  0.95013336
   0.55362673  0.44574242  0.04901843
   0.44628827  0.89080896  0.94579700
   0.55992498  0.77683132  0.05135734
   0.77875629  0.22076946  0.94484745
   0.88697439  0.11106716  0.05424103
   0.77958741  0.55871829  0.95101552
   0.89206878  0.44915123  0.05141500
   0.77332445  0.88350052  0.94863985
   0.88614166  0.77262174  0.04985371
unknown system                          
           1
     8.254105    4.758071    0.000000
    -8.261099    4.770187    0.000000
     0.000000    0.000000   30.000000
   V    Mo   W    S 
   3   3   3  18
Direct configuration=     9
   0.32967947  0.33114122  0.00017281
   0.00386406  0.66843742 -0.00016834
   0.66651319  0.66773204 -0.00000835
   0.33566662  0.67643915  0.00005753
   0.66655300  0.31962393  0.00000606
  -0.00231998  0.00735748 -0.00006129
   0.99070209  0.32257310 -0.00004782
   0.34202901 -0.00163382  0.00005189
   0.66681889  0.00819299 -0.00000126
   0.11742210  0.22731970  0.94753665
   0.22635971  0.11658543  0.05100942
   0.10682921  0.55677424  0.94903174
   0.22376507  0.44183482  0.05032273
   0.10936294  0.88462454  0.94961991
   0.21577216  0.77646347  0.05248264
   0.44102422  0.22375006  0.94854725
   0.55439140  0.10856951  0.05498404
   0.44711603  0.55300410  0.95009672
   0.55354555  0.44590882  0.04909587
   0.44614975  0.89075286  0.94589853
   0.55989856  0.77666375  0.05136699
   0.77874367  0.22082510  0.94497893
   0.88711011  0.11114648  0.05414001
   0.77966658  0.55896326  0.95093563
   0.89214901  0.44932046  0.05143024
   0.77334574  0.88335837  0.94862976
   0.88605630  0.77248595  0.04989160
unknown system                          
           1
     8.250439    4.754990    0.000000
    -8.257910    4.767933    0.000000
     0.000000    0.000000   30.000000
   V    Mo   W    S 
   3   3   3  18
Direct configuration=    10
   0.32972333  0.33117089  0.00016516
   0.00380536  0.66841910 -0.00015400
   0.66647093  0.66762767 -0.00000743
   0.33592368  0.67672151  0.00005771
   0.66651189  0.31961798  0.00000584
  -0.00250858  0.00746583 -0.00006073
   0.99055324  0.32233096 -0.00005174
   0.34223045 -0.00165187  0.00005646
   0.66680464  0.00816700 -0.00000206
   0.11745570  0.22731770  0.94755398
   0.22632316  0.11655610  0.05097451
   0.10688010  0.55676788  0.94905776
   0.22379281  0.44185958  0.05028537
   0.10935366  0.88465036  0.94964656
   0.21575909  0.77643248  0.05247091
   0.44094490  0.22375654  0.94856901
   0.55442379  0.10857448  0.05495522
   0.44710293  0.55297921  0.95011323
   0.55348189  0.44593338  0.04909994
   0.44619586  0.89077381  0.94589539
   0.55995207  0.77664114  0.05135958
   0.77870832  0.22079722  0.94500782
   0.88706371  0.11112013  0.05414177
   0.77970417  0.55903142  0.95092538
   0.89221796  0.44938929  0.05141391
   0.77329005  0.88328202  0.94863916
   0.88604935  0.77248268  0.04988120
unknown system                          
           1
     8.238351    4.747664    0.000000
    -8.245635    4.760280    0.000000
     0.000000    0.000000   30.000000
   V    Mo   W    S 
   3   3   3  18
Direct configuration=    11
   0.32942500  0.33104872  0.00013019
   0.00418222  0.66860851 -0.00012621
   0.66659593  0.66827955 -0.00000374
   0.33507987  0.67583115  0.00004097
   0.66659432  0.31876238  0.00000864
  -0.00184959  0.00722066 -0.00003511
   0.99059061  0.32286377 -0.00005328
   0.34206279 -0.00131626  0.00006465
   0.66686496  0.00876440  0.00001279
   0.11750025  0.22742669  0.94749641
   0.22653458  0.11673278  0.05112866
   0.10663476  0.55673091  0.94888923
   0.22369952  0.44171821  0.05043897
   0.10940467  0.88457436  0.94948884
   0.21561979  0.77646790  0.05255171
   0.44112612  0.22374921  0.94850678
   0.55427855  0.10845315  0.05507756
   0.44708571  0.55301778  0.95010749
   0.55371410  0.44586555  0.04902256
   0.44606874  0.89063764  0.94590468
   0.55981549  0.77675867  0.05133337
   0.77885107  0.22080701  0.94485790
   0.88719743  0.11112566  0.05413089
   0.77953452  0.55878044  0.95099029
   0.89207304  0.44926594  0.05149719
   0.77340937  0.88353127  0.94863908
   0.88612061  0.77250839  0.04989938
unknown system                          
           1
     8.243195    4.747933    0.000000
    -8.252863    4.764679    0.000000
     0.000000    0.000000   30.000000
   V    Mo   W    S 
   3   3   3  18
Direct configuration=    12
   0.32839137  0.33100000  0.00009766
   0.00546936  0.66959836 -0.00011972
   0.66695506  0.67080978 -0.00000578
   0.33189706  0.67198372  0.00001455
   0.66679900  0.31630954 -0.00000591
   0.00077220  0.00604894 -0.00002081
   0.99156264  0.32530520 -0.00002822
   0.34076807 -0.00028071  0.00002130
   0.66706430  0.01018771 -0.00000661
   0.11766012  0.22760802  0.94747223
   0.22724355  0.11758184  0.05157241
   0.10584199  0.55684629  0.94838858
   0.22346954  0.44104515  0.05088428
   0.10953527  0.88410211  0.94902697
   0.21521844  0.77640882  0.05267013
   0.44156551  0.22381543  0.94836536
   0.55384913  0.10789690  0.05542807
   0.44698339  0.55304564  0.95009161
   0.55436641  0.44580030  0.04865528
   0.44559152  0.89015163  0.94618753
   0.55929474  0.77706591  0.05119746
   0.77924031  0.22061853  0.94447845
   0.88769828  0.11115293  0.05390086
   0.77906113  0.55818760  0.95131128
   0.89171494  0.44903098  0.05171425
   0.77385493  0.88434363  0.94872371
   0.88634620  0.77255020  0.04998498
unknown system                          
           1
     8.251610    4.749456    0.000000
    -8.264443    4.771685    0.000000
     0.000000    0.000000   30.000000
   V    Mo   W    S 
   3   3   3  18
Direct configuration=    13
   0.32763761  0.33081208  0.00016605
   0.00631868  0.67023351 -0.00019061
   0.66698392  0.67114690 -0.00000978
   0.33221437  0.67313293  0.00003087
   0.66681134  0.31498790 -0.00000924
   0.00036759  0.00676619 -0.00003791
   0.99049647  0.32397143 -0.00003413
   0.34176193 -0.00065321  0.00002598
   0.66709300  0.01082748 -0.00001213
   0.11752874  0.22767983  0.94737397
   0.22725462  0.11737911  0.05143782
   0.10582137  0.55663488  0.94852524
   0.22313023  0.44119136  0.05070353
   0.10985809  0.88456588  0.94920208
   0.21534435  0.77661395  0.05277669
   0.44170726  0.22363428  0.94840764
   0.55379428  0.10768305  0.05571713
   0.44678971  0.55311921  0.95016075
   0.55453654  0.44550293  0.04841923
   0.44587672  0.89024460  0.94602698
   0.55926651  0.77738966  0.05119799
   0.77928544  0.22045378  0.94419114
   0.88741525  0.11096114  0.05406947
   0.77892702  0.55773987  0.95155495
   0.89156434  0.44870553  0.05166163
   0.77388068  0.88469264  0.94872424
   0.88654838  0.77279754  0.04992030
unknown system                          
           1
     8.254436    4.752004    0.000000
    -8.266527    4.772949    0.000000
     0.000000    0.000000   30.000000
   V    Mo   W    S 
   3   3   3  18
Direct configuration=    14
   0.32623668  0.33080119  0.00022045
   0.00790056  0.67175073 -0.00022026
   0.66698683  0.67209601 -0.00000088
   0.33286154  0.67499921  0.00000837
   0.66670505  0.31241443  0.00000844
  -0.00042394  0.00789088  0.00002083
   0.98856051  0.32151887 -0.00009582
   0.34370675 -0.00121037  0.00013226
   0.66716234  0.01197106  0.00003066
   0.11731340  0.22772379  0.94723570
   0.22723090  0.11703320  0.05114703
   0.10581811  0.55630016  0.94878740
   0.22247967  0.44139098  0.05044375
   0.11049905  0.88540758  0.94943727
   0.21559958  0.77689419  0.05292711
   0.44188445  0.22334664  0.94860548
   0.55369837  0.10720494  0.05600729
   0.44639128  0.55319639  0.95029343
   0.55483730  0.44503960  0.04790372
   0.44628639  0.89026937  0.94583465
   0.55916284  0.77782261  0.05122388
   0.77939265  0.22011271  0.94385451
   0.88700199  0.11059975  0.05423313
   0.77867502  0.55697970  0.95207304
   0.89133602  0.44820269  0.05143273
   0.77397335  0.88520861  0.94866461
   0.88693776  0.77324954  0.04979111
unknown system                          
           1
     8.254559    4.752874    0.000000
    -8.266224    4.773082    0.000000
     0.000000    0.000000   30.000000
   V    Mo   W    S 
   3   3   3  18
Direct configuration=    15
   0.32669728  0.33095835  0.00021340
   0.00736297  0.67141884 -0.00021762
   0.66692878  0.67164290 -0.00000528
   0.33318480  0.67498792  0.00001771
   0.66668075  0.31345255 -0.00000051
  -0.00065166  0.00766002 -0.00000559
   0.98902800  0.32182064 -0.00009250
   0.34331052 -0.00128834  0.00010894
   0.66712574  0.01133186  0.00001272
   0.11733739  0.22763579  0.94728132
   0.22712748  0.11700623  0.05114108
   0.10594024  0.55638539  0.94881059
   0.22266826  0.44142764  0.05045299
   0.11033691  0.88526917  0.94944348
   0.21562013  0.77679520  0.05286649
   0.44174269  0.22342077  0.94860089
   0.55379065  0.10737724  0.05587171
   0.44651550  0.55316099  0.95024949
   0.55466013  0.44520719  0.04806561
   0.44625219  0.89031814  0.94586593
   0.55924774  0.77761649  0.05125343
   0.77930190  0.22019923  0.94402013
   0.88703768  0.11067316  0.05421097
   0.77880849  0.55729627  0.95192279
   0.89146763  0.44840086  0.05143173
   0.77390386  0.88492650  0.94865566
   0.88678842  0.77311346  0.04982434
unknown system                          
           1
     8.255048    4.751718    0.000000
    -8.267966    4.774096    0.000000
     0.000000    0.000000   30.000000
   V    Mo   W    S 
   3   3   3  18
Direct configuration=    16
   0.32678563  0.33106901  0.00022218
   0.00717784  0.67140631 -0.00021606
   0.66683946  0.67140748 -0.00000438
   0.33372128  0.67545783  0.00002075
   0.66660764  0.31370351  0.00000220
  -0.00105366  0.00778880 -0.00000597
   0.98898762  0.32146390 -0.00009369
   0.34347880 -0.00143256  0.00011415
   0.66709408  0.01105195  0.00001436
   0.11730698  0.22757799  0.94729382
   0.22702681  0.11689818  0.05105933
   0.10606517  0.55636104  0.94888982
   0.22270609  0.44151765  0.05039387
   0.11033416  0.88536843  0.94949767
   0.21571991  0.77679974  0.05284628
   0.44164614  0.22339518  0.94863935
   0.55385735  0.10743280  0.05580854
   0.44654645  0.55316765  0.95025102
   0.55455869  0.44524998  0.04809990
   0.44631006  0.89036681  0.94584690
   0.55931533  0.77755132  0.05127035
   0.77924092  0.22020224  0.94408783
   0.88698297  0.11066416  0.05422447
   0.77885393  0.55740158  0.95188839
   0.89153288  0.44842776  0.05138543
   0.77384523  0.88479516  0.94864613
   0.88672669  0.77312057  0.04981724
unknown system                          
           1
     8.256243    4.757864    0.000000
    -8.264595    4.772332    0.000000
     0.000000    0.000000   30.000000
   V    Mo   W    S 
   3   3   3  18
Direct configuration=    17
   0.32605964  0.33110219  0.00024542
   0.00797604  0.67220627 -0.00023984
   0.66686327  0.67215603 -0.00000758
   0.33393630  0.67608085  0.00001132
   0.66654871  0.31249964 -0.00000862
  -0.00134240  0.00816545 -0.00000699
   0.98834009  0.32055847 -0.00011534
   0.34414916 -0.00169159  0.00012192
   0.66713185  0.01139609  0.00000483
   0.11720182  0.22758644  0.94722731
   0.22708659  0.11681958  0.05097442
   0.10600169  0.55620184  0.94895485
   0.22239040  0.44156260  0.05030738
   0.11065533  0.88575152  0.94956795
   0.21583284  0.77692419  0.05295271
   0.44176120  0.22323664  0.94871802
   0.55377672  0.10718967  0.05599732
   0.44639672  0.55323018  0.95031457
   0.55476974  0.44508042  0.04783700
   0.44646099  0.89035756  0.94578882
   0.55922666  0.77771617  0.05126546
   0.77930446  0.22003762  0.94390539
   0.88684515  0.11051648  0.05429669
   0.77865971  0.55702151  0.95214784
   0.89139401  0.44815110  0.05131929
   0.77391748  0.88504055  0.94864491
   0.88687027  0.77331699  0.04977488
unknown system                          
           1
     8.257920    4.753869    0.000000
    -8.270333    4.775370    0.000000
     0.000000    0.000000   30.000000
   V    Mo   W    S 
   3   3   3  18
Direct configuration=    18
   0.32825301  0.33104093  0.00017433
   0.00557427  0.66990081 -0.00020376
   0.66674360  0.66931930 -0.00001845
   0.33391769  0.67522715  0.00005140
   0.66669086  0.31616225 -0.00001663
  -0.00104596  0.00742897 -0.00007985
   0.98973148  0.32232966 -0.00004912
   0.34267689 -0.00128062  0.00001269
   0.66702181  0.01043013 -0.00002184
   0.11745842  0.22757768  0.94747907
   0.22683784  0.11688004  0.05112233
   0.10626184  0.55658503  0.94890788
   0.22327100  0.44152458  0.05039970
   0.10975862  0.88475362  0.94955377
   0.21555185  0.77661950  0.05261419
   0.44136291  0.22366445  0.94858220
   0.55408164  0.10797252  0.05549412
   0.44680465  0.55300201  0.95020017
   0.55400901  0.44549096  0.04862846
   0.44618476  0.89057552  0.94596116
   0.55962483  0.77732540  0.05121843
   0.77903381  0.22049863  0.94445297
   0.88708574  0.11095085  0.05412768
   0.77937388  0.55818855  0.95139808
   0.89188860  0.44903360  0.05143360
   0.77358602  0.88428834  0.94874711
   0.88647537  0.77272459  0.04983022
unknown system                          
           1
     8.255822    4.753400    0.000000
    -8.267581    4.773769    0.000000
     0.000000    0.000000   30.000000
   V    Mo   W    S 
   3   3   3  18
Direct configuration=    19
   0.32720362  0.33113256  0.00025112
   0.00674702  0.67112501 -0.00023304
   0.66672090  0.67001273 -0.00000489
   0.33492770  0.67704833  0.00005188
   0.66657844  0.31456609  0.00001033
  -0.00210824  0.00825157 -0.00002767
   0.98843792  0.32038864 -0.00009057
   0.34403887 -0.00189004  0.00012520
   0.66704288  0.01076450  0.00002066
   0.11725503  0.22758012  0.94731447
   0.22677413  0.11654457  0.05086661
   0.10632639  0.55628875  0.94911935
   0.22273407  0.44175667  0.05018499
   0.11030764  0.88554771  0.94971916
   0.21580581  0.77686410  0.05277974
   0.44151610  0.22336525  0.94870113
   0.55399994  0.10767870  0.05572748
   0.44660427  0.55314946  0.95028364
   0.55427049  0.44519965  0.04825231
   0.44657856  0.89060884  0.94571720
   0.55959345  0.77754994  0.05124488
   0.77911058  0.22031303  0.94417042
   0.88670962  0.11062583  0.05433349
   0.77911931  0.55762169  0.95176266
   0.89167180  0.44853024  0.05128246
   0.77359669  0.88452236  0.94868916
   0.88665145  0.77306816  0.04974773
unknown system                          
           1
     8.260264    4.755459    0.000000
    -8.272454    4.776573    0.000000
     0.000000    0.000000   30.000000
   V    Mo   W    S 
   3   3   3  18
Direct configuration=    20
   0.32776544  0.33106812  0.00023936
   0.00611945  0.67047090 -0.00021900
   0.66668564  0.66928520 -0.00000332
   0.33486157  0.67678041  0.00006589
   0.66660751  0.31540817  0.00001736
  -0.00194505  0.00811028 -0.00003412
   0.98874084  0.32085390 -0.00006765
   0.34372659 -0.00169592  0.00011210
   0.66701665  0.01063500  0.00002702
   0.11731127  0.22759695  0.94737798
   0.22672580  0.11656949  0.05091369
   0.10638125  0.55636560  0.94908248
   0.22293039  0.44173317  0.05020454
   0.11010925  0.88532077  0.94969997
   0.21574946  0.77682118  0.05270001
   0.44145812  0.22347464  0.94865626
   0.55404622  0.10786492  0.05560412
   0.44669185  0.55310544  0.95026552
   0.55412101  0.44528484  0.04843949
   0.44650143  0.89064178  0.94576490
   0.55967548  0.77747872  0.05120140
   0.77906862  0.22044548  0.94428567
   0.88677996  0.11072601  0.05427395
   0.77925173  0.55785189  0.95157503
   0.89175069  0.44870388  0.05132480
   0.77352207  0.88436901  0.94873683
   0.88656117  0.77294461  0.04975560
unknown system                          
           1
     8.261000    4.756119    0.000000
    -8.273045    4.776983    0.000000
     0.000000    0.000000   30.000000
   V    Mo   W    S 
   3   3   3  18
Direct configuration=    21
   0.32767911  0.33101866  0.00024705
   0.00628618  0.67062258 -0.00026232
   0.66666567  0.66862229 -0.00002112
   0.33586276  0.67845037  0.00005590
   0.66659442  0.31537407 -0.00001904
  -0.00290794  0.00870866 -0.00007990
   0.98795628  0.31959770 -0.00010910
   0.34445607 -0.00222030  0.00007620
   0.66698802  0.01060490 -0.00002110
   0.11721138  0.22761488  0.94731589
   0.22659077  0.11626530  0.05079021
   0.10653069  0.55621240  0.94924449
   0.22280090  0.44200097  0.05004629
   0.11024259  0.88569452  0.94987604
   0.21584440  0.77693075  0.05278542
   0.44144058  0.22334321  0.94869654
   0.55411243  0.10795836  0.05574163
   0.44664838  0.55314160  0.95030203
   0.55407668  0.44514810  0.04846422
   0.44676936  0.89082274  0.94559700
   0.55984985  0.77755967  0.05123174
   0.77899393  0.22046335  0.94421069
   0.88650958  0.11061040  0.05448798
   0.77929325  0.55776129  0.95158114
   0.89177164  0.44860379  0.05129533
   0.77336278  0.88429096  0.94874273
   0.88658470  0.77301323  0.04972394
unknown system                          
           1
     8.268291    4.758469    0.000000
    -8.282215    4.782589    0.000000
     0.000000    0.000000   30.000000
   V    Mo   W    S 
   3   3   3  18
Direct configuration=    22
   0.32720508  0.33115786  0.00023849
   0.00676866  0.67120542 -0.00026204
   0.66670830  0.66971609 -0.00002319
   0.33538784  0.67774165  0.00002865
   0.66657266  0.31462348 -0.00003236
  -0.00254967  0.00844992 -0.00007194
   0.98814184  0.31986361 -0.00012910
   0.34431264 -0.00214183  0.00007079
   0.66702566  0.01070440 -0.00003688
   0.11722548  0.22757928  0.94729993
   0.22671568  0.11641630  0.05082684
   0.10639491  0.55623527  0.94919687
   0.22270328  0.44186622  0.05013932
   0.11034471  0.88567175  0.94979672
   0.21582877  0.77688111  0.05281787
   0.44148418  0.22332238  0.94872775
   0.55404952  0.10774335  0.05580257
   0.44659456  0.55314759  0.95028924
   0.55422371  0.44515825  0.04829188
   0.44667645  0.89069090  0.94566843
   0.55968554  0.77756463  0.05127745
   0.77905928  0.22032176  0.94416932
   0.88660676  0.11058420  0.05444309
   0.77915935  0.55762508  0.95174990
   0.89171618  0.44854474  0.05127671
   0.77352283  0.88446470  0.94869442
   0.88665023  0.77307637  0.04974916
unknown system                          
           1
     8.264902    4.755871    0.000000
    -8.279232    4.780694    0.000000
     0.000000    0.000000   30.000000
   V    Mo   W    S 
   3   3   3  18
Direct configuration=    23
   0.32593642  0.33149808  0.00030432
   0.00810224  0.67282884 -0.00025290
   0.66668161  0.67112992  0.00000295
   0.33594871  0.67851443  0.00005054
   0.66642873  0.31300632  0.00002768
  -0.00321393  0.00876157  0.00000751
   0.98758106  0.31862189 -0.00010817
   0.34503938 -0.00267560  0.00019331
   0.66707707  0.01074438  0.00005542
   0.11717583  0.22753458  0.94717674
   0.22674657  0.11630957  0.05059153
   0.10634763  0.55607317  0.94936504
   0.22231146  0.44191162  0.05002825
   0.11075846  0.88617522  0.94986038
   0.21594813  0.77693121  0.05290931
   0.44148624  0.22307644  0.94887011
   0.55400871  0.10735952  0.05591173
   0.44642727  0.55319490  0.95032628
   0.55437123  0.44498906  0.04787454
   0.44691949  0.89066674  0.94550367
   0.55956223  0.77766776  0.05136553
   0.77910761  0.22002828  0.94395671
   0.88638570  0.11038196  0.05451761
   0.77901156  0.55728780  0.95214142
   0.89163494  0.44821941  0.05107561
   0.77361346  0.88466587  0.94854440
   0.88681665  0.77331151  0.04970036
unknown system                          
           1
     8.266099    4.754617    0.000000
    -8.282008    4.782174    0.000000
     0.000000    0.000000   30.000000
   V    Mo   W    S 
   3   3   3  18
Direct configuration=    24
   0.32634109  0.33131217  0.00030699
   0.00772893  0.67230986 -0.00027692
   0.66664612  0.66993461 -0.00000816
   0.33669043  0.67972009  0.00005636
   0.66645135  0.31365140  0.00000888
  -0.00384072  0.00919780 -0.00002828
   0.98714148  0.31799726 -0.00012494
   0.34540671 -0.00290696  0.00016571
   0.66702575  0.01064026  0.00002697
   0.11708408  0.22755096  0.94717617
   0.22657769  0.11605793  0.05052533
   0.10653472  0.55600147  0.94946223
   0.22236391  0.44214849  0.04989547
   0.11070222  0.88633426  0.94999574
   0.21602564  0.77703033  0.05292184
   0.44145801  0.22303153  0.94885886
   0.55406774  0.10758362  0.05590786
   0.44647105  0.55322518  0.95035460
   0.55423953  0.44494029  0.04804213
   0.44707130  0.89084653  0.94540753