       N       E                     dE             d eps       ncg     rms          rms(c)
DAV:   1     0.112384723938E+04    0.11238E+04   -0.35861E+04  8160   0.577E+02
DAV:   2    -0.244537745786E+01   -0.11263E+04   -0.10850E+04 11040   0.173E+02
DAV:   3    -0.199751894017E+03   -0.19731E+03   -0.18940E+03 10960   0.820E+01
DAV:   4    -0.209048993932E+03   -0.92971E+01   -0.89502E+01 11960   0.260E+01
DAV:   5    -0.209403214594E+03   -0.35422E+00   -0.35322E+00 11720   0.381E+00    0.278E+01
DAV:   6    -0.241519458519E+03   -0.32116E+02   -0.11412E+02 12560   0.600E+01    0.608E+01
DAV:   7    -0.196129413883E+03    0.45390E+02   -0.18055E+02 13160   0.151E+02    0.198E+01
DAV:   8    -0.189354124639E+03    0.67753E+01   -0.18433E+01 12080   0.126E+01    0.123E+01
DAV:   9    -0.188081947807E+03    0.12722E+01   -0.30353E+00 13120   0.613E+00    0.890E+00
DAV:  10    -0.186953611959E+03    0.11283E+01   -0.15851E+00 13400   0.724E+00    0.206E+00
DAV:  11    -0.187027069118E+03   -0.73457E-01   -0.51741E-01 13440   0.300E+00    0.358E+00
DAV:  12    -0.186949897167E+03    0.77172E-01   -0.42291E-01 12920   0.372E+00    0.308E+00
DAV:  13    -0.186881216733E+03    0.68680E-01   -0.26054E-01 13280   0.267E+00    0.152E+00
DAV:  14    -0.186856084682E+03    0.25132E-01   -0.80921E-02 12000   0.122E+00    0.832E-01
DAV:  15    -0.186854056191E+03    0.20285E-02   -0.24073E-02 12680   0.808E-01    0.788E-01
DAV:  16    -0.186849153072E+03    0.49031E-02   -0.99965E-03 13040   0.497E-01    0.301E-01
DAV:  17    -0.186847981893E+03    0.11712E-02   -0.56739E-03 12640   0.348E-01    0.242E-01
DAV:  18    -0.186847387753E+03    0.59414E-03   -0.18417E-03 12680   0.194E-01    0.916E-02
DAV:  19    -0.186847435408E+03   -0.47655E-04   -0.58476E-04  9040   0.720E-02
   1 F= -.18684744E+03 E0= -.18667422E+03  d E =-.186847E+03
       N       E                     dE             d eps       ncg     rms          rms(c)
DAV:   1    -0.187518714404E+03   -0.67133E+00   -0.27460E+02  8160   0.351E+01    0.471E+00
DAV:   2    -0.189634470321E+03   -0.21158E+01   -0.20464E+01 11920   0.158E+01    0.107E+01
DAV:   3    -0.189311135317E+03    0.32334E+00   -0.50279E+00 12280   0.128E+01    0.622E+00
DAV:   4    -0.188779677723E+03    0.53146E+00   -0.64612E-01 12400   0.436E+00    0.236E+00
DAV:   5    -0.188895628691E+03   -0.11595E+00   -0.51622E-01 11080   0.396E+00    0.558E+00
DAV:   6    -0.188752349800E+03    0.14328E+00   -0.80528E-01 12400   0.420E+00    0.243E+00
DAV:   7    -0.188711051790E+03    0.41298E-01   -0.24920E-01 11920   0.224E+00    0.219E+00
DAV:   8    -0.188697205889E+03    0.13846E-01   -0.17259E-01 11720   0.223E+00    0.194E+00
DAV:   9    -0.188667304656E+03    0.29901E-01   -0.68683E-02 11880   0.120E+00    0.552E-01
DAV:  10    -0.188665035204E+03    0.22695E-02   -0.73871E-03 10880   0.282E-01    0.292E-01
DAV:  11    -0.188664549300E+03    0.48590E-03   -0.27031E-03 12920   0.213E-01    0.119E-01
DAV:  12    -0.188664622110E+03   -0.72809E-04   -0.10994E-03 11000   0.104E-01    0.875E-02
DAV:  13    -0.188664767738E+03   -0.14563E-03   -0.31073E-04  8000   0.593E-02    0.407E-02
DAV:  14    -0.188664848292E+03   -0.80554E-04   -0.11631E-04  7840   0.341E-02
   2 F= -.18866485E+03 E0= -.18852236E+03  d E =-.181741E+01
       N       E                     dE             d eps       ncg     rms          rms(c)
DAV:   1    -0.190621661406E+03   -0.19569E+01   -0.31801E+01  8960   0.143E+01    0.447E+00
DAV:   2    -0.190553531857E+03    0.68130E-01   -0.28168E+00 12120   0.919E+00    0.727E+00
DAV:   3    -0.190112132260E+03    0.44140E+00   -0.15328E+00 12240   0.845E+00    0.438E+00
DAV:   4    -0.189882542150E+03    0.22959E+00   -0.72852E-01 12960   0.437E+00    0.249E+00
DAV:   5    -0.189867416194E+03    0.15126E-01   -0.38692E-01 12400   0.318E+00    0.306E+00
DAV:   6    -0.189783854521E+03    0.83562E-01   -0.17591E-01 12360   0.257E+00    0.728E-01
DAV:   7    -0.189778915876E+03    0.49386E-02   -0.16414E-02 11840   0.642E-01    0.466E-01
DAV:   8    -0.189778198334E+03    0.71754E-03   -0.69964E-03 11760   0.494E-01    0.335E-01
DAV:   9    -0.189777312936E+03    0.88540E-03   -0.21698E-03 11600   0.226E-01    0.118E-01
DAV:  10    -0.189777613309E+03   -0.30037E-03   -0.70696E-04 10480   0.101E-01    0.897E-02
DAV:  11    -0.189777485578E+03    0.12773E-03   -0.28377E-04  8920   0.571E-02    0.239E-02
DAV:  12    -0.189777521634E+03   -0.36056E-04   -0.46781E-05  6560   0.222E-02
   3 F= -.18977752E+03 E0= -.18965685E+03  d E =-.111267E+01
       N       E                     dE             d eps       ncg     rms          rms(c)
DAV:   1    -0.191416416628E+03   -0.16389E+01   -0.81571E+01  8160   0.206E+01    0.468E+00
DAV:   2    -0.191145618622E+03    0.27080E+00   -0.54388E+00 13280   0.684E+00    0.385E+00
DAV:   3    -0.191465906165E+03   -0.32029E+00   -0.15737E+00 12080   0.874E+00    0.820E+00
DAV:   4    -0.191009354561E+03    0.45655E+00   -0.22074E+00 11480   0.942E+00    0.376E+00
DAV:   5    -0.190999609955E+03    0.97446E-02   -0.76256E-01 12040   0.551E+00    0.372E+00
DAV:   6    -0.190814541571E+03    0.18507E+00   -0.23835E-01 12280   0.329E+00    0.731E-01
DAV:   7    -0.190814634648E+03   -0.93077E-04   -0.38171E-02 12440   0.870E-01    0.697E-01
DAV:   8    -0.190812664866E+03    0.19698E-02   -0.19748E-02 12040   0.894E-01    0.631E-01
DAV:   9    -0.190808777494E+03    0.38874E-02   -0.67007E-03 11560   0.523E-01    0.179E-01
DAV:  10    -0.190809091810E+03   -0.31432E-03   -0.16848E-03 11160   0.152E-01    0.126E-01
DAV:  11    -0.190808874786E+03    0.21702E-03   -0.69122E-04 10840   0.102E-01    0.435E-02
DAV:  12    -0.190808890012E+03   -0.15226E-04   -0.10052E-04  6560   0.349E-02
   4 F= -.19080889E+03 E0= -.19070559E+03  d E =-.103137E+01
       N       E                     dE             d eps       ncg     rms          rms(c)
DAV:   1    -0.192222850849E+03   -0.14140E+01   -0.17887E+02  8160   0.297E+01    0.579E+00
DAV:   2    -0.191991567159E+03    0.23128E+00   -0.98338E+00 11200   0.776E+00    0.403E+00
DAV:   3    -0.192434796371E+03   -0.44323E+00   -0.31343E+00 12320   0.111E+01    0.729E+00
DAV:   4    -0.191689076576E+03    0.74572E+00   -0.10775E+00 12400   0.824E+00    0.277E+00
DAV:   5    -0.191742841232E+03   -0.53765E-01   -0.58705E-01 11880   0.541E+00    0.482E+00
DAV:   6    -0.191545887681E+03    0.19695E+00   -0.57998E-01 12200   0.490E+00    0.105E+00
DAV:   7    -0.191538490744E+03    0.73969E-02   -0.54479E-02 12000   0.117E+00    0.672E-01
DAV:   8    -0.191536730014E+03    0.17607E-02   -0.26552E-02 12440   0.999E-01    0.694E-01
DAV:   9    -0.191532249399E+03    0.44806E-02   -0.10864E-02 11560   0.637E-01    0.176E-01
DAV:  10    -0.191532259610E+03   -0.10211E-04   -0.23846E-03 11560   0.164E-01    0.834E-02
DAV:  11    -0.191532273201E+03   -0.13591E-04   -0.42105E-04  9480   0.879E-02
   5 F= -.19153227E+03 E0= -.19143438E+03  d E =-.723383E+00
       N       E                     dE             d eps       ncg     rms          rms(c)
DAV:   1    -0.191606207072E+03   -0.73947E-01   -0.69468E+00  8160   0.557E+00    0.813E-01
DAV:   2    -0.191707194884E+03   -0.10099E+00   -0.38860E-01 13000   0.352E+00    0.285E+00
DAV:   3    -0.191620553002E+03    0.86642E-01   -0.15811E-01 12520   0.295E+00    0.479E-01
DAV:   4    -0.191624804864E+03   -0.42519E-02   -0.23413E-02 11640   0.938E-01    0.866E-01
DAV:   5    -0.191617702209E+03    0.71027E-02   -0.16045E-02 11640   0.817E-01    0.218E-01
DAV:   6    -0.191618938281E+03   -0.12361E-02   -0.56183E-03 11520   0.415E-01    0.412E-01
DAV:   7    -0.191617577442E+03    0.13608E-02   -0.53551E-03 11400   0.458E-01    0.188E-01
DAV:   8    -0.191617196804E+03    0.38064E-03   -0.96958E-04 10120   0.163E-01    0.437E-02
DAV:   9    -0.191617200537E+03   -0.37328E-05   -0.12381E-04  6360   0.417E-02
   6 F= -.19161720E+03 E0= -.19151731E+03  d E =-.849273E-01
       N       E                     dE             d eps       ncg     rms          rms(c)
DAV:   1    -0.191686905640E+03   -0.69709E-01   -0.65575E+00  8160   0.539E+00    0.716E-01
DAV:   2    -0.191762974129E+03   -0.76068E-01   -0.27275E-01 13520   0.303E+00    0.255E+00
DAV:   3    -0.191695410877E+03    0.67563E-01   -0.13001E-01 12440   0.262E+00    0.511E-01
DAV:   4    -0.191698808386E+03   -0.33975E-02   -0.23969E-02 11560   0.927E-01    0.803E-01
DAV:   5    -0.191692528918E+03    0.62795E-02   -0.13548E-02 11680   0.726E-01    0.177E-01
DAV:   6    -0.191692993199E+03   -0.46428E-03   -0.31274E-03 11560   0.273E-01    0.253E-01
DAV:   7    -0.191692768946E+03    0.22425E-03   -0.34891E-03 11680   0.377E-01    0.236E-01
DAV:   8    -0.191692216173E+03    0.55277E-03   -0.11930E-03  9760   0.209E-01    0.422E-02
DAV:   9    -0.191692210179E+03    0.59946E-05   -0.10065E-04  6000   0.409E-02
   7 F= -.19169221E+03 E0= -.19159167E+03  d E =-.750096E-01
       N       E                     dE             d eps       ncg     rms          rms(c)
DAV:   1    -0.191733660185E+03   -0.41444E-01   -0.19000E+00  8160   0.295E+00    0.402E-01
DAV:   2    -0.191755450174E+03   -0.21790E-01   -0.86658E-02 13280   0.171E+00    0.138E+00
DAV:   3    -0.191736124592E+03    0.19326E-01   -0.36783E-02 12200   0.138E+00    0.295E-01
DAV:   4    -0.191737564551E+03   -0.14400E-02   -0.88768E-03 11440   0.571E-01    0.490E-01
DAV:   5    -0.191735116557E+03    0.24480E-02   -0.49062E-03 11320   0.442E-01    0.965E-02
DAV:   6    -0.191735197119E+03   -0.80562E-04   -0.97696E-04 10200   0.113E-01
   8 F= -.19173520E+03 E0= -.19163504E+03  d E =-.429869E-01
       N       E                     dE             d eps       ncg     rms          rms(c)
DAV:   1    -0.191757942508E+03   -0.22826E-01   -0.53943E-01  8160   0.159E+00    0.239E-01
DAV:   2    -0.191765533520E+03   -0.75910E-02   -0.28832E-02 12920   0.993E-01    0.842E-01
DAV:   3    -0.191758399226E+03    0.71343E-02   -0.13145E-02 11760   0.812E-01    0.168E-01
DAV:   4    -0.191758974440E+03   -0.57521E-03   -0.29863E-03 10120   0.342E-01    0.283E-01
DAV:   5    -0.191758118731E+03    0.85571E-03   -0.16154E-03  9880   0.265E-01    0.658E-02
DAV:   6    -0.191758274002E+03   -0.15527E-03   -0.60679E-04  8360   0.145E-01    0.138E-01
DAV:   7    -0.191758119485E+03    0.15452E-03   -0.54904E-04  8280   0.157E-01    0.638E-02
DAV:   8    -0.191758075104E+03    0.44381E-04   -0.87887E-05  6000   0.544E-02
   9 F= -.19175808E+03 E0= -.19165819E+03  d E =-.228780E-01
       N       E                     dE             d eps       ncg     rms          rms(c)
DAV:   1    -0.191723427558E+03    0.34692E-01   -0.12559E+00  8160   0.243E+00    0.381E-01
DAV:   2    -0.191737271999E+03   -0.13844E-01   -0.64636E-02 12440   0.146E+00    0.110E+00
DAV:   3    -0.191723717795E+03    0.13554E-01   -0.21819E-02 12400   0.112E+00    0.214E-01
DAV:   4    -0.191725101459E+03   -0.13837E-02   -0.64045E-03 11440   0.486E-01    0.472E-01
DAV:   5    -0.191723024943E+03    0.20765E-02   -0.53769E-03 11600   0.473E-01    0.139E-01
DAV:   6    -0.191722972301E+03    0.52641E-04   -0.12507E-03 10240   0.169E-01    0.114E-01
DAV:   7    -0.191722938404E+03    0.33898E-04   -0.81150E-04 10120   0.181E-01
  10 F= -.19172294E+03 E0= -.19162274E+03  d E =0.351367E-01
       N       E                     dE             d eps       ncg     rms          rms(c)
DAV:   1    -0.191822887220E+03   -0.99915E-01   -0.10811E+01  8160   0.708E+00    0.888E-01
DAV:   2    -0.191910156938E+03   -0.87270E-01   -0.42290E-01 13400   0.338E+00    0.285E+00
DAV:   3    -0.191840361226E+03    0.69796E-01   -0.18144E-01 12400   0.287E+00    0.808E-01
DAV:   4    -0.191844558864E+03   -0.41976E-02   -0.45013E-02 12080   0.141E+00    0.106E+00
DAV:   5    -0.191831695127E+03    0.12864E-01   -0.22051E-02 12080   0.104E+00    0.238E-01
DAV:   6    -0.191832182330E+03   -0.48720E-03   -0.65445E-03 11640   0.341E-01    0.284E-01
DAV:   7    -0.191831633883E+03    0.54845E-03   -0.41904E-03 11840   0.430E-01    0.275E-01
DAV:   8    -0.191830887502E+03    0.74638E-03   -0.15498E-03  9720   0.257E-01    0.525E-02
DAV:   9    -0.191830857258E+03    0.30244E-04   -0.13356E-04  6160   0.490E-02
  11 F= -.19183086E+03 E0= -.19173367E+03  d E =-.107919E+00
       N       E                     dE             d eps       ncg     rms          rms(c)
DAV:   1    -0.191827917734E+03    0.29698E-02   -0.57569E-02  8160   0.521E-01    0.782E-02
DAV:   2    -0.191828029204E+03   -0.11147E-03   -0.21710E-03 11880   0.180E-01    0.127E-01
DAV:   3    -0.191827980480E+03    0.48723E-04   -0.94597E-04  9080   0.198E-01
  12 F= -.19182798E+03 E0= -.19173079E+03  d E =0.287678E-02
       N       E                     dE             d eps       ncg     rms          rms(c)
DAV:   1    -0.191825120814E+03    0.29084E-02   -0.98627E-02  8160   0.722E-01    0.145E-01
DAV:   2    -0.191827735362E+03   -0.26145E-02   -0.10483E-02 12200   0.604E-01    0.529E-01
DAV:   3    -0.191824984765E+03    0.27506E-02   -0.53021E-03 11040   0.487E-01    0.909E-02
DAV:   4    -0.191825129695E+03   -0.14493E-03   -0.65536E-04  8640   0.190E-01    0.150E-01
DAV:   5    -0.191824906796E+03    0.22290E-03   -0.53679E-04  8320   0.175E-01    0.679E-02
DAV:   6    -0.191824918528E+03   -0.11731E-04   -0.27151E-04  6880   0.105E-01
  13 F= -.19182492E+03 E0= -.19172761E+03  d E =0.306195E-02
       N       E                     dE             d eps       ncg     rms          rms(c)
DAV:   1    -0.191886732578E+03   -0.61826E-01   -0.78361E+00  8160   0.609E+00    0.972E-01
DAV:   2    -0.191971430779E+03   -0.84698E-01   -0.42527E-01 12280   0.348E+00    0.276E+00
DAV:   3    -0.191889695405E+03    0.81735E-01   -0.15568E-01 12280   0.297E+00    0.778E-01
DAV:   4    -0.191891225981E+03   -0.15306E-02   -0.30110E-02 11560   0.130E+00    0.978E-01
DAV:   5    -0.191883635318E+03    0.75907E-02   -0.30514E-02 11560   0.125E+00    0.587E-01
DAV:   6    -0.191883163035E+03    0.47228E-03   -0.15508E-02 11440   0.835E-01    0.557E-01
DAV:   7    -0.191879883295E+03    0.32797E-02   -0.71798E-03 11960   0.638E-01    0.158E-01
DAV:   8    -0.191879609819E+03    0.27348E-03   -0.10163E-03 10320   0.164E-01    0.598E-02
DAV:   9    -0.191879544167E+03    0.65652E-04   -0.17273E-04  7760   0.514E-02
  14 F= -.19187954E+03 E0= -.19178590E+03  d E =-.546256E-01
       N       E                     dE             d eps       ncg     rms          rms(c)
DAV:   1    -0.191881430480E+03   -0.18207E-02   -0.52854E-02  8160   0.498E-01    0.816E-02
DAV:   2    -0.191882435284E+03   -0.10048E-02   -0.38502E-03 12440   0.346E-01    0.303E-01
DAV:   3    -0.191881500351E+03    0.93493E-03   -0.17004E-03  9960   0.298E-01    0.508E-02
DAV:   4    -0.191881522275E+03   -0.21924E-04   -0.13608E-04  6160   0.716E-02
  15 F= -.19188152E+03 E0= -.19178770E+03  d E =-.197811E-02
       N       E                     dE             d eps       ncg     rms          rms(c)
DAV:   1    -0.191935819843E+03   -0.54319E-01   -0.17496E+01  8160   0.903E+00    0.112E+00
DAV:   2    -0.192059478697E+03   -0.12366E+00   -0.81385E-01 13280   0.388E+00    0.278E+00
DAV:   3    -0.191982200402E+03    0.77278E-01   -0.19772E-01 12200   0.337E+00    0.104E+00
DAV:   4    -0.191980162138E+03    0.20383E-02   -0.40494E-02 11560   0.137E+00    0.108E+00
DAV:   5    -0.191969930045E+03    0.10232E-01   -0.30096E-02 12360   0.127E+00    0.545E-01
DAV:   6    -0.191969760482E+03    0.16956E-03   -0.14146E-02 12720   0.789E-01    0.531E-01
DAV:   7    -0.191968269188E+03    0.14913E-02   -0.96094E-03 11280   0.772E-01    0.368E-01
DAV:   8    -0.191966305536E+03    0.19637E-02   -0.34362E-03 11720   0.396E-01    0.689E-02
DAV:   9    -0.191966253177E+03    0.52360E-04   -0.37224E-04  9440   0.696E-02
  16 F= -.19196625E+03 E0= -.19187458E+03  d E =-.847309E-01
       N       E                     dE             d eps       ncg     rms          rms(c)
DAV:   1    -0.192004168380E+03   -0.37863E-01   -0.84100E+00  8160   0.624E+00    0.752E-01
DAV:   2    -0.192059087250E+03   -0.54919E-01   -0.33770E-01 12240   0.264E+00    0.194E+00
DAV:   3    -0.192021424996E+03    0.37662E-01   -0.92455E-02 12280   0.231E+00    0.676E-01
DAV:   4    -0.192021934751E+03   -0.50975E-03   -0.19760E-02 11920   0.994E-01    0.787E-01
DAV:   5    -0.192016089880E+03    0.58449E-02   -0.13861E-02 12360   0.898E-01    0.339E-01
DAV:   6    -0.192016149211E+03   -0.59330E-04   -0.59349E-03 11600   0.523E-01    0.356E-01
DAV:   7    -0.192015461566E+03    0.68765E-03   -0.41328E-03 11520   0.515E-01    0.238E-01
DAV:   8    -0.192014631909E+03    0.82966E-03   -0.14670E-03 11680   0.260E-01    0.439E-02
DAV:   9    -0.192014611196E+03    0.20713E-04   -0.13630E-04  6760   0.466E-02
  17 F= -.19201461E+03 E0= -.19192398E+03  d E =-.483580E-01
       N       E                     dE             d eps       ncg     rms          rms(c)
DAV:   1    -0.192100633934E+03   -0.86002E-01   -0.35383E+00  8160   0.442E+00    0.109E+00
DAV:   2    -0.192139814148E+03   -0.39180E-01   -0.25468E-01 12400   0.295E+00    0.279E+00
DAV:   3    -0.192079006164E+03    0.60808E-01   -0.16730E-01 12360   0.296E+00    0.964E-01
DAV:   4    -0.192086414887E+03   -0.74087E-02   -0.62411E-02 12240   0.195E+00    0.139E+00
DAV:   5    -0.192064780074E+03    0.21635E-01   -0.43150E-02 12000   0.161E+00    0.413E-01
DAV:   6    -0.192062108976E+03    0.26711E-02   -0.10860E-02 10640   0.524E-01    0.220E-01
DAV:   7    -0.192061985343E+03    0.12363E-03   -0.25981E-03 12280   0.380E-01    0.190E-01
DAV:   8    -0.192061619708E+03    0.36564E-03   -0.61285E-04  8920   0.185E-01    0.512E-02
DAV:   9    -0.192061572979E+03    0.46729E-04   -0.10162E-04  6360   0.449E-02
  18 F= -.19206157E+03 E0= -.19196926E+03  d E =-.469618E-01
       N       E                     dE             d eps       ncg     rms          rms(c)
DAV:   1    -0.192092763605E+03   -0.31144E-01   -0.34583E+00  8160   0.392E+00    0.461E-01
DAV:   2    -0.192113900085E+03   -0.21136E-01   -0.15571E-01 11400   0.179E+00    0.104E+00
DAV:   3    -0.192102904818E+03    0.10995E-01   -0.29141E-02 12320   0.135E+00    0.441E-01
DAV:   4    -0.192102370190E+03    0.53463E-03   -0.72282E-03 12280   0.620E-01    0.424E-01
DAV:   5    -0.192100862031E+03    0.15082E-02   -0.39640E-03 11160   0.499E-01    0.210E-01
DAV:   6    -0.192100664729E+03    0.19730E-03   -0.17526E-03 12560   0.238E-01    0.144E-01
DAV:   7    -0.192100868487E+03   -0.20376E-03   -0.15563E-03 10960   0.311E-01    0.206E-01
DAV:   8    -0.192100385729E+03    0.48276E-03   -0.69321E-04  8560   0.210E-01    0.260E-02
DAV:   9    -0.192100389664E+03   -0.39349E-05   -0.59709E-05  5840   0.297E-02
  19 F= -.19210039E+03 E0= -.19200844E+03  d E =-.388167E-01
       N       E                     dE             d eps       ncg     rms          rms(c)
DAV:   1    -0.192115818875E+03   -0.15433E-01   -0.56098E-01  8160   0.165E+00    0.269E-01
DAV:   2    -0.192119383224E+03   -0.35643E-02   -0.25521E-02 12560   0.801E-01    0.630E-01
DAV:   3    -0.192115815100E+03    0.35681E-02   -0.90316E-03 12440   0.740E-01    0.230E-01
DAV:   4    -0.192115963674E+03   -0.14857E-03   -0.27638E-03 11520   0.392E-01    0.293E-01
DAV:   5    -0.192115111515E+03    0.85216E-03   -0.20963E-03 10240   0.367E-01    0.120E-01
DAV:   6    -0.192115095596E+03    0.15919E-04   -0.72989E-04  9880   0.190E-01
  20 F= -.19211510E+03 E0= -.19202230E+03  d E =-.147059E-01
       N       E                     dE             d eps       ncg     rms          rms(c)
DAV:   1    -0.192151991111E+03   -0.36880E-01   -0.32133E+00  8160   0.393E+00    0.602E-01
DAV:   2    -0.192166354843E+03   -0.14364E-01   -0.13557E-01 13000   0.161E+00    0.124E+00
DAV:   3    -0.192154638003E+03    0.11717E-01   -0.41246E-02 12360   0.156E+00    0.592E-01
DAV:   4    -0.192152885949E+03    0.17521E-02   -0.12346E-02 12240   0.811E-01    0.546E-01
DAV:   5    -0.192150318562E+03    0.25674E-02   -0.91252E-03 11680   0.774E-01    0.314E-01
DAV:   6    -0.192149633271E+03    0.68529E-03   -0.35761E-03 11200   0.408E-01    0.209E-01
DAV:   7    -0.192149360646E+03    0.27262E-03   -0.16006E-03 11000   0.330E-01    0.138E-01
DAV:   8    -0.192149106417E+03    0.25423E-03   -0.36015E-04  8680   0.145E-01    0.266E-02
DAV:   9    -0.192149096953E+03    0.94640E-05   -0.60544E-05  6680   0.303E-02
  21 F= -.19214910E+03 E0= -.19205528E+03  d E =-.340014E-01
       N       E                     dE             d eps       ncg     rms          rms(c)
DAV:   1    -0.192165737025E+03   -0.16631E-01   -0.10778E+00  8160   0.221E+00    0.246E-01
DAV:   2    -0.192169505207E+03   -0.37682E-02   -0.36416E-02 11000   0.753E-01    0.434E-01
DAV:   3    -0.192168168166E+03    0.13370E-02   -0.67664E-03 12400   0.638E-01    0.280E-01
DAV:   4    -0.192167625939E+03    0.54223E-03   -0.19808E-03 10960   0.336E-01    0.193E-01
DAV:   5    -0.192167432113E+03    0.19383E-03   -0.11266E-03 10240   0.283E-01    0.145E-01
DAV:   6    -0.192167347285E+03    0.84828E-04   -0.72803E-04 11320   0.180E-01
  22 F= -.19216735E+03 E0= -.19207340E+03  d E =-.182503E-01
       N       E                     dE             d eps       ncg     rms          rms(c)
DAV:   1    -0.192180221381E+03   -0.12789E-01   -0.48851E-01  8160   0.153E+00    0.208E-01
DAV:   2    -0.192182024558E+03   -0.18032E-02   -0.19030E-02 12520   0.511E-01    0.368E-01
DAV:   3    -0.192181182181E+03    0.84238E-03   -0.48285E-03 12480   0.538E-01    0.248E-01
DAV:   4    -0.192180722674E+03    0.45951E-03   -0.13516E-03  9920   0.260E-01    0.151E-01
DAV:   5    -0.192180547823E+03    0.17485E-03   -0.72472E-04 10640   0.231E-01    0.102E-01
DAV:   6    -0.192180495324E+03    0.52499E-04   -0.36068E-04  8440   0.134E-01
  23 F= -.19218050E+03 E0= -.19208654E+03  d E =-.131480E-01
       N       E                     dE             d eps       ncg     rms          rms(c)
DAV:   1    -0.192209557719E+03   -0.29010E-01   -0.27113E+00  8160   0.357E+00    0.430E-01
DAV:   2    -0.192215412913E+03   -0.58552E-02   -0.87620E-02 11360   0.919E-01    0.507E-01
DAV:   3    -0.192216715519E+03   -0.13026E-02   -0.16535E-02 12320   0.102E+00    0.642E-01
DAV:   4    -0.192212348407E+03    0.43671E-02   -0.65777E-03 12360   0.638E-01    0.199E-01
DAV:   5    -0.192213038836E+03   -0.69043E-03   -0.32358E-03 11480   0.456E-01    0.337E-01
DAV:   6    -0.192212079768E+03    0.95907E-03   -0.23207E-03 11880   0.389E-01    0.115E-01
DAV:   7    -0.192211843373E+03    0.23640E-03   -0.52876E-04  9840   0.124E-01    0.378E-02
DAV:   8    -0.192211841667E+03    0.17067E-05   -0.82906E-05  8040   0.732E-02
  24 F= -.19221184E+03 E0= -.19211752E+03  d E =-.313463E-01
       N       E                     dE             d eps       ncg     rms          rms(c)
DAV:   1    -0.192216959521E+03   -0.51161E-02   -0.65490E-02  8160   0.557E-01    0.721E-02
DAV:   2    -0.192217142940E+03   -0.18342E-03   -0.21004E-03 10640   0.160E-01    0.106E-01
DAV:   3    -0.192217078271E+03    0.64670E-04   -0.41105E-04 10120   0.172E-01
  25 F= -.19221708E+03 E0= -.19212254E+03  d E =-.523660E-02
       N       E                     dE             d eps       ncg     rms          rms(c)
DAV:   1    -0.192226746173E+03   -0.96032E-02   -0.32812E-01  8160   0.125E+00    0.179E-01
DAV:   2    -0.192227801991E+03   -0.10558E-02   -0.12718E-02 11440   0.508E-01    0.277E-01
DAV:   3    -0.192227131986E+03    0.67001E-03   -0.26186E-03 12440   0.428E-01    0.153E-01
DAV:   4    -0.192226861219E+03    0.27077E-03   -0.81127E-04  9520   0.198E-01    0.948E-02
DAV:   5    -0.192227015966E+03   -0.15475E-03   -0.67830E-04  9560   0.203E-01    0.160E-01
DAV:   6    -0.192226764996E+03    0.25097E-03   -0.44223E-04  8840   0.168E-01    0.342E-02
DAV:   7    -0.192226760231E+03    0.47646E-05   -0.70504E-05  5920   0.412E-02
  26 F= -.19222676E+03 E0= -.19213280E+03  d E =-.968196E-02
       N       E                     dE             d eps       ncg     rms          rms(c)
DAV:   1    -0.192239482496E+03   -0.12718E-01   -0.30210E-01  8160   0.126E+00    0.248E-01
DAV:   2    -0.192239765663E+03   -0.28317E-03   -0.12241E-02 10720   0.517E-01    0.377E-01
DAV:   3    -0.192238846864E+03    0.91880E-03   -0.49794E-03 12160   0.608E-01    0.262E-01
DAV:   4    -0.192237952843E+03    0.89402E-03   -0.17587E-03 11440   0.309E-01    0.984E-02
DAV:   5    -0.192237974866E+03   -0.22023E-04   -0.78850E-04  9680   0.206E-01
  27 F= -.19223797E+03 E0= -.19214315E+03  d E =-.112146E-01
       N       E                     dE             d eps       ncg     rms          rms(c)
DAV:   1    -0.192268739146E+03   -0.30786E-01   -0.18967E+00  8160   0.299E+00    0.392E-01
DAV:   2    -0.192270501185E+03   -0.17620E-02   -0.54721E-02 11240   0.698E-01    0.323E-01
DAV:   3    -0.192273259191E+03   -0.27580E-02   -0.10388E-02 12280   0.855E-01    0.605E-01
DAV:   4    -0.192269004132E+03    0.42551E-02   -0.58426E-03 11440   0.672E-01    0.168E-01
DAV:   5    -0.192269599586E+03   -0.59545E-03   -0.22595E-03 10760   0.386E-01    0.292E-01
DAV:   6    -0.192268786197E+03    0.81339E-03   -0.18255E-03 11800   0.354E-01    0.103E-01
DAV:   7    -0.192268701237E+03    0.84960E-04   -0.38513E-04  8560   0.150E-01
  28 F= -.19226870E+03 E0= -.19217457E+03  d E =-.307264E-01
       N       E                     dE             d eps       ncg     rms          rms(c)
DAV:   1    -0.192277070608E+03   -0.82844E-02   -0.12660E-01  8160   0.773E-01    0.122E-01
DAV:   2    -0.192277441731E+03   -0.37112E-03   -0.47703E-03 10840   0.304E-01    0.196E-01
DAV:   3    -0.192277157352E+03    0.28438E-03   -0.12225E-03 11080   0.296E-01    0.123E-01
DAV:   4    -0.192277047190E+03    0.11016E-03   -0.43739E-04  8680   0.163E-01    0.886E-02
DAV:   5    -0.192277028588E+03    0.18601E-04   -0.32758E-04  8600   0.157E-01
  29 F= -.19227703E+03 E0= -.19218324E+03  d E =-.832735E-02
       N       E                     dE             d eps       ncg     rms          rms(c)
DAV:   1    -0.192311923117E+03   -0.34876E-01   -0.20676E+00  8160   0.310E+00    0.400E-01
DAV:   2    -0.192317877842E+03   -0.59547E-02   -0.59411E-02 11200   0.971E-01    0.659E-01
DAV:   3    -0.192314515298E+03    0.33625E-02   -0.12975E-02 11960   0.970E-01    0.400E-01
DAV:   4    -0.192313036566E+03    0.14787E-02   -0.36234E-03 11480   0.469E-01    0.230E-01
DAV:   5    -0.192313068109E+03   -0.31543E-04   -0.26336E-03 10400   0.450E-01    0.238E-01
DAV:   6    -0.192312467704E+03    0.60041E-03   -0.14252E-03 10440   0.285E-01    0.895E-02
DAV:   7    -0.192312458002E+03    0.97018E-05   -0.38360E-04  8960   0.173E-01
  30 F= -.19231246E+03 E0= -.19221922E+03  d E =-.354294E-01
       N       E                     dE             d eps       ncg     rms          rms(c)
DAV:   1    -0.192318975927E+03   -0.65082E-02   -0.66124E-02  8160   0.567E-01    0.892E-02
DAV:   2    -0.192319090326E+03   -0.11440E-03   -0.23525E-03 11160   0.176E-01    0.117E-01
DAV:   3    -0.192319070563E+03    0.19762E-04   -0.66905E-04 10960   0.217E-01
  31 F= -.19231907E+03 E0= -.19222583E+03  d E =-.661256E-02
       N       E                     dE             d eps       ncg     rms          rms(c)
DAV:   1    -0.192353903589E+03   -0.34813E-01   -0.18531E+00  8160   0.298E+00    0.431E-01
DAV:   2    -0.192357942025E+03   -0.40384E-02   -0.58349E-02 11240   0.961E-01    0.626E-01
DAV:   3    -0.192355881988E+03    0.20600E-02   -0.15208E-02 12360   0.104E+00    0.491E-01
DAV:   4    -0.192353100938E+03    0.27810E-02   -0.48973E-03 12200   0.526E-01    0.170E-01
DAV:   5    -0.192353134405E+03   -0.33468E-04   -0.26915E-03 11480   0.330E-01    0.229E-01
DAV:   6    -0.192352751491E+03    0.38291E-03   -0.17742E-03 11960   0.359E-01    0.139E-01
DAV:   7    -0.192352505319E+03    0.24617E-03   -0.40269E-04  8680   0.152E-01    0.333E-02
DAV:   8    -0.192352499733E+03    0.55863E-05   -0.71052E-05  6640   0.571E-02
  32 F= -.19235250E+03 E0= -.19225890E+03  d E =-.334292E-01
       N       E                     dE             d eps       ncg     rms          rms(c)
DAV:   1    -0.192373282037E+03   -0.20777E-01   -0.72042E-01  8160   0.183E+00    0.272E-01
DAV:   2    -0.192377255156E+03   -0.39731E-02   -0.27577E-02 10680   0.847E-01    0.565E-01
DAV:   3    -0.192373792748E+03    0.34624E-02   -0.71736E-03 11680   0.728E-01    0.194E-01
DAV:   4    -0.192373595192E+03    0.19756E-03   -0.14582E-03 10920   0.297E-01    0.180E-01
DAV:   5    -0.192373442268E+03    0.15292E-03   -0.12292E-03 10320   0.316E-01    0.147E-01
DAV:   6    -0.192373198897E+03    0.24337E-03   -0.64055E-04 10000   0.171E-01    0.437E-02
DAV:   7    -0.192373204159E+03   -0.52620E-05   -0.11512E-04  6480   0.848E-02
  33 F= -.19237320E+03 E0= -.19227995E+03  d E =-.207044E-01
       N       E                     dE             d eps       ncg     rms          rms(c)
DAV:   1    -0.192399069488E+03   -0.25871E-01   -0.13353E+00  8160   0.249E+00    0.323E-01
DAV:   2    -0.192403954167E+03   -0.48847E-02   -0.43706E-02 10960   0.866E-01    0.562E-01
DAV:   3    -0.192401120820E+03    0.28333E-02   -0.96487E-03 11960   0.836E-01    0.304E-01
DAV:   4    -0.192400132400E+03    0.98842E-03   -0.19606E-03 11480   0.328E-01    0.145E-01
DAV:   5    -0.192400237376E+03   -0.10498E-03   -0.14018E-03 11120   0.314E-01    0.181E-01
DAV:   6    -0.192399893709E+03    0.34367E-03   -0.77056E-04  9640   0.226E-01    0.605E-02
DAV:   7    -0.192399845671E+03    0.48038E-04   -0.15412E-04  6840   0.931E-02
  34 F= -.19239985E+03 E0= -.19230649E+03  d E =-.266415E-01
       N       E                     dE             d eps       ncg     rms          rms(c)
DAV:   1    -0.192440453900E+03   -0.40560E-01   -0.58547E+00  8160   0.520E+00    0.653E-01
DAV:   2    -0.192463054861E+03   -0.22601E-01   -0.19772E-01 10880   0.183E+00    0.113E+00
DAV:   3    -0.192449997236E+03    0.13058E-01   -0.37953E-02 11680   0.166E+00    0.539E-01
DAV:   4    -0.192446955678E+03    0.30416E-02   -0.74914E-03 12200   0.676E-01    0.323E-01
DAV:   5    -0.192447106804E+03   -0.15113E-03   -0.54841E-03 11440   0.661E-01    0.352E-01
DAV:   6    -0.192445681393E+03    0.14254E-02   -0.31949E-03 11480   0.422E-01    0.902E-02
DAV:   7    -0.192445520795E+03    0.16060E-03   -0.50218E-04 10400   0.109E-01    0.495E-02
DAV:   8    -0.192445510605E+03    0.10190E-04   -0.97063E-05  7600   0.875E-02
  35 F= -.19244551E+03 E0= -.19235256E+03  d E =-.456649E-01
       N       E                     dE             d eps       ncg     rms          rms(c)
DAV:   1    -0.192454141709E+03   -0.86209E-02   -0.34100E-01  8160   0.132E+00    0.250E-01
DAV:   2    -0.192454693790E+03   -0.55208E-03   -0.19601E-02 10400   0.555E-01    0.312E-01
DAV:   3    -0.192454286691E+03    0.40710E-03   -0.44890E-03 11160   0.576E-01    0.259E-01
DAV:   4    -0.192453396444E+03    0.89025E-03   -0.19837E-03 11280   0.350E-01    0.129E-01
DAV:   5    -0.192453407503E+03   -0.11059E-04   -0.10551E-03  9720   0.250E-01    0.156E-01
DAV:   6    -0.192453129974E+03    0.27753E-03   -0.63268E-04  9760   0.207E-01    0.477E-02
DAV:   7    -0.192453096409E+03    0.33565E-04   -0.10096E-04  6280   0.565E-02
  36 F= -.19245310E+03 E0= -.19235986E+03  d E =-.758580E-02
       N       E                     dE             d eps       ncg     rms          rms(c)
DAV:   1    -0.192461826967E+03   -0.86970E-02   -0.41659E-01  8160   0.138E+00    0.211E-01
DAV:   2    -0.192464626846E+03   -0.27999E-02   -0.19944E-02 10120   0.732E-01    0.448E-01
DAV:   3    -0.192462339762E+03    0.22871E-02   -0.48423E-03 12120   0.595E-01    0.134E-01
DAV:   4    -0.192462153897E+03    0.18586E-03   -0.72402E-04  9760   0.195E-01    0.106E-01
DAV:   5    -0.192462185199E+03   -0.31302E-04   -0.59779E-04 10160   0.219E-01
  37 F= -.19246219E+03 E0= -.19236959E+03  d E =-.908879E-02
       N       E                     dE             d eps       ncg     rms          rms(c)
DAV:   1    -0.192472446742E+03   -0.10293E-01   -0.13014E+00  8160   0.243E+00    0.305E-01
DAV:   2    -0.192478542055E+03   -0.60953E-02   -0.51758E-02 11280   0.957E-01    0.564E-01
DAV:   3    -0.192475423923E+03    0.31181E-02   -0.94797E-03 12240   0.839E-01    0.256E-01
DAV:   4    -0.192474671537E+03    0.75239E-03   -0.14324E-03 11280   0.295E-01    0.128E-01
DAV:   5    -0.192474781891E+03   -0.11035E-03   -0.10497E-03 11360   0.277E-01    0.161E-01
DAV:   6    -0.192474498135E+03    0.28376E-03   -0.70469E-04  9560   0.203E-01    0.453E-02
DAV:   7    -0.192474456140E+03    0.41995E-04   -0.91332E-05  6520   0.527E-02
  38 F= -.19247446E+03 E0= -.19238245E+03  d E =-.122709E-01
       N       E                     dE             d eps       ncg     rms          rms(c)
DAV:   1    -0.192477778923E+03   -0.32808E-02   -0.13747E-01  8160   0.815E-01    0.131E-01
DAV:   2    -0.192478169422E+03   -0.39050E-03   -0.72227E-03 10400   0.302E-01    0.165E-01
DAV:   3    -0.192478118208E+03    0.51214E-04   -0.14748E-03 12080   0.325E-01    0.160E-01
DAV:   4    -0.192477783852E+03    0.33436E-03   -0.49132E-04  8440   0.185E-01    0.431E-02
DAV:   5    -0.192477755820E+03    0.28032E-04   -0.14774E-04  5840   0.553E-02
  39 F= -.19247776E+03 E0= -.19238585E+03  d E =-.329968E-02
       N       E                     dE             d eps       ncg     rms          rms(c)
DAV:   1    -0.192481877300E+03   -0.40934E-02   -0.34672E-01  8160   0.124E+00    0.139E-01
DAV:   2    -0.192482789205E+03   -0.91191E-03   -0.13277E-02 11400   0.325E-01    0.103E-01
DAV:   3    -0.192483057249E+03   -0.26804E-03   -0.11469E-03 11600   0.282E-01    0.186E-01
DAV:   4    -0.192482635780E+03    0.42147E-03   -0.57062E-04  9400   0.223E-01    0.470E-02
DAV:   5    -0.192482682353E+03   -0.46573E-04   -0.17445E-04  6920   0.103E-01
  40 F= -.19248268E+03 E0= -.19239137E+03  d E =-.492653E-02
       N       E                     dE             d eps       ncg     rms          rms(c)
DAV:   1    -0.192486818637E+03   -0.41829E-02   -0.83492E-01  8160   0.193E+00    0.221E-01
DAV:   2    -0.192489827423E+03   -0.30088E-02   -0.31996E-02 11840   0.634E-01    0.319E-01
DAV:   3    -0.192489149338E+03    0.67809E-03   -0.43634E-03 12120   0.559E-01    0.221E-01
DAV:   4    -0.192488553060E+03    0.59628E-03   -0.99098E-04 10000   0.262E-01    0.888E-02
DAV:   5    -0.192488682912E+03   -0.12985E-03   -0.60350E-04  9800   0.208E-01    0.135E-01
DAV:   6    -0.192488493303E+03    0.18961E-03   -0.44563E-04  8400   0.168E-01    0.388E-02
DAV:   7    -0.192488467964E+03    0.25339E-04   -0.79582E-05  6400   0.442E-02
  41 F= -.19248847E+03 E0= -.19239825E+03  d E =-.578561E-02
       N       E                     dE             d eps       ncg     rms          rms(c)
DAV:   1    -0.192488558594E+03   -0.65291E-04   -0.17646E-02  8160   0.319E-01    0.782E-02
DAV:   2    -0.192488573517E+03   -0.14923E-04   -0.11722E-03 10520   0.186E-01    0.120E-01
DAV:   3    -0.192488436945E+03    0.13657E-03   -0.44285E-04  9080   0.190E-01    0.655E-02
DAV:   4    -0.192488370637E+03    0.66308E-04   -0.14420E-04  6360   0.984E-02
  42 F= -.19248837E+03 E0= -.19239796E+03  d E =0.973275E-04
       N       E                     dE             d eps       ncg     rms          rms(c)
DAV:   1    -0.192490099589E+03   -0.16626E-02   -0.13071E-01  8160   0.782E-01    0.100E-01
DAV:   2    -0.192490481865E+03   -0.38228E-03   -0.49761E-03 12120   0.235E-01    0.133E-01
DAV:   3    -0.192490381771E+03    0.10009E-03   -0.91852E-04 10440   0.248E-01    0.114E-01
DAV:   4    -0.192490221667E+03    0.16010E-03   -0.25776E-04  8320   0.128E-01    0.382E-02
DAV:   5    -0.192490243500E+03   -0.21833E-04   -0.12921E-04  6680   0.998E-02
  43 F= -.19249024E+03 E0= -.19240032E+03  d E =-.187286E-02
       N       E                     dE             d eps       ncg     rms          rms(c)
DAV:   1    -0.192491200161E+03   -0.97849E-03   -0.38486E-02  8160   0.422E-01    0.644E-02
DAV:   2    -0.192491378717E+03   -0.17856E-03   -0.18606E-03 11440   0.191E-01    0.109E-01
DAV:   3    -0.192491255084E+03    0.12363E-03   -0.35853E-04  8880   0.165E-01    0.487E-02
DAV:   4    -0.192491225005E+03    0.30080E-04   -0.87073E-05  6000   0.662E-02
  44 F= -.19249123E+03 E0= -.19240165E+03  d E =-.981504E-03
       N       E                     dE             d eps       ncg     rms          rms(c)
DAV:   1    -0.192492774305E+03   -0.15192E-02   -0.13010E-01  8160   0.775E-01    0.118E-01
DAV:   2    -0.192493399479E+03   -0.62517E-03   -0.58896E-03 11800   0.372E-01    0.221E-01
DAV:   3    -0.192492883422E+03    0.51606E-03   -0.12907E-03 11000   0.308E-01    0.850E-02
DAV:   4    -0.192492811246E+03    0.72176E-04   -0.28636E-04  7960   0.125E-01
  45 F= -.19249281E+03 E0= -.19240395E+03  d E =-.158624E-02
       N       E                     dE             d eps       ncg     rms          rms(c)
DAV:   1    -0.192494448829E+03   -0.15654E-02   -0.29158E-01  8160   0.115E+00    0.138E-01
DAV:   2    -0.192495350273E+03   -0.90144E-03   -0.10296E-02 12560   0.342E-01    0.192E-01
DAV:   3    -0.192495131330E+03    0.21894E-03   -0.17383E-03 11280   0.350E-01    0.152E-01
DAV:   4    -0.192494866124E+03    0.26521E-03   -0.39440E-04  8320   0.162E-01    0.513E-02
DAV:   5    -0.192494938424E+03   -0.72300E-04   -0.26313E-04  8600   0.138E-01
  46 F= -.19249494E+03 E0= -.19240703E+03  d E =-.212718E-02
       N       E                     dE             d eps       ncg     rms          rms(c)
DAV:   1    -0.192494210185E+03    0.65594E-03   -0.54617E-02  8160   0.505E-01    0.847E-02
DAV:   2    -0.192494684096E+03   -0.47391E-03   -0.29334E-03 11000   0.302E-01    0.196E-01
DAV:   3    -0.192494219988E+03    0.46411E-03   -0.86095E-04 10080   0.256E-01    0.515E-02
DAV:   4    -0.192494188063E+03    0.31924E-04   -0.11141E-04  6080   0.815E-02
  47 F= -.19249419E+03 E0= -.19240585E+03  d E =0.750361E-03
       N       E                     dE             d eps       ncg     rms          rms(c)
DAV:   1    -0.192493670159E+03    0.54983E-03   -0.54337E-02  8160   0.531E-01    0.112E-01
DAV:   2    -0.192493966149E+03   -0.29599E-03   -0.34095E-03 11400   0.320E-01    0.207E-01
DAV:   3    -0.192493514283E+03    0.45187E-03   -0.10895E-03 10240   0.289E-01    0.783E-02
DAV:   4    -0.192493436851E+03    0.77433E-04   -0.28380E-04  8640   0.122E-01
  48 F= -.19249344E+03 E0= -.19240462E+03  d E =0.751212E-03
       N       E                     dE             d eps       ncg     rms          rms(c)
DAV:   1    -0.192493713780E+03   -0.19950E-03   -0.13962E-02  8160   0.305E-01    0.685E-02
DAV:   2    -0.192493883245E+03   -0.16947E-03   -0.11836E-03 11640   0.196E-01    0.136E-01
DAV:   3    -0.192493655598E+03    0.22765E-03   -0.53847E-04  9160   0.202E-01    0.590E-02
DAV:   4    -0.192493620415E+03    0.35183E-04   -0.98829E-05  6000   0.726E-02
  49 F= -.19249362E+03 E0= -.19240478E+03  d E =-.183564E-03
       N       E                     dE             d eps       ncg     rms          rms(c)
DAV:   1    -0.192494514672E+03   -0.85907E-03   -0.48385E-02  8160   0.477E-01    0.599E-02
DAV:   2    -0.192494749891E+03   -0.23522E-03   -0.20988E-03 11840   0.196E-01    0.114E-01
DAV:   3    -0.192494613267E+03    0.13662E-03   -0.33908E-04  8840   0.162E-01    0.468E-02
DAV:   4    -0.192494586688E+03    0.26578E-04   -0.53964E-05  5680   0.600E-02
  50 F= -.19249459E+03 E0= -.19240622E+03  d E =-.966273E-03
       N       E                     dE             d eps       ncg     rms          rms(c)
DAV:   1    -0.192494889773E+03   -0.27651E-03   -0.88357E-03  8160   0.209E-01    0.383E-02
DAV:   2    -0.192495039765E+03   -0.14999E-03   -0.61343E-04 12320   0.147E-01    0.103E-01
DAV:   3    -0.192494902998E+03    0.13677E-03   -0.20624E-04  7560   0.131E-01    0.218E-02
DAV:   4    -0.192494909687E+03   -0.66899E-05   -0.28281E-05  5880   0.356E-02
  51 F= -.19249491E+03 E0= -.19240671E+03  d E =-.322999E-03
       N       E                     dE             d eps       ncg     rms          rms(c)
DAV:   1    -0.192495767366E+03   -0.86437E-03   -0.75313E-02  8160   0.579E-01    0.588E-02
DAV:   2    -0.192495925345E+03   -0.15798E-03   -0.22361E-03 12000   0.142E-01    0.498E-02
DAV:   3    -0.192495961923E+03   -0.36578E-04   -0.21147E-04  9000   0.124E-01
  52 F= -.19249596E+03 E0= -.19240829E+03  d E =-.105224E-02
       N       E                     dE             d eps       ncg     rms          rms(c)
DAV:   1    -0.192496810476E+03   -0.88513E-03   -0.95353E-02  8160   0.654E-01    0.755E-02
DAV:   2    -0.192496950846E+03   -0.14037E-03   -0.27025E-03 12240   0.139E-01    0.476E-02
DAV:   3    -0.192496938791E+03    0.12055E-04   -0.17887E-04  6800   0.629E-02
  53 F= -.19249694E+03 E0= -.19240990E+03  d E =-.976867E-03
       N       E                     dE             d eps       ncg     rms          rms(c)
DAV:   1    -0.192498246444E+03   -0.12956E-02   -0.56243E-01  8160   0.158E+00    0.168E-01
DAV:   2    -0.192499603804E+03   -0.13574E-02   -0.16818E-02 12040   0.403E-01    0.193E-01
DAV:   3    -0.192499575354E+03    0.28450E-04   -0.21519E-03 12440   0.397E-01    0.196E-01
DAV:   4    -0.192499135610E+03    0.43974E-03   -0.72323E-04  9520   0.234E-01    0.663E-02
DAV:   5    -0.192499194414E+03   -0.58804E-04   -0.40792E-04  9200   0.143E-01
  54 F= -.19249919E+03 E0= -.19241359E+03  d E =-.225562E-02
       N       E                     dE             d eps       ncg     rms          rms(c)
DAV:   1    -0.192499787200E+03   -0.65159E-03   -0.59515E-01  8160   0.163E+00    0.172E-01
DAV:   2    -0.192501446529E+03   -0.16593E-02   -0.18323E-02 11760   0.445E-01    0.230E-01
DAV:   3    -0.192501114673E+03    0.33186E-03   -0.25213E-03 12320   0.412E-01    0.168E-01
DAV:   4    -0.192500779906E+03    0.33477E-03   -0.61870E-04  9440   0.201E-01    0.643E-02
DAV:   5    -0.192500851745E+03   -0.71839E-04   -0.38381E-04  9280   0.145E-01
  55 F= -.19250085E+03 E0= -.19241680E+03  d E =-.165733E-02
       N       E                     dE             d eps       ncg     rms          rms(c)
DAV:   1    -0.192501179582E+03   -0.39968E-03   -0.52489E-02  8160   0.510E-01    0.780E-02
DAV:   2    -0.192501656178E+03   -0.47660E-03   -0.23994E-03 13280   0.254E-01    0.180E-01
DAV:   3    -0.192501236806E+03    0.41937E-03   -0.82399E-04 10120   0.247E-01    0.707E-02
DAV:   4    -0.192501186807E+03    0.49999E-04   -0.13450E-04  5760   0.850E-02
  56 F= -.19250119E+03 E0= -.19241746E+03  d E =-.335062E-03
