<?xml version="1.0" encoding="ISO-8859-1"?>
<modeling>
 <generator>
  <i name="program" type="string">vasp </i>
  <i name="version" type="string">5.4.1  </i>
  <i name="subversion" type="string">05Feb16 (build Jul 05 2020 17:13:04) complex                          parallel </i>
  <i name="platform" type="string">IFC91_ompi </i>
  <i name="date" type="string">2024 04 24 </i>
  <i name="time" type="string">09:23:35 </i>
 </generator>
 <incar>
  <i type="int" name="ISTART">     0</i>
  <i type="string" name="PREC">normal</i>
  <i type="string" name="ALGO"> Normal</i>
  <i type="int" name="ISPIN">     1</i>
  <i type="int" name="ICHARG">     2</i>
  <i type="int" name="IBRION">     1</i>
  <i type="int" name="NSW">   100</i>
  <i type="int" name="ISIF">     3</i>
  <i type="int" name="ISYM">     0</i>
  <i name="SYMPREC">      0.00000001</i>
  <i name="POTIM">      0.50000000</i>
  <i type="logical" name="LREAL"> F  </i>
  <i type="logical" name="LPLANE"> F  </i>
  <i type="int" name="ISMEAR">     0</i>
  <i type="logical" name="LWAVE"> F  </i>
  <i type="logical" name="LCHARG"> F  </i>
  <v type="int" name="KPOINT_BSE">    -1     0     0     0</v>
 </incar>
 <kpoints>
  <generation param="Gamma">
   <v type="int" name="divisions">       8        8        1 </v>
   <v name="usershift">      0.00000000       0.00000000       0.00000000 </v>
   <v name="genvec1">      0.12500000       0.00000000       0.00000000 </v>
   <v name="genvec2">     -0.00000000       0.12500000       0.00000000 </v>
   <v name="genvec3">      0.00000000       0.00000000       1.00000000 </v>
   <v name="shift">      0.00000000       0.00000000       0.00000000 </v>
  </generation>
  <varray name="kpointlist" >
   <v>       0.00000000       0.00000000       0.00000000 </v>
   <v>       0.12500000       0.00000000       0.00000000 </v>
   <v>       0.25000000       0.00000000       0.00000000 </v>
   <v>       0.37500000       0.00000000       0.00000000 </v>
   <v>       0.50000000       0.00000000       0.00000000 </v>
   <v>       0.00000000       0.12500000       0.00000000 </v>
   <v>       0.12500000       0.12500000       0.00000000 </v>
   <v>       0.25000000       0.12500000       0.00000000 </v>
   <v>       0.37500000       0.12500000       0.00000000 </v>
   <v>       0.50000000       0.12500000       0.00000000 </v>
   <v>      -0.37500000       0.12500000       0.00000000 </v>
   <v>      -0.25000000       0.12500000       0.00000000 </v>
   <v>      -0.12500000       0.12500000       0.00000000 </v>
   <v>       0.00000000       0.25000000       0.00000000 </v>
   <v>       0.12500000       0.25000000       0.00000000 </v>
   <v>       0.25000000       0.25000000       0.00000000 </v>
   <v>       0.37500000       0.25000000       0.00000000 </v>
   <v>       0.50000000       0.25000000       0.00000000 </v>
   <v>      -0.37500000       0.25000000       0.00000000 </v>
   <v>      -0.25000000       0.25000000       0.00000000 </v>
   <v>      -0.12500000       0.25000000       0.00000000 </v>
   <v>      -0.00000000       0.37500000       0.00000000 </v>
   <v>       0.12500000       0.37500000       0.00000000 </v>
   <v>       0.25000000       0.37500000       0.00000000 </v>
   <v>       0.37500000       0.37500000       0.00000000 </v>
   <v>       0.50000000       0.37500000       0.00000000 </v>
   <v>      -0.37500000       0.37500000       0.00000000 </v>
   <v>      -0.25000000       0.37500000       0.00000000 </v>
   <v>      -0.12500000       0.37500000       0.00000000 </v>
   <v>       0.00000000       0.50000000       0.00000000 </v>
   <v>       0.12500000       0.50000000       0.00000000 </v>
   <v>       0.25000000       0.50000000       0.00000000 </v>
   <v>       0.37500000       0.50000000       0.00000000 </v>
   <v>       0.50000000       0.50000000       0.00000000 </v>
  </varray>
  <varray name="weights" >
   <v>       0.01562500 </v>
   <v>       0.03125000 </v>
   <v>       0.03125000 </v>
   <v>       0.03125000 </v>
   <v>       0.01562500 </v>
   <v>       0.03125000 </v>
   <v>       0.03125000 </v>
   <v>       0.03125000 </v>
   <v>       0.03125000 </v>
   <v>       0.03125000 </v>
   <v>       0.03125000 </v>
   <v>       0.03125000 </v>
   <v>       0.03125000 </v>
   <v>       0.03125000 </v>
   <v>       0.03125000 </v>
   <v>       0.03125000 </v>
   <v>       0.03125000 </v>
   <v>       0.03125000 </v>
   <v>       0.03125000 </v>
   <v>       0.03125000 </v>
   <v>       0.03125000 </v>
   <v>       0.03125000 </v>
   <v>       0.03125000 </v>
   <v>       0.03125000 </v>
   <v>       0.03125000 </v>
   <v>       0.03125000 </v>
   <v>       0.03125000 </v>
   <v>       0.03125000 </v>
   <v>       0.03125000 </v>
   <v>       0.01562500 </v>
   <v>       0.03125000 </v>
   <v>       0.03125000 </v>
   <v>       0.03125000 </v>
   <v>       0.01562500 </v>
  </varray>
 </kpoints>
 <parameters>
  <separator name="general" >
   <i type="string" name="SYSTEM">unknown system</i>
   <i type="logical" name="LCOMPAT"> F  </i>
  </separator>
  <separator name="electronic" >
   <i type="string" name="PREC">normal</i>
   <i name="ENMAX">    280.00000000</i>
   <i name="ENAUG">    373.43800000</i>
   <i name="EDIFF">      0.00010000</i>
   <i type="int" name="IALGO">    38</i>
   <i type="int" name="IWAVPR">    11</i>
   <i type="int" name="NBANDS">   120</i>
   <i name="NELECT">    159.00000000</i>
   <i type="int" name="TURBO">     0</i>
   <i type="int" name="IRESTART">     0</i>
   <i type="int" name="NREBOOT">     0</i>
   <i type="int" name="NMIN">     0</i>
   <i name="EREF">      0.00000000</i>
   <separator name="electronic smearing" >
    <i type="int" name="ISMEAR">     0</i>
    <i name="SIGMA">      0.20000000</i>
    <i name="KSPACING">      0.50000000</i>
    <i type="logical" name="KGAMMA"> T  </i>
   </separator>
   <separator name="electronic projectors" >
    <i type="logical" name="LREAL"> F  </i>
    <v name="ROPT">      0.00000000      0.00000000      0.00000000      0.00000000</v>
    <i type="int" name="LMAXPAW">  -100</i>
    <i type="int" name="LMAXMIX">     2</i>
    <i type="logical" name="NLSPLINE"> F  </i>
   </separator>
   <separator name="electronic startup" >
    <i type="int" name="ISTART">     0</i>
    <i type="int" name="ICHARG">     2</i>
    <i type="int" name="INIWAV">     1</i>
   </separator>
   <separator name="electronic spin" >
    <i type="int" name="ISPIN">     1</i>
    <i type="logical" name="LNONCOLLINEAR"> F  </i>
    <v name="MAGMOM">      1.00000000      1.00000000      1.00000000      1.00000000      1.00000000      1.00000000      1.00000000      1.00000000      1.00000000      1.00000000      1.00000000      1.00000000      1.00000000      1.00000000      1.00000000      1.00000000      1.00000000      1.00000000      1.00000000      1.00000000
      1.00000000      1.00000000      1.00000000      1.00000000      1.00000000      1.00000000      1.00000000</v>
    <i name="NUPDOWN">     -1.00000000</i>
    <i type="logical" name="LSORBIT"> F  </i>
    <v name="SAXIS">      0.00000000      0.00000000      1.00000000</v>
    <i type="logical" name="LSPIRAL"> F  </i>
    <v name="QSPIRAL">      0.00000000      0.00000000      0.00000000</v>
    <i type="logical" name="LZEROZ"> F  </i>
   </separator>
   <separator name="electronic exchange-correlation" >
    <i type="logical" name="LASPH"> F  </i>
    <i type="logical" name="LMETAGGA"> F  </i>
   </separator>
   <separator name="electronic convergence" >
    <i type="int" name="NELM">    60</i>
    <i type="int" name="NELMDL">    -5</i>
    <i type="int" name="NELMIN">     2</i>
    <i name="ENINI">    280.00000000</i>
    <separator name="electronic convergence detail" >
     <i type="logical" name="LDIAG"> T  </i>
     <i type="logical" name="LSUBROT"> F  </i>
     <i name="WEIMIN">      0.00100000</i>
     <i name="EBREAK">      0.00000021</i>
     <i name="DEPER">      0.30000000</i>
     <i type="int" name="NRMM">     4</i>
     <i name="TIME">      0.40000000</i>
    </separator>
   </separator>
   <separator name="electronic mixer" >
    <i name="AMIX">      0.40000000</i>
    <i name="BMIX">      1.00000000</i>
    <i name="AMIN">      0.10000000</i>
    <i name="AMIX_MAG">      1.60000000</i>
    <i name="BMIX_MAG">      1.00000000</i>
    <separator name="electronic mixer details" >
     <i type="int" name="IMIX">     4</i>
     <i type="logical" name="MIXFIRST"> F  </i>
     <i type="int" name="MAXMIX">   -45</i>
     <i name="WC">    100.00000000</i>
     <i type="int" name="INIMIX">     1</i>
     <i type="int" name="MIXPRE">     1</i>
     <i type="int" name="MREMOVE">     5</i>
    </separator>
   </separator>
   <separator name="electronic dipolcorrection" >
    <i type="logical" name="LDIPOL"> F  </i>
    <i type="logical" name="LMONO"> F  </i>
    <i type="int" name="IDIPOL">     0</i>
    <i name="EPSILON">      1.00000000</i>
    <v name="DIPOL">   -100.00000000   -100.00000000   -100.00000000</v>
    <i name="EFIELD">      0.00000000</i>
   </separator>
  </separator>
  <separator name="grids" >
   <i type="int" name="NGX">    42</i>
   <i type="int" name="NGY">    42</i>
   <i type="int" name="NGZ">   126</i>
   <i type="int" name="NGXF">    84</i>
   <i type="int" name="NGYF">    84</i>
   <i type="int" name="NGZF">   252</i>
   <i type="logical" name="ADDGRID"> F  </i>
  </separator>
  <separator name="ionic" >
   <i type="int" name="NSW">   100</i>
   <i type="int" name="IBRION">     1</i>
   <i type="int" name="ISIF">     3</i>
   <i name="PSTRESS">      0.00000000</i>
   <i name="EDIFFG">      0.00100000</i>
   <i type="int" name="NFREE">     0</i>
   <i name="POTIM">      0.50000000</i>
   <i name="SMASS">     -3.00000000</i>
   <i name="SCALEE">      1.00000000</i>
  </separator>
  <separator name="ionic md" >
   <i name="TEBEG">      0.00010000</i>
   <i name="TEEND">      0.00010000</i>
   <i type="int" name="NBLOCK">     1</i>
   <i type="int" name="KBLOCK">   100</i>
   <i type="int" name="NPACO">   256</i>
   <i name="APACO">     16.00000000</i>
  </separator>
  <separator name="symmetry" >
   <i type="int" name="ISYM">     0</i>
   <i name="SYMPREC">      0.00000001</i>
  </separator>
  <separator name="dos" >
   <i type="logical" name="LORBIT"> F  </i>
   <v name="RWIGS">     -1.00000000     -1.00000000     -1.00000000     -1.00000000</v>
   <i type="int" name="NEDOS">   301</i>
   <i name="EMIN">     10.00000000</i>
   <i name="EMAX">    -10.00000000</i>
   <i name="EFERMI">      0.00000000</i>
  </separator>
  <separator name="writing" >
   <i type="int" name="NWRITE">     2</i>
   <i type="logical" name="LWAVE"> F  </i>
   <i type="logical" name="LCHARG"> F  </i>
   <i type="logical" name="LPARD"> F  </i>
   <i type="logical" name="LVTOT"> F  </i>
   <i type="logical" name="LVHAR"> F  </i>
   <i type="logical" name="LELF"> F  </i>
   <i type="logical" name="LOPTICS"> F  </i>
   <v name="STM">      0.00000000      0.00000000      0.00000000      0.00000000      0.00000000      0.00000000      0.00000000</v>
  </separator>
  <separator name="performance" >
   <i type="int" name="NPAR">    40</i>
   <i type="int" name="NSIM">     4</i>
   <i type="int" name="NBLK">    -1</i>
   <i type="logical" name="LPLANE"> F  </i>
   <i type="logical" name="LSCALAPACK"> T  </i>
   <i type="logical" name="LSCAAWARE"> F  </i>
   <i type="logical" name="LSCALU"> F  </i>
   <i type="logical" name="LASYNC"> F  </i>
   <i type="logical" name="LORBITALREAL"> F  </i>
  </separator>
  <separator name="miscellaneous" >
   <i type="int" name="IDIOT">     3</i>
   <i type="logical" name="LMUSIC"> F  </i>
   <v name="POMASS">     50.94100000     95.94000000    183.85000000     32.06600000</v>
   <v name="DARWINR">      0.00000000      0.00000000      0.00000000      0.00000000</v>
   <v name="DARWINV">      1.00000000      1.00000000      1.00000000      1.00000000</v>
   <i type="logical" name="LCORR"> T  </i>
  </separator>
  <i type="logical" name="GGA_COMPAT"> T  </i>
  <i type="logical" name="LBERRY"> F  </i>
  <i type="int" name="ICORELEVEL">     0</i>
  <i type="logical" name="LDAU"> F  </i>
  <i type="int" name="I_CONSTRAINED_M">     0</i>
  <separator name="electronic exchange-correlation" >
   <i type="string" name="GGA">--</i>
   <i type="int" name="VOSKOWN">     0</i>
   <i type="logical" name="LHFCALC"> F  </i>
   <i type="string" name="PRECFOCK"></i>
   <i type="logical" name="LSYMGRAD"> F  </i>
   <i type="logical" name="LHFONE"> F  </i>
   <i type="logical" name="LRHFCALC"> F  </i>
   <i type="logical" name="LTHOMAS"> F  </i>
   <i type="logical" name="LMODELHF"> F  </i>
   <i name="ENCUT4O">     -1.00000000</i>
   <i type="int" name="EXXOEP">     0</i>
   <i type="int" name="FOURORBIT">     0</i>
   <i name="AEXX">      0.00000000</i>
   <i name="HFALPHA">      0.00000000</i>
   <i name="MCALPHA">      0.00000000</i>
   <i name="ALDAX">      1.00000000</i>
   <i name="AGGAX">      1.00000000</i>
   <i name="ALDAC">      1.00000000</i>
   <i name="AGGAC">      1.00000000</i>
   <i type="int" name="NKREDX">     1</i>
   <i type="int" name="NKREDY">     1</i>
   <i type="int" name="NKREDZ">     1</i>
   <i type="logical" name="SHIFTRED"> F  </i>
   <i type="logical" name="ODDONLY"> F  </i>
   <i type="logical" name="EVENONLY"> F  </i>
   <i type="int" name="LMAXFOCK">     0</i>
   <i type="int" name="NMAXFOCKAE">     0</i>
   <i type="logical" name="LFOCKAEDFT"> F  </i>
   <i name="HFSCREEN">      0.00000000</i>
   <i name="HFSCREENC">      0.00000000</i>
   <i type="int" name="NBANDSGWLOW">     0</i>
  </separator>
  <separator name="vdW DFT" >
   <i type="logical" name="LUSE_VDW"> F  </i>
   <i name="Zab_VDW">     -0.84910000</i>
   <i name="PARAM1">      0.12340000</i>
   <i name="PARAM2">      1.00000000</i>
   <i name="PARAM3">      0.00000000</i>
  </separator>
  <separator name="model GW" >
   <i type="int" name="MODEL_GW">     0</i>
   <i name="MODEL_EPS0">     58.26239943</i>
   <i name="MODEL_ALPHA">      1.00000000</i>
  </separator>
  <separator name="linear response parameters" >
   <i type="logical" name="LEPSILON"> F  </i>
   <i type="logical" name="LRPA"> F  </i>
   <i type="logical" name="LNABLA"> F  </i>
   <i type="logical" name="LVEL"> F  </i>
   <i type="int" name="KINTER">     0</i>
   <i name="CSHIFT">      0.10000000</i>
   <i name="OMEGAMAX">     -1.00000000</i>
   <i name="DEG_THRESHOLD">      0.00200000</i>
  </separator>
  <separator name="orbital magnetization" >
   <i type="logical" name="NUCIND"> F  </i>
   <v name="MAGPOS">      0.00000000      0.00000000      0.00000000</v>
   <i type="logical" name="LNICSALL"> T  </i>
   <i type="logical" name="ORBITALMAG"> F  </i>
   <i type="logical" name="LMAGBLOCH"> F  </i>
   <i type="logical" name="LCHIMAG"> F  </i>
   <i type="logical" name="LGAUGE"> T  </i>
   <i type="int" name="MAGATOM">     0</i>
   <v name="MAGDIPOL">      0.00000000      0.00000000      0.00000000</v>
   <v name="AVECCONST">      0.00000000      0.00000000      0.00000000</v>
  </separator>
  <separator name="response functions" >
   <i type="logical" name="LADDER"> F  </i>
   <i type="logical" name="LFXC"> F  </i>
   <i type="logical" name="LHARTREE"> T  </i>
   <i type="int" name="IBSE">     0</i>
   <v type="int" name="KPOINT">    -1     0     0     0</v>
   <i type="logical" name="LTCTE"> F  </i>
   <i type="logical" name="LTETE"> F  </i>
   <i type="logical" name="LTRIPLET"> F  </i>
   <i type="logical" name="LFXCEPS"> F  </i>
   <i type="logical" name="LFXHEG"> F  </i>
   <i type="int" name="NATURALO">     0</i>
   <i type="logical" name="L2ORDER"> F  </i>
   <i type="logical" name="LUSEW"> F  </i>
   <i name="ENCUTGW">     -2.00000000</i>
   <i name="ENCUTGWSOFT">     -2.00000000</i>
   <i name="ENCUTLF">     -1.00000000</i>
   <i type="int" name="LMAXMP2">    -1</i>
   <i name="SCISSOR">      0.00000000</i>
   <i type="int" name="NOMEGA">     0</i>
   <i type="int" name="NOMEGAR">     0</i>
   <i type="int" name="NBANDSGW">    -1</i>
   <i type="int" name="NBANDSO">    -1</i>
   <i type="int" name="NBANDSV">    -1</i>
   <i type="int" name="NELM">     1</i>
   <i type="int" name="NELMHF">     1</i>
   <i type="int" name="DIM">     3</i>
   <i type="int" name="ANTIRES">     0</i>
   <i name="OMEGAMAX">    -30.00000000</i>
   <i name="OMEGAMIN">    -30.00000000</i>
   <i name="OMEGATL">   -200.00000000</i>
   <i type="int" name="OMEGAGRID">     0</i>
   <i name="CSHIFT">     -0.10000000</i>
   <i type="logical" name="SELFENERGY"> F  </i>
   <i type="logical" name="LSPECTRAL"> F  </i>
   <i type="logical" name="LSPECTRALGW"> F  </i>
   <i type="logical" name="LSINGLES"> F  </i>
   <i type="logical" name="LFERMIGW"> F  </i>
   <i type="logical" name="ODDONLYGW"> F  </i>
   <i type="logical" name="EVENONLYGW"> F  </i>
   <i type="int" name="NKREDLFX">     1</i>
   <i type="int" name="NKREDLFY">     1</i>
   <i type="int" name="NKREDLFZ">     1</i>
   <i type="int" name="MAXMEM">  1800</i>
   <i type="int" name="TELESCOPE">     0</i>
   <i type="int" name="TAUPAR">     1</i>
   <i type="int" name="OMEGAPAR">    -1</i>
   <i name="LAMBDA">      1.00000000</i>
  </separator>
  <separator name="External order field" >
   <i name="OFIELD_KAPPA">      0.00000000</i>
   <v name="OFIELD_K">      0.00000000      0.00000000      0.00000000</v>
   <i name="OFIELD_Q6_NEAR">      0.00000000</i>
   <i name="OFIELD_Q6_FAR">      0.00000000</i>
   <i name="OFIELD_A">      0.00000000</i>
  </separator>
 </parameters>
 <atominfo>
  <atoms>      27 </atoms>
  <types>       4 </types>
  <array name="atoms" >
   <dimension dim="1">ion</dimension>
   <field type="string">element</field>
   <field type="int">atomtype</field>
   <set>
    <rc><c>V </c><c>   1</c></rc>
    <rc><c>V </c><c>   1</c></rc>
    <rc><c>V </c><c>   1</c></rc>
    <rc><c>Mo</c><c>   2</c></rc>
    <rc><c>Mo</c><c>   2</c></rc>
    <rc><c>Mo</c><c>   2</c></rc>
    <rc><c>W </c><c>   3</c></rc>
    <rc><c>W </c><c>   3</c></rc>
    <rc><c>W </c><c>   3</c></rc>
    <rc><c>S </c><c>   4</c></rc>
    <rc><c>S </c><c>   4</c></rc>
    <rc><c>S </c><c>   4</c></rc>
    <rc><c>S </c><c>   4</c></rc>
    <rc><c>S </c><c>   4</c></rc>
    <rc><c>S </c><c>   4</c></rc>
    <rc><c>S </c><c>   4</c></rc>
    <rc><c>S </c><c>   4</c></rc>
    <rc><c>S </c><c>   4</c></rc>
    <rc><c>S </c><c>   4</c></rc>
    <rc><c>S </c><c>   4</c></rc>
    <rc><c>S </c><c>   4</c></rc>
    <rc><c>S </c><c>   4</c></rc>
    <rc><c>S </c><c>   4</c></rc>
    <rc><c>S </c><c>   4</c></rc>
    <rc><c>S </c><c>   4</c></rc>
    <rc><c>S </c><c>   4</c></rc>
    <rc><c>S </c><c>   4</c></rc>
   </set>
  </array>
  <array name="atomtypes" >
   <dimension dim="1">type</dimension>
   <field type="int">atomspertype</field>
   <field type="string">element</field>
   <field>mass</field>
   <field>valence</field>
   <field type="string">pseudopotential</field>
   <set>
    <rc><c>   3</c><c>V </c><c>     50.94100000</c><c>      5.00000000</c><c> PAW_PBE V 08Apr2002                    </c></rc>
    <rc><c>   3</c><c>Mo</c><c>     95.94000000</c><c>      6.00000000</c><c> PAW_PBE Mo 08Apr2002                   </c></rc>
    <rc><c>   3</c><c>W </c><c>    183.85000000</c><c>      6.00000000</c><c> PAW_PBE W 08Apr2002                    </c></rc>
    <rc><c>  18</c><c>S </c><c>     32.06600000</c><c>      6.00000000</c><c>  PAW_PBE S 17Jan2003                   </c></rc>
   </set>
  </array>
 </atominfo>
 <structure name="initialpos" >
  <crystal>
   <varray name="basis" >
    <v>       8.66999996       5.03999989       0.00000000 </v>
    <v>      -8.66999982       5.04000013       0.00000000 </v>
    <v>       0.00000000       0.00000000      30.00000000 </v>
   </varray>
   <i name="volume">   2621.80797419 </i>
   <varray name="rec_basis" >
    <v>       0.05767013       0.09920635       0.00000000 </v>
    <v>      -0.05767013       0.09920635       0.00000000 </v>
    <v>       0.00000000       0.00000000       0.03333333 </v>
   </varray>
  </crystal>
  <varray name="positions" >
   <v>       0.66666669       0.00000000       0.00000000 </v>
   <v>       0.66666669       0.66666669       0.00000000 </v>
   <v>       0.66666669       0.33333334       0.00000000 </v>
   <v>       0.00000000       0.00000000       0.00000000 </v>
   <v>       0.00000000       0.66666669       0.00000000 </v>
   <v>       0.33333334       0.33333334       0.00000000 </v>
   <v>       1.00000000       0.33333334       0.00000000 </v>
   <v>       0.33333334       0.00000000       0.00000000 </v>
   <v>       0.33333334       0.66666669       0.00000000 </v>
   <v>       0.11068511       0.22244981       0.95539999 </v>
   <v>       0.22244981       0.11068511       0.04460000 </v>
   <v>       0.11068511       0.55578315       0.95539999 </v>
   <v>       0.22244981       0.44401845       0.04460000 </v>
   <v>       0.11068511       0.88911647       0.95539999 </v>
   <v>       0.22244981       0.77735180       0.04460000 </v>
   <v>       0.44401845       0.22244981       0.95539999 </v>
   <v>       0.55578315       0.11068511       0.04460000 </v>
   <v>       0.44401845       0.55578315       0.95539999 </v>
   <v>       0.55578315       0.44401845       0.04460000 </v>
   <v>       0.44401845       0.88911647       0.95539999 </v>
   <v>       0.55578315       0.77735180       0.04460000 </v>
   <v>       0.77735180       0.22244981       0.95539999 </v>
   <v>       0.88911647       0.11068511       0.04460000 </v>
   <v>       0.77735180       0.55578315       0.95539999 </v>
   <v>       0.88911647       0.44401845       0.04460000 </v>
   <v>       0.77735180       0.88911647       0.95539999 </v>
   <v>       0.88911647       0.77735180       0.04460000 </v>
  </varray>
 </structure>
 <calculation>
  <scstep>
   <time name="dav">   21.57   21.62</time>
   <time name="total">   21.61   21.67</time>
   <energy>
    <i name="alphaZ">     81.65567618 </i>
    <i name="ewald">  41891.19377233 </i>
    <i name="hartreedc"> -47723.83803739 </i>
    <i name="XCdc">   -242.92497619 </i>
    <i name="pawpsdc">   3467.42045192 </i>
    <i name="pawaedc">  -2871.19716117 </i>
    <i name="eentropy">     -0.53054262 </i>
    <i name="bandstr">   -239.37446795 </i>
    <i name="atom">   6761.44252427 </i>
    <i name="e_fr_energy">   1123.84723938 </i>
    <i name="e_wo_entrp">   1124.37778200 </i>
    <i name="e_0_energy">   1124.11251069 </i>
   </energy>
  </scstep>
  <scstep>
   <time name="dav">   27.61   27.68</time>
   <time name="total">   27.62   27.69</time>
   <energy>
    <i name="e_fr_energy">     -2.44537746 </i>
    <i name="e_wo_entrp">     -2.26744057 </i>
    <i name="e_0_energy">     -2.35640901 </i>
   </energy>
  </scstep>
  <scstep>
   <time name="dav">   27.46   27.52</time>
   <time name="total">   27.46   27.53</time>
   <energy>
    <i name="e_fr_energy">   -199.75189402 </i>
    <i name="e_wo_entrp">   -199.49298173 </i>
    <i name="e_0_energy">   -199.62243787 </i>
   </energy>
  </scstep>
  <scstep>
   <time name="dav">   29.47   29.55</time>
   <time name="total">   29.48   29.55</time>
   <energy>
    <i name="e_fr_energy">   -209.04899393 </i>
    <i name="e_wo_entrp">   -208.78653101 </i>
    <i name="e_0_energy">   -208.91776247 </i>
   </energy>
  </scstep>
  <scstep>
   <time name="dav">   28.90   28.97</time>
   <time name="total">   29.37   29.44</time>
   <energy>
    <i name="e_fr_energy">   -209.40321459 </i>
    <i name="e_wo_entrp">   -209.14405605 </i>
    <i name="e_0_energy">   -209.27363532 </i>
   </energy>
  </scstep>
  <scstep>
   <time name="dav">   30.45   30.52</time>
   <time name="total">   30.94   31.02</time>
   <energy>
    <i name="e_fr_energy">   -241.51945852 </i>
    <i name="e_wo_entrp">   -241.23850843 </i>
    <i name="e_0_energy">   -241.37898348 </i>
   </energy>
  </scstep>
  <scstep>
   <time name="dav">   31.81   31.88</time>
   <time name="total">   32.31   32.39</time>
   <energy>
    <i name="e_fr_energy">   -196.12941388 </i>
    <i name="e_wo_entrp">   -195.80537835 </i>
    <i name="e_0_energy">   -195.96739612 </i>
   </energy>
  </scstep>
  <scstep>
   <time name="dav">   29.67   29.74</time>
   <time name="total">   30.18   30.26</time>
   <energy>
    <i name="e_fr_energy">   -189.35412464 </i>
    <i name="e_wo_entrp">   -189.02221692 </i>
    <i name="e_0_energy">   -189.18817078 </i>
   </energy>
  </scstep>
  <scstep>
   <time name="dav">   31.77   31.85</time>
   <time name="total">   32.29   32.38</time>
   <energy>
    <i name="e_fr_energy">   -188.08194781 </i>
    <i name="e_wo_entrp">   -187.74994205 </i>
    <i name="e_0_energy">   -187.91594493 </i>
   </energy>
  </scstep>
  <scstep>
   <time name="dav">   32.31   32.39</time>
   <time name="total">   32.84   32.93</time>
   <energy>
    <i name="e_fr_energy">   -186.95361196 </i>
    <i name="e_wo_entrp">   -186.59871434 </i>
    <i name="e_0_energy">   -186.77616315 </i>
   </energy>
  </scstep>
  <scstep>
   <time name="dav">   32.51   32.59</time>
   <time name="total">   33.04   33.13</time>
   <energy>
    <i name="e_fr_energy">   -187.02706912 </i>
    <i name="e_wo_entrp">   -186.68601573 </i>
    <i name="e_0_energy">   -186.85654242 </i>
   </energy>
  </scstep>
  <scstep>
   <time name="dav">   31.27   31.35</time>
   <time name="total">   31.80   31.89</time>
   <energy>
    <i name="e_fr_energy">   -186.94989717 </i>
    <i name="e_wo_entrp">   -186.60794795 </i>
    <i name="e_0_energy">   -186.77892256 </i>
   </energy>
  </scstep>
  <scstep>
   <time name="dav">   32.04   32.12</time>
   <time name="total">   32.58   32.66</time>
   <energy>
    <i name="e_fr_energy">   -186.88121673 </i>
    <i name="e_wo_entrp">   -186.53778938 </i>
    <i name="e_0_energy">   -186.70950306 </i>
   </energy>
  </scstep>
  <scstep>
   <time name="dav">   29.36   29.43</time>
   <time name="total">   29.89   29.97</time>
   <energy>
    <i name="e_fr_energy">   -186.85608468 </i>
    <i name="e_wo_entrp">   -186.50898288 </i>
    <i name="e_0_energy">   -186.68253378 </i>
   </energy>
  </scstep>
  <scstep>
   <time name="dav">   30.80   30.87</time>
   <time name="total">   31.33   31.41</time>
   <energy>
    <i name="e_fr_energy">   -186.85405619 </i>
    <i name="e_wo_entrp">   -186.50607395 </i>
    <i name="e_0_energy">   -186.68006507 </i>
   </energy>
  </scstep>
  <scstep>
   <time name="dav">   31.49   31.57</time>
   <time name="total">   32.02   32.10</time>
   <energy>
    <i name="e_fr_energy">   -186.84915307 </i>
    <i name="e_wo_entrp">   -186.50211171 </i>
    <i name="e_0_energy">   -186.67563239 </i>
   </energy>
  </scstep>
  <scstep>
   <time name="dav">   30.65   30.72</time>
   <time name="total">   31.18   31.27</time>
   <energy>
    <i name="e_fr_energy">   -186.84798189 </i>
    <i name="e_wo_entrp">   -186.50205969 </i>
    <i name="e_0_energy">   -186.67502079 </i>
   </energy>
  </scstep>
  <scstep>
   <time name="dav">   30.73   30.80</time>
   <time name="total">   31.26   31.34</time>
   <energy>
    <i name="e_fr_energy">   -186.84738775 </i>
    <i name="e_wo_entrp">   -186.50098307 </i>
    <i name="e_0_energy">   -186.67418541 </i>
   </energy>
  </scstep>
  <scstep>
   <time name="dav">   23.46   23.52</time>
   <time name="total">   23.50   23.56</time>
   <energy>
    <i name="alphaZ">     81.65567618 </i>
    <i name="ewald">  41891.19377233 </i>
    <i name="hartreedc"> -47818.74605677 </i>
    <i name="XCdc">   -231.69006643 </i>
    <i name="pawpsdc">   4194.35262136 </i>
    <i name="pawaedc">  -3612.37517905 </i>
    <i name="eentropy">     -0.34642126 </i>
    <i name="bandstr">  -1452.33430604 </i>
    <i name="atom">   6761.44252427 </i>
    <i name="e_fr_energy">   -186.84743541 </i>
    <i name="e_wo_entrp">   -186.50101415 </i>
    <i name="e_0_energy">   -186.67422478 </i>
   </energy>
  </scstep>
  <structure>
   <crystal>
    <varray name="basis" >
     <v>       8.66999996       5.03999989       0.00000000 </v>
     <v>      -8.66999982       5.04000013       0.00000000 </v>
     <v>       0.00000000       0.00000000      30.00000000 </v>
    </varray>
    <i name="volume">   2621.80797419 </i>
    <varray name="rec_basis" >
     <v>       0.05767013       0.09920635       0.00000000 </v>
     <v>      -0.05767013       0.09920635       0.00000000 </v>
     <v>       0.00000000       0.00000000       0.03333333 </v>
    </varray>
   </crystal>
   <varray name="positions" >
    <v>       0.66666669       0.00000000       0.00000000 </v>
    <v>       0.66666669       0.66666669       0.00000000 </v>
    <v>       0.66666669       0.33333334       0.00000000 </v>
    <v>       0.00000000       0.00000000       0.00000000 </v>
    <v>       0.00000000       0.66666669       0.00000000 </v>
    <v>       0.33333334       0.33333334       0.00000000 </v>
    <v>       1.00000000       0.33333334       0.00000000 </v>
    <v>       0.33333334       0.00000000       0.00000000 </v>
    <v>       0.33333334       0.66666669       0.00000000 </v>
    <v>       0.11068511       0.22244981       0.95539999 </v>
    <v>       0.22244981       0.11068511       0.04460000 </v>
    <v>       0.11068511       0.55578315       0.95539999 </v>
    <v>       0.22244981       0.44401845       0.04460000 </v>
    <v>       0.11068511       0.88911647       0.95539999 </v>
    <v>       0.22244981       0.77735180       0.04460000 </v>
    <v>       0.44401845       0.22244981       0.95539999 </v>
    <v>       0.55578315       0.11068511       0.04460000 </v>
    <v>       0.44401845       0.55578315       0.95539999 </v>
    <v>       0.55578315       0.44401845       0.04460000 </v>
    <v>       0.44401845       0.88911647       0.95539999 </v>
    <v>       0.55578315       0.77735180       0.04460000 </v>
    <v>       0.77735180       0.22244981       0.95539999 </v>
    <v>       0.88911647       0.11068511       0.04460000 </v>
    <v>       0.77735180       0.55578315       0.95539999 </v>
    <v>       0.88911647       0.44401845       0.04460000 </v>
    <v>       0.77735180       0.88911647       0.95539999 </v>
    <v>       0.88911647       0.77735180       0.04460000 </v>
   </varray>
  </structure>
  <varray name="forces" >
   <v>       0.22240543       0.11781824      -0.01313807 </v>
   <v>       0.22969173       0.13316690      -0.01787117 </v>
   <v>      -0.23865762       0.11066518       0.02834568 </v>
   <v>       0.25783283       0.07311679      -0.14075806 </v>
   <v>      -0.27507808       0.14215642      -0.09128341 </v>
   <v>      -0.00095287      -0.25145240       0.12311575 </v>
   <v>       0.21357930       0.06147808      -0.12543825 </v>
   <v>      -0.52994078      -0.20725000       0.15957919 </v>
   <v>       0.08848011      -0.25559789       0.12143613 </v>
   <v>      -0.06982099      -0.03390017      -2.89921523 </v>
   <v>       0.07346623       0.03588887       2.93486266 </v>
   <v>       0.24833537      -0.03075959      -2.91385871 </v>
   <v>      -0.25729326       0.04047372       2.94203517 </v>
   <v>       0.18933412       0.11964952      -2.94693017 </v>
   <v>      -0.02848894       0.17434130       2.89369527 </v>
   <v>       0.62879277       0.56336902      -2.14525196 </v>
   <v>       0.24317535       0.52175107       1.37867385 </v>
   <v>       0.36861779       0.70865310      -2.13006715 </v>
   <v>       0.33306945       0.66992136       1.41157711 </v>
   <v>       0.47546218       0.57291091      -2.11865589 </v>
   <v>       0.23289961       0.52243682       1.40762660 </v>
   <v>      -0.23198792      -0.51388081      -1.40590528 </v>
   <v>      -0.61590739      -0.54830186       2.12474730 </v>
   <v>      -0.32396089      -0.66696023      -1.42887454 </v>
   <v>      -0.37486541      -0.69528562       2.10633836 </v>
   <v>      -0.32348190      -0.66127769      -1.40178292 </v>
   <v>      -0.53470619      -0.70313103       2.14699777 </v>
  </varray>
  <varray name="stress" >
   <v>       7.38855281       0.11002344      -1.54274353 </v>
   <v>       0.11002350       4.61524562      -0.03350094 </v>
   <v>      -1.54274349      -0.03350107      31.17061542 </v>
  </varray>
  <energy>
   <i name="e_fr_energy">   -186.84743541 </i>
   <i name="e_wo_entrp">   -186.67422478 </i>
   <i name="e_0_energy">     -0.34642126 </i>
  </energy>
  <time name="totalsc">  612.37  614.00</time>
 </calculation>
 <calculation>
  <scstep>
   <time name="dav">   21.58   21.63</time>
   <time name="total">   22.12   22.17</time>
   <energy>
    <i name="alphaZ">     78.86473695 </i>
    <i name="ewald">  39348.91263697 </i>
    <i name="hartreedc"> -45296.84118081 </i>
    <i name="XCdc">   -239.17670021 </i>
    <i name="pawpsdc">   4192.93785039 </i>
    <i name="pawaedc">  -3610.94153641 </i>
    <i name="eentropy">     -0.28605255 </i>
    <i name="bandstr">  -1422.43099299 </i>
    <i name="atom">   6761.44252427 </i>
    <i name="e_fr_energy">   -187.51871440 </i>
    <i name="e_wo_entrp">   -187.23266185 </i>
    <i name="e_0_energy">   -187.37568813 </i>
   </energy>
  </scstep>
  <scstep>
   <time name="dav">   29.32   29.39</time>
   <time name="total">   29.84   29.92</time>
   <energy>
    <i name="e_fr_energy">   -189.63447032 </i>
    <i name="e_wo_entrp">   -189.29326460 </i>
    <i name="e_0_energy">   -189.46386746 </i>
   </energy>
  </scstep>
  <scstep>
   <time name="dav">   29.84   29.91</time>
   <time name="total">   30.39   30.47</time>
   <energy>
    <i name="e_fr_energy">   -189.31113532 </i>
    <i name="e_wo_entrp">   -189.04294182 </i>
    <i name="e_0_energy">   -189.17703857 </i>
   </energy>
  </scstep>
  <scstep>
   <time name="dav">   30.10   30.17</time>
   <time name="total">   30.64   30.72</time>
   <energy>
    <i name="e_fr_energy">   -188.77967772 </i>
    <i name="e_wo_entrp">   -188.49006178 </i>
    <i name="e_0_energy">   -188.63486975 </i>
   </energy>
  </scstep>
  <scstep>
   <time name="dav">   27.43   27.50</time>
   <time name="total">   27.96   28.04</time>
   <energy>
    <i name="e_fr_energy">   -188.89562869 </i>
    <i name="e_wo_entrp">   -188.60640363 </i>
    <i name="e_0_energy">   -188.75101616 </i>
   </energy>
  </scstep>
  <scstep>
   <time name="dav">   30.13   30.20</time>
   <time name="total">   30.67   30.75</time>
   <energy>
    <i name="e_fr_energy">   -188.75234980 </i>
    <i name="e_wo_entrp">   -188.46262520 </i>
    <i name="e_0_energy">   -188.60748750 </i>
   </energy>
  </scstep>
  <scstep>
   <time name="dav">   29.20   29.27</time>
   <time name="total">   29.74   29.82</time>
   <energy>
    <i name="e_fr_energy">   -188.71105179 </i>
    <i name="e_wo_entrp">   -188.42207871 </i>
    <i name="e_0_energy">   -188.56656525 </i>
   </energy>
  </scstep>
  <scstep>
   <time name="dav">   28.75   28.82</time>
   <time name="total">   29.29   29.37</time>
   <energy>
    <i name="e_fr_energy">   -188.69720589 </i>
    <i name="e_wo_entrp">   -188.40989079 </i>
    <i name="e_0_energy">   -188.55354834 </i>
   </energy>
  </scstep>
  <scstep>
   <time name="dav">   29.11   29.18</time>
   <time name="total">   29.65   29.73</time>
   <energy>
    <i name="e_fr_energy">   -188.66730466 </i>
    <i name="e_wo_entrp">   -188.38072707 </i>
    <i name="e_0_energy">   -188.52401586 </i>
   </energy>
  </scstep>
  <scstep>
   <time name="dav">   27.10   27.16</time>
   <time name="total">   27.63   27.71</time>
   <energy>
    <i name="e_fr_energy">   -188.66503520 </i>
    <i name="e_wo_entrp">   -188.37918699 </i>
    <i name="e_0_energy">   -188.52211110 </i>
   </energy>
  </scstep>
  <scstep>
   <time name="dav">   31.28   31.35</time>
   <time name="total">   31.82   31.90</time>
   <energy>
    <i name="e_fr_energy">   -188.66454930 </i>
    <i name="e_wo_entrp">   -188.37951105 </i>
    <i name="e_0_energy">   -188.52203018 </i>
   </energy>
  </scstep>
  <scstep>
   <time name="dav">   27.38   27.45</time>
   <time name="total">   27.92   28.00</time>
   <energy>
    <i name="e_fr_energy">   -188.66462211 </i>
    <i name="e_wo_entrp">   -188.37981139 </i>
    <i name="e_0_energy">   -188.52221675 </i>
   </energy>
  </scstep>
  <scstep>
   <time name="dav">   21.29   21.34</time>
   <time name="total">   21.83   21.89</time>
   <energy>
    <i name="e_fr_energy">   -188.66476774 </i>
    <i name="e_wo_entrp">   -188.37979988 </i>
    <i name="e_0_energy">   -188.52228381 </i>
   </energy>
  </scstep>
  <scstep>
   <time name="dav">   21.11   21.16</time>
   <time name="total">   21.15   21.21</time>
   <energy>
    <i name="alphaZ">     78.86473695 </i>
    <i name="ewald">  39348.91263697 </i>
    <i name="hartreedc"> -45313.99655041 </i>
    <i name="XCdc">   -238.03419126 </i>
    <i name="pawpsdc">   3949.02611391 </i>
    <i name="pawaedc">  -3363.51517176 </i>
    <i name="eentropy">     -0.28498062 </i>
    <i name="bandstr">  -1411.07996634 </i>
    <i name="atom">   6761.44252427 </i>
    <i name="e_fr_energy">   -188.66484829 </i>
    <i name="e_wo_entrp">   -188.37986767 </i>
    <i name="e_0_energy">   -188.52235798 </i>
   </energy>
  </scstep>
  <structure>
   <crystal>
    <varray name="basis" >
     <v>       8.85892063       5.11080059       0.00000000 </v>
     <v>      -8.85567781       5.10522266       0.00000000 </v>
     <v>       0.00000000       0.00000000      30.00000000 </v>
    </varray>
    <i name="volume">   2714.59097209 </i>
    <varray name="rec_basis" >
     <v>       0.05641980       0.09786754       0.00000000 </v>
     <v>      -0.05648144       0.09790338       0.00000000 </v>
     <v>       0.00000000       0.00000000       0.03333333 </v>
    </varray>
   </crystal>
   <varray name="positions" >
    <v>       0.66784933      -0.00005489      -0.00002113 </v>
    <v>       0.66794306       0.66666498      -0.00002874 </v>
    <v>       0.66653234       0.33452697       0.00004558 </v>
    <v>       0.00106727      -0.00036740      -0.00022635 </v>
    <v>      -0.00008495       0.66811236      -0.00014679 </v>
    <v>       0.33212725       0.33213255       0.00019798 </v>
    <v>       1.00088844       0.33303336      -0.00020172 </v>
    <v>       0.33086707       0.00048249       0.00025662 </v>
    <v>       0.33235622       0.66519723       0.00019528 </v>
    <v>       0.11032861       0.22248182       0.95073780 </v>
    <v>       0.22282597       0.11065248       0.04931952 </v>
    <v>       0.11122880       0.55494503       0.95071425 </v>
    <v>       0.22192768       0.44492799       0.04933105 </v>
    <v>       0.11178451       0.88916235       0.95066107 </v>
    <v>       0.22320494       0.77826545       0.04925332 </v>
    <v>       0.44846413       0.22339668       0.95195024 </v>
    <v>       0.55895679       0.11250565       0.04681703 </v>
    <v>       0.44843560       0.55814920       0.95197465 </v>
    <v>       0.55991603       0.44629803       0.04686994 </v>
    <v>       0.44808320       0.89053559       0.95199300 </v>
    <v>       0.55893149       0.77920420       0.04686359 </v>
    <v>       0.77424695       0.22063581       0.95313917 </v>
    <v>       0.88477875       0.10977450       0.04801678 </v>
    <v>       0.77325843       0.55349241       0.95310223 </v>
    <v>       0.88474591       0.44173377       0.04798718 </v>
    <v>       0.77328696       0.88685158       0.95314580 </v>
    <v>       0.88426366       0.77547427       0.04805256 </v>
   </varray>
  </structure>
  <varray name="forces" >
   <v>       0.16116832       0.11171111      -0.01432743 </v>
   <v>       0.17471119       0.12225033      -0.00634639 </v>
   <v>      -0.15563393       0.08907846       0.09106364 </v>
   <v>       0.40950635       0.29280611      -0.02930972 </v>
   <v>      -0.13815376       0.36475575       0.05092303 </v>
   <v>      -0.15144553      -0.42383398      -0.04464311 </v>
   <v>       0.27718427       0.28145141      -0.02332930 </v>
   <v>      -0.55753918      -0.35118231       0.02061683 </v>
   <v>       0.01697713      -0.42356606      -0.08143485 </v>
   <v>      -0.13321006      -0.00598970      -0.16467865 </v>
   <v>       0.13032152      -0.01323511       0.26673550 </v>
   <v>       0.10764835      -0.00413308      -0.02481039 </v>
   <v>      -0.10618140      -0.00915166       0.14231410 </v>
   <v>       0.05056268       0.11760856      -0.26456079 </v>
   <v>       0.06750427       0.11481364       0.02886440 </v>
   <v>       0.08356170      -0.05554250       0.07756942 </v>
   <v>      -0.06455130      -0.07519827      -0.22276117 </v>
   <v>      -0.10706906       0.04814272       0.15741156 </v>
   <v>       0.01178210       0.04651529      -0.06830756 </v>
   <v>      -0.06670100      -0.07124099       0.30467319 </v>
   <v>      -0.04468980      -0.07283889      -0.13644951 </v>
   <v>       0.05583469       0.07425639       0.13374095 </v>
   <v>      -0.06639797       0.05324372      -0.08657723 </v>
   <v>      -0.02370416      -0.04434627      -0.01610331 </v>
   <v>       0.11005584      -0.04948448      -0.18024651 </v>
   <v>       0.00238890      -0.04409622       0.05160344 </v>
   <v>      -0.04393015      -0.07279398       0.03836986 </v>
  </varray>
  <varray name="stress" >
   <v>     -20.01818135      -0.03831021       0.01216853 </v>
   <v>      -0.03831015     -19.63887078      -0.09605748 </v>
   <v>       0.01216849      -0.09605764      -1.72327038 </v>
  </varray>
  <energy>
   <i name="e_fr_energy">   -188.66484829 </i>
   <i name="e_wo_entrp">   -188.52235798 </i>
   <i name="e_0_energy">     -0.28498062 </i>
  </energy>
  <time name="totalsc">  432.73  433.89</time>
 </calculation>
 <calculation>
  <scstep>
   <time name="dav">   23.13   23.19</time>
   <time name="total">   23.66   23.72</time>
   <energy>
    <i name="alphaZ">     82.31154548 </i>
    <i name="ewald">  41285.77645318 </i>
    <i name="hartreedc"> -47281.92861412 </i>
    <i name="XCdc">   -233.87685850 </i>
    <i name="pawpsdc">   3948.13083174 </i>
    <i name="pawaedc">  -3362.61121819 </i>
    <i name="eentropy">     -0.23886765 </i>
    <i name="bandstr">  -1389.62745761 </i>
    <i name="atom">   6761.44252427 </i>
    <i name="e_fr_energy">   -190.62166141 </i>
    <i name="e_wo_entrp">   -190.38279375 </i>
    <i name="e_0_energy">   -190.50222758 </i>
   </energy>
  </scstep>
  <scstep>
   <time name="dav">   29.64   29.71</time>
   <time name="total">   30.17   30.25</time>
   <energy>
    <i name="e_fr_energy">   -190.55353186 </i>
    <i name="e_wo_entrp">   -190.32014373 </i>
    <i name="e_0_energy">   -190.43683779 </i>
   </energy>
  </scstep>
  <scstep>
   <time name="dav">   29.76   29.83</time>
   <time name="total">   30.28   30.36</time>
   <energy>
    <i name="e_fr_energy">   -190.11213226 </i>
    <i name="e_wo_entrp">   -189.85834465 </i>
    <i name="e_0_energy">   -189.98523845 </i>
   </energy>
  </scstep>
  <scstep>
   <time name="dav">   31.36   31.43</time>
   <time name="total">   31.89   31.97</time>
   <energy>
    <i name="e_fr_energy">   -189.88254215 </i>
    <i name="e_wo_entrp">   -189.64784815 </i>
    <i name="e_0_energy">   -189.76519515 </i>
   </energy>
  </scstep>
  <scstep>
   <time name="dav">   30.11   30.19</time>
   <time name="total">   30.64   30.72</time>
   <energy>
    <i name="e_fr_energy">   -189.86741619 </i>
    <i name="e_wo_entrp">   -189.61704502 </i>
    <i name="e_0_energy">   -189.74223061 </i>
   </energy>
  </scstep>
  <scstep>
   <time name="dav">   30.03   30.10</time>
   <time name="total">   30.56   30.64</time>
   <energy>
    <i name="e_fr_energy">   -189.78385452 </i>
    <i name="e_wo_entrp">   -189.54460503 </i>
    <i name="e_0_energy">   -189.66422977 </i>
   </energy>
  </scstep>
  <scstep>
   <time name="dav">   29.00   29.07</time>
   <time name="total">   29.53   29.60</time>
   <energy>
    <i name="e_fr_energy">   -189.77891588 </i>
    <i name="e_wo_entrp">   -189.53760811 </i>
    <i name="e_0_energy">   -189.65826199 </i>
   </energy>
  </scstep>
  <scstep>
   <time name="dav">   28.82   28.89</time>
   <time name="total">   29.35   29.43</time>
   <energy>
    <i name="e_fr_energy">   -189.77819833 </i>
    <i name="e_wo_entrp">   -189.53718898 </i>
    <i name="e_0_energy">   -189.65769366 </i>
   </energy>
  </scstep>
  <scstep>
   <time name="dav">   28.50   28.56</time>
   <time name="total">   29.02   29.10</time>
   <energy>
    <i name="e_fr_energy">   -189.77731294 </i>
    <i name="e_wo_entrp">   -189.53618669 </i>
    <i name="e_0_energy">   -189.65674981 </i>
   </energy>
  </scstep>
  <scstep>
   <time name="dav">   26.25   26.31</time>
   <time name="total">   26.77   26.85</time>
   <energy>
    <i name="e_fr_energy">   -189.77761331 </i>
    <i name="e_wo_entrp">   -189.53625383 </i>
    <i name="e_0_energy">   -189.65693357 </i>
   </energy>
  </scstep>
  <scstep>
   <time name="dav">   23.27   23.32</time>
   <time name="total">   23.79   23.86</time>
   <energy>
    <i name="e_fr_energy">   -189.77748558 </i>
    <i name="e_wo_entrp">   -189.53612946 </i>
    <i name="e_0_energy">   -189.65680752 </i>
   </energy>
  </scstep>
  <scstep>
   <time name="dav">   18.38   18.43</time>
   <time name="total">   18.42   18.47</time>
   <energy>
    <i name="alphaZ">     82.31154548 </i>
    <i name="ewald">  41285.77645318 </i>
    <i name="hartreedc"> -47256.89017182 </i>
    <i name="XCdc">   -235.27176328 </i>
    <i name="pawpsdc">   4038.09969240 </i>
    <i name="pawaedc">  -3453.79402601 </i>
    <i name="eentropy">     -0.24134241 </i>
    <i name="bandstr">  -1411.21043344 </i>
    <i name="atom">   6761.44252427 </i>
    <i name="e_fr_energy">   -189.77752163 </i>
    <i name="e_wo_entrp">   -189.53617922 </i>
    <i name="e_0_energy">   -189.65685043 </i>
   </energy>
  </scstep>
  <structure>
   <crystal>
    <varray name="basis" >
     <v>       8.66945090       5.00332084       0.00000000 </v>
     <v>      -8.66669505       4.99858409       0.00000000 </v>
     <v>       0.00000000       0.00000000      30.00000000 </v>
    </varray>
    <i name="volume">   2600.91706086 </i>
    <varray name="rec_basis" >
     <v>       0.05765563       0.09996507       0.00000000 </v>
     <v>      -0.05771027       0.09999686       0.00000000 </v>
     <v>       0.00000000       0.00000000       0.03333333 </v>
    </varray>
   </crystal>
   <varray name="positions" >
    <v>       0.66818991      -0.00002370      -0.00002925 </v>
    <v>       0.66831418       0.66670071      -0.00003234 </v>
    <v>       0.66653127       0.33482478       0.00009721 </v>
    <v>       0.00194755      -0.00027323      -0.00024297 </v>
    <v>       0.00038959       0.66885239      -0.00011792 </v>
    <v>       0.33127649       0.33157233       0.00017267 </v>
    <v>       1.00162286       0.33323573      -0.00021494 </v>
    <v>       0.32974758       0.00043331       0.00026831 </v>
    <v>       0.33166752       0.66447568       0.00014911 </v>
    <v>       0.11019082       0.22259980       0.95064444 </v>
    <v>       0.22292899       0.11050526       0.04947073 </v>
    <v>       0.11132522       0.55483474       0.95070018 </v>
    <v>       0.22181057       0.44501475       0.04941173 </v>
    <v>       0.11202877       0.88930960       0.95051109 </v>
    <v>       0.22346081       0.77839178       0.04926968 </v>
    <v>       0.44845186       0.22322393       0.95199421 </v>
    <v>       0.55876969       0.11244245       0.04669075 </v>
    <v>       0.44841300       0.55833220       0.95206389 </v>
    <v>       0.56000476       0.44636416       0.04683122 </v>
    <v>       0.44790063       0.89048105       0.95216572 </v>
    <v>       0.55876737       0.77912585       0.04678623 </v>
    <v>       0.77442412       0.22070582       0.95321499 </v>
    <v>       0.88480366       0.10992694       0.04796770 </v>
    <v>       0.77316187       0.55344134       0.95309310 </v>
    <v>       0.88476915       0.44154566       0.04788500 </v>
    <v>       0.77321586       0.88677587       0.95317505 </v>
    <v>       0.88410035       0.77539526       0.04807431 </v>
   </varray>
  </structure>
  <varray name="forces" >
   <v>       0.14365156       0.11364589      -0.00887189 </v>
   <v>       0.15325411       0.11782331      -0.00109474 </v>
   <v>      -0.12707247       0.07145063       0.08630283 </v>
   <v>       0.45706230       0.36513105       0.00505238 </v>
   <v>      -0.09152572       0.43798044       0.06504030 </v>
   <v>      -0.21153605      -0.48841323      -0.06150290 </v>
   <v>       0.30421068       0.36403929       0.01654717 </v>
   <v>      -0.56598185      -0.40763381      -0.02073269 </v>
   <v>      -0.00941301      -0.49720835      -0.10242109 </v>
   <v>      -0.04507628      -0.01581714      -0.73595702 </v>
   <v>       0.02868239      -0.01917927       0.85376956 </v>
   <v>       0.02001394      -0.01072811      -0.59283231 </v>
   <v>      -0.02739438      -0.02017743       0.72793405 </v>
   <v>       0.01468109       0.05297250      -0.84816265 </v>
   <v>       0.03193303       0.05794918       0.59169491 </v>
   <v>       0.07967211       0.06894415      -0.41264961 </v>
   <v>       0.00504710       0.04263122       0.22199486 </v>
   <v>       0.02060436       0.10518974      -0.33316487 </v>
   <v>       0.02982521       0.09829754       0.37287782 </v>
   <v>      -0.01471505       0.04758465      -0.16936588 </v>
   <v>       0.03477238       0.04990070       0.31814528 </v>
   <v>      -0.02601144      -0.04957896      -0.32513363 </v>
   <v>      -0.04692305      -0.06750450       0.39674468 </v>
   <v>      -0.05281951      -0.09707474      -0.46987717 </v>
   <v>       0.00398169      -0.09979984       0.29466455 </v>
   <v>      -0.01872466      -0.09614760      -0.39602862 </v>
   <v>      -0.09019849      -0.12427731       0.52702667 </v>
  </varray>
  <varray name="stress" >
   <v>     -10.28158725      -0.00367739      -0.01959044 </v>
   <v>      -0.00367755      -9.96781603      -0.10255591 </v>
   <v>      -0.01959025      -0.10255597       6.48724007 </v>
  </varray>
  <energy>
   <i name="e_fr_energy">   -189.77752163 </i>
   <i name="e_wo_entrp">   -189.65685043 </i>
   <i name="e_0_energy">     -0.24134241 </i>
  </energy>
  <time name="totalsc">  376.20  377.21</time>
 </calculation>
 <calculation>
  <scstep>
   <time name="dav">   21.52   21.58</time>
   <time name="total">   22.04   22.09</time>
   <energy>
    <i name="alphaZ">     85.85398314 </i>
    <i name="ewald">  42851.85899346 </i>
    <i name="hartreedc"> -48868.07853578 </i>
    <i name="XCdc">   -232.91868673 </i>
    <i name="pawpsdc">   4038.09946956 </i>
    <i name="pawaedc">  -3453.79071511 </i>
    <i name="eentropy">     -0.19884016 </i>
    <i name="bandstr">  -1373.68460928 </i>
    <i name="atom">   6761.44252427 </i>
    <i name="e_fr_energy">   -191.41641663 </i>
    <i name="e_wo_entrp">   -191.21757646 </i>
    <i name="e_0_energy">   -191.31699655 </i>
   </energy>
  </scstep>
  <scstep>
   <time name="dav">   32.06   32.14</time>
   <time name="total">   32.57   32.66</time>
   <energy>
    <i name="e_fr_energy">   -191.14561862 </i>
    <i name="e_wo_entrp">   -190.94203636 </i>
    <i name="e_0_energy">   -191.04382749 </i>
   </energy>
  </scstep>
  <scstep>
   <time name="dav">   29.42   29.49</time>
   <time name="total">   29.92   30.00</time>
   <energy>
    <i name="e_fr_energy">   -191.46590616 </i>
    <i name="e_wo_entrp">   -191.24916668 </i>
    <i name="e_0_energy">   -191.35753642 </i>
   </energy>
  </scstep>
  <scstep>
   <time name="dav">   28.22   28.28</time>
   <time name="total">   28.73   28.81</time>
   <energy>
    <i name="e_fr_energy">   -191.00935456 </i>
    <i name="e_wo_entrp">   -190.79706291 </i>
    <i name="e_0_energy">   -190.90320874 </i>
   </energy>
  </scstep>
  <scstep>
   <time name="dav">   29.36   29.43</time>
   <time name="total">   29.87   29.96</time>
   <energy>
    <i name="e_fr_energy">   -190.99960996 </i>
    <i name="e_wo_entrp">   -190.80460337 </i>
    <i name="e_0_energy">   -190.90210666 </i>
   </energy>
  </scstep>
  <scstep>
   <time name="dav">   29.89   29.96</time>
   <time name="total">   30.40   30.48</time>
   <energy>
    <i name="e_fr_energy">   -190.81454157 </i>
    <i name="e_wo_entrp">   -190.60711172 </i>
    <i name="e_0_energy">   -190.71082664 </i>
   </energy>
  </scstep>
  <scstep>
   <time name="dav">   30.16   30.23</time>
   <time name="total">   30.68   30.76</time>
   <energy>
    <i name="e_fr_energy">   -190.81463465 </i>
    <i name="e_wo_entrp">   -190.60842924 </i>
    <i name="e_0_energy">   -190.71153195 </i>
   </energy>
  </scstep>
  <scstep>
   <time name="dav">   29.45   29.52</time>
   <time name="total">   29.96   30.04</time>
   <energy>
    <i name="e_fr_energy">   -190.81266487 </i>
    <i name="e_wo_entrp">   -190.60591457 </i>
    <i name="e_0_energy">   -190.70928972 </i>
   </energy>
  </scstep>
  <scstep>
   <time name="dav">   28.43   28.50</time>
   <time name="total">   28.94   29.02</time>
   <energy>
    <i name="e_fr_energy">   -190.80877749 </i>
    <i name="e_wo_entrp">   -190.60245584 </i>
    <i name="e_0_energy">   -190.70561667 </i>
   </energy>
  </scstep>
  <scstep>
   <time name="dav">   27.62   27.69</time>
   <time name="total">   28.13   28.21</time>
   <energy>
    <i name="e_fr_energy">   -190.80909181 </i>
    <i name="e_wo_entrp">   -190.60263733 </i>
    <i name="e_0_energy">   -190.70586457 </i>
   </energy>
  </scstep>
  <scstep>
   <time name="dav">   27.04   27.11</time>
   <time name="total">   27.56   27.63</time>
   <energy>
    <i name="e_fr_energy">   -190.80887479 </i>
    <i name="e_wo_entrp">   -190.60231900 </i>
    <i name="e_0_energy">   -190.70559689 </i>
   </energy>
  </scstep>
  <scstep>
   <time name="dav">   18.41   18.45</time>
   <time name="total">   18.44   18.50</time>
   <energy>
    <i name="alphaZ">     85.85398314 </i>
    <i name="ewald">  42851.85899346 </i>
    <i name="hartreedc"> -48839.34210535 </i>
    <i name="XCdc">   -234.27569620 </i>
    <i name="pawpsdc">   4064.69638019 </i>
    <i name="pawaedc">  -3480.59022110 </i>
    <i name="eentropy">     -0.20659347 </i>
    <i name="bandstr">  -1400.24615495 </i>
    <i name="atom">   6761.44252427 </i>
    <i name="e_fr_energy">   -190.80889001 </i>
    <i name="e_wo_entrp">   -190.60229654 </i>
    <i name="e_0_energy">   -190.70559328 </i>
   </energy>
  </scstep>
  <structure>
   <crystal>
    <varray name="basis" >
     <v>       8.48451369       4.90195722       0.00000000 </v>
     <v>      -8.48136537       4.89653449       0.00000000 </v>
     <v>       0.00000000       0.00000000      30.00000000 </v>
    </varray>
    <i name="volume">   2493.60012314 </i>
    <varray name="rec_basis" >
     <v>       0.05890922       0.10203760       0.00000000 </v>
     <v>      -0.05897446       0.10207547       0.00000000 </v>
     <v>       0.00000000       0.00000000       0.03333333 </v>
    </varray>
   </crystal>
   <varray name="positions" >
    <v>       0.66940295       0.00019960      -0.00004298 </v>
    <v>       0.66956647       0.66690513      -0.00003010 </v>
    <v>       0.66651671       0.33564808       0.00027222 </v>
    <v>       0.00614604       0.00047607      -0.00020300 </v>
    <v>       0.00305973       0.67205109       0.00002916 </v>
    <v>       0.32719453       0.32919674       0.00003058 </v>
    <v>       1.00525702       0.33458788      -0.00014639 </v>
    <v>       0.32498465      -0.00020495       0.00018980 </v>
    <v>       0.32828839       0.66124044      -0.00008144 </v>
    <v>       0.11003153       0.22251097       0.94862703 </v>
    <v>       0.22274988       0.11041365       0.05174614 </v>
    <v>       0.11118647       0.55480562       0.94898259 </v>
    <v>       0.22167134       0.44484502       0.05142479 </v>
    <v>       0.11219955       0.88947831       0.94825026 </v>
    <v>       0.22374533       0.77854834       0.05098046 </v>
    <v>       0.44948110       0.22368744       0.95071728 </v>
    <v>       0.55945347       0.11288759       0.04753302 </v>
    <v>       0.44947704       0.55887619       0.95095161 </v>
    <v>       0.56088647       0.44697756       0.04798354 </v>
    <v>       0.44852086       0.89105704       0.95140755 </v>
    <v>       0.55963111       0.77950694       0.04783648 </v>
    <v>       0.77358790       0.22029571       0.95214657 </v>
    <v>       0.88393410       0.10934054       0.04920570 </v>
    <v>       0.77218611       0.55293267       0.95172869 </v>
    <v>       0.88387629       0.44093196       0.04890394 </v>
    <v>       0.77238271       0.88613952       0.95196916 </v>
    <v>       0.88279669       0.77487933       0.04958726 </v>
   </varray>
  </structure>
  <varray name="forces" >
   <v>       0.12557193       0.16206384      -0.00791502 </v>
   <v>       0.10980225       0.15034961       0.00104504 </v>
   <v>      -0.04953965       0.02277642       0.05186176 </v>
   <v>       0.46881511       0.36957627       0.03584005 </v>
   <v>      -0.07667959       0.49445560       0.03428097 </v>
   <v>      -0.28383863      -0.51867451      -0.03173489 </v>
   <v>       0.32656160       0.39484492       0.04179927 </v>
   <v>      -0.55322083      -0.39551390      -0.04689367 </v>
   <v>       0.01335586      -0.55982884      -0.06076585 </v>
   <v>       0.01086971      -0.07128503      -0.58120903 </v>
   <v>      -0.03159570      -0.00093774       0.67020764 </v>
   <v>      -0.05708355      -0.06096133      -0.45512068 </v>
   <v>       0.03378498      -0.01137895       0.58243842 </v>
   <v>      -0.02247388      -0.01024934      -0.68276441 </v>
   <v>       0.00229940       0.05599271       0.42353576 </v>
   <v>      -0.01760156      -0.01631265      -0.24351724 </v>
   <v>      -0.05490712      -0.04627224       0.15009349 </v>
   <v>       0.05010964      -0.01317130      -0.20308833 </v>
   <v>      -0.05539929      -0.02411014       0.25820922 </v>
   <v>      -0.06079193      -0.02856034      -0.01837028 </v>
   <v>       0.01544874      -0.03415482       0.19983928 </v>
   <v>       0.00801179       0.03338120      -0.23331272 </v>
   <v>       0.05336614       0.01618275       0.23623005 </v>
   <v>       0.00232812       0.02681178      -0.33655783 </v>
   <v>       0.00477232       0.02972477       0.15148210 </v>
   <v>       0.07222608       0.02569024      -0.30543298 </v>
   <v>      -0.03419195       0.00956102       0.36981990 </v>
  </varray>
  <varray name="stress" >
   <v>      -5.82347035       0.17234222      -0.04930425 </v>
   <v>       0.17234221      -5.69609831       0.11635137 </v>
   <v>      -0.04930439       0.11635123       4.71177277 </v>
  </varray>
  <energy>
   <i name="e_fr_energy">   -190.80889001 </i>
   <i name="e_wo_entrp">   -190.70559328 </i>
   <i name="e_0_energy">     -0.20659347 </i>
  </energy>
  <time name="totalsc">  379.13  380.14</time>
 </calculation>
 <calculation>
  <scstep>
   <time name="dav">   21.52   21.57</time>
   <time name="total">   22.02   22.08</time>
   <energy>
    <i name="alphaZ">     90.18674785 </i>
    <i name="ewald">  44667.44853329 </i>
    <i name="hartreedc"> -50710.00249429 </i>
    <i name="XCdc">   -231.86911715 </i>
    <i name="pawpsdc">   4064.61990069 </i>
    <i name="pawaedc">  -3480.51000025 </i>
    <i name="eentropy">     -0.18118779 </i>
    <i name="bandstr">  -1353.35775748 </i>
    <i name="atom">   6761.44252427 </i>
    <i name="e_fr_energy">   -192.22285085 </i>
    <i name="e_wo_entrp">   -192.04166306 </i>
    <i name="e_0_energy">   -192.13225695 </i>
   </energy>
  </scstep>
  <scstep>
   <time name="dav">   27.72   27.79</time>
   <time name="total">   28.23   28.30</time>
   <energy>
    <i name="e_fr_energy">   -191.99156716 </i>
    <i name="e_wo_entrp">   -191.77698676 </i>
    <i name="e_0_energy">   -191.88427696 </i>
   </energy>
  </scstep>
  <scstep>
   <time name="dav">   29.96   30.03</time>
   <time name="total">   30.46   30.54</time>
   <energy>
    <i name="e_fr_energy">   -192.43479637 </i>
    <i name="e_wo_entrp">   -192.26139701 </i>
    <i name="e_0_energy">   -192.34809669 </i>
   </energy>
  </scstep>
  <scstep>
   <time name="dav">   30.11   30.18</time>
   <time name="total">   30.61   30.69</time>
   <energy>
    <i name="e_fr_energy">   -191.68907658 </i>
    <i name="e_wo_entrp">   -191.49906018 </i>
    <i name="e_0_energy">   -191.59406838 </i>
   </energy>
  </scstep>
  <scstep>
   <time name="dav">   29.02   29.09</time>
   <time name="total">   29.53   29.61</time>
   <energy>
    <i name="e_fr_energy">   -191.74284123 </i>
    <i name="e_wo_entrp">   -191.54226308 </i>
    <i name="e_0_energy">   -191.64255215 </i>
   </energy>
  </scstep>
  <scstep>
   <time name="dav">   29.71   29.78</time>
   <time name="total">   30.21   30.29</time>
   <energy>
    <i name="e_fr_energy">   -191.54588768 </i>
    <i name="e_wo_entrp">   -191.35488901 </i>
    <i name="e_0_energy">   -191.45038835 </i>
   </energy>
  </scstep>
  <scstep>
   <time name="dav">   29.35   29.42</time>
   <time name="total">   29.85   29.93</time>
   <energy>
    <i name="e_fr_energy">   -191.53849074 </i>
    <i name="e_wo_entrp">   -191.34114782 </i>
    <i name="e_0_energy">   -191.43981928 </i>
   </energy>
  </scstep>
  <scstep>
   <time name="dav">   30.21   30.29</time>
   <time name="total">   30.72   30.80</time>
   <energy>
    <i name="e_fr_energy">   -191.53673001 </i>
    <i name="e_wo_entrp">   -191.34087743 </i>
    <i name="e_0_energy">   -191.43880372 </i>
   </energy>
  </scstep>
  <scstep>
   <time name="dav">   28.45   28.51</time>
   <time name="total">   28.95   29.03</time>
   <energy>
    <i name="e_fr_energy">   -191.53224940 </i>
    <i name="e_wo_entrp">   -191.33645704 </i>
    <i name="e_0_energy">   -191.43435322 </i>
   </energy>
  </scstep>
  <scstep>
   <time name="dav">   28.47   28.53</time>
   <time name="total">   28.97   29.05</time>
   <energy>
    <i name="e_fr_energy">   -191.53225961 </i>
    <i name="e_wo_entrp">   -191.33669781 </i>
    <i name="e_0_energy">   -191.43447871 </i>
   </energy>
  </scstep>
  <scstep>
   <time name="dav">   24.23   24.29</time>
   <time name="total">   24.27   24.34</time>
   <energy>
    <i name="alphaZ">     90.18674785 </i>
    <i name="ewald">  44667.44853329 </i>
    <i name="hartreedc"> -50676.05139842 </i>
    <i name="XCdc">   -233.37034691 </i>
    <i name="pawpsdc">   4086.74440947 </i>
    <i name="pawaedc">  -3502.73670257 </i>
    <i name="eentropy">     -0.19578816 </i>
    <i name="bandstr">  -1385.00025202 </i>
    <i name="atom">   6761.44252427 </i>
    <i name="e_fr_energy">   -191.53227320 </i>
    <i name="e_wo_entrp">   -191.33648504 </i>
    <i name="e_0_energy">   -191.43437912 </i>
   </energy>
  </scstep>
  <structure>
   <crystal>
    <varray name="basis" >
     <v>       8.27982610       4.79412601       0.00000000 </v>
     <v>      -8.26610449       4.77038937       0.00000000 </v>
     <v>       0.00000000       0.00000000      30.00000000 </v>
    </varray>
    <i name="volume">   2373.80222752 </i>
    <varray name="rec_basis" >
     <v>       0.06028795       0.10446664       0.00000000 </v>
     <v>      -0.06058794       0.10464005       0.00000000 </v>
     <v>       0.00000000       0.00000000       0.03333333 </v>
    </varray>
   </crystal>
   <varray name="positions" >
    <v>       0.67216832       0.00122546      -0.00006954 </v>
    <v>       0.67210448       0.66788969      -0.00002199 </v>
    <v>       0.66644907       0.33632985       0.00049131 </v>
    <v>       0.01419533       0.00180890      -0.00004388 </v>
    <v>       0.00871104       0.67865602       0.00019502 </v>
    <v>       0.31873268       0.32477895      -0.00012734 </v>
    <v>       1.01255706       0.33725716       0.00004464 </v>
    <v>       0.31608678      -0.00128332      -0.00002236 </v>
    <v>       0.32140443       0.65429684      -0.00036468 </v>
    <v>       0.10939658       0.22153920       0.94568638 </v>
    <v>       0.22235966       0.11068726       0.05507001 </v>
    <v>       0.11003794       0.55460041       0.94655368 </v>
    <v>       0.22179560       0.44435165       0.05437937 </v>
    <v>       0.11181317       0.88945492       0.94488961 </v>
    <v>       0.22425252       0.77908419       0.05329531 </v>
    <v>       0.44974190       0.22402296       0.94918580 </v>
    <v>       0.55916075       0.11302225       0.04859859 </v>
    <v>       0.45020911       0.55854000       0.94960065 </v>
    <v>       0.56066544       0.44731264       0.04949665 </v>
    <v>       0.44834172       0.89147249       0.95079344 </v>
    <v>       0.55996303       0.77932318       0.04913331 </v>
    <v>       0.77339197       0.22032186       0.95072699 </v>
    <v>       0.88395879       0.10874263       0.05069703 </v>
    <v>       0.77207280       0.55298774       0.94988303 </v>
    <v>       0.88373815       0.44107796       0.05004214 </v>
    <v>       0.77273069       0.88571614       0.95027543 </v>
    <v>       0.88217543       0.77499742       0.05161130 </v>
   </varray>
  </structure>
  <varray name="forces" >
   <v>       0.11981661       0.28722408      -0.04807420 </v>
   <v>       0.09196893       0.22326859      -0.00470394 </v>
   <v>       0.02072700      -0.06462480       0.05789789 </v>
   <v>       0.12460235       0.00319739      -0.07850900 </v>
   <v>      -0.03996361       0.26879707      -0.08885910 </v>
   <v>      -0.24783011      -0.18091125       0.09496736 </v>
   <v>       0.21009088       0.19527120      -0.10830870 </v>
   <v>      -0.24137550      -0.12114679       0.05790163 </v>
   <v>       0.05119475      -0.44984413       0.05473762 </v>
   <v>       0.01178885      -0.17073224      -0.20176743 </v>
   <v>      -0.04333180       0.05923469       0.26393939 </v>
   <v>      -0.11400570      -0.11294551      -0.16539973 </v>
   <v>       0.07610057      -0.00100412       0.33505476 </v>
   <v>      -0.04465370      -0.04922493      -0.30633877 </v>
   <v>       0.02080912       0.10347314       0.08703962 </v>
   <v>      -0.15327401      -0.14671778       0.02464940 </v>
   <v>      -0.11151679      -0.17777772      -0.09901771 </v>
   <v>       0.01397145      -0.19024633       0.07460454 </v>
   <v>      -0.11665125      -0.13711074      -0.09245369 </v>
   <v>      -0.12855752      -0.17274558       0.26559714 </v>
   <v>      -0.03183643      -0.13646452      -0.11435043 </v>
   <v>       0.05848821       0.14842897       0.02125681 </v>
   <v>       0.16141371       0.14538476       0.02655660 </v>
   <v>       0.05065070       0.13571017       0.02555037 </v>
   <v>       0.05770114       0.21403567      -0.13042210 </v>
   <v>       0.13473883       0.14221022      -0.01765147 </v>
   <v>       0.06893330       0.18526053       0.06610314 </v>
  </varray>
  <varray name="stress" >
   <v>      -0.32051655       0.56788055       0.28430185 </v>
   <v>       0.56788064       0.33484793       0.75561791 </v>
   <v>       0.28430206       0.75561811      -0.33512279 </v>
  </varray>
  <energy>
   <i name="e_fr_energy">   -191.53227320 </i>
   <i name="e_wo_entrp">   -191.43437912 </i>
   <i name="e_0_energy">     -0.19578816 </i>
  </energy>
  <time name="totalsc">  356.28  357.22</time>
 </calculation>
 <calculation>
  <scstep>
   <time name="dav">   21.54   21.59</time>
   <time name="total">   22.04   22.10</time>
   <energy>
    <i name="alphaZ">     90.21288342 </i>
    <i name="ewald">  44654.78765008 </i>
    <i name="hartreedc"> -50664.62770171 </i>
    <i name="XCdc">   -233.45456780 </i>
    <i name="pawpsdc">   4087.04039629 </i>
    <i name="pawaedc">  -3503.03014275 </i>
    <i name="eentropy">     -0.19536569 </i>
    <i name="bandstr">  -1383.78188318 </i>
    <i name="atom">   6761.44252427 </i>
    <i name="e_fr_energy">   -191.60620707 </i>
    <i name="e_wo_entrp">   -191.41084138 </i>
    <i name="e_0_energy">   -191.50852423 </i>
   </energy>
  </scstep>
  <scstep>
   <time name="dav">   31.43   31.51</time>
   <time name="total">   31.94   32.02</time>
   <energy>
    <i name="e_fr_energy">   -191.70719488 </i>
    <i name="e_wo_entrp">   -191.49464226 </i>
    <i name="e_0_energy">   -191.60091857 </i>
   </energy>
  </scstep>
  <scstep>
   <time name="dav">   30.38   30.45</time>
   <time name="total">   30.88   30.96</time>
   <energy>
    <i name="e_fr_energy">   -191.62055300 </i>
    <i name="e_wo_entrp">   -191.42231525 </i>
    <i name="e_0_energy">   -191.52143413 </i>
   </energy>
  </scstep>
  <scstep>
   <time name="dav">   28.58   28.65</time>
   <time name="total">   29.08   29.16</time>
   <energy>
    <i name="e_fr_energy">   -191.62480486 </i>
    <i name="e_wo_entrp">   -191.42605854 </i>
    <i name="e_0_energy">   -191.52543170 </i>
   </energy>
  </scstep>
  <scstep>
   <time name="dav">   28.62   28.69</time>
   <time name="total">   29.12   29.20</time>
   <energy>
    <i name="e_fr_energy">   -191.61770221 </i>
    <i name="e_wo_entrp">   -191.41761734 </i>
    <i name="e_0_energy">   -191.51765977 </i>
   </energy>
  </scstep>
  <scstep>
   <time name="dav">   28.36   28.42</time>
   <time name="total">   28.86   28.94</time>
   <energy>
    <i name="e_fr_energy">   -191.61893828 </i>
    <i name="e_wo_entrp">   -191.41999051 </i>
    <i name="e_0_energy">   -191.51946439 </i>
   </energy>
  </scstep>
  <scstep>
   <time name="dav">   28.13   28.19</time>
   <time name="total">   28.63   28.71</time>
   <energy>
    <i name="e_fr_energy">   -191.61757744 </i>
    <i name="e_wo_entrp">   -191.41705467 </i>
    <i name="e_0_energy">   -191.51731605 </i>
   </energy>
  </scstep>
  <scstep>
   <time name="dav">   25.55   25.61</time>
   <time name="total">   26.05   26.12</time>
   <energy>
    <i name="e_fr_energy">   -191.61719680 </i>
    <i name="e_wo_entrp">   -191.41733446 </i>
    <i name="e_0_energy">   -191.51726563 </i>
   </energy>
  </scstep>
  <scstep>
   <time name="dav">   18.00   18.04</time>
   <time name="total">   18.03   18.09</time>
   <energy>
    <i name="alphaZ">     90.21288342 </i>
    <i name="ewald">  44654.78765008 </i>
    <i name="hartreedc"> -50665.56232720 </i>
    <i name="XCdc">   -233.43695945 </i>
    <i name="pawpsdc">   4084.22841639 </i>
    <i name="pawaedc">  -3500.17420581 </i>
    <i name="eentropy">     -0.19978735 </i>
    <i name="bandstr">  -1382.91539488 </i>
    <i name="atom">   6761.44252427 </i>
    <i name="e_fr_energy">   -191.61720054 </i>
    <i name="e_wo_entrp">   -191.41741319 </i>
    <i name="e_0_energy">   -191.51730686 </i>
   </energy>
  </scstep>
  <structure>
   <crystal>
    <varray name="basis" >
     <v>       8.27868019       4.81048760       0.00000000 </v>
     <v>      -8.25020350       4.76118349       0.00000000 </v>
     <v>       0.00000000       0.00000000      30.00000000 </v>
    </varray>
    <i name="volume">   2373.11451331 </i>
    <varray name="rec_basis" >
     <v>       0.06018905       0.10429590       0.00000000 </v>
     <v>      -0.06081233       0.10465589       0.00000000 </v>
     <v>       0.00000000       0.00000000       0.03333333 </v>
    </varray>
   </crystal>
   <varray name="positions" >
    <v>       0.67402946       0.00235739      -0.00014859 </v>
    <v>       0.67355222       0.66877501      -0.00002957 </v>
    <v>       0.66617784       0.33594384       0.00058879 </v>
    <v>       0.01467470       0.00147037      -0.00017060 </v>
    <v>       0.01003882       0.68023346       0.00005151 </v>
    <v>       0.31697139       0.32453540       0.00002626 </v>
    <v>       1.01426736       0.33766756      -0.00013049 </v>
    <v>       0.31464629      -0.00120104       0.00006991 </v>
    <v>       0.31916610       0.65175076      -0.00027852 </v>
    <v>       0.10854861       0.22061446       0.94531737 </v>
    <v>       0.22252980       0.11112467       0.05554549 </v>
    <v>       0.10910680       0.55435766       0.94625018 </v>
    <v>       0.22201761       0.44411327       0.05496705 </v>
    <v>       0.11142279       0.88933398       0.94434431 </v>
    <v>       0.22484995       0.77955963       0.05346919 </v>
    <v>       0.44854151       0.22373171       0.94920441 </v>
    <v>       0.55791887       0.11244379       0.04845208 </v>
    <v>       0.44928591       0.55751718       0.94970333 </v>
    <v>       0.55961652       0.44696040       0.04936612 </v>
    <v>       0.44707600       0.89097405       0.95121754 </v>
    <v>       0.55917650       0.77871650       0.04896456 </v>
    <v>       0.77432035       0.22090904       0.95074186 </v>
    <v>       0.88517999       0.10899971       0.05076180 </v>
    <v>       0.77291513       0.55353369       0.94989997 </v>
    <v>       0.88500279       0.44200747       0.04984550 </v>
    <v>       0.77386078       0.88603981       0.95022351 </v>
    <v>       0.88332035       0.77574467       0.05174696 </v>
   </varray>
  </structure>
  <varray name="forces" >
   <v>       0.15181933       0.35937067      -0.02483955 </v>
   <v>       0.11242712       0.25469480       0.02883479 </v>
   <v>      -0.00862044      -0.11676923       0.08094349 </v>
   <v>       0.12110481       0.02073422       0.01812502 </v>
   <v>      -0.05870024       0.29048324      -0.03054843 </v>
   <v>      -0.24358187      -0.20755685       0.02251278 </v>
   <v>       0.24985404       0.19282027      -0.00642136 </v>
   <v>      -0.30359332      -0.13187796      -0.03429769 </v>
   <v>       0.05887118      -0.48149482       0.01774115 </v>
   <v>       0.02612452      -0.09587261      -0.14313684 </v>
   <v>      -0.06225487      -0.00778240       0.14865234 </v>
   <v>      -0.06383793      -0.05993351      -0.12005997 </v>
   <v>       0.01110633      -0.05810625       0.25461894 </v>
   <v>      -0.00760652       0.02111564      -0.19226555 </v>
   <v>       0.02289520       0.04643806       0.03133272 </v>
   <v>      -0.12102100      -0.08635362       0.05940584 </v>
   <v>      -0.05519952      -0.12244663      -0.10962641 </v>
   <v>       0.00269023      -0.12246742       0.10668420 </v>
   <v>      -0.08349641      -0.08491320      -0.11677082 </v>
   <v>      -0.05294950      -0.11920845       0.31848939 </v>
   <v>      -0.03893545      -0.09475568      -0.17094576 </v>
   <v>       0.03693698       0.10650366       0.01279374 </v>
   <v>       0.08807425       0.08874633       0.00823728 </v>
   <v>       0.04176190       0.08510133       0.04427698 </v>
   <v>       0.04004015       0.13337846      -0.18721302 </v>
   <v>       0.08014710       0.07943754      -0.04491944 </v>
   <v>       0.05594395       0.11071442       0.02839617 </v>
  </varray>
  <varray name="stress" >
   <v>      -0.01368790      -0.01640886       0.03725237 </v>
   <v>      -0.01640893       0.03724502       0.22184114 </v>
   <v>       0.03725235       0.22184111      -1.28446900 </v>
  </varray>
  <energy>
   <i name="e_fr_energy">   -191.61720054 </i>
   <i name="e_wo_entrp">   -191.51730686 </i>
   <i name="e_0_energy">     -0.19978735 </i>
  </energy>
  <time name="totalsc">  286.16  286.92</time>
 </calculation>
 <calculation>
  <scstep>
   <time name="dav">   21.56   21.61</time>
   <time name="total">   22.06   22.12</time>
   <energy>
    <i name="alphaZ">     90.21357840 </i>
    <i name="ewald">  44657.33900723 </i>
    <i name="hartreedc"> -50667.98664765 </i>
    <i name="XCdc">   -233.43207418 </i>
    <i name="pawpsdc">   4084.19370558 </i>
    <i name="pawaedc">  -3500.13903503 </i>
    <i name="eentropy">     -0.19717743 </i>
    <i name="bandstr">  -1383.12078683 </i>
    <i name="atom">   6761.44252427 </i>
    <i name="e_fr_energy">   -191.68690564 </i>
    <i name="e_wo_entrp">   -191.48972821 </i>
    <i name="e_0_energy">   -191.58831692 </i>
   </energy>
  </scstep>
  <scstep>
   <time name="dav">   32.59   32.66</time>
   <time name="total">   33.09   33.17</time>
   <energy>
    <i name="e_fr_energy">   -191.76297413 </i>
    <i name="e_wo_entrp">   -191.54785067 </i>
    <i name="e_0_energy">   -191.65541240 </i>
   </energy>
  </scstep>
  <scstep>
   <time name="dav">   30.18   30.26</time>
   <time name="total">   30.69   30.77</time>
   <energy>
    <i name="e_fr_energy">   -191.69541088 </i>
    <i name="e_wo_entrp">   -191.49505648 </i>
    <i name="e_0_energy">   -191.59523368 </i>
   </energy>
  </scstep>
  <scstep>
   <time name="dav">   28.45   28.52</time>
   <time name="total">   28.95   29.03</time>
   <energy>
    <i name="e_fr_energy">   -191.69880839 </i>
    <i name="e_wo_entrp">   -191.49983654 </i>
    <i name="e_0_energy">   -191.59932246 </i>
   </energy>
  </scstep>
  <scstep>
   <time name="dav">   28.66   28.73</time>
   <time name="total">   29.16   29.24</time>
   <energy>
    <i name="e_fr_energy">   -191.69252892 </i>
    <i name="e_wo_entrp">   -191.49125718 </i>
    <i name="e_0_energy">   -191.59189305 </i>
   </energy>
  </scstep>
  <scstep>
   <time name="dav">   28.45   28.52</time>
   <time name="total">   28.96   29.04</time>
   <energy>
    <i name="e_fr_energy">   -191.69299320 </i>
    <i name="e_wo_entrp">   -191.49245765 </i>
    <i name="e_0_energy">   -191.59272543 </i>
   </energy>
  </scstep>
  <scstep>
   <time name="dav">   28.70   28.77</time>
   <time name="total">   29.20   29.28</time>
   <energy>
    <i name="e_fr_energy">   -191.69276895 </i>
    <i name="e_wo_entrp">   -191.49084673 </i>
    <i name="e_0_energy">   -191.59180784 </i>
   </energy>
  </scstep>
  <scstep>
   <time name="dav">   24.84   24.90</time>
   <time name="total">   25.34   25.41</time>
   <energy>
    <i name="e_fr_energy">   -191.69221617 </i>
    <i name="e_wo_entrp">   -191.49104601 </i>
    <i name="e_0_energy">   -191.59163109 </i>
   </energy>
  </scstep>
  <scstep>
   <time name="dav">   17.27   17.31</time>
   <time name="total">   17.30   17.35</time>
   <energy>
    <i name="alphaZ">     90.21357840 </i>
    <i name="ewald">  44657.33900723 </i>
    <i name="hartreedc"> -50668.76337044 </i>
    <i name="XCdc">   -233.40497792 </i>
    <i name="pawpsdc">   4086.96779549 </i>
    <i name="pawaedc">  -3502.94726071 </i>
    <i name="eentropy">     -0.20108019 </i>
    <i name="bandstr">  -1382.33842632 </i>
    <i name="atom">   6761.44252427 </i>
    <i name="e_fr_energy">   -191.69221018 </i>
    <i name="e_wo_entrp">   -191.49112999 </i>
    <i name="e_0_energy">   -191.59167008 </i>
   </energy>
  </scstep>
  <structure>
   <crystal>
    <varray name="basis" >
     <v>       8.27783680       4.81053305       0.00000000 </v>
     <v>      -8.24971471       4.76183373       0.00000000 </v>
     <v>       0.00000000       0.00000000      30.00000000 </v>
    </varray>
    <i name="volume">   2373.09623153 </i>
    <varray name="rec_basis" >
     <v>       0.06019773       0.10429052       0.00000000 </v>
     <v>      -0.06081338       0.10464603       0.00000000 </v>
     <v>       0.00000000       0.00000000       0.03333333 </v>
    </varray>
   </crystal>
   <varray name="positions" >
    <v>       0.67643525       0.00382015      -0.00019145 </v>
    <v>       0.67527419       0.66979760       0.00001972 </v>
    <v>       0.66552530       0.33534414       0.00072816 </v>
    <v>       0.01518243       0.00120612      -0.00013972 </v>
    <v>       0.01143178       0.68199935      -0.00000086 </v>
    <v>       0.31507991       0.32416859       0.00006494 </v>
    <v>       1.01609629       0.33793208      -0.00014169 </v>
    <v>       0.31297455      -0.00096468       0.00001109 </v>
    <v>       0.31674491       0.64895410      -0.00024862 </v>
    <v>       0.10811146       0.22001191       0.94506251 </v>
    <v>       0.22229546       0.11127974       0.05581126 </v>
[...]
      <set comment="kpoint 31">
       <r>  -17.4881    1.0000 </r>
       <r>  -17.2951    1.0000 </r>
       <r>  -16.9062    1.0000 </r>
       <r>  -16.6680    1.0000 </r>
       <r>  -16.5198    1.0000 </r>
       <r>  -16.4124    1.0000 </r>
       <r>  -16.2724    1.0000 </r>
       <r>  -16.2255    1.0000 </r>
       <r>  -16.1420    1.0000 </r>
       <r>  -16.1012    1.0000 </r>
       <r>  -15.9099    1.0000 </r>
       <r>  -15.8957    1.0000 </r>
       <r>  -15.7235    1.0000 </r>
       <r>  -15.6531    1.0000 </r>
       <r>  -15.5675    1.0000 </r>
       <r>  -15.4998    1.0000 </r>
       <r>  -15.3592    1.0000 </r>
       <r>  -15.2964    1.0000 </r>
       <r>   -9.7350    1.0000 </r>
       <r>   -9.5055    1.0000 </r>
       <r>   -9.2850    1.0000 </r>
       <r>   -8.9237    1.0000 </r>
       <r>   -8.8227    1.0000 </r>
       <r>   -8.7477    1.0000 </r>
       <r>   -8.6185    1.0000 </r>
       <r>   -8.5224    1.0000 </r>
       <r>   -8.4491    1.0000 </r>
       <r>   -8.3557    1.0000 </r>
       <r>   -8.2451    1.0000 </r>
       <r>   -8.1407    1.0000 </r>
       <r>   -8.0950    1.0000 </r>
       <r>   -8.0435    1.0000 </r>
       <r>   -8.0043    1.0000 </r>
       <r>   -7.9046    1.0000 </r>
       <r>   -7.7753    1.0000 </r>
       <r>   -7.6859    1.0000 </r>
       <r>   -7.6066    1.0000 </r>
       <r>   -7.4829    1.0000 </r>
       <r>   -7.3528    1.0000 </r>
       <r>   -7.2188    1.0000 </r>
       <r>   -7.1558    1.0000 </r>
       <r>   -7.0663    1.0000 </r>
       <r>   -6.9865    1.0000 </r>
       <r>   -6.8703    1.0000 </r>
       <r>   -6.8460    1.0000 </r>
       <r>   -6.7210    1.0000 </r>
       <r>   -6.6595    1.0000 </r>
       <r>   -6.6019    1.0000 </r>
       <r>   -6.5621    1.0000 </r>
       <r>   -6.5001    1.0000 </r>
       <r>   -6.4631    1.0000 </r>
       <r>   -6.4041    1.0000 </r>
       <r>   -6.2773    1.0000 </r>
       <r>   -6.1935    1.0000 </r>
       <r>   -6.1316    1.0000 </r>
       <r>   -6.0513    1.0000 </r>
       <r>   -5.9969    1.0000 </r>
       <r>   -5.9059    1.0000 </r>
       <r>   -5.8744    1.0000 </r>
       <r>   -5.7800    1.0000 </r>
       <r>   -5.7106    1.0000 </r>
       <r>   -5.6818    1.0000 </r>
       <r>   -5.5278    1.0000 </r>
       <r>   -5.3710    1.0000 </r>
       <r>   -5.3041    1.0000 </r>
       <r>   -5.1126    1.0000 </r>
       <r>   -5.0643    1.0000 </r>
       <r>   -4.8944    1.0000 </r>
       <r>   -4.7424    1.0000 </r>
       <r>   -4.6975    1.0000 </r>
       <r>   -4.5881    1.0000 </r>
       <r>   -4.4161    1.0000 </r>
       <r>   -4.3218    1.0000 </r>
       <r>   -4.2342    1.0000 </r>
       <r>   -4.1486    1.0000 </r>
       <r>   -4.0658    1.0000 </r>
       <r>   -3.9531    1.0000 </r>
       <r>   -3.8142    0.9996 </r>
       <r>   -3.6831    0.9920 </r>
       <r>   -3.2870    0.3475 </r>
       <r>   -2.9226    0.0015 </r>
       <r>   -2.8225    0.0001 </r>
       <r>   -2.6810    0.0000 </r>
       <r>   -2.6376    0.0000 </r>
       <r>   -2.4658    0.0000 </r>
       <r>   -2.4086    0.0000 </r>
       <r>   -2.3110    0.0000 </r>
       <r>   -2.2338    0.0000 </r>
       <r>   -2.0582    0.0000 </r>
       <r>   -2.0131    0.0000 </r>
       <r>   -1.8844    0.0000 </r>
       <r>   -1.4466    0.0000 </r>
       <r>   -1.3092    0.0000 </r>
       <r>   -1.2126    0.0000 </r>
       <r>   -1.1695    0.0000 </r>
       <r>   -1.0712    0.0000 </r>
       <r>   -1.0553    0.0000 </r>
       <r>   -0.9580    0.0000 </r>
       <r>   -0.9011    0.0000 </r>
       <r>   -0.8755    0.0000 </r>
       <r>   -0.8350    0.0000 </r>
       <r>   -0.7802    0.0000 </r>
       <r>   -0.6852    0.0000 </r>
       <r>   -0.6209    0.0000 </r>
       <r>   -0.4793    0.0000 </r>
       <r>   -0.4054    0.0000 </r>
       <r>   -0.2280    0.0000 </r>
       <r>   -0.1509    0.0000 </r>
       <r>    0.0002    0.0000 </r>
       <r>    0.1643    0.0000 </r>
       <r>    0.3113    0.0000 </r>
       <r>    0.4224    0.0000 </r>
       <r>    0.7701    0.0000 </r>
       <r>    0.9275    0.0000 </r>
       <r>    1.0242    0.0000 </r>
       <r>    1.3267    0.0000 </r>
       <r>    1.5040    0.0000 </r>
       <r>    2.1318    0.0000 </r>
       <r>    2.2885    0.0000 </r>
       <r>    2.3824    0.0000 </r>
      </set>
      <set comment="kpoint 32">
       <r>  -17.5037    1.0000 </r>
       <r>  -17.2325    1.0000 </r>
       <r>  -17.0035    1.0000 </r>
       <r>  -16.6677    1.0000 </r>
       <r>  -16.4668    1.0000 </r>
       <r>  -16.3223    1.0000 </r>
       <r>  -16.2856    1.0000 </r>
       <r>  -16.2617    1.0000 </r>
       <r>  -16.1629    1.0000 </r>
       <r>  -16.1047    1.0000 </r>
       <r>  -15.9598    1.0000 </r>
       <r>  -15.8907    1.0000 </r>
       <r>  -15.7065    1.0000 </r>
       <r>  -15.6607    1.0000 </r>
       <r>  -15.5533    1.0000 </r>
       <r>  -15.5006    1.0000 </r>
       <r>  -15.3654    1.0000 </r>
       <r>  -15.2860    1.0000 </r>
       <r>   -9.6959    1.0000 </r>
       <r>   -9.5986    1.0000 </r>
       <r>   -9.3415    1.0000 </r>
       <r>   -8.8973    1.0000 </r>
       <r>   -8.7638    1.0000 </r>
       <r>   -8.6818    1.0000 </r>
       <r>   -8.5878    1.0000 </r>
       <r>   -8.4381    1.0000 </r>
       <r>   -8.3829    1.0000 </r>
       <r>   -8.3418    1.0000 </r>
       <r>   -8.3144    1.0000 </r>
       <r>   -8.1942    1.0000 </r>
       <r>   -8.1098    1.0000 </r>
       <r>   -8.0753    1.0000 </r>
       <r>   -8.0245    1.0000 </r>
       <r>   -8.0125    1.0000 </r>
       <r>   -7.7637    1.0000 </r>
       <r>   -7.7032    1.0000 </r>
       <r>   -7.5624    1.0000 </r>
       <r>   -7.4486    1.0000 </r>
       <r>   -7.3515    1.0000 </r>
       <r>   -7.2973    1.0000 </r>
       <r>   -7.1802    1.0000 </r>
       <r>   -7.0429    1.0000 </r>
       <r>   -6.9295    1.0000 </r>
       <r>   -6.8557    1.0000 </r>
       <r>   -6.7752    1.0000 </r>
       <r>   -6.7241    1.0000 </r>
       <r>   -6.6668    1.0000 </r>
       <r>   -6.6289    1.0000 </r>
       <r>   -6.5771    1.0000 </r>
       <r>   -6.5356    1.0000 </r>
       <r>   -6.4686    1.0000 </r>
       <r>   -6.3839    1.0000 </r>
       <r>   -6.3395    1.0000 </r>
       <r>   -6.1690    1.0000 </r>
       <r>   -6.1262    1.0000 </r>
       <r>   -6.0532    1.0000 </r>
       <r>   -5.9995    1.0000 </r>
       <r>   -5.8932    1.0000 </r>
       <r>   -5.8743    1.0000 </r>
       <r>   -5.7549    1.0000 </r>
       <r>   -5.7083    1.0000 </r>
       <r>   -5.6169    1.0000 </r>
       <r>   -5.4904    1.0000 </r>
       <r>   -5.4210    1.0000 </r>
       <r>   -5.3392    1.0000 </r>
       <r>   -5.0851    1.0000 </r>
       <r>   -4.9972    1.0000 </r>
       <r>   -4.9365    1.0000 </r>
       <r>   -4.8329    1.0000 </r>
       <r>   -4.7168    1.0000 </r>
       <r>   -4.6457    1.0000 </r>
       <r>   -4.4311    1.0000 </r>
       <r>   -4.2896    1.0000 </r>
       <r>   -4.2281    1.0000 </r>
       <r>   -4.1222    1.0000 </r>
       <r>   -4.0627    1.0000 </r>
       <r>   -3.9445    1.0000 </r>
       <r>   -3.7790    0.9990 </r>
       <r>   -3.6611    0.9879 </r>
       <r>   -3.3193    0.4351 </r>
       <r>   -2.8984    0.0008 </r>
       <r>   -2.8237    0.0001 </r>
       <r>   -2.6466    0.0000 </r>
       <r>   -2.6274    0.0000 </r>
       <r>   -2.5078    0.0000 </r>
       <r>   -2.3807    0.0000 </r>
       <r>   -2.3436    0.0000 </r>
       <r>   -2.2514    0.0000 </r>
       <r>   -2.0837    0.0000 </r>
       <r>   -2.0294    0.0000 </r>
       <r>   -1.8552    0.0000 </r>
       <r>   -1.4223    0.0000 </r>
       <r>   -1.3428    0.0000 </r>
       <r>   -1.2434    0.0000 </r>
       <r>   -1.1567    0.0000 </r>
       <r>   -1.1090    0.0000 </r>
       <r>   -1.0535    0.0000 </r>
       <r>   -0.9778    0.0000 </r>
       <r>   -0.9354    0.0000 </r>
       <r>   -0.8803    0.0000 </r>
       <r>   -0.8449    0.0000 </r>
       <r>   -0.7470    0.0000 </r>
       <r>   -0.6853    0.0000 </r>
       <r>   -0.5942    0.0000 </r>
       <r>   -0.4747    0.0000 </r>
       <r>   -0.3290    0.0000 </r>
       <r>   -0.2327    0.0000 </r>
       <r>   -0.1159    0.0000 </r>
       <r>    0.0549    0.0000 </r>
       <r>    0.1774    0.0000 </r>
       <r>    0.3166    0.0000 </r>
       <r>    0.4238    0.0000 </r>
       <r>    0.7559    0.0000 </r>
       <r>    0.8711    0.0000 </r>
       <r>    1.0335    0.0000 </r>
       <r>    1.2911    0.0000 </r>
       <r>    1.4804    0.0000 </r>
       <r>    2.1027    0.0000 </r>
       <r>    2.2562    0.0000 </r>
       <r>    2.5614    0.0000 </r>
      </set>
      <set comment="kpoint 33">
       <r>  -17.4812    1.0000 </r>
       <r>  -17.3069    1.0000 </r>
       <r>  -16.8979    1.0000 </r>
       <r>  -16.6673    1.0000 </r>
       <r>  -16.5185    1.0000 </r>
       <r>  -16.4280    1.0000 </r>
       <r>  -16.2695    1.0000 </r>
       <r>  -16.2199    1.0000 </r>
       <r>  -16.1479    1.0000 </r>
       <r>  -16.1006    1.0000 </r>
       <r>  -15.9273    1.0000 </r>
       <r>  -15.8639    1.0000 </r>
       <r>  -15.7176    1.0000 </r>
       <r>  -15.6619    1.0000 </r>
       <r>  -15.5640    1.0000 </r>
       <r>  -15.5120    1.0000 </r>
       <r>  -15.3724    1.0000 </r>
       <r>  -15.2773    1.0000 </r>
       <r>   -9.7724    1.0000 </r>
       <r>   -9.5228    1.0000 </r>
       <r>   -9.2781    1.0000 </r>
       <r>   -8.9117    1.0000 </r>
       <r>   -8.8568    1.0000 </r>
       <r>   -8.6984    1.0000 </r>
       <r>   -8.6014    1.0000 </r>
       <r>   -8.5236    1.0000 </r>
       <r>   -8.4031    1.0000 </r>
       <r>   -8.3381    1.0000 </r>
       <r>   -8.2611    1.0000 </r>
       <r>   -8.1478    1.0000 </r>
       <r>   -8.0967    1.0000 </r>
       <r>   -8.0521    1.0000 </r>
       <r>   -8.0085    1.0000 </r>
       <r>   -7.9064    1.0000 </r>
       <r>   -7.7899    1.0000 </r>
       <r>   -7.7114    1.0000 </r>
       <r>   -7.5576    1.0000 </r>
       <r>   -7.4421    1.0000 </r>
       <r>   -7.3899    1.0000 </r>
       <r>   -7.2574    1.0000 </r>
       <r>   -7.1362    1.0000 </r>
       <r>   -7.0296    1.0000 </r>
       <r>   -6.9325    1.0000 </r>
       <r>   -6.9102    1.0000 </r>
       <r>   -6.8480    1.0000 </r>
       <r>   -6.7307    1.0000 </r>
       <r>   -6.6386    1.0000 </r>
       <r>   -6.6283    1.0000 </r>
       <r>   -6.5529    1.0000 </r>
       <r>   -6.5089    1.0000 </r>
       <r>   -6.4266    1.0000 </r>
       <r>   -6.4157    1.0000 </r>
       <r>   -6.3096    1.0000 </r>
       <r>   -6.1720    1.0000 </r>
       <r>   -6.1244    1.0000 </r>
       <r>   -6.0916    1.0000 </r>
       <r>   -6.0067    1.0000 </r>
       <r>   -5.9474    1.0000 </r>
       <r>   -5.8760    1.0000 </r>
       <r>   -5.8145    1.0000 </r>
       <r>   -5.7515    1.0000 </r>
       <r>   -5.6715    1.0000 </r>
       <r>   -5.5196    1.0000 </r>
       <r>   -5.3130    1.0000 </r>
       <r>   -5.2850    1.0000 </r>
       <r>   -5.1278    1.0000 </r>
       <r>   -5.0588    1.0000 </r>
       <r>   -4.8905    1.0000 </r>
       <r>   -4.8021    1.0000 </r>
       <r>   -4.6736    1.0000 </r>
       <r>   -4.5784    1.0000 </r>
       <r>   -4.4311    1.0000 </r>
       <r>   -4.2986    1.0000 </r>
       <r>   -4.2389    1.0000 </r>
       <r>   -4.1408    1.0000 </r>
       <r>   -4.0888    1.0000 </r>
       <r>   -3.9116    1.0000 </r>
       <r>   -3.7699    0.9987 </r>
       <r>   -3.6594    0.9875 </r>
       <r>   -3.3585    0.5452 </r>
       <r>   -2.8550    0.0003 </r>
       <r>   -2.8332    0.0002 </r>
       <r>   -2.6698    0.0000 </r>
       <r>   -2.6043    0.0000 </r>
       <r>   -2.5310    0.0000 </r>
       <r>   -2.4025    0.0000 </r>
       <r>   -2.3374    0.0000 </r>
       <r>   -2.2669    0.0000 </r>
       <r>   -2.1060    0.0000 </r>
       <r>   -2.0238    0.0000 </r>
       <r>   -1.7554    0.0000 </r>
       <r>   -1.4226    0.0000 </r>
       <r>   -1.3683    0.0000 </r>
       <r>   -1.2842    0.0000 </r>
       <r>   -1.2140    0.0000 </r>
       <r>   -1.1315    0.0000 </r>
       <r>   -1.1011    0.0000 </r>
       <r>   -0.9680    0.0000 </r>
       <r>   -0.9270    0.0000 </r>
       <r>   -0.8671    0.0000 </r>
       <r>   -0.8448    0.0000 </r>
       <r>   -0.7479    0.0000 </r>
       <r>   -0.6612    0.0000 </r>
       <r>   -0.5593    0.0000 </r>
       <r>   -0.4928    0.0000 </r>
       <r>   -0.2775    0.0000 </r>
       <r>   -0.2319    0.0000 </r>
       <r>   -0.1034    0.0000 </r>
       <r>    0.0424    0.0000 </r>
       <r>    0.2096    0.0000 </r>
       <r>    0.3007    0.0000 </r>
       <r>    0.4950    0.0000 </r>
       <r>    0.7293    0.0000 </r>
       <r>    0.8668    0.0000 </r>
       <r>    1.0515    0.0000 </r>
       <r>    1.2740    0.0000 </r>
       <r>    1.4523    0.0000 </r>
       <r>    2.1340    0.0000 </r>
       <r>    2.2884    0.0000 </r>
       <r>    2.3934    0.0000 </r>
      </set>
      <set comment="kpoint 34">
       <r>  -17.4397    1.0000 </r>
       <r>  -17.3808    1.0000 </r>
       <r>  -16.7350    1.0000 </r>
       <r>  -16.6861    1.0000 </r>
       <r>  -16.6626    1.0000 </r>
       <r>  -16.4445    1.0000 </r>
       <r>  -16.2634    1.0000 </r>
       <r>  -16.2137    1.0000 </r>
       <r>  -16.1405    1.0000 </r>
       <r>  -16.0957    1.0000 </r>
       <r>  -15.9136    1.0000 </r>
       <r>  -15.7932    1.0000 </r>
       <r>  -15.7511    1.0000 </r>
       <r>  -15.6712    1.0000 </r>
       <r>  -15.5747    1.0000 </r>
       <r>  -15.5184    1.0000 </r>
       <r>  -15.3759    1.0000 </r>
       <r>  -15.2740    1.0000 </r>
       <r>   -9.8081    1.0000 </r>
       <r>   -9.4655    1.0000 </r>
       <r>   -9.1977    1.0000 </r>
       <r>   -9.0136    1.0000 </r>
       <r>   -8.8403    1.0000 </r>
       <r>   -8.7581    1.0000 </r>
       <r>   -8.6176    1.0000 </r>
       <r>   -8.5744    1.0000 </r>
       <r>   -8.4336    1.0000 </r>
       <r>   -8.3552    1.0000 </r>
       <r>   -8.2117    1.0000 </r>
       <r>   -8.1314    1.0000 </r>
       <r>   -8.0792    1.0000 </r>
       <r>   -8.0397    1.0000 </r>
       <r>   -7.9159    1.0000 </r>
       <r>   -7.8775    1.0000 </r>
       <r>   -7.8214    1.0000 </r>
       <r>   -7.7081    1.0000 </r>
       <r>   -7.5182    1.0000 </r>
       <r>   -7.4547    1.0000 </r>
       <r>   -7.3504    1.0000 </r>
       <r>   -7.3060    1.0000 </r>
       <r>   -7.0879    1.0000 </r>
       <r>   -7.0115    1.0000 </r>
       <r>   -6.9819    1.0000 </r>
       <r>   -6.9439    1.0000 </r>
       <r>   -6.8801    1.0000 </r>
       <r>   -6.7304    1.0000 </r>
       <r>   -6.6305    1.0000 </r>
       <r>   -6.6073    1.0000 </r>
       <r>   -6.5726    1.0000 </r>
       <r>   -6.4693    1.0000 </r>
       <r>   -6.4346    1.0000 </r>
       <r>   -6.3836    1.0000 </r>
       <r>   -6.3042    1.0000 </r>
       <r>   -6.2155    1.0000 </r>
       <r>   -6.1377    1.0000 </r>
       <r>   -6.0634    1.0000 </r>
       <r>   -5.9933    1.0000 </r>
       <r>   -5.9744    1.0000 </r>
       <r>   -5.9261    1.0000 </r>
       <r>   -5.8417    1.0000 </r>
       <r>   -5.7801    1.0000 </r>
       <r>   -5.7035    1.0000 </r>
       <r>   -5.4933    1.0000 </r>
       <r>   -5.3542    1.0000 </r>
       <r>   -5.2489    1.0000 </r>
       <r>   -5.1157    1.0000 </r>
       <r>   -5.0533    1.0000 </r>
       <r>   -4.9167    1.0000 </r>
       <r>   -4.7596    1.0000 </r>
       <r>   -4.6274    1.0000 </r>
       <r>   -4.4870    1.0000 </r>
       <r>   -4.4233    1.0000 </r>
       <r>   -4.3294    1.0000 </r>
       <r>   -4.2375    1.0000 </r>
       <r>   -4.1969    1.0000 </r>
       <r>   -4.1017    1.0000 </r>
       <r>   -3.8898    0.9999 </r>
       <r>   -3.7713    0.9988 </r>
       <r>   -3.6650    0.9887 </r>
       <r>   -3.3745    0.5898 </r>
       <r>   -2.8630    0.0003 </r>
       <r>   -2.7992    0.0001 </r>
       <r>   -2.7028    0.0000 </r>
       <r>   -2.5997    0.0000 </r>
       <r>   -2.5311    0.0000 </r>
       <r>   -2.4274    0.0000 </r>
       <r>   -2.3297    0.0000 </r>
       <r>   -2.2600    0.0000 </r>
       <r>   -2.1120    0.0000 </r>
       <r>   -2.0154    0.0000 </r>
       <r>   -1.6876    0.0000 </r>
       <r>   -1.4509    0.0000 </r>
       <r>   -1.3659    0.0000 </r>
       <r>   -1.3053    0.0000 </r>
       <r>   -1.2503    0.0000 </r>
       <r>   -1.1550    0.0000 </r>
       <r>   -1.1158    0.0000 </r>
       <r>   -0.9541    0.0000 </r>
       <r>   -0.9122    0.0000 </r>
       <r>   -0.8575    0.0000 </r>
       <r>   -0.8547    0.0000 </r>
       <r>   -0.7508    0.0000 </r>
       <r>   -0.6540    0.0000 </r>
       <r>   -0.5394    0.0000 </r>
       <r>   -0.5017    0.0000 </r>
       <r>   -0.2696    0.0000 </r>
       <r>   -0.2293    0.0000 </r>
       <r>   -0.1036    0.0000 </r>
       <r>    0.0237    0.0000 </r>
       <r>    0.2088    0.0000 </r>
       <r>    0.3205    0.0000 </r>
       <r>    0.5321    0.0000 </r>
       <r>    0.7082    0.0000 </r>
       <r>    0.8804    0.0000 </r>
       <r>    1.0626    0.0000 </r>
       <r>    1.2755    0.0000 </r>
       <r>    1.4375    0.0000 </r>
       <r>    2.2059    0.0000 </r>
       <r>    2.2583    0.0000 </r>
       <r>    2.3786    0.0000 </r>
      </set>
     </set>
    </set>
   </array>
  </eigenvalues>
  <separator name="orbital magnetization" >
   <v name="MAGDIPOLOUT">      0.00000000      0.00000000      0.00000000</v>
  </separator>
 </calculation>
 <structure name="finalpos" >
  <crystal>
   <varray name="basis" >
    <v>       8.35205494       4.85423761       0.00000000 </v>
    <v>      -8.33456400       4.82376706       0.00000000 </v>
    <v>       0.00000000       0.00000000      30.00000000 </v>
   </varray>
   <i name="volume">   2422.38964637 </i>
   <varray name="rec_basis" >
    <v>       0.05973977       0.10321912       0.00000000 </v>
    <v>      -0.06011714       0.10343573       0.00000000 </v>
    <v>       0.00000000       0.00000000       0.03333333 </v>
   </varray>
  </crystal>
  <varray name="positions" >
   <v>       0.70283498       0.01442802      -0.00169044 </v>
   <v>       0.70665231       0.68757858      -0.00204475 </v>
   <v>       0.62697891       0.31647482       0.00289319 </v>
   <v>       0.01234438       0.00417130      -0.00068531 </v>
   <v>       0.02181380       0.69879042      -0.00102481 </v>
   <v>       0.30631180       0.31480753       0.00097395 </v>
   <v>       1.01758810       0.32299797      -0.00033948 </v>
   <v>       0.30981261       0.00605212       0.00031806 </v>
   <v>       0.29795131       0.63446539       0.00216545 </v>
   <v>       0.10814429       0.21814614       0.94305869 </v>
   <v>       0.21978482       0.11081763       0.05729388 </v>
   <v>       0.10428592       0.54916665       0.94667434 </v>
   <v>       0.21552269       0.43656449       0.05776359 </v>
   <v>       0.11433880       0.89520485       0.94248615 </v>
   <v>       0.22778772       0.78290189       0.05374045 </v>
   <v>       0.43935740       0.22272061       0.94755509 </v>
   <v>       0.55483309       0.10691443       0.04768489 </v>
   <v>       0.45179347       0.55967686       0.95574704 </v>
   <v>       0.55536815       0.45399738       0.04777938 </v>
   <v>       0.44714982       0.88824637       0.95917942 </v>
   <v>       0.55987396       0.77728991       0.04313176 </v>
   <v>       0.77368019       0.22310639       0.95224271 </v>
   <v>       0.89050750       0.10989557       0.05312033 </v>
   <v>       0.77729970       0.55176374       0.95157710 </v>
   <v>       0.88117859       0.44164978       0.04043461 </v>
   <v>       0.78123717       0.88972535       0.94722497 </v>
   <v>       0.89378296       0.78066025       0.05273965 </v>
  </varray>
 </structure>
</modeling>
