   27   27  100    1
  0.9710400E+02  0.1002848E-08  0.1002848E-08  0.3000000E-08  0.5000000E-15
  1.000000000000000E-004
  CAR 
 unknown system                          
    159     34    120
 
  0.0000000E+00  0.0000000E+00  0.0000000E+00  0.1562500E-01
    1      -17.806994   1.000000
    2      -16.735521   1.000000
    3      -16.673939   1.000000
    4      -16.593552   1.000000
    5      -16.539291   1.000000
    6      -16.492406   1.000000
    7      -16.447509   1.000000
    8      -16.247826   1.000000
    9      -16.144078   1.000000
   10      -16.125221   1.000000
   11      -16.095526   1.000000
   12      -15.986444   1.000000
   13      -15.884618   1.000000
   14      -15.766022   1.000000
   15      -15.620454   1.000000
   16      -15.375381   1.000000
   17      -15.365681   1.000000
   18      -15.214372   1.000000
   19       -9.327361   1.000000
   20       -8.965851   1.000000
   21       -8.947378   1.000000
   22       -8.877120   1.000000
   23       -8.717114   1.000000
   24       -8.693342   1.000000
   25       -8.647283   1.000000
   26       -8.599195   1.000000
   27       -8.501560   1.000000
   28       -8.496754   1.000000
   29       -8.470341   1.000000
   30       -8.467939   1.000000
   31       -8.406668   1.000000
   32       -8.109308   1.000000
   33       -8.052728   1.000000
   34       -8.009301   1.000000
   35       -7.815866   1.000000
   36       -7.750687   1.000000
   37       -7.686491   1.000000
   38       -7.655137   1.000000
   39       -7.429178   1.000000
   40       -7.408758   1.000000
   41       -7.344471   1.000000
   42       -7.219184   1.000000
   43       -7.123295   1.000000
   44       -6.896948   1.000000
   45       -6.807826   1.000000
   46       -6.805375   1.000000
   47       -6.735363   1.000000
   48       -6.658144   1.000000
   49       -6.533890   1.000000
   50       -6.488911   1.000000
   51       -6.414911   1.000000
   52       -6.334908   1.000000
   53       -6.317205   1.000000
   54       -6.268154   1.000000
   55       -6.225407   1.000000
   56       -6.163632   1.000000
   57       -6.078260   1.000000
   58       -5.975497   1.000000
   59       -5.837775   1.000000
   60       -5.547700   1.000000
   61       -5.421491   1.000000
   62       -5.325923   1.000000
   63       -5.277444   1.000000
   64       -5.213293   1.000000
   65       -5.106067   1.000000
   66       -4.984657   1.000000
   67       -4.938387   1.000000
   68       -4.818079   1.000000
   69       -4.812508   1.000000
   70       -4.686255   1.000000
   71       -4.679435   1.000000
   72       -4.596817   1.000000
   73       -4.562736   1.000000
   74       -4.382645   1.000000
   75       -4.086431   1.000000
   76       -3.987905   0.999997
   77       -3.862156   0.999875
   78       -3.582447   0.953981
   79       -3.489913   0.848596
   80       -3.456640   0.786738
   81       -3.221080   0.192013
   82       -2.949524   0.002630
   83       -2.863670   0.000340
   84       -2.735085   0.000008
   85       -2.474449   0.000000
   86       -2.464374   0.000000
   87       -2.394389   0.000000
   88       -2.355824   0.000000
   89       -2.200047   0.000000
   90       -2.191161   0.000000
   91       -1.592267   0.000000
   92       -1.547318   0.000000
   93       -1.452630   0.000000
   94       -1.302907   0.000000
   95       -1.096612   0.000000
   96       -1.079009   0.000000
   97       -1.002596   0.000000
   98       -0.879514   0.000000
   99       -0.778505   0.000000
  100       -0.661912   0.000000
  101       -0.633358   0.000000
  102       -0.556309   0.000000
  103       -0.518233   0.000000
  104       -0.331945   0.000000
  105       -0.218227   0.000000
  106       -0.172248   0.000000
  107       -0.171411   0.000000
  108        0.003337   0.000000
  109        0.037595   0.000000
  110        0.279316   0.000000
  111        0.316152   0.000000
  112        0.644240   0.000000
  113        0.665536   0.000000
  114        0.884216   0.000000
  115        0.944898   0.000000
  116        0.946673   0.000000
  117        1.277311   0.000000
  118        1.643315   0.000000
  119        1.829702   0.000000
  120        2.148706   0.000000
 
  0.1250000E+00  0.2775558E-16  0.0000000E+00  0.3125000E-01
    1      -17.782659   1.000000
    2      -16.781453   1.000000
    3      -16.731062   1.000000
    4      -16.659319   1.000000
    5      -16.540625   1.000000
    6      -16.455274   1.000000
    7      -16.401930   1.000000
    8      -16.266415   1.000000
    9      -16.145464   1.000000
   10      -16.094833   1.000000
   11      -16.035108   1.000000
   12      -15.969467   1.000000
   13      -15.874348   1.000000
   14      -15.760148   1.000000
   15      -15.630363   1.000000
   16      -15.388107   1.000000
   17      -15.370073   1.000000
   18      -15.217819   1.000000
   19       -9.316746   1.000000
   20       -9.138252   1.000000
   21       -9.012146   1.000000
   22       -8.972626   1.000000
   23       -8.774289   1.000000
   24       -8.733022   1.000000
   25       -8.647161   1.000000
   26       -8.601100   1.000000
   27       -8.535583   1.000000
   28       -8.511410   1.000000
   29       -8.405646   1.000000
   30       -8.300826   1.000000
   31       -8.255427   1.000000
   32       -8.074907   1.000000
   33       -8.018774   1.000000
   34       -7.895174   1.000000
   35       -7.796793   1.000000
   36       -7.750587   1.000000
   37       -7.677846   1.000000
   38       -7.578811   1.000000
   39       -7.502124   1.000000
   40       -7.421402   1.000000
   41       -7.303367   1.000000
   42       -7.212368   1.000000
   43       -7.161860   1.000000
   44       -6.961914   1.000000
   45       -6.848395   1.000000
   46       -6.775935   1.000000
   47       -6.716238   1.000000
   48       -6.671909   1.000000
   49       -6.502531   1.000000
   50       -6.458397   1.000000
   51       -6.424412   1.000000
   52       -6.401713   1.000000
   53       -6.309787   1.000000
   54       -6.278302   1.000000
   55       -6.245019   1.000000
   56       -6.119205   1.000000
   57       -6.056038   1.000000
   58       -5.960879   1.000000
   59       -5.798742   1.000000
   60       -5.526184   1.000000
   61       -5.452719   1.000000
   62       -5.421921   1.000000
   63       -5.334395   1.000000
   64       -5.246464   1.000000
   65       -5.060721   1.000000
   66       -5.039893   1.000000
   67       -4.935142   1.000000
   68       -4.890966   1.000000
   69       -4.802432   1.000000
   70       -4.723316   1.000000
   71       -4.651205   1.000000
   72       -4.570302   1.000000
   73       -4.485353   1.000000
   74       -4.297872   1.000000
   75       -4.077267   1.000000
   76       -3.956590   0.999993
   77       -3.876692   0.999917
   78       -3.695556   0.993514
   79       -3.603518   0.966654
   80       -3.428095   0.723513
   81       -3.125129   0.060693
   82       -2.929359   0.001677
   83       -2.829570   0.000137
   84       -2.720499   0.000005
   85       -2.504174   0.000000
   86       -2.442401   0.000000
   87       -2.372124   0.000000
   88       -2.340467   0.000000
   89       -2.197162   0.000000
   90       -2.153836   0.000000
   91       -1.607453   0.000000
   92       -1.544276   0.000000
   93       -1.447725   0.000000
   94       -1.308026   0.000000
   95       -1.092192   0.000000
   96       -1.069142   0.000000
   97       -1.004657   0.000000
   98       -0.894977   0.000000
   99       -0.819194   0.000000
  100       -0.723012   0.000000
  101       -0.670016   0.000000
  102       -0.600520   0.000000
  103       -0.555983   0.000000
  104       -0.412818   0.000000
  105       -0.332900   0.000000
  106       -0.202430   0.000000
  107       -0.128557   0.000000
  108        0.006419   0.000000
  109        0.121603   0.000000
  110        0.189716   0.000000
  111        0.287601   0.000000
  112        0.675900   0.000000
  113        0.706225   0.000000
  114        0.901839   0.000000
  115        0.944714   0.000000
  116        0.997206   0.000000
  117        1.288031   0.000000
  118        1.685553   0.000000
  119        1.869596   0.000000
  120        2.183527   0.000000
 
  0.2500000E+00  0.5551115E-16  0.0000000E+00  0.3125000E-01
    1      -17.711369   1.000000
    2      -16.985208   1.000000
    3      -16.736285   1.000000
    4      -16.705617   1.000000
    5      -16.583080   1.000000
    6      -16.436546   1.000000
    7      -16.362911   1.000000
    8      -16.212987   1.000000
    9      -16.142976   1.000000
   10      -16.033637   1.000000
   11      -16.011451   1.000000
   12      -15.912219   1.000000
   13      -15.819562   1.000000
   14      -15.749624   1.000000
   15      -15.650254   1.000000
   16      -15.416078   1.000000
   17      -15.380579   1.000000
   18      -15.228806   1.000000
   19       -9.475455   1.000000
   20       -9.229256   1.000000
   21       -9.147649   1.000000
   22       -9.076897   1.000000
   23       -8.900849   1.000000
   24       -8.808151   1.000000
   25       -8.587693   1.000000
   26       -8.568433   1.000000
   27       -8.507630   1.000000
   28       -8.417066   1.000000
   29       -8.319755   1.000000
   30       -8.239413   1.000000
   31       -8.141708   1.000000
   32       -8.070551   1.000000
   33       -7.909256   1.000000
   34       -7.873515   1.000000
   35       -7.746312   1.000000
   36       -7.636907   1.000000
   37       -7.595350   1.000000
   38       -7.520263   1.000000
   39       -7.452449   1.000000
   40       -7.389531   1.000000
   41       -7.315476   1.000000
   42       -7.224184   1.000000
   43       -7.128714   1.000000
   44       -7.004225   1.000000
   45       -6.876390   1.000000
   46       -6.769484   1.000000
   47       -6.724319   1.000000
   48       -6.681138   1.000000
   49       -6.565230   1.000000
   50       -6.450451   1.000000
   51       -6.423646   1.000000
   52       -6.381942   1.000000
   53       -6.328493   1.000000
   54       -6.260668   1.000000
   55       -6.182696   1.000000
   56       -6.113744   1.000000
   57       -5.975157   1.000000
   58       -5.935098   1.000000
   59       -5.752581   1.000000
   60       -5.686460   1.000000
   61       -5.600236   1.000000
   62       -5.485654   1.000000
   63       -5.426694   1.000000
   64       -5.326185   1.000000
   65       -5.183614   1.000000
   66       -5.004521   1.000000
   67       -4.926509   1.000000
   68       -4.887580   1.000000
   69       -4.784093   1.000000
   70       -4.736544   1.000000
   71       -4.610265   1.000000
   72       -4.481870   1.000000
   73       -4.343111   1.000000
   74       -4.298505   1.000000
   75       -4.129402   1.000000
   76       -3.958267   0.999993
   77       -3.900205   0.999958
   78       -3.820688   0.999623
   79       -3.631652   0.978958
   80       -3.413008   0.686739
   81       -3.029821   0.013111
   82       -2.892146   0.000696
   83       -2.767899   0.000023
   84       -2.662574   0.000001
   85       -2.521592   0.000000
   86       -2.455438   0.000000
   87       -2.333265   0.000000
   88       -2.277344   0.000000
   89       -2.165405   0.000000
   90       -2.068683   0.000000
   91       -1.627551   0.000000
   92       -1.545824   0.000000
   93       -1.451916   0.000000
   94       -1.320915   0.000000
   95       -1.115070   0.000000
   96       -1.059632   0.000000
   97       -1.022429   0.000000
   98       -0.960342   0.000000
   99       -0.923066   0.000000
  100       -0.824689   0.000000
  101       -0.763614   0.000000
  102       -0.679457   0.000000
  103       -0.612490   0.000000
  104       -0.521971   0.000000
  105       -0.457572   0.000000
  106       -0.254179   0.000000
  107       -0.133659   0.000000
  108       -0.083690   0.000000
  109        0.044765   0.000000
  110        0.160995   0.000000
  111        0.287337   0.000000
  112        0.677972   0.000000
  113        0.805921   0.000000
  114        0.919840   0.000000
  115        0.982654   0.000000
  116        1.133769   0.000000
  117        1.324264   0.000000
  118        1.804530   0.000000
  119        1.983769   0.000000
  120        2.286854   0.000000
 
  0.3750000E+00  0.0000000E+00  0.0000000E+00  0.3125000E-01
    1      -17.601312   1.000000
    2      -17.189747   1.000000
    3      -16.770664   1.000000
    4      -16.698260   1.000000
    5      -16.623162   1.000000
    6      -16.443246   1.000000
    7      -16.347655   1.000000
    8      -16.163337   1.000000
    9      -16.103892   1.000000
   10      -16.011250   1.000000
   11      -15.946855   1.000000
   12      -15.907605   1.000000
   13      -15.800572   1.000000
   14      -15.718805   1.000000
   15      -15.660806   1.000000
   16      -15.427771   1.000000
   17      -15.393724   1.000000
   18      -15.244647   1.000000
   19       -9.681564   1.000000
   20       -9.308635   1.000000
   21       -9.148439   1.000000
   22       -9.110011   1.000000
   23       -9.002398   1.000000
   24       -8.847415   1.000000
   25       -8.542454   1.000000
   26       -8.512671   1.000000
   27       -8.439361   1.000000
   28       -8.346322   1.000000
   29       -8.283278   1.000000
   30       -8.226943   1.000000
   31       -8.149867   1.000000
   32       -8.058104   1.000000
   33       -7.970794   1.000000
   34       -7.831302   1.000000
   35       -7.757261   1.000000
   36       -7.665449   1.000000
   37       -7.580894   1.000000
   38       -7.462878   1.000000
   39       -7.366372   1.000000
   40       -7.275841   1.000000
   41       -7.210821   1.000000
   42       -7.133871   1.000000
   43       -7.045229   1.000000
   44       -6.968808   1.000000
   45       -6.858563   1.000000
   46       -6.813906   1.000000
   47       -6.734370   1.000000
   48       -6.669935   1.000000
   49       -6.540899   1.000000
   50       -6.477155   1.000000
   51       -6.413160   1.000000
   52       -6.384675   1.000000
   53       -6.321265   1.000000
   54       -6.222687   1.000000
   55       -6.113483   1.000000
   56       -6.057015   1.000000
   57       -5.987427   1.000000
   58       -5.918133   1.000000
   59       -5.862258   1.000000
   60       -5.783684   1.000000
   61       -5.760799   1.000000
   62       -5.606471   1.000000
   63       -5.531163   1.000000
   64       -5.340770   1.000000
   65       -5.201053   1.000000
   66       -5.007001   1.000000
   67       -4.904886   1.000000
   68       -4.860453   1.000000
   69       -4.809669   1.000000
   70       -4.735535   1.000000
   71       -4.625744   1.000000
   72       -4.523054   1.000000
   73       -4.388667   1.000000
   74       -4.213268   1.000000
   75       -4.105937   1.000000
   76       -4.043984   1.000000
   77       -3.885101   0.999935
   78       -3.780732   0.998988
   79       -3.558287   0.934976
   80       -3.439066   0.748855
   81       -2.978513   0.004859
   82       -2.869748   0.000397
   83       -2.718724   0.000005
   84       -2.600086   0.000000
   85       -2.532371   0.000000
   86       -2.458963   0.000000
   87       -2.294259   0.000000
   88       -2.209138   0.000000
   89       -2.127694   0.000000
   90       -1.956132   0.000000
   91       -1.642918   0.000000
   92       -1.552837   0.000000
   93       -1.481133   0.000000
   94       -1.346054   0.000000
   95       -1.229167   0.000000
   96       -1.100104   0.000000
   97       -1.058620   0.000000
   98       -1.011681   0.000000
   99       -0.973896   0.000000
  100       -0.892973   0.000000
  101       -0.812789   0.000000
  102       -0.736213   0.000000
  103       -0.672097   0.000000
  104       -0.612544   0.000000
  105       -0.467425   0.000000
  106       -0.359191   0.000000
  107       -0.204771   0.000000
  108       -0.160749   0.000000
  109       -0.059384   0.000000
  110        0.146914   0.000000
  111        0.279904   0.000000
  112        0.681982   0.000000
  113        0.887675   0.000000
  114        0.948496   0.000000
  115        1.018532   0.000000
  116        1.259643   0.000000
  117        1.372229   0.000000
  118        1.984231   0.000000
  119        2.160153   0.000000
  120        2.453376   0.000000
 
  0.5000000E+00  0.1110223E-15  0.0000000E+00  0.1562500E-01
    1      -17.511789   1.000000
    2      -17.312615   1.000000
    3      -16.784775   1.000000
    4      -16.689437   1.000000
    5      -16.641084   1.000000
    6      -16.448891   1.000000
    7      -16.341761   1.000000
    8      -16.164321   1.000000
    9      -16.056937   1.000000
   10      -15.998325   1.000000
   11      -15.936920   1.000000
   12      -15.900896   1.000000
   13      -15.783915   1.000000
   14      -15.748454   1.000000
   15      -15.645576   1.000000
   16      -15.424184   1.000000
   17      -15.399010   1.000000
   18      -15.253546   1.000000
   19       -9.756935   1.000000
   20       -9.348775   1.000000
   21       -9.174442   1.000000
   22       -9.078064   1.000000
   23       -9.029722   1.000000
   24       -8.852388   1.000000
   25       -8.532515   1.000000
   26       -8.509153   1.000000
   27       -8.418670   1.000000
   28       -8.341631   1.000000
   29       -8.243309   1.000000
   30       -8.174271   1.000000
   31       -8.139785   1.000000
   32       -8.052599   1.000000
   33       -8.014888   1.000000
   34       -7.878387   1.000000
   35       -7.807276   1.000000
   36       -7.723312   1.000000
   37       -7.538275   1.000000
   38       -7.432446   1.000000
   39       -7.305112   1.000000
   40       -7.282621   1.000000
   41       -7.124014   1.000000
   42       -7.069591   1.000000
   43       -6.987417   1.000000
   44       -6.964603   1.000000
   45       -6.868122   1.000000
   46       -6.765220   1.000000
   47       -6.692333   1.000000
   48       -6.644432   1.000000
   49       -6.559892   1.000000
   50       -6.503004   1.000000
   51       -6.416976   1.000000
   52       -6.391568   1.000000
   53       -6.293723   1.000000
   54       -6.261025   1.000000
   55       -6.143104   1.000000
   56       -6.081305   1.000000
   57       -5.991054   1.000000
   58       -5.925967   1.000000
   59       -5.841639   1.000000
   60       -5.825627   1.000000
   61       -5.753317   1.000000
   62       -5.635142   1.000000
   63       -5.486207   1.000000
   64       -5.344808   1.000000
   65       -5.304792   1.000000
   66       -5.120325   1.000000
   67       -4.897199   1.000000
   68       -4.870207   1.000000
   69       -4.831463   1.000000
   70       -4.727064   1.000000
   71       -4.619161   1.000000
   72       -4.512891   1.000000
   73       -4.367143   1.000000
   74       -4.217868   1.000000
   75       -4.120791   1.000000
   76       -4.035341   0.999999
   77       -3.854969   0.999848
   78       -3.754237   0.998131
   79       -3.512728   0.883322
   80       -3.471225   0.815484
   81       -2.961675   0.003418
   82       -2.861766   0.000323
   83       -2.700172   0.000003
   84       -2.584391   0.000000
   85       -2.540900   0.000000
   86       -2.441046   0.000000
   87       -2.278434   0.000000
   88       -2.177450   0.000000
   89       -2.111614   0.000000
   90       -1.891669   0.000000
   91       -1.668398   0.000000
   92       -1.539234   0.000000
   93       -1.513331   0.000000
   94       -1.363846   0.000000
   95       -1.275355   0.000000
   96       -1.167929   0.000000
   97       -1.060481   0.000000
   98       -1.023902   0.000000
   99       -0.980923   0.000000
  100       -0.919914   0.000000
  101       -0.817836   0.000000
  102       -0.756661   0.000000
  103       -0.699288   0.000000
  104       -0.635014   0.000000
  105       -0.454131   0.000000
  106       -0.424158   0.000000
  107       -0.244725   0.000000
  108       -0.180067   0.000000
  109       -0.104962   0.000000
  110        0.140100   0.000000
  111        0.271920   0.000000
  112        0.687381   0.000000
  113        0.913542   0.000000
  114        0.962415   0.000000
  115        1.031649   0.000000
  116        1.308255   0.000000
  117        1.394703   0.000000
  118        2.182876   0.000000
  119        2.251148   0.000000
  120        2.370007   0.000000
 
  0.0000000E+00  0.1250000E+00  0.0000000E+00  0.3125000E-01
    1      -17.782647   1.000000
    2      -16.781475   1.000000
    3      -16.731048   1.000000
    4      -16.659114   1.000000
    5      -16.541023   1.000000
    6      -16.454901   1.000000
    7      -16.402003   1.000000
    8      -16.266994   1.000000
    9      -16.145359   1.000000
   10      -16.094140   1.000000
   11      -16.035847   1.000000
   12      -15.969213   1.000000
   13      -15.874239   1.000000
   14      -15.760103   1.000000
   15      -15.630286   1.000000
   16      -15.386967   1.000000
   17      -15.371217   1.000000
   18      -15.217880   1.000000
   19       -9.316694   1.000000
   20       -9.138553   1.000000
   21       -9.011759   1.000000
   22       -8.972816   1.000000
   23       -8.774162   1.000000
   24       -8.732750   1.000000
   25       -8.647234   1.000000
   26       -8.600481   1.000000
   27       -8.535627   1.000000
   28       -8.512254   1.000000
   29       -8.406062   1.000000
   30       -8.301426   1.000000
   31       -8.255384   1.000000
   32       -8.074532   1.000000
   33       -8.018171   1.000000
   34       -7.894832   1.000000
   35       -7.797160   1.000000
   36       -7.750485   1.000000
   37       -7.678573   1.000000
   38       -7.578636   1.000000
   39       -7.501557   1.000000
   40       -7.421027   1.000000
   41       -7.303440   1.000000
   42       -7.212721   1.000000
   43       -7.161962   1.000000
   44       -6.960773   1.000000
   45       -6.849467   1.000000
   46       -6.776234   1.000000
   47       -6.715742   1.000000
   48       -6.672476   1.000000
   49       -6.502466   1.000000
   50       -6.459715   1.000000
   51       -6.424114   1.000000
   52       -6.401165   1.000000
   53       -6.310022   1.000000
   54       -6.277564   1.000000
   55       -6.244999   1.000000
   56       -6.119887   1.000000
   57       -6.055424   1.000000
   58       -5.960529   1.000000
   59       -5.798855   1.000000
   60       -5.525061   1.000000
   61       -5.453082   1.000000
   62       -5.422323   1.000000
   63       -5.333708   1.000000
   64       -5.245781   1.000000
   65       -5.060575   1.000000
   66       -5.040576   1.000000
   67       -4.935666   1.000000
   68       -4.892363   1.000000
   69       -4.802041   1.000000
   70       -4.723063   1.000000
   71       -4.652213   1.000000
   72       -4.570316   1.000000
   73       -4.484380   1.000000
   74       -4.297304   1.000000
   75       -4.077634   1.000000
   76       -3.956319   0.999992
   77       -3.875889   0.999915
   78       -3.695666   0.993528
   79       -3.604001   0.966907
   80       -3.429215   0.726157
   81       -3.124468   0.060133
   82       -2.929096   0.001667
   83       -2.829498   0.000137
   84       -2.721181   0.000005
   85       -2.504747   0.000000
   86       -2.439861   0.000000
   87       -2.374251   0.000000
   88       -2.340017   0.000000
   89       -2.196867   0.000000
   90       -2.154524   0.000000
   91       -1.607861   0.000000
   92       -1.543797   0.000000
   93       -1.447608   0.000000
   94       -1.308144   0.000000
   95       -1.093418   0.000000
   96       -1.067669   0.000000
   97       -1.004436   0.000000
   98       -0.895000   0.000000
   99       -0.819331   0.000000
  100       -0.722891   0.000000
  101       -0.670961   0.000000
  102       -0.600689   0.000000
  103       -0.555019   0.000000
  104       -0.412448   0.000000
  105       -0.332693   0.000000
  106       -0.202015   0.000000
  107       -0.128825   0.000000
  108        0.006575   0.000000
  109        0.121510   0.000000
  110        0.188640   0.000000
  111        0.287590   0.000000
  112        0.676005   0.000000
  113        0.706284   0.000000
  114        0.902012   0.000000
  115        0.942922   0.000000
  116        0.998773   0.000000
  117        1.288281   0.000000
  118        1.685579   0.000000
  119        1.869591   0.000000
  120        2.183538   0.000000
 
  0.1250000E+00  0.1250000E+00  0.0000000E+00  0.3125000E-01
    1      -17.735956   1.000000
    2      -16.857390   1.000000
    3      -16.840819   1.000000
    4      -16.720582   1.000000
    5      -16.460477   1.000000
    6      -16.439163   1.000000
    7      -16.393345   1.000000
    8      -16.273822   1.000000
    9      -16.113536   1.000000
   10      -16.064304   1.000000
   11      -15.976521   1.000000
   12      -15.955264   1.000000
   13      -15.837305   1.000000
   14      -15.764802   1.000000
   15      -15.650200   1.000000
   16      -15.405558   1.000000
   17      -15.379541   1.000000
   18      -15.218824   1.000000
   19       -9.346593   1.000000
   20       -9.273557   1.000000
   21       -9.179546   1.000000
   22       -9.080248   1.000000
   23       -8.818494   1.000000
   24       -8.690914   1.000000
   25       -8.630252   1.000000
   26       -8.566533   1.000000
   27       -8.518718   1.000000
   28       -8.473914   1.000000
   29       -8.324077   1.000000
   30       -8.266788   1.000000
   31       -8.130802   1.000000
   32       -8.055112   1.000000
   33       -8.047694   1.000000
   34       -7.831027   1.000000
   35       -7.783900   1.000000
   36       -7.698810   1.000000
   37       -7.568191   1.000000
   38       -7.549543   1.000000
   39       -7.480138   1.000000
   40       -7.362440   1.000000
   41       -7.318462   1.000000
   42       -7.271083   1.000000
   43       -7.101774   1.000000
   44       -7.006498   1.000000
   45       -6.850303   1.000000
   46       -6.814589   1.000000
   47       -6.698379   1.000000
   48       -6.659129   1.000000
   49       -6.527774   1.000000
   50       -6.497578   1.000000
   51       -6.393936   1.000000
   52       -6.357043   1.000000
   53       -6.310879   1.000000
   54       -6.281352   1.000000
   55       -6.266360   1.000000
   56       -6.099989   1.000000
   57       -6.047814   1.000000
   58       -5.923756   1.000000
   59       -5.789651   1.000000
   60       -5.601893   1.000000
   61       -5.585991   1.000000
   62       -5.434043   1.000000
   63       -5.368373   1.000000
   64       -5.292396   1.000000
   65       -5.107730   1.000000
   66       -5.020600   1.000000
   67       -4.983841   1.000000
   68       -4.943593   1.000000
   69       -4.799909   1.000000
   70       -4.660281   1.000000
   71       -4.626367   1.000000
   72       -4.537037   1.000000
   73       -4.400492   1.000000
   74       -4.214149   1.000000
   75       -4.125300   1.000000
   76       -4.012450   0.999999
   77       -3.881227   0.999927
   78       -3.749619   0.997927
   79       -3.639396   0.981576
   80       -3.468318   0.809955
   81       -3.034858   0.014361
   82       -2.852825   0.000256
   83       -2.809430   0.000078
   84       -2.665264   0.000001
   85       -2.487982   0.000000
   86       -2.452401   0.000000
   87       -2.338606   0.000000
   88       -2.331894   0.000000
   89       -2.170609   0.000000
   90       -2.118140   0.000000
   91       -1.605328   0.000000
   92       -1.558635   0.000000
   93       -1.419868   0.000000
   94       -1.341309   0.000000
   95       -1.077213   0.000000
   96       -1.067692   0.000000
   97       -1.004955   0.000000
   98       -0.938965   0.000000
   99       -0.922989   0.000000
  100       -0.815117   0.000000
  101       -0.720574   0.000000
  102       -0.657406   0.000000
  103       -0.639384   0.000000
  104       -0.439562   0.000000
  105       -0.432092   0.000000
  106       -0.238902   0.000000
  107       -0.131169   0.000000
  108       -0.033335   0.000000
  109        0.034629   0.000000
  110        0.149869   0.000000
  111        0.271340   0.000000
  112        0.689591   0.000000
  113        0.800395   0.000000
  114        0.885754   0.000000
  115        1.017597   0.000000
  116        1.078820   0.000000
  117        1.293036   0.000000
  118        1.764162   0.000000
  119        1.947955   0.000000
  120        2.252064   0.000000
 
  0.2500000E+00  0.1250000E+00  0.0000000E+00  0.3125000E-01
    1      -17.645430   1.000000
    2      -17.065029   1.000000
    3      -16.905976   1.000000
    4      -16.708478   1.000000
    5      -16.466563   1.000000
    6      -16.428421   1.000000
    7      -16.359828   1.000000
    8      -16.222077   1.000000
    9      -16.108167   1.000000
   10      -16.047878   1.000000
   11      -15.942302   1.000000
   12      -15.905071   1.000000
   13      -15.786687   1.000000
   14      -15.752075   1.000000
   15      -15.677273   1.000000
   16      -15.420595   1.000000
   17      -15.391608   1.000000
   18      -15.228039   1.000000
   19       -9.560914   1.000000
   20       -9.375449   1.000000
   21       -9.283813   1.000000
   22       -9.094352   1.000000
   23       -8.857831   1.000000
   24       -8.696283   1.000000
   25       -8.547542   1.000000
   26       -8.490751   1.000000
   27       -8.449555   1.000000
   28       -8.414380   1.000000
   29       -8.282895   1.000000
   30       -8.265321   1.000000
   31       -8.162138   1.000000
   32       -8.073819   1.000000
   33       -7.978824   1.000000
   34       -7.894163   1.000000
   35       -7.812783   1.000000
   36       -7.640865   1.000000
   37       -7.585941   1.000000
   38       -7.454879   1.000000
   39       -7.408653   1.000000
   40       -7.261607   1.000000
   41       -7.240349   1.000000
   42       -7.166459   1.000000
   43       -7.055650   1.000000
   44       -6.969703   1.000000
   45       -6.878185   1.000000
   46       -6.793561   1.000000
   47       -6.724059   1.000000