<?xml version="1.0" encoding="ISO-8859-1"?>
<modeling>
 <generator>
  <i name="program" type="string">vasp </i>
  <i name="version" type="string">5.4.1  </i>
  <i name="subversion" type="string">05Feb16 (build Jul 05 2020 17:13:04) complex                          parallel </i>
  <i name="platform" type="string">IFC91_ompi </i>
  <i name="date" type="string">2024 05 07 </i>
  <i name="time" type="string">05:37:26 </i>
 </generator>
 <incar>
  <i type="int" name="ISTART">     0</i>
  <i type="string" name="PREC">normal</i>
  <i type="string" name="ALGO"> Normal</i>
  <i type="int" name="ISPIN">     1</i>
  <i type="int" name="ICHARG">     2</i>
  <i type="int" name="IBRION">     1</i>
  <i type="int" name="NSW">   100</i>
  <i type="int" name="ISIF">     3</i>
  <i type="int" name="ISYM">     0</i>
  <i name="SYMPREC">      0.00000001</i>
  <i name="POTIM">      0.50000000</i>
  <i type="logical" name="LREAL"> F  </i>
  <i type="logical" name="LPLANE"> F  </i>
  <i type="int" name="ISMEAR">     0</i>
  <i type="logical" name="LWAVE"> F  </i>
  <i type="logical" name="LCHARG"> F  </i>
  <v type="int" name="KPOINT_BSE">    -1     0     0     0</v>
 </incar>
 <kpoints>
  <generation param="Gamma">
   <v type="int" name="divisions">       8        8        1 </v>
   <v name="usershift">      0.00000000       0.00000000       0.00000000 </v>
   <v name="genvec1">      0.12500000       0.00000000       0.00000000 </v>
   <v name="genvec2">     -0.00000000       0.12500000       0.00000000 </v>
   <v name="genvec3">      0.00000000       0.00000000       1.00000000 </v>
   <v name="shift">      0.00000000       0.00000000       0.00000000 </v>
  </generation>
  <varray name="kpointlist" >
   <v>       0.00000000       0.00000000       0.00000000 </v>
   <v>       0.12500000       0.00000000       0.00000000 </v>
   <v>       0.25000000       0.00000000       0.00000000 </v>
   <v>       0.37500000       0.00000000       0.00000000 </v>
   <v>       0.50000000       0.00000000       0.00000000 </v>
   <v>       0.00000000       0.12500000       0.00000000 </v>
   <v>       0.12500000       0.12500000       0.00000000 </v>
   <v>       0.25000000       0.12500000       0.00000000 </v>
   <v>       0.37500000       0.12500000       0.00000000 </v>
   <v>       0.50000000       0.12500000       0.00000000 </v>
   <v>      -0.37500000       0.12500000       0.00000000 </v>
   <v>      -0.25000000       0.12500000       0.00000000 </v>
   <v>      -0.12500000       0.12500000       0.00000000 </v>
   <v>       0.00000000       0.25000000       0.00000000 </v>
   <v>       0.12500000       0.25000000       0.00000000 </v>
   <v>       0.25000000       0.25000000       0.00000000 </v>
   <v>       0.37500000       0.25000000       0.00000000 </v>
   <v>       0.50000000       0.25000000       0.00000000 </v>
   <v>      -0.37500000       0.25000000       0.00000000 </v>
   <v>      -0.25000000       0.25000000       0.00000000 </v>
   <v>      -0.12500000       0.25000000       0.00000000 </v>
   <v>      -0.00000000       0.37500000       0.00000000 </v>
   <v>       0.12500000       0.37500000       0.00000000 </v>
   <v>       0.25000000       0.37500000       0.00000000 </v>
   <v>       0.37500000       0.37500000       0.00000000 </v>
   <v>       0.50000000       0.37500000       0.00000000 </v>
   <v>      -0.37500000       0.37500000       0.00000000 </v>
   <v>      -0.25000000       0.37500000       0.00000000 </v>
   <v>      -0.12500000       0.37500000       0.00000000 </v>
   <v>       0.00000000       0.50000000       0.00000000 </v>
   <v>       0.12500000       0.50000000       0.00000000 </v>
   <v>       0.25000000       0.50000000       0.00000000 </v>
   <v>       0.37500000       0.50000000       0.00000000 </v>
   <v>       0.50000000       0.50000000       0.00000000 </v>
  </varray>
  <varray name="weights" >
   <v>       0.01562500 </v>
   <v>       0.03125000 </v>
   <v>       0.03125000 </v>
   <v>       0.03125000 </v>
   <v>       0.01562500 </v>
   <v>       0.03125000 </v>
   <v>       0.03125000 </v>
   <v>       0.03125000 </v>
   <v>       0.03125000 </v>
   <v>       0.03125000 </v>
   <v>       0.03125000 </v>
   <v>       0.03125000 </v>
   <v>       0.03125000 </v>
   <v>       0.03125000 </v>
   <v>       0.03125000 </v>
   <v>       0.03125000 </v>
   <v>       0.03125000 </v>
   <v>       0.03125000 </v>
   <v>       0.03125000 </v>
   <v>       0.03125000 </v>
   <v>       0.03125000 </v>
   <v>       0.03125000 </v>
   <v>       0.03125000 </v>
   <v>       0.03125000 </v>
   <v>       0.03125000 </v>
   <v>       0.03125000 </v>
   <v>       0.03125000 </v>
   <v>       0.03125000 </v>
   <v>       0.03125000 </v>
   <v>       0.01562500 </v>
   <v>       0.03125000 </v>
   <v>       0.03125000 </v>
   <v>       0.03125000 </v>
   <v>       0.01562500 </v>
  </varray>
 </kpoints>
 <parameters>
  <separator name="general" >
   <i type="string" name="SYSTEM">unknown system</i>
   <i type="logical" name="LCOMPAT"> F  </i>
  </separator>
  <separator name="electronic" >
   <i type="string" name="PREC">normal</i>
   <i name="ENMAX">    280.00000000</i>
   <i name="ENAUG">    373.43800000</i>
   <i name="EDIFF">      0.00010000</i>
   <i type="int" name="IALGO">    38</i>
   <i type="int" name="IWAVPR">    11</i>
   <i type="int" name="NBANDS">   120</i>
   <i name="NELECT">    159.00000000</i>
   <i type="int" name="TURBO">     0</i>
   <i type="int" name="IRESTART">     0</i>
   <i type="int" name="NREBOOT">     0</i>
   <i type="int" name="NMIN">     0</i>
   <i name="EREF">      0.00000000</i>
   <separator name="electronic smearing" >
    <i type="int" name="ISMEAR">     0</i>
    <i name="SIGMA">      0.20000000</i>
    <i name="KSPACING">      0.50000000</i>
    <i type="logical" name="KGAMMA"> T  </i>
   </separator>
   <separator name="electronic projectors" >
    <i type="logical" name="LREAL"> F  </i>
    <v name="ROPT">      0.00000000      0.00000000      0.00000000      0.00000000</v>
    <i type="int" name="LMAXPAW">  -100</i>
    <i type="int" name="LMAXMIX">     2</i>
    <i type="logical" name="NLSPLINE"> F  </i>
   </separator>
   <separator name="electronic startup" >
    <i type="int" name="ISTART">     0</i>
    <i type="int" name="ICHARG">     2</i>
    <i type="int" name="INIWAV">     1</i>
   </separator>
   <separator name="electronic spin" >
    <i type="int" name="ISPIN">     1</i>
    <i type="logical" name="LNONCOLLINEAR"> F  </i>
    <v name="MAGMOM">      1.00000000      1.00000000      1.00000000      1.00000000      1.00000000      1.00000000      1.00000000      1.00000000      1.00000000      1.00000000      1.00000000      1.00000000      1.00000000      1.00000000      1.00000000      1.00000000      1.00000000      1.00000000      1.00000000      1.00000000
      1.00000000      1.00000000      1.00000000      1.00000000      1.00000000      1.00000000      1.00000000</v>
    <i name="NUPDOWN">     -1.00000000</i>
    <i type="logical" name="LSORBIT"> F  </i>
    <v name="SAXIS">      0.00000000      0.00000000      1.00000000</v>
    <i type="logical" name="LSPIRAL"> F  </i>
    <v name="QSPIRAL">      0.00000000      0.00000000      0.00000000</v>
    <i type="logical" name="LZEROZ"> F  </i>
   </separator>
   <separator name="electronic exchange-correlation" >
    <i type="logical" name="LASPH"> F  </i>
    <i type="logical" name="LMETAGGA"> F  </i>
   </separator>
   <separator name="electronic convergence" >
    <i type="int" name="NELM">    60</i>
    <i type="int" name="NELMDL">    -5</i>
    <i type="int" name="NELMIN">     2</i>
    <i name="ENINI">    280.00000000</i>
    <separator name="electronic convergence detail" >
     <i type="logical" name="LDIAG"> T  </i>
     <i type="logical" name="LSUBROT"> F  </i>
     <i name="WEIMIN">      0.00100000</i>
     <i name="EBREAK">      0.00000021</i>
     <i name="DEPER">      0.30000000</i>
     <i type="int" name="NRMM">     4</i>
     <i name="TIME">      0.40000000</i>
    </separator>
   </separator>
   <separator name="electronic mixer" >
    <i name="AMIX">      0.40000000</i>
    <i name="BMIX">      1.00000000</i>
    <i name="AMIN">      0.10000000</i>
    <i name="AMIX_MAG">      1.60000000</i>
    <i name="BMIX_MAG">      1.00000000</i>
    <separator name="electronic mixer details" >
     <i type="int" name="IMIX">     4</i>
     <i type="logical" name="MIXFIRST"> F  </i>
     <i type="int" name="MAXMIX">   -45</i>
     <i name="WC">    100.00000000</i>
     <i type="int" name="INIMIX">     1</i>
     <i type="int" name="MIXPRE">     1</i>
     <i type="int" name="MREMOVE">     5</i>
    </separator>
   </separator>
   <separator name="electronic dipolcorrection" >
    <i type="logical" name="LDIPOL"> F  </i>
    <i type="logical" name="LMONO"> F  </i>
    <i type="int" name="IDIPOL">     0</i>
    <i name="EPSILON">      1.00000000</i>
    <v name="DIPOL">   -100.00000000   -100.00000000   -100.00000000</v>
    <i name="EFIELD">      0.00000000</i>
   </separator>
  </separator>
  <separator name="grids" >
   <i type="int" name="NGX">    42</i>
   <i type="int" name="NGY">    42</i>
   <i type="int" name="NGZ">   126</i>
   <i type="int" name="NGXF">    84</i>
   <i type="int" name="NGYF">    84</i>
   <i type="int" name="NGZF">   252</i>
   <i type="logical" name="ADDGRID"> F  </i>
  </separator>
  <separator name="ionic" >
   <i type="int" name="NSW">   100</i>
   <i type="int" name="IBRION">     1</i>
   <i type="int" name="ISIF">     3</i>
   <i name="PSTRESS">      0.00000000</i>
   <i name="EDIFFG">      0.00100000</i>
   <i type="int" name="NFREE">     0</i>
   <i name="POTIM">      0.50000000</i>
   <i name="SMASS">     -3.00000000</i>
   <i name="SCALEE">      1.00000000</i>
  </separator>
  <separator name="ionic md" >
   <i name="TEBEG">      0.00010000</i>
   <i name="TEEND">      0.00010000</i>
   <i type="int" name="NBLOCK">     1</i>
   <i type="int" name="KBLOCK">   100</i>
   <i type="int" name="NPACO">   256</i>
   <i name="APACO">     16.00000000</i>
  </separator>
  <separator name="symmetry" >
   <i type="int" name="ISYM">     0</i>
   <i name="SYMPREC">      0.00000001</i>
  </separator>
  <separator name="dos" >
   <i type="logical" name="LORBIT"> F  </i>
   <v name="RWIGS">     -1.00000000     -1.00000000     -1.00000000     -1.00000000</v>
   <i type="int" name="NEDOS">   301</i>
   <i name="EMIN">     10.00000000</i>
   <i name="EMAX">    -10.00000000</i>
   <i name="EFERMI">      0.00000000</i>
  </separator>
  <separator name="writing" >
   <i type="int" name="NWRITE">     2</i>
   <i type="logical" name="LWAVE"> F  </i>
   <i type="logical" name="LCHARG"> F  </i>
   <i type="logical" name="LPARD"> F  </i>
   <i type="logical" name="LVTOT"> F  </i>
   <i type="logical" name="LVHAR"> F  </i>
   <i type="logical" name="LELF"> F  </i>
   <i type="logical" name="LOPTICS"> F  </i>
   <v name="STM">      0.00000000      0.00000000      0.00000000      0.00000000      0.00000000      0.00000000      0.00000000</v>
  </separator>
  <separator name="performance" >
   <i type="int" name="NPAR">    40</i>
   <i type="int" name="NSIM">     4</i>
   <i type="int" name="NBLK">    -1</i>
   <i type="logical" name="LPLANE"> F  </i>
   <i type="logical" name="LSCALAPACK"> T  </i>
   <i type="logical" name="LSCAAWARE"> F  </i>
   <i type="logical" name="LSCALU"> F  </i>
   <i type="logical" name="LASYNC"> F  </i>
   <i type="logical" name="LORBITALREAL"> F  </i>
  </separator>
  <separator name="miscellaneous" >
   <i type="int" name="IDIOT">     3</i>
   <i type="logical" name="LMUSIC"> F  </i>
   <v name="POMASS">     50.94100000     95.94000000    183.85000000     32.06600000</v>
   <v name="DARWINR">      0.00000000      0.00000000      0.00000000      0.00000000</v>
   <v name="DARWINV">      1.00000000      1.00000000      1.00000000      1.00000000</v>
   <i type="logical" name="LCORR"> T  </i>
  </separator>
  <i type="logical" name="GGA_COMPAT"> T  </i>
  <i type="logical" name="LBERRY"> F  </i>
  <i type="int" name="ICORELEVEL">     0</i>
  <i type="logical" name="LDAU"> F  </i>
  <i type="int" name="I_CONSTRAINED_M">     0</i>
  <separator name="electronic exchange-correlation" >
   <i type="string" name="GGA">--</i>
   <i type="int" name="VOSKOWN">     0</i>
   <i type="logical" name="LHFCALC"> F  </i>
   <i type="string" name="PRECFOCK"></i>
   <i type="logical" name="LSYMGRAD"> F  </i>
   <i type="logical" name="LHFONE"> F  </i>
   <i type="logical" name="LRHFCALC"> F  </i>
   <i type="logical" name="LTHOMAS"> F  </i>
   <i type="logical" name="LMODELHF"> F  </i>
   <i name="ENCUT4O">     -1.00000000</i>
   <i type="int" name="EXXOEP">     0</i>
   <i type="int" name="FOURORBIT">     0</i>
   <i name="AEXX">      0.00000000</i>
   <i name="HFALPHA">      0.00000000</i>
   <i name="MCALPHA">      0.00000000</i>
   <i name="ALDAX">      1.00000000</i>
   <i name="AGGAX">      1.00000000</i>
   <i name="ALDAC">      1.00000000</i>
   <i name="AGGAC">      1.00000000</i>
   <i type="int" name="NKREDX">     1</i>
   <i type="int" name="NKREDY">     1</i>
   <i type="int" name="NKREDZ">     1</i>
   <i type="logical" name="SHIFTRED"> F  </i>
   <i type="logical" name="ODDONLY"> F  </i>
   <i type="logical" name="EVENONLY"> F  </i>
   <i type="int" name="LMAXFOCK">     0</i>
   <i type="int" name="NMAXFOCKAE">     0</i>
   <i type="logical" name="LFOCKAEDFT"> F  </i>
   <i name="HFSCREEN">      0.00000000</i>
   <i name="HFSCREENC">      0.00000000</i>
   <i type="int" name="NBANDSGWLOW">     0</i>
  </separator>
  <separator name="vdW DFT" >
   <i type="logical" name="LUSE_VDW"> F  </i>
   <i name="Zab_VDW">     -0.84910000</i>
   <i name="PARAM1">      0.12340000</i>
   <i name="PARAM2">      1.00000000</i>
   <i name="PARAM3">      0.00000000</i>
  </separator>
  <separator name="model GW" >
   <i type="int" name="MODEL_GW">     0</i>
   <i name="MODEL_EPS0">     58.26239943</i>
   <i name="MODEL_ALPHA">      1.00000000</i>
  </separator>
  <separator name="linear response parameters" >
   <i type="logical" name="LEPSILON"> F  </i>
   <i type="logical" name="LRPA"> F  </i>
   <i type="logical" name="LNABLA"> F  </i>
   <i type="logical" name="LVEL"> F  </i>
   <i type="int" name="KINTER">     0</i>
   <i name="CSHIFT">      0.10000000</i>
   <i name="OMEGAMAX">     -1.00000000</i>
   <i name="DEG_THRESHOLD">      0.00200000</i>
  </separator>
  <separator name="orbital magnetization" >
   <i type="logical" name="NUCIND"> F  </i>
   <v name="MAGPOS">      0.00000000      0.00000000      0.00000000</v>
   <i type="logical" name="LNICSALL"> T  </i>
   <i type="logical" name="ORBITALMAG"> F  </i>
   <i type="logical" name="LMAGBLOCH"> F  </i>
   <i type="logical" name="LCHIMAG"> F  </i>
   <i type="logical" name="LGAUGE"> T  </i>
   <i type="int" name="MAGATOM">     0</i>
   <v name="MAGDIPOL">      0.00000000      0.00000000      0.00000000</v>
   <v name="AVECCONST">      0.00000000      0.00000000      0.00000000</v>
  </separator>
  <separator name="response functions" >
   <i type="logical" name="LADDER"> F  </i>
   <i type="logical" name="LFXC"> F  </i>
   <i type="logical" name="LHARTREE"> T  </i>
   <i type="int" name="IBSE">     0</i>
   <v type="int" name="KPOINT">    -1     0     0     0</v>
   <i type="logical" name="LTCTE"> F  </i>
   <i type="logical" name="LTETE"> F  </i>
   <i type="logical" name="LTRIPLET"> F  </i>
   <i type="logical" name="LFXCEPS"> F  </i>
   <i type="logical" name="LFXHEG"> F  </i>
   <i type="int" name="NATURALO">     0</i>
   <i type="logical" name="L2ORDER"> F  </i>
   <i type="logical" name="LUSEW"> F  </i>
   <i name="ENCUTGW">     -2.00000000</i>
   <i name="ENCUTGWSOFT">     -2.00000000</i>
   <i name="ENCUTLF">     -1.00000000</i>
   <i type="int" name="LMAXMP2">    -1</i>
   <i name="SCISSOR">      0.00000000</i>
   <i type="int" name="NOMEGA">     0</i>
   <i type="int" name="NOMEGAR">     0</i>
   <i type="int" name="NBANDSGW">    -1</i>
   <i type="int" name="NBANDSO">    -1</i>
   <i type="int" name="NBANDSV">    -1</i>
   <i type="int" name="NELM">     1</i>
   <i type="int" name="NELMHF">     1</i>
   <i type="int" name="DIM">     3</i>
   <i type="int" name="ANTIRES">     0</i>
   <i name="OMEGAMAX">    -30.00000000</i>
   <i name="OMEGAMIN">    -30.00000000</i>
   <i name="OMEGATL">   -200.00000000</i>
   <i type="int" name="OMEGAGRID">     0</i>
   <i name="CSHIFT">     -0.10000000</i>
   <i type="logical" name="SELFENERGY"> F  </i>
   <i type="logical" name="LSPECTRAL"> F  </i>
   <i type="logical" name="LSPECTRALGW"> F  </i>
   <i type="logical" name="LSINGLES"> F  </i>
   <i type="logical" name="LFERMIGW"> F  </i>
   <i type="logical" name="ODDONLYGW"> F  </i>
   <i type="logical" name="EVENONLYGW"> F  </i>
   <i type="int" name="NKREDLFX">     1</i>
   <i type="int" name="NKREDLFY">     1</i>
   <i type="int" name="NKREDLFZ">     1</i>
   <i type="int" name="MAXMEM">  1800</i>
   <i type="int" name="TELESCOPE">     0</i>
   <i type="int" name="TAUPAR">     1</i>
   <i type="int" name="OMEGAPAR">    -1</i>
   <i name="LAMBDA">      1.00000000</i>
  </separator>
  <separator name="External order field" >
   <i name="OFIELD_KAPPA">      0.00000000</i>
   <v name="OFIELD_K">      0.00000000      0.00000000      0.00000000</v>
   <i name="OFIELD_Q6_NEAR">      0.00000000</i>
   <i name="OFIELD_Q6_FAR">      0.00000000</i>
   <i name="OFIELD_A">      0.00000000</i>
  </separator>
 </parameters>
 <atominfo>
  <atoms>      27 </atoms>
  <types>       4 </types>
  <array name="atoms" >
   <dimension dim="1">ion</dimension>
   <field type="string">element</field>
   <field type="int">atomtype</field>
   <set>
    <rc><c>V </c><c>   1</c></rc>
    <rc><c>V </c><c>   1</c></rc>
    <rc><c>V </c><c>   1</c></rc>
    <rc><c>Mo</c><c>   2</c></rc>
    <rc><c>Mo</c><c>   2</c></rc>
    <rc><c>Mo</c><c>   2</c></rc>
    <rc><c>W </c><c>   3</c></rc>
    <rc><c>W </c><c>   3</c></rc>
    <rc><c>W </c><c>   3</c></rc>
    <rc><c>S </c><c>   4</c></rc>
    <rc><c>S </c><c>   4</c></rc>
    <rc><c>S </c><c>   4</c></rc>
    <rc><c>S </c><c>   4</c></rc>
    <rc><c>S </c><c>   4</c></rc>
    <rc><c>S </c><c>   4</c></rc>
    <rc><c>S </c><c>   4</c></rc>
    <rc><c>S </c><c>   4</c></rc>
    <rc><c>S </c><c>   4</c></rc>
    <rc><c>S </c><c>   4</c></rc>
    <rc><c>S </c><c>   4</c></rc>
    <rc><c>S </c><c>   4</c></rc>
    <rc><c>S </c><c>   4</c></rc>
    <rc><c>S </c><c>   4</c></rc>
    <rc><c>S </c><c>   4</c></rc>
    <rc><c>S </c><c>   4</c></rc>
    <rc><c>S </c><c>   4</c></rc>
    <rc><c>S </c><c>   4</c></rc>
   </set>
  </array>
  <array name="atomtypes" >
   <dimension dim="1">type</dimension>
   <field type="int">atomspertype</field>
   <field type="string">element</field>
   <field>mass</field>
   <field>valence</field>
   <field type="string">pseudopotential</field>
   <set>
    <rc><c>   3</c><c>V </c><c>     50.94100000</c><c>      5.00000000</c><c> PAW_PBE V 08Apr2002                    </c></rc>
    <rc><c>   3</c><c>Mo</c><c>     95.94000000</c><c>      6.00000000</c><c> PAW_PBE Mo 08Apr2002                   </c></rc>
    <rc><c>   3</c><c>W </c><c>    183.85000000</c><c>      6.00000000</c><c> PAW_PBE W 08Apr2002                    </c></rc>
    <rc><c>  18</c><c>S </c><c>     32.06600000</c><c>      6.00000000</c><c>  PAW_PBE S 17Jan2003                   </c></rc>
   </set>
  </array>
 </atominfo>
 <structure name="initialpos" >
  <crystal>
   <varray name="basis" >
    <v>       8.66999996       5.03999989       0.00000000 </v>
    <v>      -8.66999982       5.04000013       0.00000000 </v>
    <v>       0.00000000       0.00000000      30.00000000 </v>
   </varray>
   <i name="volume">   2621.80797419 </i>
   <varray name="rec_basis" >
    <v>       0.05767013       0.09920635       0.00000000 </v>
    <v>      -0.05767013       0.09920635       0.00000000 </v>
    <v>       0.00000000       0.00000000       0.03333333 </v>
   </varray>
  </crystal>
  <varray name="positions" >
   <v>       0.33333334       0.00000000       0.00000000 </v>
   <v>       0.33333334       0.33333334       0.00000000 </v>
   <v>       0.66666669       0.00000000       0.00000000 </v>
   <v>       1.00000000       0.33333334       0.00000000 </v>
   <v>       0.66666669       0.66666669       0.00000000 </v>
   <v>       0.00000000       0.66666669       0.00000000 </v>
   <v>       0.00000000       0.00000000       0.00000000 </v>
   <v>       0.33333334       0.66666669       0.00000000 </v>
   <v>       0.66666669       0.33333334       0.00000000 </v>
   <v>       0.11068511       0.22244981       0.95539999 </v>
   <v>       0.22244981       0.11068511       0.04460000 </v>
   <v>       0.11068511       0.55578315       0.95539999 </v>
   <v>       0.22244981       0.44401845       0.04460000 </v>
   <v>       0.11068511       0.88911647       0.95539999 </v>
   <v>       0.22244981       0.77735180       0.04460000 </v>
   <v>       0.44401845       0.22244981       0.95539999 </v>
   <v>       0.55578315       0.11068511       0.04460000 </v>
   <v>       0.44401845       0.55578315       0.95539999 </v>
   <v>       0.55578315       0.44401845       0.04460000 </v>
   <v>       0.44401845       0.88911647       0.95539999 </v>
   <v>       0.55578315       0.77735180       0.04460000 </v>
   <v>       0.77735180       0.22244981       0.95539999 </v>
   <v>       0.88911647       0.11068511       0.04460000 </v>
   <v>       0.77735180       0.55578315       0.95539999 </v>
   <v>       0.88911647       0.44401845       0.04460000 </v>
   <v>       0.77735180       0.88911647       0.95539999 </v>
   <v>       0.88911647       0.77735180       0.04460000 </v>
  </varray>
 </structure>
 <calculation>
  <scstep>
   <time name="dav">   21.66   21.72</time>
   <time name="total">   21.71   21.77</time>
   <energy>
    <i name="alphaZ">     81.65567618 </i>
    <i name="ewald">  41890.25210945 </i>
    <i name="hartreedc"> -47722.87086840 </i>
    <i name="XCdc">   -242.93151228 </i>
    <i name="pawpsdc">   3467.42045192 </i>
    <i name="pawaedc">  -2871.19716117 </i>
    <i name="eentropy">     -0.53363630 </i>
    <i name="bandstr">   -238.80816558 </i>
    <i name="atom">   6761.44252427 </i>
    <i name="e_fr_energy">   1124.42941808 </i>
    <i name="e_wo_entrp">   1124.96305438 </i>
    <i name="e_0_energy">   1124.69623623 </i>
   </energy>
  </scstep>
  <scstep>
   <time name="dav">   28.01   28.08</time>
   <time name="total">   28.01   28.08</time>
   <energy>
    <i name="e_fr_energy">     -1.96759461 </i>
    <i name="e_wo_entrp">     -1.77188948 </i>
    <i name="e_0_energy">     -1.86974204 </i>
   </energy>
  </scstep>
  <scstep>
   <time name="dav">   27.45   27.51</time>
   <time name="total">   27.45   27.52</time>
   <energy>
    <i name="e_fr_energy">   -199.79867829 </i>
    <i name="e_wo_entrp">   -199.52619846 </i>
    <i name="e_0_energy">   -199.66243838 </i>
   </energy>
  </scstep>
  <scstep>
   <time name="dav">   29.83   29.90</time>
   <time name="total">   29.83   29.91</time>
   <energy>
    <i name="e_fr_energy">   -208.94282336 </i>
    <i name="e_wo_entrp">   -208.64399919 </i>
    <i name="e_0_energy">   -208.79341128 </i>
   </energy>
  </scstep>
  <scstep>
   <time name="dav">   28.73   28.80</time>
   <time name="total">   29.20   29.27</time>
   <energy>
    <i name="e_fr_energy">   -209.26903617 </i>
    <i name="e_wo_entrp">   -208.97339903 </i>
    <i name="e_0_energy">   -209.12121760 </i>
   </energy>
  </scstep>
  <scstep>
   <time name="dav">   30.96   31.03</time>
   <time name="total">   31.46   31.56</time>
   <energy>
    <i name="e_fr_energy">   -237.35082719 </i>
    <i name="e_wo_entrp">   -237.06560969 </i>
    <i name="e_0_energy">   -237.20821844 </i>
   </energy>
  </scstep>
  <scstep>
   <time name="dav">   32.57   32.65</time>
   <time name="total">   33.07   33.16</time>
   <energy>
    <i name="e_fr_energy">   -196.73276410 </i>
    <i name="e_wo_entrp">   -196.40425984 </i>
    <i name="e_0_energy">   -196.56851197 </i>
   </energy>
  </scstep>
  <scstep>
   <time name="dav">   28.76   28.83</time>
   <time name="total">   29.27   29.35</time>
   <energy>
    <i name="e_fr_energy">   -190.34572031 </i>
    <i name="e_wo_entrp">   -190.08014403 </i>
    <i name="e_0_energy">   -190.21293217 </i>
   </energy>
  </scstep>
  <scstep>
   <time name="dav">   29.42   29.49</time>
   <time name="total">   29.94   30.02</time>
   <energy>
    <i name="e_fr_energy">   -188.34797905 </i>
    <i name="e_wo_entrp">   -188.02416939 </i>
    <i name="e_0_energy">   -188.18607422 </i>
   </energy>
  </scstep>
  <scstep>
   <time name="dav">   31.85   31.93</time>
   <time name="total">   32.39   32.48</time>
   <energy>
    <i name="e_fr_energy">   -187.12490937 </i>
    <i name="e_wo_entrp">   -186.77729276 </i>
    <i name="e_0_energy">   -186.95110107 </i>
   </energy>
  </scstep>
  <scstep>
   <time name="dav">   30.14   30.21</time>
   <time name="total">   30.67   30.75</time>
   <energy>
    <i name="e_fr_energy">   -187.11506524 </i>
    <i name="e_wo_entrp">   -186.77454454 </i>
    <i name="e_0_energy">   -186.94480489 </i>
   </energy>
  </scstep>
  <scstep>
   <time name="dav">   29.53   29.60</time>
   <time name="total">   30.06   30.14</time>
   <energy>
    <i name="e_fr_energy">   -187.10891429 </i>
    <i name="e_wo_entrp">   -186.77574736 </i>
    <i name="e_0_energy">   -186.94233083 </i>
   </energy>
  </scstep>
  <scstep>
   <time name="dav">   31.61   31.69</time>
   <time name="total">   32.14   32.23</time>
   <energy>
    <i name="e_fr_energy">   -186.99426387 </i>
    <i name="e_wo_entrp">   -186.65905958 </i>
    <i name="e_0_energy">   -186.82666173 </i>
   </energy>
  </scstep>
  <scstep>
   <time name="dav">   31.69   31.76</time>
   <time name="total">   32.22   32.31</time>
   <energy>
    <i name="e_fr_energy">   -186.95948228 </i>
    <i name="e_wo_entrp">   -186.61646703 </i>
    <i name="e_0_energy">   -186.78797466 </i>
   </energy>
  </scstep>
  <scstep>
   <time name="dav">   29.21   29.28</time>
   <time name="total">   29.75   29.82</time>
   <energy>
    <i name="e_fr_energy">   -186.95543614 </i>
    <i name="e_wo_entrp">   -186.61236043 </i>
    <i name="e_0_energy">   -186.78389829 </i>
   </energy>
  </scstep>
  <scstep>
   <time name="dav">   31.27   31.34</time>
   <time name="total">   31.80   31.89</time>
   <energy>
    <i name="e_fr_energy">   -186.95447762 </i>
    <i name="e_wo_entrp">   -186.61322455 </i>
    <i name="e_0_energy">   -186.78385108 </i>
   </energy>
  </scstep>
  <scstep>
   <time name="dav">   30.18   30.25</time>
   <time name="total">   30.72   30.80</time>
   <energy>
    <i name="e_fr_energy">   -186.95320086 </i>
    <i name="e_wo_entrp">   -186.61202341 </i>
    <i name="e_0_energy">   -186.78261213 </i>
   </energy>
  </scstep>
  <scstep>
   <time name="dav">   25.72   25.78</time>
   <time name="total">   26.25   26.32</time>
   <energy>
    <i name="e_fr_energy">   -186.95280514 </i>
    <i name="e_wo_entrp">   -186.61114408 </i>
    <i name="e_0_energy">   -186.78197461 </i>
   </energy>
  </scstep>
  <scstep>
   <time name="dav">   23.95   24.01</time>
   <time name="total">   24.49   24.55</time>
   <energy>
    <i name="e_fr_energy">   -186.95361733 </i>
    <i name="e_wo_entrp">   -186.61233772 </i>
    <i name="e_0_energy">   -186.78297752 </i>
   </energy>
  </scstep>
  <scstep>
   <time name="dav">   21.47   21.52</time>
   <time name="total">   22.00   22.07</time>
   <energy>
    <i name="e_fr_energy">   -186.95461807 </i>
    <i name="e_wo_entrp">   -186.61315493 </i>
    <i name="e_0_energy">   -186.78388650 </i>
   </energy>
  </scstep>
  <scstep>
   <time name="dav">   19.08   19.12</time>
   <time name="total">   19.61   19.66</time>
   <energy>
    <i name="e_fr_energy">   -186.95505783 </i>
    <i name="e_wo_entrp">   -186.61359763 </i>
    <i name="e_0_energy">   -186.78432773 </i>
   </energy>
  </scstep>
  <scstep>
   <time name="dav">   20.36   20.41</time>
   <time name="total">   20.91   20.98</time>
   <energy>
    <i name="e_fr_energy">   -186.95634639 </i>
    <i name="e_wo_entrp">   -186.61505737 </i>
    <i name="e_0_energy">   -186.78570188 </i>
   </energy>
  </scstep>
  <scstep>
   <time name="dav">   19.09   19.14</time>
   <time name="total">   19.62   19.68</time>
   <energy>
    <i name="e_fr_energy">   -186.95676052 </i>
    <i name="e_wo_entrp">   -186.61542906 </i>
    <i name="e_0_energy">   -186.78609479 </i>
   </energy>
  </scstep>
  <scstep>
   <time name="dav">   17.12   17.16</time>
   <time name="total">   17.66   17.71</time>
   <energy>
    <i name="e_fr_energy">   -186.95715614 </i>
    <i name="e_wo_entrp">   -186.61576479 </i>
    <i name="e_0_energy">   -186.78646046 </i>
   </energy>
  </scstep>
  <scstep>
   <time name="dav">   16.62   16.66</time>
   <time name="total">   17.15   17.20</time>
   <energy>
    <i name="e_fr_energy">   -186.95754957 </i>
    <i name="e_wo_entrp">   -186.61616060 </i>
    <i name="e_0_energy">   -186.78685508 </i>
   </energy>
  </scstep>
  <scstep>
   <time name="dav">   19.09   19.14</time>
   <time name="total">   19.63   19.69</time>
   <energy>
    <i name="e_fr_energy">   -186.95776512 </i>
    <i name="e_wo_entrp">   -186.61638839 </i>
    <i name="e_0_energy">   -186.78707675 </i>
   </energy>
  </scstep>
  <scstep>
   <time name="dav">   19.25   19.30</time>
   <time name="total">   19.28   19.34</time>
   <energy>
    <i name="alphaZ">     81.65567618 </i>
    <i name="ewald">  41890.25210945 </i>
    <i name="hartreedc"> -47833.38378284 </i>
    <i name="XCdc">   -231.58393441 </i>
    <i name="pawpsdc">   4192.26903231 </i>
    <i name="pawaedc">  -3610.31590832 </i>
    <i name="eentropy">     -0.34137472 </i>
    <i name="bandstr">  -1436.95220607 </i>
    <i name="atom">   6761.44252427 </i>
    <i name="e_fr_energy">   -186.95786414 </i>
    <i name="e_wo_entrp">   -186.61648942 </i>
    <i name="e_0_energy">   -186.78717678 </i>
   </energy>
  </scstep>
  <structure>
   <crystal>
    <varray name="basis" >
     <v>       8.66999996       5.03999989       0.00000000 </v>
     <v>      -8.66999982       5.04000013       0.00000000 </v>
     <v>       0.00000000       0.00000000      30.00000000 </v>
    </varray>
    <i name="volume">   2621.80797419 </i>
    <varray name="rec_basis" >
     <v>       0.05767013       0.09920635       0.00000000 </v>
     <v>      -0.05767013       0.09920635       0.00000000 </v>
     <v>       0.00000000       0.00000000       0.03333333 </v>
    </varray>
   </crystal>
   <varray name="positions" >
    <v>       0.33333334       0.00000000       0.00000000 </v>
    <v>       0.33333334       0.33333334       0.00000000 </v>
    <v>       0.66666669       0.00000000       0.00000000 </v>
    <v>       1.00000000       0.33333334       0.00000000 </v>
    <v>       0.66666669       0.66666669       0.00000000 </v>
    <v>       0.00000000       0.66666669       0.00000000 </v>
    <v>       0.00000000       0.00000000       0.00000000 </v>
    <v>       0.33333334       0.66666669       0.00000000 </v>
    <v>       0.66666669       0.33333334       0.00000000 </v>
    <v>       0.11068511       0.22244981       0.95539999 </v>
    <v>       0.22244981       0.11068511       0.04460000 </v>
    <v>       0.11068511       0.55578315       0.95539999 </v>
    <v>       0.22244981       0.44401845       0.04460000 </v>
    <v>       0.11068511       0.88911647       0.95539999 </v>
    <v>       0.22244981       0.77735180       0.04460000 </v>
    <v>       0.44401845       0.22244981       0.95539999 </v>
    <v>       0.55578315       0.11068511       0.04460000 </v>
    <v>       0.44401845       0.55578315       0.95539999 </v>
    <v>       0.55578315       0.44401845       0.04460000 </v>
    <v>       0.44401845       0.88911647       0.95539999 </v>
    <v>       0.55578315       0.77735180       0.04460000 </v>
    <v>       0.77735180       0.22244981       0.95539999 </v>
    <v>       0.88911647       0.11068511       0.04460000 </v>
    <v>       0.77735180       0.55578315       0.95539999 </v>
    <v>       0.88911647       0.44401845       0.04460000 </v>
    <v>       0.77735180       0.88911647       0.95539999 </v>
    <v>       0.88911647       0.77735180       0.04460000 </v>
   </varray>
  </structure>
  <varray name="forces" >
   <v>       0.00001513      -0.15454375      -0.00000058 </v>
   <v>      -0.15190441       0.07700580       0.07163160 </v>
   <v>       0.15188755       0.07696512      -0.07164217 </v>
   <v>      -0.26822547       0.15510043       0.07215872 </v>
   <v>       0.26819577       0.15511179      -0.07216790 </v>
   <v>      -0.00000669      -0.32752818      -0.00000505 </v>
   <v>       0.01005772      -0.23567554      -0.00033059 </v>
   <v>      -0.01006056      -0.23561943       0.00031466 </v>
   <v>       0.00000868       0.45921882       0.00000025 </v>
   <v>       0.61673246       0.54676379      -2.10263742 </v>
   <v>       0.23120608       0.54695195       1.43083183 </v>
   <v>       0.18698921       0.16890930      -2.88534210 </v>
   <v>       0.68557890       0.14182967       2.16234035 </v>
   <v>       0.36743914       0.68495398      -2.14471611 </v>
   <v>      -0.36739835       0.68494432       2.14469249 </v>
   <v>      -0.23893027      -0.52751945      -1.38328931 </v>
   <v>       0.23903074      -0.52753542       1.38325065 </v>
   <v>       0.37070728      -0.67674117      -2.14556861 </v>
   <v>      -0.37721804      -0.73244895       2.15905991 </v>
   <v>      -0.23115845       0.54701370      -1.43075380 </v>
   <v>      -0.61680311       0.54680538       2.10261864 </v>
   <v>       0.37724673      -0.73247296      -2.15903107 </v>
   <v>      -0.37076786      -0.67679705       2.14555904 </v>
   <v>       0.18699093      -0.13770679      -2.94131717 </v>
   <v>      -0.18696749      -0.13770978       2.94131959 </v>
   <v>      -0.68567236       0.14182450      -2.16234687 </v>
   <v>      -0.18697328       0.16889991       2.88537103 </v>
  </varray>
  <varray name="stress" >
   <v>       7.26627383      -0.00002726      -1.55100408 </v>
   <v>      -0.00002755       4.53157884       0.00003679 </v>
   <v>      -1.55100395       0.00003693      30.23727669 </v>
  </varray>
  <energy>
   <i name="e_fr_energy">   -186.95786414 </i>
   <i name="e_wo_entrp">   -186.78717678 </i>
   <i name="e_0_energy">     -0.34137472 </i>
  </energy>
  <time name="totalsc">  757.93  760.01</time>
 </calculation>
 <calculation>
  <scstep>
   <time name="dav">   21.64   21.69</time>
   <time name="total">   22.18   22.23</time>
   <energy>
    <i name="alphaZ">     78.91138602 </i>
    <i name="ewald">  39376.22405445 </i>
    <i name="hartreedc"> -45333.84724935 </i>
    <i name="XCdc">   -239.03905786 </i>
    <i name="pawpsdc">   4192.26020938 </i>
    <i name="pawaedc">  -3610.30710860 </i>
    <i name="eentropy">     -0.27792168 </i>
    <i name="bandstr">  -1412.95841774 </i>
    <i name="atom">   6761.44252427 </i>
    <i name="e_fr_energy">   -187.59158111 </i>
    <i name="e_wo_entrp">   -187.31365943 </i>
    <i name="e_0_energy">   -187.45262027 </i>
   </energy>
  </scstep>
  <scstep>
   <time name="dav">   30.29   30.36</time>
   <time name="total">   30.82   30.91</time>
   <energy>
    <i name="e_fr_energy">   -189.62107645 </i>
    <i name="e_wo_entrp">   -189.28183983 </i>
    <i name="e_0_energy">   -189.45145814 </i>
   </energy>
  </scstep>
  <scstep>
   <time name="dav">   29.96   30.03</time>
   <time name="total">   30.52   30.60</time>
   <energy>
    <i name="e_fr_energy">   -189.37700254 </i>
    <i name="e_wo_entrp">   -189.11332296 </i>
    <i name="e_0_energy">   -189.24516275 </i>
   </energy>
  </scstep>
  <scstep>
   <time name="dav">   30.52   30.59</time>
   <time name="total">   31.06   31.14</time>
   <energy>
    <i name="e_fr_energy">   -188.84442932 </i>
    <i name="e_wo_entrp">   -188.56512627 </i>
    <i name="e_0_energy">   -188.70477779 </i>
   </energy>
  </scstep>
  <scstep>
   <time name="dav">   28.16   28.22</time>
   <time name="total">   28.70   28.78</time>
   <energy>
    <i name="e_fr_energy">   -188.84894365 </i>
    <i name="e_wo_entrp">   -188.57041690 </i>
    <i name="e_0_energy">   -188.70968028 </i>
   </energy>
  </scstep>
  <scstep>
   <time name="dav">   30.19   30.26</time>
   <time name="total">   30.73   30.81</time>
   <energy>
    <i name="e_fr_energy">   -188.90118630 </i>
    <i name="e_wo_entrp">   -188.61102888 </i>
    <i name="e_0_energy">   -188.75610759 </i>
   </energy>
  </scstep>
  <scstep>
   <time name="dav">   30.46   30.54</time>
   <time name="total">   31.01   31.09</time>
   <energy>
    <i name="e_fr_energy">   -188.76407924 </i>
    <i name="e_wo_entrp">   -188.48842310 </i>
    <i name="e_0_energy">   -188.62625117 </i>
   </energy>
  </scstep>
  <scstep>
   <time name="dav">   25.79   25.85</time>
   <time name="total">   26.33   26.40</time>
   <energy>
    <i name="e_fr_energy">   -188.74901234 </i>
    <i name="e_wo_entrp">   -188.47149905 </i>
    <i name="e_0_energy">   -188.61025569 </i>
   </energy>
  </scstep>
  <scstep>
   <time name="dav">   30.16   30.24</time>
   <time name="total">   30.72   30.79</time>
   <energy>
    <i name="e_fr_energy">   -188.74437349 </i>
    <i name="e_wo_entrp">   -188.46756442 </i>
    <i name="e_0_energy">   -188.60596895 </i>
   </energy>
  </scstep>
  <scstep>
   <time name="dav">   31.55   31.63</time>
   <time name="total">   32.09   32.18</time>
   <energy>
    <i name="e_fr_energy">   -188.74547005 </i>
    <i name="e_wo_entrp">   -188.46905944 </i>
    <i name="e_0_energy">   -188.60726475 </i>
   </energy>
  </scstep>
  <scstep>
   <time name="dav">   31.28   31.36</time>
   <time name="total">   31.83   31.91</time>
   <energy>
    <i name="e_fr_energy">   -188.74402972 </i>
    <i name="e_wo_entrp">   -188.46815781 </i>
    <i name="e_0_energy">   -188.60609376 </i>
   </energy>
  </scstep>
  <scstep>
   <time name="dav">   28.55   28.62</time>
   <time name="total">   29.09   29.17</time>
   <energy>
    <i name="e_fr_energy">   -188.74380656 </i>
    <i name="e_wo_entrp">   -188.46798762 </i>
    <i name="e_0_energy">   -188.60589709 </i>
   </energy>
  </scstep>
  <scstep>
   <time name="dav">   20.40   20.45</time>
   <time name="total">   20.43   20.49</time>
   <energy>
    <i name="alphaZ">     78.91138602 </i>
    <i name="ewald">  39376.22405445 </i>
    <i name="hartreedc"> -45344.42100257 </i>
    <i name="XCdc">   -237.96076818 </i>
    <i name="pawpsdc">   3950.35304596 </i>
    <i name="pawaedc">  -3364.88041398 </i>
    <i name="eentropy">     -0.27594052 </i>
    <i name="bandstr">  -1408.13675729 </i>
    <i name="atom">   6761.44252427 </i>
    <i name="e_fr_energy">   -188.74387183 </i>
    <i name="e_wo_entrp">   -188.46793131 </i>
    <i name="e_0_energy">   -188.60590157 </i>
   </energy>
  </scstep>
  <structure>
   <crystal>
    <varray name="basis" >
     <v>       8.85419910       5.10677788       0.00000000 </v>
     <v>      -8.85419978       5.10677950       0.00000000 </v>
     <v>       0.00000000       0.00000000      30.00000000 </v>
    </varray>
    <i name="volume">   2712.98622080 </i>
    <varray name="rec_basis" >
     <v>       0.05647039       0.09790908       0.00000000 </v>
     <v>      -0.05647037       0.09790908       0.00000000 </v>
     <v>       0.00000000       0.00000000       0.03333333 </v>
    </varray>
   </crystal>
   <varray name="positions" >
    <v>       0.33259374      -0.00073969      -0.00000000 </v>
    <v>       0.33327927       0.33412451       0.00011519 </v>
    <v>       0.66745762      -0.00005422      -0.00011521 </v>
    <v>       0.99999606       0.33482190       0.00011604 </v>
    <v>       0.66815521       0.66666288      -0.00011605 </v>
    <v>      -0.00156756       0.66509916      -0.00000001 </v>
    <v>      -0.00109996      -0.00115592      -0.00000053 </v>
    <v>       0.33217768       0.66556701       0.00000051 </v>
    <v>       0.66886452       0.33553113       0.00000000 </v>
    <v>       0.11501776       0.22335076       0.95201876 </v>
    <v>       0.22571076       0.11265956       0.04690090 </v>
    <v>       0.11201374       0.55607131       0.95076010 </v>
    <v>       0.22503599       0.44278986       0.04807723 </v>
    <v>       0.11498556       0.89137237       0.95195110 </v>
    <v>       0.22470578       0.78165209       0.04804885 </v>
    <v>       0.44082901       0.22058986       0.95317554 </v>
    <v>       0.55392340       0.10749532       0.04682439 </v>
    <v>       0.44181095       0.55151292       0.95194973 </v>
    <v>       0.55122819       0.44156245       0.04807196 </v>
    <v>       0.44599333       0.89237758       0.95309921 </v>
    <v>       0.55668411       0.78168484       0.04798120 </v>
    <v>       0.77489576       0.21789465       0.95192808 </v>
    <v>       0.88484580       0.10847751       0.04805025 </v>
    <v>       0.77721297       0.55460385       0.95067009 </v>
    <v>       0.88793722       0.44387955       0.04932990 </v>
    <v>       0.77612292       0.89170289       0.95192274 </v>
    <v>       0.88940463       0.77868034       0.04923993 </v>
   </varray>
  </structure>
  <varray name="forces" >
   <v>      -0.00019614      -0.15570055       0.00000017 </v>
   <v>      -0.18172665       0.06954150      -0.05831619 </v>
   <v>       0.18160552       0.06952130       0.05845693 </v>
   <v>      -0.37713116       0.25916028      -0.04502764 </v>
   <v>       0.37758558       0.25880202       0.04502244 </v>
   <v>      -0.00014653      -0.49653030      -0.00002433 </v>
   <v>       0.01819450      -0.34218576      -0.01655688 </v>
   <v>      -0.01753080      -0.34286555       0.01654498 </v>
   <v>      -0.00032391       0.66528316       0.00001080 </v>
   <v>       0.08113733      -0.05652438       0.16616251 </v>
   <v>      -0.06378877      -0.06981463      -0.12390362 </v>
   <v>       0.04747417       0.11723022      -0.13416866 </v>
   <v>      -0.01591171       0.10443146       0.10498957 </v>
   <v>      -0.11338385       0.04166241       0.05821772 </v>
   <v>       0.11324607       0.04166058      -0.05826894 </v>
   <v>       0.06291170       0.07849242       0.24020896 </v>
   <v>      -0.06338744       0.07848040      -0.24003247 </v>
   <v>      -0.10644318      -0.04402634       0.06197410 </v>
   <v>       0.11971118      -0.05695915      -0.03604260 </v>
   <v>       0.06349745      -0.07014121       0.12313940 </v>
   <v>      -0.08084663      -0.05703388      -0.16516418 </v>
   <v>      -0.12010502      -0.05646667       0.03580963 </v>
   <v>       0.10666780      -0.04355836      -0.06129612 </v>
   <v>       0.05930062      -0.10704884      -0.26689411 </v>
   <v>      -0.05938702      -0.10694747       0.26675309 </v>
   <v>       0.01637869       0.10437282      -0.10580962 </v>
   <v>      -0.04740183       0.11716454       0.13421508 </v>
  </varray>
  <varray name="stress" >
   <v>     -19.90589601      -0.00016791       0.00638464 </v>
   <v>      -0.00016796     -19.49871052      -0.00025638 </v>
   <v>       0.00638475      -0.00025642      -1.72950125 </v>
  </varray>
  <energy>
   <i name="e_fr_energy">   -188.74387183 </i>
   <i name="e_wo_entrp">   -188.60590157 </i>
   <i name="e_0_energy">     -0.27594052 </i>
  </energy>
  <time name="totalsc">  417.28  418.38</time>
 </calculation>
 <calculation>
  <scstep>
   <time name="dav">   23.50   23.55</time>
   <time name="total">   24.03   24.09</time>
   <energy>
    <i name="alphaZ">     82.31890265 </i>
    <i name="ewald">  41290.10462529 </i>
    <i name="hartreedc"> -47288.52654668 </i>
    <i name="XCdc">   -233.85893854 </i>
    <i name="pawpsdc">   3949.32846174 </i>
    <i name="pawaedc">  -3363.84787579 </i>
    <i name="eentropy">     -0.23264516 </i>
    <i name="bandstr">  -1387.38728624 </i>
    <i name="atom">   6761.44252427 </i>
    <i name="e_fr_energy">   -190.65877846 </i>
    <i name="e_wo_entrp">   -190.42613330 </i>
    <i name="e_0_energy">   -190.54245588 </i>
   </energy>
  </scstep>
  <scstep>
   <time name="dav">   27.81   27.88</time>
   <time name="total">   28.33   28.41</time>
   <energy>
    <i name="e_fr_energy">   -190.58796415 </i>
    <i name="e_wo_entrp">   -190.36079921 </i>
    <i name="e_0_energy">   -190.47438168 </i>
   </energy>
  </scstep>
  <scstep>
   <time name="dav">   29.91   29.98</time>
   <time name="total">   30.43   30.51</time>
   <energy>
    <i name="e_fr_energy">   -190.15421848 </i>
    <i name="e_wo_entrp">   -189.90210154 </i>
    <i name="e_0_energy">   -190.02816001 </i>
   </energy>
  </scstep>
  <scstep>
   <time name="dav">   31.07   31.15</time>
   <time name="total">   31.61   31.69</time>
   <energy>
    <i name="e_fr_energy">   -189.93688857 </i>
    <i name="e_wo_entrp">   -189.70729526 </i>
    <i name="e_0_energy">   -189.82209191 </i>
   </energy>
  </scstep>
  <scstep>
   <time name="dav">   29.94   30.01</time>
   <time name="total">   30.47   30.55</time>
   <energy>
    <i name="e_fr_energy">   -189.89627419 </i>
    <i name="e_wo_entrp">   -189.66642221 </i>
    <i name="e_0_energy">   -189.78134820 </i>
   </energy>
  </scstep>
  <scstep>
   <time name="dav">   30.85   30.92</time>
   <time name="total">   31.38   31.46</time>
   <energy>
    <i name="e_fr_energy">   -189.84083841 </i>
    <i name="e_wo_entrp">   -189.60599277 </i>
    <i name="e_0_energy">   -189.72341559 </i>
   </energy>
  </scstep>
  <scstep>
   <time name="dav">   28.39   28.46</time>
   <time name="total">   28.92   28.99</time>
   <energy>
    <i name="e_fr_energy">   -189.83417933 </i>
    <i name="e_wo_entrp">   -189.60056019 </i>
    <i name="e_0_energy">   -189.71736976 </i>
   </energy>
  </scstep>
  <scstep>
   <time name="dav">   28.02   28.09</time>
   <time name="total">   28.55   28.63</time>
   <energy>
    <i name="e_fr_energy">   -189.83414869 </i>
    <i name="e_wo_entrp">   -189.60039716 </i>
    <i name="e_0_energy">   -189.71727292 </i>
   </energy>
  </scstep>
  <scstep>
   <time name="dav">   24.73   24.79</time>
   <time name="total">   25.26   25.33</time>
   <energy>
    <i name="e_fr_energy">   -189.83433897 </i>
    <i name="e_wo_entrp">   -189.60060585 </i>
    <i name="e_0_energy">   -189.71747241 </i>
   </energy>
  </scstep>
  <scstep>
   <time name="dav">   24.13   24.19</time>
   <time name="total">   24.66   24.73</time>
   <energy>
    <i name="e_fr_energy">   -189.83422554 </i>
    <i name="e_wo_entrp">   -189.60035919 </i>
    <i name="e_0_energy">   -189.71729236 </i>
   </energy>
  </scstep>
  <scstep>
   <time name="dav">   19.83   19.88</time>
   <time name="total">   19.87   19.93</time>
   <energy>
    <i name="alphaZ">     82.31890265 </i>
    <i name="ewald">  41290.10462529 </i>
    <i name="hartreedc"> -47262.00302884 </i>
    <i name="XCdc">   -235.24553385 </i>
    <i name="pawpsdc">   4038.01827938 </i>
    <i name="pawaedc">  -3453.73307973 </i>
    <i name="eentropy">     -0.23388172 </i>
    <i name="bandstr">  -1410.50307348 </i>
    <i name="atom">   6761.44252427 </i>
    <i name="e_fr_energy">   -189.83426604 </i>
    <i name="e_wo_entrp">   -189.60038431 </i>
    <i name="e_0_energy">   -189.71732518 </i>
   </energy>
  </scstep>
  <structure>
   <crystal>
    <varray name="basis" >
     <v>       8.66709222       5.00106790       0.00000000 </v>
     <v>      -8.66709470       5.00107265       0.00000000 </v>
     <v>       0.00000000       0.00000000      30.00000000 </v>
    </varray>
    <i name="volume">   2600.68460647 </i>
    <varray name="rec_basis" >
     <v>       0.05768949       0.09997861       0.00000000 </v>
     <v>      -0.05768944       0.09997858       0.00000000 </v>
     <v>       0.00000000       0.00000000       0.03333333 </v>
    </varray>
   </crystal>
   <varray name="positions" >
    <v>       0.33233551      -0.00099754      -0.00000000 </v>
    <v>       0.33322081       0.33441348       0.00008229 </v>
    <v>       0.66774643      -0.00011260      -0.00008222 </v>
    <v>       1.00006508       0.33561190       0.00009063 </v>
    <v>       0.66894506       0.66673088      -0.00009065 </v>
    <v>      -0.00239061       0.66427639      -0.00000002 </v>
    <v>      -0.00164968      -0.00174042      -0.00000987 </v>
    <v>       0.33159269       0.66501553       0.00000984 </v>
    <v>       0.66996680       0.33663403       0.00000001 </v>
    <v>       0.11500164       0.22317952       0.95211252 </v>
    <v>       0.22553408       0.11260483       0.04683099 </v>
    <v>       0.11225341       0.55622022       0.95068440 </v>
    <v>       0.22519386       0.44297814       0.04813647 </v>
    <v>       0.11494623       0.89154980       0.95198395 </v>
    <v>       0.22488307       0.78161288       0.04801598 </v>
    <v>       0.44101924       0.22065981       0.95331107 </v>
    <v>       0.55399288       0.10768597       0.04668895 </v>
    <v>       0.44163624       0.55154170       0.95198469 </v>
    <v>       0.55124822       0.44135362       0.04805162 </v>
    <v>       0.44593778       0.89220064       0.95316869 </v>
    <v>       0.55651230       0.78166760       0.04788800 </v>
    <v>       0.77468737       0.21791587       0.95194828 </v>
    <v>       0.88487557       0.10830336       0.04801566 </v>
    <v>       0.77709224       0.55436975       0.95051950 </v>
    <v>       0.88770320       0.44375907       0.04948041 </v>
    <v>       0.77631155       0.89186021       0.95186304 </v>
    <v>       0.88955350       0.77891983       0.04931566 </v>
   </varray>
  </structure>
  <varray name="forces" >
   <v>       0.00505266      -0.16410704      -0.00002471 </v>
   <v>      -0.21165745       0.06629122      -0.07567767 </v>
   <v>       0.21557332       0.06748034       0.07641927 </v>
   <v>      -0.41124318       0.29064367      -0.05501161 </v>
   <v>       0.40381640       0.30200640       0.05499846 </v>
   <v>       0.00040270      -0.55163627      -0.00062803 </v>
   <v>       0.01590425      -0.38310127      -0.02002151 </v>
   <v>      -0.02280104      -0.37247860       0.01987369 </v>
   <v>       0.00538636       0.71529554       0.00012684 </v>
   <v>       0.07127563       0.05627343      -0.30763899 </v>
   <v>       0.00560476       0.05098943       0.33011965 </v>
   <v>      -0.00070177       0.05768463      -0.69075482 </v>
   <v>       0.08956350       0.02937215       0.62152736 </v>
   <v>       0.00674905       0.08758134      -0.43009321 </v>
   <v>      -0.00701417       0.08705502       0.43144216 </v>
   <v>       0.00156985      -0.03316868      -0.19827027 </v>
   <v>       0.00339033      -0.03317237       0.19465071 </v>
   <v>       0.00927510      -0.08659568      -0.42192676 </v>
   <v>       0.01166938      -0.11099687       0.46062098 </v>
   <v>      -0.00282865       0.05569035      -0.32794516 </v>
   <v>      -0.07407629       0.06065019       0.30449166 </v>
   <v>      -0.00891435      -0.11552422      -0.45847460 </v>
   <v>      -0.01184300      -0.09106647       0.41871434 </v>
   <v>       0.02125870      -0.03643564      -0.84822875 </v>
   <v>      -0.02119540      -0.03604096       0.84953636 </v>
   <v>      -0.09525446       0.02949979      -0.61995216 </v>
   <v>       0.00103778       0.05781056       0.69212674 </v>
  </varray>
  <varray name="stress" >
   <v>     -10.21565384       0.00278773      -0.01043202 </v>
   <v>       0.00278788      -9.89277503       0.00130563 </v>
   <v>      -0.01043211       0.00130567       6.50921322 </v>
  </varray>
  <energy>
   <i name="e_fr_energy">   -189.83426604 </i>
   <i name="e_wo_entrp">   -189.71732518 </i>
   <i name="e_0_energy">     -0.23388172 </i>
  </energy>
  <time name="totalsc">  345.42  346.34</time>
 </calculation>
 <calculation>
  <scstep>
   <time name="dav">   21.69   21.74</time>
   <time name="total">   22.21   22.27</time>
   <energy>
    <i name="alphaZ">     85.82058099 </i>
    <i name="ewald">  42834.20411608 </i>
    <i name="hartreedc"> -48850.84603152 </i>
    <i name="XCdc">   -232.93495169 </i>
    <i name="pawpsdc">   4038.38856475 </i>
    <i name="pawaedc">  -3454.10313503 </i>
    <i name="eentropy">     -0.19812442 </i>
    <i name="bandstr">  -1373.20139000 </i>
    <i name="atom">   6761.44252427 </i>
    <i name="e_fr_energy">   -191.42784657 </i>
    <i name="e_wo_entrp">   -191.22972215 </i>
    <i name="e_0_energy">   -191.32878436 </i>
   </energy>
  </scstep>
  <scstep>
   <time name="dav">   32.15   32.23</time>
   <time name="total">   32.67   32.75</time>
   <energy>
    <i name="e_fr_energy">   -191.21533897 </i>
    <i name="e_wo_entrp">   -191.01440149 </i>
    <i name="e_0_energy">   -191.11487023 </i>
   </energy>
  </scstep>
  <scstep>
   <time name="dav">   29.48   29.55</time>
   <time name="total">   29.98   30.06</time>
   <energy>
    <i name="e_fr_energy">   -191.43944076 </i>
    <i name="e_wo_entrp">   -191.21136568 </i>
    <i name="e_0_energy">   -191.32540322 </i>
   </energy>
  </scstep>
  <scstep>
   <time name="dav">   28.77   28.84</time>
   <time name="total">   29.29   29.37</time>
   <energy>
    <i name="e_fr_energy">   -191.04347546 </i>
    <i name="e_wo_entrp">   -190.82725588 </i>
    <i name="e_0_energy">   -190.93536567 </i>
   </energy>
  </scstep>
  <scstep>
   <time name="dav">   28.57   28.64</time>
   <time name="total">   29.09   29.17</time>
   <energy>
    <i name="e_fr_energy">   -191.03010382 </i>
    <i name="e_wo_entrp">   -190.83919688 </i>
    <i name="e_0_energy">   -190.93465035 </i>
   </energy>
  </scstep>
  <scstep>
   <time name="dav">   27.75   27.82</time>
   <time name="total">   28.27   28.34</time>
   <energy>
    <i name="e_fr_energy">   -190.84240441 </i>
    <i name="e_wo_entrp">   -190.63876987 </i>
    <i name="e_0_energy">   -190.74058714 </i>
   </energy>
  </scstep>
  <scstep>
   <time name="dav">   28.22   28.29</time>
   <time name="total">   28.74   28.81</time>
   <energy>
    <i name="e_fr_energy">   -190.83919534 </i>
    <i name="e_wo_entrp">   -190.63568044 </i>
    <i name="e_0_energy">   -190.73743789 </i>
   </energy>
  </scstep>
  <scstep>
   <time name="dav">   28.08   28.15</time>
   <time name="total">   28.59   28.67</time>
   <energy>
    <i name="e_fr_energy">   -190.83755682 </i>
    <i name="e_wo_entrp">   -190.63371156 </i>
    <i name="e_0_energy">   -190.73563419 </i>
   </energy>
  </scstep>
  <scstep>
   <time name="dav">   28.45   28.52</time>
   <time name="total">   28.97   29.04</time>
   <energy>
    <i name="e_fr_energy">   -190.83590993 </i>
    <i name="e_wo_entrp">   -190.63216012 </i>
    <i name="e_0_energy">   -190.73403502 </i>
   </energy>
  </scstep>
  <scstep>
   <time name="dav">   27.79   27.85</time>
   <time name="total">   28.30   28.38</time>
   <energy>
    <i name="e_fr_energy">   -190.83615560 </i>
    <i name="e_wo_entrp">   -190.63251341 </i>
    <i name="e_0_energy">   -190.73433450 </i>
   </energy>
  </scstep>
  <scstep>
   <time name="dav">   24.50   24.56</time>
   <time name="total">   25.02   25.10</time>
   <energy>
    <i name="e_fr_energy">   -190.83602202 </i>
    <i name="e_wo_entrp">   -190.63226837 </i>
    <i name="e_0_energy">   -190.73414520 </i>
   </energy>
  </scstep>
  <scstep>
   <time name="dav">   19.96   20.01</time>
   <time name="total">   20.00   20.05</time>
   <energy>
    <i name="alphaZ">     85.82058099 </i>
    <i name="ewald">  42834.20411608 </i>
    <i name="hartreedc"> -48822.19181376 </i>
    <i name="XCdc">   -234.27887248 </i>
    <i name="pawpsdc">   4064.09094288 </i>
    <i name="pawaedc">  -3479.98951543 </i>
    <i name="eentropy">     -0.20387292 </i>
    <i name="bandstr">  -1399.73011144 </i>
    <i name="atom">   6761.44252427 </i>
    <i name="e_fr_energy">   -190.83602179 </i>
    <i name="e_wo_entrp">   -190.63214887 </i>
    <i name="e_0_energy">   -190.73408533 </i>
   </energy>
  </scstep>
  <structure>
   <crystal>
    <varray name="basis" >
     <v>       8.48408490       4.90066128       0.00000000 </v>
     <v>      -8.48393690       4.90040524       0.00000000 </v>
     <v>       0.00000000       0.00000000      30.00000000 </v>
    </varray>
    <i name="volume">   2494.57065494 </i>
    <varray name="rec_basis" >
     <v>       0.05893285       0.10202882       0.00000000 </v>
     <v>      -0.05893593       0.10203060       0.00000000 </v>
     <v>       0.00000000       0.00000000       0.03333333 </v>
    </varray>
   </crystal>
   <varray name="positions" >
    <v>       0.33131079      -0.00207415      -0.00000007 </v>
    <v>       0.33281853       0.33563097      -0.00008958 </v>
    <v>       0.66899451      -0.00052443       0.00009170 </v>
    <v>       1.00042933       0.33905317      -0.00003203 </v>
    <v>       0.67244887       0.66723443       0.00003198 </v>
    <v>      -0.00598800       0.66067449      -0.00000184 </v>
    <v>      -0.00410202      -0.00430124      -0.00005437 </v>
    <v>       0.32909110       0.66269440       0.00005392 </v>
    <v>       0.67460798       0.34121955       0.00000037 </v>
    <v>       0.11588356       0.22357416       0.95106663 </v>
    <v>       0.22628099       0.11310869       0.04790646 </v>
    <v>       0.11239182       0.55650428       0.94877283 </v>
    <v>       0.22566636       0.44249445       0.04987002 </v>
    <v>       0.11581142       0.89201563       0.95067165 </v>
    <v>       0.22534313       0.78247459       0.04933227 </v>
    <v>       0.44044496       0.22025313       0.95252238 </v>
    <v>       0.55361209       0.10708581       0.04746687 </v>
    <v>       0.44118776       0.55068845       0.95069313 </v>
    <v>       0.55029992       0.44063606       0.04943441 </v>
    <v>       0.44649837       0.89297522       0.95210026 </v>
    <v>       0.55693211       0.78260398       0.04892379 </v>
    <v>       0.77394328       0.21691192       0.95057200 </v>
    <v>       0.88396842       0.10782772       0.04929721 </v>
    <v>       0.77706376       0.55429834       0.94826009 </v>
    <v>       0.88763545       0.44373335       0.05174378 </v>
    <v>       0.77579954       0.89236356       0.95013483 </v>
    <v>       0.88984043       0.77905792       0.05123122 </v>
   </varray>
  </structure>
  <varray name="forces" >
   <v>      -0.00305631      -0.11477313       0.00014827 </v>
   <v>      -0.22448226       0.02212343      -0.07741921 </v>
   <v>       0.22514771       0.02164718       0.07763032 </v>
   <v>      -0.43056708       0.35788010      -0.02802555 </v>
   <v>       0.43103426       0.35376265       0.02797013 </v>
   <v>       0.00117115      -0.55772715      -0.00103629 </v>
   <v>       0.06382730      -0.39792353      -0.02508055 </v>
   <v>      -0.05928131      -0.40342240       0.02479909 </v>
   <v>      -0.00238976       0.65724237       0.00032299 </v>
   <v>      -0.02616935      -0.02072186      -0.14589960 </v>
   <v>      -0.02831468      -0.00553880       0.22956578 </v>
   <v>      -0.06291397       0.01797899      -0.52430347 </v>
   <v>       0.01513933      -0.03182808       0.46533138 </v>
   <v>       0.02239742      -0.05023055      -0.28325604 </v>
   <v>      -0.02344389      -0.05016337       0.28494272 </v>
   <v>       0.02852803       0.06468525      -0.09329238 </v>
   <v>      -0.03166896       0.06484552       0.09887219 </v>
   <v>       0.02284547       0.02926606      -0.23410446 </v>
   <v>       0.02802982       0.00855342       0.29460894 </v>
   <v>       0.02634470      -0.00749742      -0.23684739 </v>
   <v>       0.02826752      -0.02381435       0.15338586 </v>
   <v>      -0.02972015       0.01080092      -0.30335838 </v>
   <v>      -0.02117815       0.03259314       0.24245433 </v>
   <v>      -0.00233369       0.01791641      -0.67430002 </v>
   <v>       0.00168386       0.01839277       0.67684896 </v>
   <v>      -0.01228399      -0.03212799      -0.47593571 </v>
   <v>       0.06338701       0.01808042       0.52597805 </v>
  </varray>
  <varray name="stress" >
   <v>      -5.83843023      -0.00225099       0.07512553 </v>
   <v>      -0.00225128      -5.65095402       0.00095131 </v>
   <v>       0.07512557       0.00095114       4.53203729 </v>
  </varray>
  <energy>
   <i name="e_fr_energy">   -190.83602179 </i>
   <i name="e_wo_entrp">   -190.73408533 </i>
   <i name="e_0_energy">     -0.20387292 </i>
  </energy>
  <time name="totalsc">  372.99  374.00</time>
 </calculation>
 <calculation>
  <scstep>
   <time name="dav">   21.65   21.70</time>
   <time name="total">   22.15   22.21</time>
   <energy>
    <i name="alphaZ">     90.16680907 </i>
    <i name="ewald">  44658.49287652 </i>
    <i name="hartreedc"> -50701.71783599 </i>
    <i name="XCdc">   -231.84766038 </i>
    <i name="pawpsdc">   4064.01580803 </i>
    <i name="pawaedc">  -3479.91017413 </i>
    <i name="eentropy">     -0.19266764 </i>
    <i name="bandstr">  -1352.65069766 </i>
    <i name="atom">   6761.44252427 </i>
    <i name="e_fr_energy">   -192.20101790 </i>
    <i name="e_wo_entrp">   -192.00835027 </i>
    <i name="e_0_energy">   -192.10468408 </i>
   </energy>
  </scstep>
  <scstep>
   <time name="dav">   27.09   27.16</time>
   <time name="total">   27.59   27.67</time>
   <energy>
    <i name="e_fr_energy">   -191.93149132 </i>
    <i name="e_wo_entrp">   -191.71916817 </i>
    <i name="e_0_energy">   -191.82532974 </i>
   </energy>
  </scstep>
  <scstep>
   <time name="dav">   29.97   30.04</time>
   <time name="total">   30.48   30.56</time>
   <energy>
    <i name="e_fr_energy">   -192.22286521 </i>
    <i name="e_wo_entrp">   -192.01990978 </i>
    <i name="e_0_energy">   -192.12138750 </i>
   </energy>
  </scstep>
  <scstep>
   <time name="dav">   29.79   29.86</time>
   <time name="total">   30.29   30.37</time>
   <energy>
    <i name="e_fr_energy">   -191.74207218 </i>
    <i name="e_wo_entrp">   -191.53242728 </i>
    <i name="e_0_energy">   -191.63724973 </i>
   </energy>
  </scstep>
  <scstep>
   <time name="dav">   28.23   28.30</time>
   <time name="total">   28.74   28.81</time>
   <energy>
    <i name="e_fr_energy">   -191.54519309 </i>
    <i name="e_wo_entrp">   -191.33883518 </i>
    <i name="e_0_energy">   -191.44201413 </i>
   </energy>
  </scstep>
  <scstep>
   <time name="dav">   30.81   30.89</time>
   <time name="total">   31.32   31.40</time>
   <energy>
    <i name="e_fr_energy">   -191.54148977 </i>
    <i name="e_wo_entrp">   -191.34577071 </i>
    <i name="e_0_energy">   -191.44363024 </i>
   </energy>
  </scstep>
  <scstep>
   <time name="dav">   30.38   30.46</time>
   <time name="total">   30.89   30.97</time>
   <energy>
    <i name="e_fr_energy">   -191.51156289 </i>
    <i name="e_wo_entrp">   -191.30652130 </i>
    <i name="e_0_energy">   -191.40904210 </i>
   </energy>
  </scstep>
  <scstep>
   <time name="dav">   29.29   29.36</time>
   <time name="total">   29.80   29.88</time>
   <energy>
    <i name="e_fr_energy">   -191.50919534 </i>
    <i name="e_wo_entrp">   -191.30540121 </i>
    <i name="e_0_energy">   -191.40729828 </i>
   </energy>
  </scstep>
  <scstep>
   <time name="dav">   29.15   29.22</time>
   <time name="total">   29.66   29.74</time>
   <energy>
    <i name="e_fr_energy">   -191.50792255 </i>
    <i name="e_wo_entrp">   -191.30440991 </i>
    <i name="e_0_energy">   -191.40616623 </i>
   </energy>
  </scstep>
  <scstep>
   <time name="dav">   28.51   28.58</time>
   <time name="total">   29.02   29.09</time>
   <energy>
    <i name="e_fr_energy">   -191.50789916 </i>
    <i name="e_wo_entrp">   -191.30427662 </i>
    <i name="e_0_energy">   -191.40608789 </i>
   </energy>
  </scstep>
  <scstep>
   <time name="dav">   26.17   26.23</time>
   <time name="total">   26.20   26.28</time>
   <energy>
    <i name="alphaZ">     90.16680907 </i>
    <i name="ewald">  44658.49287652 </i>
    <i name="hartreedc"> -50667.78492684 </i>
    <i name="XCdc">   -233.36219607 </i>
    <i name="pawpsdc">   4086.03531600 </i>
    <i name="pawaedc">  -3502.03083766 </i>
    <i name="eentropy">     -0.20378363 </i>
    <i name="bandstr">  -1384.26362120 </i>
    <i name="atom">   6761.44252427 </i>
    <i name="e_fr_energy">   -191.50783954 </i>
    <i name="e_wo_entrp">   -191.30405591 </i>
    <i name="e_0_energy">   -191.40594772 </i>
   </energy>
  </scstep>
  <structure>
   <crystal>
    <varray name="basis" >
     <v>       8.27190097       4.78402589       0.00000000 </v>
     <v>      -8.27181009       4.78386829       0.00000000 </v>
     <v>       0.00000000       0.00000000      30.00000000 </v>
    </varray>
    <i name="volume">   2374.32715156 </i>
    <varray name="rec_basis" >
     <v>       0.06044493       0.10451563       0.00000000 </v>
     <v>      -0.06044693       0.10451678       0.00000000 </v>
     <v>       0.00000000       0.00000000       0.03333333 </v>
    </varray>
   </crystal>
   <varray name="positions" >
    <v>       0.32978482      -0.00359019       0.00000040 </v>
    <v>       0.33152083       0.33760309      -0.00041673 </v>
    <v>       0.67098176      -0.00183643       0.00042058 </v>
    <v>       1.00171427       0.34654122      -0.00016907 </v>
    <v>       0.67992876       0.66854670       0.00016881 </v>
    <v>      -0.01299902       0.65364633      -0.00000639 </v>
    <v>      -0.00869378      -0.00970023      -0.00015577 </v>
    <v>       0.32369319       0.65808672       0.00015412 </v>
    <v>       0.68294614       0.34955739       0.00000168 </v>
    <v>       0.11598066       0.22388766       0.94992035 </v>
    <v>       0.22661132       0.11354105       0.04933576 </v>
    <v>       0.11203666       0.55708635       0.94602247 </v>
    <v>       0.22551555       0.44162669       0.05233812 </v>
    <v>       0.11590679       0.89141613       0.94896761 </v>
    <v>       0.22473504       0.78257515       0.05104430 </v>
    <v>       0.44082222       0.22048456       0.95165319 </v>
    <v>       0.55383997       0.10747008       0.04834969 </v>
    <v>       0.44157356       0.55038393       0.94916864 </v>
    <v>       0.55004626       0.44038114       0.05120272 </v>
    <v>       0.44692834       0.89331159       0.95064978 </v>
    <v>       0.55723935       0.78268495       0.05009024 </v>
    <v>       0.77368754       0.21666220       0.94877683 </v>
    <v>       0.88368028       0.10822387       0.05084509 </v>
    <v>       0.77734212       0.55469285       0.94487892 </v>
    <v>       0.88803287       0.44402198       0.05513596 </v>
    <v>       0.77493096       0.89220873       0.94763313 </v>
    <v>       0.89042801       0.77870091       0.05398946 </v>
   </varray>
  </structure>
  <varray name="forces" >
   <v>      -0.00119569      -0.02318659       0.00007549 </v>
   <v>      -0.21483687      -0.06611691       0.00401695 </v>
   <v>       0.21588337      -0.06608020      -0.00778666 </v>
   <v>      -0.17915679       0.30079877       0.08524722 </v>
   <v>       0.17942493       0.29934443      -0.08540085 </v>
   <v>       0.00007814      -0.05633857       0.00558715 </v>
   <v>       0.18726944      -0.34056143       0.01941713 </v>
   <v>      -0.18672719      -0.34121459      -0.01782660 </v>
   <v>      -0.00077036       0.22220485      -0.00132649 </v>
   <v>      -0.16098278      -0.16858504       0.12853372 </v>
   <v>      -0.07305688      -0.07298236      -0.04221600 </v>
   <v>      -0.17338202       0.01048417      -0.20984620 </v>
   <v>      -0.06026832      -0.06886912       0.15332422 </v>
   <v>       0.00682106      -0.19525368      -0.01703685 </v>
   <v>      -0.00612319      -0.19392787       0.01369510 </v>
   <v>       0.05065195       0.18317920       0.13116122 </v>
   <v>      -0.05213694       0.18307845      -0.13042552 </v>
   <v>      -0.01269303       0.16185828       0.11582238 </v>
   <v>       0.07010256       0.14570462      -0.02818506 </v>
   <v>       0.07145037      -0.07544971       0.04458130 </v>
   <v>       0.16152669      -0.17032615      -0.12716563 </v>
   <v>      -0.07227429       0.14770564       0.03051848 </v>
   <v>       0.01477322       0.16423813      -0.11694777 </v>
   <v>      -0.03792762       0.03813813      -0.26694731 </v>
   <v>       0.03695417       0.03893678       0.26412101 </v>
   <v>       0.06310155      -0.06783031      -0.15047911 </v>
   <v>       0.17349455       0.01105108       0.20548868 </v>
  </varray>
  <varray name="stress" >
   <v>      -0.26780450       0.00075301       0.58672141 </v>
   <v>       0.00075311       0.42168060       0.00253673 </v>
   <v>       0.58672137       0.00253687      -0.69993827 </v>
  </varray>
  <energy>
   <i name="e_fr_energy">   -191.50783954 </i>
   <i name="e_wo_entrp">   -191.40594772 </i>
   <i name="e_0_energy">     -0.20378363 </i>
  </energy>
  <time name="totalsc">  357.82  358.77</time>
 </calculation>
 <calculation>
  <scstep>
   <time name="dav">   21.63   21.69</time>
   <time name="total">   22.14   22.20</time>
   <energy>
    <i name="alphaZ">     90.14958931 </i>
    <i name="ewald">  44631.78399742 </i>
    <i name="hartreedc"> -50641.59603116 </i>
    <i name="XCdc">   -233.45433116 </i>
    <i name="pawpsdc">   4086.16479470 </i>
    <i name="pawaedc">  -3502.15373452 </i>
    <i name="eentropy">     -0.20665544 </i>
    <i name="bandstr">  -1383.70168688 </i>
    <i name="atom">   6761.44252427 </i>
    <i name="e_fr_energy">   -191.57153346 </i>
    <i name="e_wo_entrp">   -191.36487802 </i>
    <i name="e_0_energy">   -191.46820574 </i>
   </energy>
  </scstep>
  <scstep>
   <time name="dav">   31.17   31.25</time>
   <time name="total">   31.68   31.76</time>
   <energy>
    <i name="e_fr_energy">   -191.64226066 </i>
    <i name="e_wo_entrp">   -191.42242213 </i>
    <i name="e_0_energy">   -191.53234139 </i>
   </energy>
  </scstep>
  <scstep>
   <time name="dav">   30.76   30.83</time>
   <time name="total">   31.26   31.35</time>
   <energy>
    <i name="e_fr_energy">   -191.58448931 </i>
    <i name="e_wo_entrp">   -191.37691358 </i>
    <i name="e_0_energy">   -191.48070144 </i>
   </energy>
  </scstep>
  <scstep>
   <time name="dav">   28.81   28.88</time>
   <time name="total">   29.31   29.39</time>
   <energy>
    <i name="e_fr_energy">   -191.58611275 </i>
    <i name="e_wo_entrp">   -191.37432166 </i>
    <i name="e_0_energy">   -191.48021720 </i>
   </energy>
  </scstep>
  <scstep>
   <time name="dav">   28.19   28.26</time>
   <time name="total">   28.69   28.77</time>
   <energy>
    <i name="e_fr_energy">   -191.58284011 </i>
    <i name="e_wo_entrp">   -191.37388183 </i>
    <i name="e_0_energy">   -191.47836097 </i>
   </energy>
  </scstep>
  <scstep>
   <time name="dav">   26.39   26.46</time>
   <time name="total">   26.90   26.97</time>
   <energy>
    <i name="e_fr_energy">   -191.58259506 </i>
    <i name="e_wo_entrp">   -191.37274935 </i>
    <i name="e_0_energy">   -191.47767221 </i>
   </energy>
  </scstep>
  <scstep>
   <time name="dav">   26.12   26.18</time>
   <time name="total">   26.63   26.70</time>
   <energy>
    <i name="e_fr_energy">   -191.58234843 </i>
    <i name="e_wo_entrp">   -191.37283647 </i>
    <i name="e_0_energy">   -191.47759245 </i>
   </energy>
  </scstep>
  <scstep>
   <time name="dav">   23.20   23.26</time>
   <time name="total">   23.23   23.30</time>
   <energy>
    <i name="alphaZ">     90.14958931 </i>
    <i name="ewald">  44631.78399742 </i>
    <i name="hartreedc"> -50642.79110521 </i>
    <i name="XCdc">   -233.42482151 </i>
    <i name="pawpsdc">   4083.75215078 </i>
    <i name="pawaedc">  -3499.70310020 </i>
    <i name="eentropy">     -0.20952850 </i>
    <i name="bandstr">  -1382.58205125 </i>
    <i name="atom">   6761.44252427 </i>
    <i name="e_fr_energy">   -191.58234488 </i>
    <i name="e_wo_entrp">   -191.37281638 </i>
    <i name="e_0_energy">   -191.47758063 </i>
   </energy>
  </scstep>
  <structure>
   <crystal>
    <varray name="basis" >
     <v>       8.26501850       4.78894664       0.00000000 </v>
     <v>      -8.26490828       4.78875531       0.00000000 </v>
     <v>       0.00000000       0.00000000      30.00000000 </v>
    </varray>
    <i name="volume">   2374.78067919 </i>
    <varray name="rec_basis" >
     <v>       0.06049513       0.10440848       0.00000000 </v>
     <v>      -0.06049754       0.10440988       0.00000000 </v>
     <v>       0.00000000       0.00000000       0.03333333 </v>
    </varray>
   </crystal>
   <varray name="positions" >
    <v>       0.32965070      -0.00371734       0.00000053 </v>
    <v>       0.33053888       0.33791564      -0.00041278 </v>
    <v>       0.67129776      -0.00282144       0.00041051 </v>
    <v>       1.00273079       0.34866405      -0.00003141 </v>
    <v>       0.68204505       0.66955563       0.00003090 </v>
    <v>      -0.01334112       0.65330364       0.00000268 </v>
    <v>      -0.00991585      -0.01203415      -0.00012493 </v>
    <v>       0.32135776       0.65686002       0.00012586 </v>
    <v>       0.68414396       0.35075960      -0.00000047 </v>
    <v>       0.11464782       0.22350657       0.95011802 </v>
    <v>       0.22602847       0.11338897       0.04928057 </v>
    <v>       0.11157476       0.55765599       0.94565630 </v>
    <v>       0.22498539       0.44144445       0.05260984 </v>
    <v>       0.11493341       0.89039519       0.94892388 </v>
    <v>       0.22372287       0.78160650       0.05108265 </v>
    <v>       0.44190695       0.22127033       0.95185761 </v>
    <v>       0.55462089       0.10855867       0.04814654 </v>
    <v>       0.44236489       0.55124307       0.94934259 </v>
    <v>       0.55099256       0.44091538       0.05117338 </v>
    <v>       0.44675908       0.89272100       0.95070870 </v>
    <v>       0.55685100       0.78134166       0.04989490 </v>
    <v>       0.77422550       0.21762499       0.94880980 </v>
    <v>       0.88455764       0.10902120       0.05066943 </v>
    <v>       0.77742738       0.55500346       0.94441476 </v>
    <v>       0.88834471       0.44411428       0.05559560 </v>
    <v>       0.77476229       0.89167557       0.94736583 </v>
    <v>       0.89100090       0.77824154       0.05434860 </v>
   </varray>
  </structure>
  <varray name="forces" >
   <v>      -0.00697199      -0.00034161      -0.00032749 </v>
   <v>      -0.22471721      -0.08197540      -0.01967391 </v>
   <v>       0.21449098      -0.08329760       0.01769444 </v>
   <v>      -0.18136160       0.34872386       0.02534830 </v>
   <v>       0.19205681       0.33443463      -0.02516600 </v>
   <v>      -0.00143669      -0.08995024      -0.00170688 </v>
   <v>       0.22613740      -0.36478014       0.02944945 </v>
   <v>      -0.21326591      -0.37799392      -0.03046126 </v>
   <v>      -0.00657757       0.27696460       0.00038355 </v>
   <v>      -0.10065592      -0.13964781       0.16349691 </v>
   <v>      -0.05077266      -0.05141575      -0.06245808 </v>
   <v>      -0.11919095      -0.00198235      -0.16616918 </v>
   <v>      -0.03989044      -0.03161518       0.14471317 </v>
   <v>       0.01051178      -0.10562456      -0.03275598 </v>
   <v>      -0.01035697      -0.10427722       0.03192471 </v>
   <v>       0.01201488       0.10685983       0.15255205 </v>
   <v>      -0.01579629       0.10696128      -0.14923375 </v>
   <v>      -0.01628827       0.10638722       0.15214097 </v>
   <v>       0.01335296       0.10747583      -0.07468711 </v>
   <v>       0.04816956      -0.05582654       0.06133559 </v>
   <v>       0.10347151      -0.14415847      -0.15987128 </v>
   <v>      -0.01557294       0.11105237       0.07232612 </v>
   <v>       0.01892620       0.11127500      -0.14959750 </v>
   <v>      -0.00893817       0.02905814      -0.15523562 </v>
   <v>       0.00859452       0.02692156       0.15548677 </v>
   <v>       0.04547423      -0.03100046      -0.14605186 </v>
   <v>       0.11859276      -0.00222707       0.16654386 </v>
  </varray>
  <varray name="stress" >
   <v>       0.09293692      -0.00508487       0.30805425 </v>
   <v>      -0.00508525       0.15714988      -0.00262085 </v>
   <v>       0.30805423      -0.00262077      -1.35591432 </v>
  </varray>
  <energy>
   <i name="e_fr_energy">   -191.58234488 </i>
   <i name="e_wo_entrp">   -191.47758063 </i>
   <i name="e_0_energy">     -0.20952850 </i>
  </energy>
  <time name="totalsc">  261.63  262.32</time>
 </calculation>
 <calculation>
  <scstep>
   <time name="dav">   21.61   21.67</time>
   <time name="total">   22.12   22.18</time>
   <energy>
    <i name="alphaZ">     90.05451306 </i>
    <i name="ewald">  44593.31514415 </i>
    <i name="hartreedc"> -50602.97687793 </i>
    <i name="XCdc">   -233.47579094 </i>
    <i name="pawpsdc">   4083.68631330 </i>
    <i name="pawaedc">  -3499.63655603 </i>
    <i name="eentropy">     -0.20899037 </i>
    <i name="bandstr">  -1383.84942132 </i>
    <i name="atom">   6761.44252427 </i>
    <i name="e_fr_energy">   -191.64914180 </i>
    <i name="e_wo_entrp">   -191.44015143 </i>
    <i name="e_0_energy">   -191.54464661 </i>
   </energy>
  </scstep>
  <scstep>
   <time name="dav">   32.56   32.63</time>
   <time name="total">   33.06   33.15</time>
   <energy>
    <i name="e_fr_energy">   -191.72984478 </i>
    <i name="e_wo_entrp">   -191.49973282 </i>
    <i name="e_0_energy">   -191.61478880 </i>
   </energy>
  </scstep>
  <scstep>
   <time name="dav">   30.35   30.42</time>
   <time name="total">   30.85   30.93</time>
   <energy>
    <i name="e_fr_energy">   -191.65809723 </i>
    <i name="e_wo_entrp">   -191.44759943 </i>
    <i name="e_0_energy">   -191.55284833 </i>
   </energy>
  </scstep>
  <scstep>
   <time name="dav">   28.74   28.80</time>
   <time name="total">   29.24   29.32</time>
   <energy>
    <i name="e_fr_energy">   -191.66198964 </i>
    <i name="e_wo_entrp">   -191.44550020 </i>
    <i name="e_0_energy">   -191.55374492 </i>
   </energy>
  </scstep>
  <scstep>
   <time name="dav">   28.40   28.47</time>
   <time name="total">   28.91   28.98</time>
   <energy>
    <i name="e_fr_energy">   -191.65573857 </i>
    <i name="e_wo_entrp">   -191.44295814 </i>
    <i name="e_0_energy">   -191.54934835 </i>
   </energy>
  </scstep>
  <scstep>
   <time name="dav">   25.67   25.73</time>
   <time name="total">   26.17   26.24</time>
   <energy>
    <i name="e_fr_energy">   -191.65554207 </i>
    <i name="e_wo_entrp">   -191.44180701 </i>
    <i name="e_0_energy">   -191.54867454 </i>
   </energy>
  </scstep>
  <scstep>
   <time name="dav">   26.32   26.38</time>
   <time name="total">   26.82   26.89</time>
   <energy>
    <i name="e_fr_energy">   -191.65621721 </i>
    <i name="e_wo_entrp">   -191.44287071 </i>
    <i name="e_0_energy">   -191.54954396 </i>
   </energy>
  </scstep>
  <scstep>
   <time name="dav">   24.73   24.79</time>
   <time name="total">   25.23   25.30</time>
   <energy>
    <i name="e_fr_energy">   -191.65522093 </i>
    <i name="e_wo_entrp">   -191.44180740 </i>
    <i name="e_0_energy">   -191.54851417 </i>
   </energy>
  </scstep>
  <scstep>
   <time name="dav">   16.79   16.83</time>
   <time name="total">   16.83   16.88</time>
   <energy>
    <i name="alphaZ">     90.05451306 </i>
    <i name="ewald">  44593.31514415 </i>
    <i name="hartreedc"> -50604.54529392 </i>
    <i name="XCdc">   -233.41617081 </i>
    <i name="pawpsdc">   4085.68713674 </i>
    <i name="pawaedc">  -3501.66793359 </i>
    <i name="eentropy">     -0.21339020 </i>
    <i name="bandstr">  -1382.31178128 </i>
    <i name="atom">   6761.44252427 </i>
    <i name="e_fr_energy">   -191.65525156 </i>
    <i name="e_wo_entrp">   -191.44186136 </i>
[...]
      <set comment="kpoint 31">
       <r>  -17.5225    1.0000 </r>
       <r>  -17.2659    1.0000 </r>
       <r>  -16.9202    1.0000 </r>
       <r>  -16.6919    1.0000 </r>
       <r>  -16.5098    1.0000 </r>
       <r>  -16.4352    1.0000 </r>
       <r>  -16.3387    1.0000 </r>
       <r>  -16.1804    1.0000 </r>
       <r>  -16.0653    1.0000 </r>
       <r>  -16.0202    1.0000 </r>
       <r>  -15.9574    1.0000 </r>
       <r>  -15.9091    1.0000 </r>
       <r>  -15.8078    1.0000 </r>
       <r>  -15.7037    1.0000 </r>
       <r>  -15.6372    1.0000 </r>
       <r>  -15.4255    1.0000 </r>
       <r>  -15.3957    1.0000 </r>
       <r>  -15.2540    1.0000 </r>
       <r>   -9.7209    1.0000 </r>
       <r>   -9.4564    1.0000 </r>
       <r>   -9.3303    1.0000 </r>
       <r>   -9.0053    1.0000 </r>
       <r>   -8.8725    1.0000 </r>
       <r>   -8.7398    1.0000 </r>
       <r>   -8.5294    1.0000 </r>
       <r>   -8.5033    1.0000 </r>
       <r>   -8.4385    1.0000 </r>
       <r>   -8.3340    1.0000 </r>
       <r>   -8.2513    1.0000 </r>
       <r>   -8.1859    1.0000 </r>
       <r>   -8.1541    1.0000 </r>
       <r>   -8.0966    1.0000 </r>
       <r>   -8.0265    1.0000 </r>
       <r>   -7.8699    1.0000 </r>
       <r>   -7.8420    1.0000 </r>
       <r>   -7.7431    1.0000 </r>
       <r>   -7.6189    1.0000 </r>
       <r>   -7.4218    1.0000 </r>
       <r>   -7.3162    1.0000 </r>
       <r>   -7.1934    1.0000 </r>
       <r>   -7.1649    1.0000 </r>
       <r>   -7.0767    1.0000 </r>
       <r>   -6.9921    1.0000 </r>
       <r>   -6.9461    1.0000 </r>
       <r>   -6.8365    1.0000 </r>
       <r>   -6.7973    1.0000 </r>
       <r>   -6.7234    1.0000 </r>
       <r>   -6.6347    1.0000 </r>
       <r>   -6.5249    1.0000 </r>
       <r>   -6.4862    1.0000 </r>
       <r>   -6.4364    1.0000 </r>
       <r>   -6.3674    1.0000 </r>
       <r>   -6.2906    1.0000 </r>
       <r>   -6.2713    1.0000 </r>
       <r>   -6.1473    1.0000 </r>
       <r>   -6.0732    1.0000 </r>
       <r>   -5.9660    1.0000 </r>
       <r>   -5.8915    1.0000 </r>
       <r>   -5.8630    1.0000 </r>
       <r>   -5.8099    1.0000 </r>
       <r>   -5.6967    1.0000 </r>
       <r>   -5.6427    1.0000 </r>
       <r>   -5.4563    1.0000 </r>
       <r>   -5.3379    1.0000 </r>
       <r>   -5.2755    1.0000 </r>
       <r>   -5.1180    1.0000 </r>
       <r>   -5.0670    1.0000 </r>
       <r>   -4.9041    1.0000 </r>
       <r>   -4.8291    1.0000 </r>
       <r>   -4.6617    1.0000 </r>
       <r>   -4.6340    1.0000 </r>
       <r>   -4.5172    1.0000 </r>
       <r>   -4.3631    1.0000 </r>
       <r>   -4.2749    1.0000 </r>
       <r>   -4.1419    1.0000 </r>
       <r>   -4.0331    1.0000 </r>
       <r>   -3.8343    0.9997 </r>
       <r>   -3.6986    0.9939 </r>
       <r>   -3.5254    0.8999 </r>
       <r>   -3.4138    0.6888 </r>
       <r>   -2.9888    0.0060 </r>
       <r>   -2.8711    0.0004 </r>
       <r>   -2.7177    0.0000 </r>
       <r>   -2.5947    0.0000 </r>
       <r>   -2.5458    0.0000 </r>
       <r>   -2.4570    0.0000 </r>
       <r>   -2.2683    0.0000 </r>
       <r>   -2.1733    0.0000 </r>
       <r>   -2.1017    0.0000 </r>
       <r>   -1.9236    0.0000 </r>
       <r>   -1.6719    0.0000 </r>
       <r>   -1.5472    0.0000 </r>
       <r>   -1.5182    0.0000 </r>
       <r>   -1.3376    0.0000 </r>
       <r>   -1.2571    0.0000 </r>
       <r>   -1.1811    0.0000 </r>
       <r>   -1.0467    0.0000 </r>
       <r>   -1.0265    0.0000 </r>
       <r>   -0.9736    0.0000 </r>
       <r>   -0.9202    0.0000 </r>
       <r>   -0.8121    0.0000 </r>
       <r>   -0.7554    0.0000 </r>
       <r>   -0.6946    0.0000 </r>
       <r>   -0.6278    0.0000 </r>
       <r>   -0.4927    0.0000 </r>
       <r>   -0.3895    0.0000 </r>
       <r>   -0.2699    0.0000 </r>
       <r>   -0.1604    0.0000 </r>
       <r>   -0.0678    0.0000 </r>
       <r>    0.1699    0.0000 </r>
       <r>    0.2473    0.0000 </r>
       <r>    0.6852    0.0000 </r>
       <r>    0.9030    0.0000 </r>
       <r>    0.9428    0.0000 </r>
       <r>    1.0508    0.0000 </r>
       <r>    1.2766    0.0000 </r>
       <r>    1.3849    0.0000 </r>
       <r>    2.1234    0.0000 </r>
       <r>    2.2926    0.0000 </r>
       <r>    2.3770    0.0000 </r>
      </set>
      <set comment="kpoint 32">
       <r>  -17.5251    1.0000 </r>
       <r>  -17.2063    1.0000 </r>
       <r>  -17.0309    1.0000 </r>
       <r>  -16.6888    1.0000 </r>
       <r>  -16.4723    1.0000 </r>
       <r>  -16.3616    1.0000 </r>
       <r>  -16.3125    1.0000 </r>
       <r>  -16.2339    1.0000 </r>
       <r>  -16.1211    1.0000 </r>
       <r>  -16.0472    1.0000 </r>
       <r>  -15.9462    1.0000 </r>
       <r>  -15.8899    1.0000 </r>
       <r>  -15.8138    1.0000 </r>
       <r>  -15.6841    1.0000 </r>
       <r>  -15.6273    1.0000 </r>
       <r>  -15.4283    1.0000 </r>
       <r>  -15.3907    1.0000 </r>
       <r>  -15.2573    1.0000 </r>
       <r>   -9.6654    1.0000 </r>
       <r>   -9.5718    1.0000 </r>
       <r>   -9.4211    1.0000 </r>
       <r>   -8.9732    1.0000 </r>
       <r>   -8.7136    1.0000 </r>
       <r>   -8.6536    1.0000 </r>
       <r>   -8.5452    1.0000 </r>
       <r>   -8.4732    1.0000 </r>
       <r>   -8.4223    1.0000 </r>
       <r>   -8.3469    1.0000 </r>
       <r>   -8.2671    1.0000 </r>
       <r>   -8.2577    1.0000 </r>
       <r>   -8.1448    1.0000 </r>
       <r>   -8.1158    1.0000 </r>
       <r>   -8.0410    1.0000 </r>
       <r>   -7.9412    1.0000 </r>
       <r>   -7.8026    1.0000 </r>
       <r>   -7.7871    1.0000 </r>
       <r>   -7.5888    1.0000 </r>
       <r>   -7.4406    1.0000 </r>
       <r>   -7.3329    1.0000 </r>
       <r>   -7.2530    1.0000 </r>
       <r>   -7.1906    1.0000 </r>
       <r>   -7.0912    1.0000 </r>
       <r>   -6.9753    1.0000 </r>
       <r>   -6.9085    1.0000 </r>
       <r>   -6.8570    1.0000 </r>
       <r>   -6.7714    1.0000 </r>
       <r>   -6.6939    1.0000 </r>
       <r>   -6.5904    1.0000 </r>
       <r>   -6.5537    1.0000 </r>
       <r>   -6.4896    1.0000 </r>
       <r>   -6.4421    1.0000 </r>
       <r>   -6.3419    1.0000 </r>
       <r>   -6.2874    1.0000 </r>
       <r>   -6.2616    1.0000 </r>
       <r>   -6.1250    1.0000 </r>
       <r>   -6.0404    1.0000 </r>
       <r>   -5.9752    1.0000 </r>
       <r>   -5.8993    1.0000 </r>
       <r>   -5.8336    1.0000 </r>
       <r>   -5.7341    1.0000 </r>
       <r>   -5.7116    1.0000 </r>
       <r>   -5.5563    1.0000 </r>
       <r>   -5.4805    1.0000 </r>
       <r>   -5.4117    1.0000 </r>
       <r>   -5.2486    1.0000 </r>
       <r>   -5.1883    1.0000 </r>
       <r>   -5.0551    1.0000 </r>
       <r>   -4.9652    1.0000 </r>
       <r>   -4.8228    1.0000 </r>
       <r>   -4.7008    1.0000 </r>
       <r>   -4.6311    1.0000 </r>
       <r>   -4.4839    1.0000 </r>
       <r>   -4.3671    1.0000 </r>
       <r>   -4.3463    1.0000 </r>
       <r>   -4.1383    1.0000 </r>
       <r>   -4.0377    1.0000 </r>
       <r>   -3.8437    0.9998 </r>
       <r>   -3.6239    0.9760 </r>
       <r>   -3.5077    0.8763 </r>
       <r>   -3.3195    0.4307 </r>
       <r>   -3.0523    0.0195 </r>
       <r>   -2.9078    0.0010 </r>
       <r>   -2.7668    0.0000 </r>
       <r>   -2.6201    0.0000 </r>
       <r>   -2.5619    0.0000 </r>
       <r>   -2.4865    0.0000 </r>
       <r>   -2.2424    0.0000 </r>
       <r>   -2.1492    0.0000 </r>
       <r>   -2.0825    0.0000 </r>
       <r>   -1.9529    0.0000 </r>
       <r>   -1.6997    0.0000 </r>
       <r>   -1.5580    0.0000 </r>
       <r>   -1.5244    0.0000 </r>
       <r>   -1.3031    0.0000 </r>
       <r>   -1.2240    0.0000 </r>
       <r>   -1.1886    0.0000 </r>
       <r>   -1.0190    0.0000 </r>
       <r>   -1.0046    0.0000 </r>
       <r>   -0.9566    0.0000 </r>
       <r>   -0.9334    0.0000 </r>
       <r>   -0.8113    0.0000 </r>
       <r>   -0.7705    0.0000 </r>
       <r>   -0.6823    0.0000 </r>
       <r>   -0.6004    0.0000 </r>
       <r>   -0.5546    0.0000 </r>
       <r>   -0.4119    0.0000 </r>
       <r>   -0.3213    0.0000 </r>
       <r>   -0.0752    0.0000 </r>
       <r>   -0.0055    0.0000 </r>
       <r>    0.2090    0.0000 </r>
       <r>    0.2504    0.0000 </r>
       <r>    0.6722    0.0000 </r>
       <r>    0.8753    0.0000 </r>
       <r>    0.9398    0.0000 </r>
       <r>    1.0882    0.0000 </r>
       <r>    1.2118    0.0000 </r>
       <r>    1.3679    0.0000 </r>
       <r>    2.1013    0.0000 </r>
       <r>    2.2577    0.0000 </r>
       <r>    2.5594    0.0000 </r>
      </set>
      <set comment="kpoint 33">
       <r>  -17.4948    1.0000 </r>
       <r>  -17.2992    1.0000 </r>
       <r>  -16.9216    1.0000 </r>
       <r>  -16.6849    1.0000 </r>
       <r>  -16.5019    1.0000 </r>
       <r>  -16.4547    1.0000 </r>
       <r>  -16.3292    1.0000 </r>
       <r>  -16.1866    1.0000 </r>
       <r>  -16.1500    1.0000 </r>
       <r>  -16.0179    1.0000 </r>
       <r>  -15.9128    1.0000 </r>
       <r>  -15.8512    1.0000 </r>
       <r>  -15.8166    1.0000 </r>
       <r>  -15.6838    1.0000 </r>
       <r>  -15.6385    1.0000 </r>
       <r>  -15.4298    1.0000 </r>
       <r>  -15.3960    1.0000 </r>
       <r>  -15.2651    1.0000 </r>
       <r>   -9.7632    1.0000 </r>
       <r>   -9.4493    1.0000 </r>
       <r>   -9.3937    1.0000 </r>
       <r>   -8.9554    1.0000 </r>
       <r>   -8.8203    1.0000 </r>
       <r>   -8.7130    1.0000 </r>
       <r>   -8.6304    1.0000 </r>
       <r>   -8.5837    1.0000 </r>
       <r>   -8.3663    1.0000 </r>
       <r>   -8.2879    1.0000 </r>
       <r>   -8.2550    1.0000 </r>
       <r>   -8.1494    1.0000 </r>
       <r>   -8.1019    1.0000 </r>
       <r>   -8.0847    1.0000 </r>
       <r>   -8.0046    1.0000 </r>
       <r>   -7.9268    1.0000 </r>
       <r>   -7.8063    1.0000 </r>
       <r>   -7.7657    1.0000 </r>
       <r>   -7.5721    1.0000 </r>
       <r>   -7.4630    1.0000 </r>
       <r>   -7.4031    1.0000 </r>
       <r>   -7.3523    1.0000 </r>
       <r>   -7.1396    1.0000 </r>
       <r>   -7.0663    1.0000 </r>
       <r>   -6.9726    1.0000 </r>
       <r>   -6.8710    1.0000 </r>
       <r>   -6.8467    1.0000 </r>
       <r>   -6.7902    1.0000 </r>
       <r>   -6.7236    1.0000 </r>
       <r>   -6.5881    1.0000 </r>
       <r>   -6.5327    1.0000 </r>
       <r>   -6.4981    1.0000 </r>
       <r>   -6.4463    1.0000 </r>
       <r>   -6.3560    1.0000 </r>
       <r>   -6.2691    1.0000 </r>
       <r>   -6.1469    1.0000 </r>
       <r>   -6.1247    1.0000 </r>
       <r>   -6.0383    1.0000 </r>
       <r>   -6.0034    1.0000 </r>
       <r>   -5.9349    1.0000 </r>
       <r>   -5.8506    1.0000 </r>
       <r>   -5.7665    1.0000 </r>
       <r>   -5.6574    1.0000 </r>
       <r>   -5.6179    1.0000 </r>
       <r>   -5.5308    1.0000 </r>
       <r>   -5.4197    1.0000 </r>
       <r>   -5.2955    1.0000 </r>
       <r>   -5.1811    1.0000 </r>
       <r>   -5.0734    1.0000 </r>
       <r>   -4.8440    1.0000 </r>
       <r>   -4.7629    1.0000 </r>
       <r>   -4.7272    1.0000 </r>
       <r>   -4.6121    1.0000 </r>
       <r>   -4.4493    1.0000 </r>
       <r>   -4.3904    1.0000 </r>
       <r>   -4.3445    1.0000 </r>
       <r>   -4.1601    1.0000 </r>
       <r>   -4.0572    1.0000 </r>
       <r>   -3.9105    1.0000 </r>
       <r>   -3.5810    0.9530 </r>
       <r>   -3.4460    0.7641 </r>
       <r>   -3.2759    0.3146 </r>
       <r>   -3.1013    0.0430 </r>
       <r>   -2.9470    0.0025 </r>
       <r>   -2.8365    0.0002 </r>
       <r>   -2.6405    0.0000 </r>
       <r>   -2.5874    0.0000 </r>
       <r>   -2.5107    0.0000 </r>
       <r>   -2.2110    0.0000 </r>
       <r>   -2.1194    0.0000 </r>
       <r>   -2.0739    0.0000 </r>
       <r>   -1.9315    0.0000 </r>
       <r>   -1.7422    0.0000 </r>
       <r>   -1.5709    0.0000 </r>
       <r>   -1.5000    0.0000 </r>
       <r>   -1.2892    0.0000 </r>
       <r>   -1.2026    0.0000 </r>
       <r>   -1.1895    0.0000 </r>
       <r>   -1.0075    0.0000 </r>
       <r>   -0.9828    0.0000 </r>
       <r>   -0.9434    0.0000 </r>
       <r>   -0.9095    0.0000 </r>
       <r>   -0.8409    0.0000 </r>
       <r>   -0.7815    0.0000 </r>
       <r>   -0.6715    0.0000 </r>
       <r>   -0.5842    0.0000 </r>
       <r>   -0.5478    0.0000 </r>
       <r>   -0.4938    0.0000 </r>
       <r>   -0.4245    0.0000 </r>
       <r>   -0.0449    0.0000 </r>
       <r>    0.0912    0.0000 </r>
       <r>    0.2456    0.0000 </r>
       <r>    0.2804    0.0000 </r>
       <r>    0.6795    0.0000 </r>
       <r>    0.8673    0.0000 </r>
       <r>    0.9570    0.0000 </r>
       <r>    1.1227    0.0000 </r>
       <r>    1.1527    0.0000 </r>
       <r>    1.3717    0.0000 </r>
       <r>    2.1393    0.0000 </r>
       <r>    2.2874    0.0000 </r>
       <r>    2.4024    0.0000 </r>
      </set>
      <set comment="kpoint 34">
       <r>  -17.4500    1.0000 </r>
       <r>  -17.3791    1.0000 </r>
       <r>  -16.7960    1.0000 </r>
       <r>  -16.6828    1.0000 </r>
       <r>  -16.6263    1.0000 </r>
       <r>  -16.4745    1.0000 </r>
       <r>  -16.3213    1.0000 </r>
       <r>  -16.1799    1.0000 </r>
       <r>  -16.1551    1.0000 </r>
       <r>  -15.9995    1.0000 </r>
       <r>  -15.8841    1.0000 </r>
       <r>  -15.8346    1.0000 </r>
       <r>  -15.8065    1.0000 </r>
       <r>  -15.6859    1.0000 </r>
       <r>  -15.6551    1.0000 </r>
       <r>  -15.4311    1.0000 </r>
       <r>  -15.4030    1.0000 </r>
       <r>  -15.2686    1.0000 </r>
       <r>   -9.8051    1.0000 </r>
       <r>   -9.3815    1.0000 </r>
       <r>   -9.3137    1.0000 </r>
       <r>   -8.9999    1.0000 </r>
       <r>   -8.9158    1.0000 </r>
       <r>   -8.7462    1.0000 </r>
       <r>   -8.6819    1.0000 </r>
       <r>   -8.6242    1.0000 </r>
       <r>   -8.3324    1.0000 </r>
       <r>   -8.3036    1.0000 </r>
       <r>   -8.2329    1.0000 </r>
       <r>   -8.1225    1.0000 </r>
       <r>   -8.0788    1.0000 </r>
       <r>   -8.0726    1.0000 </r>
       <r>   -7.9336    1.0000 </r>
       <r>   -7.8739    1.0000 </r>
       <r>   -7.7691    1.0000 </r>
       <r>   -7.7507    1.0000 </r>
       <r>   -7.6096    1.0000 </r>
       <r>   -7.5204    1.0000 </r>
       <r>   -7.4383    1.0000 </r>
       <r>   -7.3633    1.0000 </r>
       <r>   -7.1089    1.0000 </r>
       <r>   -7.0484    1.0000 </r>
       <r>   -6.9856    1.0000 </r>
       <r>   -6.8629    1.0000 </r>
       <r>   -6.8543    1.0000 </r>
       <r>   -6.7439    1.0000 </r>
       <r>   -6.6513    1.0000 </r>
       <r>   -6.6438    1.0000 </r>
       <r>   -6.5470    1.0000 </r>
       <r>   -6.5111    1.0000 </r>
       <r>   -6.4812    1.0000 </r>
       <r>   -6.3294    1.0000 </r>
       <r>   -6.2720    1.0000 </r>
       <r>   -6.2052    1.0000 </r>
       <r>   -6.1468    1.0000 </r>
       <r>   -6.0249    1.0000 </r>
       <r>   -5.9793    1.0000 </r>
       <r>   -5.9404    1.0000 </r>
       <r>   -5.8052    1.0000 </r>
       <r>   -5.7323    1.0000 </r>
       <r>   -5.7178    1.0000 </r>
       <r>   -5.5846    1.0000 </r>
       <r>   -5.5728    1.0000 </r>
       <r>   -5.5196    1.0000 </r>
       <r>   -5.2944    1.0000 </r>
       <r>   -5.1455    1.0000 </r>
       <r>   -5.0891    1.0000 </r>
       <r>   -4.8107    1.0000 </r>
       <r>   -4.7458    1.0000 </r>
       <r>   -4.7029    1.0000 </r>
       <r>   -4.4808    1.0000 </r>
       <r>   -4.4740    1.0000 </r>
       <r>   -4.3974    1.0000 </r>
       <r>   -4.3453    1.0000 </r>
       <r>   -4.2144    1.0000 </r>
       <r>   -4.0692    1.0000 </r>
       <r>   -3.9509    1.0000 </r>
       <r>   -3.5651    0.9409 </r>
       <r>   -3.3943    0.6383 </r>
       <r>   -3.3027    0.3847 </r>
       <r>   -3.1017    0.0432 </r>
       <r>   -2.9518    0.0028 </r>
       <r>   -2.8846    0.0006 </r>
       <r>   -2.6447    0.0000 </r>
       <r>   -2.6011    0.0000 </r>
       <r>   -2.5203    0.0000 </r>
       <r>   -2.1944    0.0000 </r>
       <r>   -2.1069    0.0000 </r>
       <r>   -2.0740    0.0000 </r>
       <r>   -1.9085    0.0000 </r>
       <r>   -1.7651    0.0000 </r>
       <r>   -1.5752    0.0000 </r>
       <r>   -1.4807    0.0000 </r>
       <r>   -1.2785    0.0000 </r>
       <r>   -1.2019    0.0000 </r>
       <r>   -1.1932    0.0000 </r>
       <r>   -1.0194    0.0000 </r>
       <r>   -0.9986    0.0000 </r>
       <r>   -0.9016    0.0000 </r>
       <r>   -0.8904    0.0000 </r>
       <r>   -0.8732    0.0000 </r>
       <r>   -0.7374    0.0000 </r>
       <r>   -0.6813    0.0000 </r>
       <r>   -0.5843    0.0000 </r>
       <r>   -0.5787    0.0000 </r>
       <r>   -0.5152    0.0000 </r>
       <r>   -0.4667    0.0000 </r>
       <r>   -0.0661    0.0000 </r>
       <r>    0.1673    0.0000 </r>
       <r>    0.2680    0.0000 </r>
       <r>    0.2687    0.0000 </r>
       <r>    0.6947    0.0000 </r>
       <r>    0.8726    0.0000 </r>
       <r>    0.9643    0.0000 </r>
       <r>    1.1255    0.0000 </r>
       <r>    1.1410    0.0000 </r>
       <r>    1.3794    0.0000 </r>
       <r>    2.2191    0.0000 </r>
       <r>    2.2621    0.0000 </r>
       <r>    2.3827    0.0000 </r>
      </set>
     </set>
    </set>
   </array>
  </eigenvalues>
  <separator name="orbital magnetization" >
   <v name="MAGDIPOLOUT">      0.00000000      0.00000000      0.00000000</v>
  </separator>
 </calculation>
 <structure name="finalpos" >
  <crystal>
   <varray name="basis" >
    <v>       8.32971987       4.83959423       0.00000000 </v>
    <v>      -8.32914405       4.83860221       0.00000000 </v>
    <v>       0.00000000       0.00000000      30.00000000 </v>
   </varray>
   <i name="volume">   2418.41635200 </i>
   <varray name="rec_basis" >
    <v>       0.06002195       0.10332147       0.00000000 </v>
    <v>      -0.06003426       0.10332861       0.00000000 </v>
    <v>       0.00000000       0.00000000       0.03333333 </v>
   </varray>
  </crystal>
  <varray name="positions" >
   <v>       0.31288283      -0.02012596       0.00000801 </v>
   <v>       0.29637002       0.32053684       0.00170372 </v>
   <v>       0.65422798      -0.03666893      -0.00164956 </v>
   <v>       1.01632235       0.36924637       0.00032363 </v>
   <v>       0.70261967       0.68295024      -0.00033868 </v>
   <v>      -0.00121969       0.66544364      -0.00000456 </v>
   <v>      -0.01140484      -0.02467741      -0.00026495 </v>
   <v>       0.30861069       0.65510106       0.00024830 </v>
   <v>       0.70261056       0.36919671      -0.00000841 </v>
   <v>       0.10338350       0.22176254       0.95026483 </v>
   <v>       0.21972877       0.10739535       0.05039478 </v>
   <v>       0.11289108       0.56440083       0.94350359 </v>
   <v>       0.22239143       0.44441085       0.05536063 </v>
   <v>       0.11655802       0.89470392       0.94619743 </v>
   <v>       0.22810107       0.78325497       0.05376298 </v>
   <v>       0.44434555       0.22510048       0.95833342 </v>
   <v>       0.55830911       0.11104617       0.04167211 </v>
   <v>       0.44570413       0.54956095       0.95652913 </v>
   <v>       0.55180957       0.44281424       0.04749252 </v>
   <v>       0.44078279       0.88651651       0.94970088 </v>
   <v>       0.55514358       0.77008177       0.04970686 </v>
   <v>       0.77627423       0.21865725       0.95243928 </v>
   <v>       0.88305388       0.11243912       0.04350265 </v>
   <v>       0.78655498       0.56327906       0.94319033 </v>
   <v>       0.89661369       0.45317884       0.05679480 </v>
   <v>       0.77781545       0.88906244       0.94465282 </v>
   <v>       0.89773406       0.77954660       0.05648336 </v>
  </varray>
 </structure>
</modeling>
