unknown system                          
           1
     8.854199    5.106778    0.000000
    -8.854200    5.106780    0.000000
     0.000000    0.000000   30.000000
   V    Mo   W    S 
   3   3   3  18
Direct configuration=     1
   0.33333334  0.00000000  0.00000000
   0.33333334  0.33333334  0.00000000
   0.66666669  0.00000000  0.00000000
   1.00000000  0.33333334  0.00000000
   0.66666669  0.66666669  0.00000000
   0.00000000  0.66666669  0.00000000
   0.00000000  0.00000000  0.00000000
   0.33333334  0.66666669  0.00000000
   0.66666669  0.33333334  0.00000000
   0.11068511  0.22244981  0.95539999
   0.22244981  0.11068511  0.04460000
   0.11068511  0.55578315  0.95539999
   0.22244981  0.44401845  0.04460000
   0.11068511  0.88911647  0.95539999
   0.22244981  0.77735180  0.04460000
   0.44401845  0.22244981  0.95539999
   0.55578315  0.11068511  0.04460000
   0.44401845  0.55578315  0.95539999
   0.55578315  0.44401845  0.04460000
   0.44401845  0.88911647  0.95539999
   0.55578315  0.77735180  0.04460000
   0.77735180  0.22244981  0.95539999
   0.88911647  0.11068511  0.04460000
   0.77735180  0.55578315  0.95539999
   0.88911647  0.44401845  0.04460000
   0.77735180  0.88911647  0.95539999
   0.88911647  0.77735180  0.04460000
unknown system                          
           1
     8.667092    5.001068    0.000000
    -8.667095    5.001073    0.000000
     0.000000    0.000000   30.000000
   V    Mo   W    S 
   3   3   3  18
Direct configuration=     2
   0.33259374 -0.00073969 -0.00000000
   0.33327927  0.33412451  0.00011519
   0.66745762 -0.00005422 -0.00011521
   0.99999606  0.33482190  0.00011604
   0.66815521  0.66666288 -0.00011605
  -0.00156756  0.66509916 -0.00000001
  -0.00109996 -0.00115592 -0.00000053
   0.33217768  0.66556701  0.00000051
   0.66886452  0.33553113  0.00000000
   0.11501776  0.22335076  0.95201876
   0.22571076  0.11265956  0.04690090
   0.11201374  0.55607131  0.95076010
   0.22503599  0.44278986  0.04807723
   0.11498556  0.89137237  0.95195110
   0.22470578  0.78165209  0.04804885
   0.44082901  0.22058986  0.95317554
   0.55392340  0.10749532  0.04682439
   0.44181095  0.55151292  0.95194973
   0.55122819  0.44156245  0.04807196
   0.44599333  0.89237758  0.95309921
   0.55668411  0.78168484  0.04798120
   0.77489576  0.21789465  0.95192808
   0.88484580  0.10847751  0.04805025
   0.77721297  0.55460385  0.95067009
   0.88793722  0.44387955  0.04932990
   0.77612292  0.89170289  0.95192274
   0.88940463  0.77868034  0.04923993
unknown system                          
           1
     8.484085    4.900661    0.000000
    -8.483937    4.900405    0.000000
     0.000000    0.000000   30.000000
   V    Mo   W    S 
   3   3   3  18
Direct configuration=     3
   0.33233551 -0.00099754 -0.00000000
   0.33322081  0.33441348  0.00008229
   0.66774643 -0.00011260 -0.00008222
   1.00006508  0.33561190  0.00009063
   0.66894506  0.66673088 -0.00009065
  -0.00239061  0.66427639 -0.00000002
  -0.00164968 -0.00174042 -0.00000987
   0.33159269  0.66501553  0.00000984
   0.66996680  0.33663403  0.00000001
   0.11500164  0.22317952  0.95211252
   0.22553408  0.11260483  0.04683099
   0.11225341  0.55622022  0.95068440
   0.22519386  0.44297814  0.04813647
   0.11494623  0.89154980  0.95198395
   0.22488307  0.78161288  0.04801598
   0.44101924  0.22065981  0.95331107
   0.55399288  0.10768597  0.04668895
   0.44163624  0.55154170  0.95198469
   0.55124822  0.44135362  0.04805162
   0.44593778  0.89220064  0.95316869
   0.55651230  0.78166760  0.04788800
   0.77468737  0.21791587  0.95194828
   0.88487557  0.10830336  0.04801566
   0.77709224  0.55436975  0.95051950
   0.88770320  0.44375907  0.04948041
   0.77631155  0.89186021  0.95186304
   0.88955350  0.77891983  0.04931566
unknown system                          
           1
     8.271901    4.784026    0.000000
    -8.271810    4.783868    0.000000
     0.000000    0.000000   30.000000
   V    Mo   W    S 
   3   3   3  18
Direct configuration=     4
   0.33131079 -0.00207415 -0.00000007
   0.33281853  0.33563097 -0.00008958
   0.66899451 -0.00052443  0.00009170
   1.00042933  0.33905317 -0.00003203
   0.67244887  0.66723443  0.00003198
  -0.00598800  0.66067449 -0.00000184
  -0.00410202 -0.00430124 -0.00005437
   0.32909110  0.66269440  0.00005392
   0.67460798  0.34121955  0.00000037
   0.11588356  0.22357416  0.95106663
   0.22628099  0.11310869  0.04790646
   0.11239182  0.55650428  0.94877283
   0.22566636  0.44249445  0.04987002
   0.11581142  0.89201563  0.95067165
   0.22534313  0.78247459  0.04933227
   0.44044496  0.22025313  0.95252238
   0.55361209  0.10708581  0.04746687
   0.44118776  0.55068845  0.95069313
   0.55029992  0.44063606  0.04943441
   0.44649837  0.89297522  0.95210026
   0.55693211  0.78260398  0.04892379
   0.77394328  0.21691192  0.95057200
   0.88396842  0.10782772  0.04929721
   0.77706376  0.55429834  0.94826009
   0.88763545  0.44373335  0.05174378
   0.77579954  0.89236356  0.95013483
   0.88984043  0.77905792  0.05123122
unknown system                          
           1
     8.265018    4.788947    0.000000
    -8.264908    4.788755    0.000000
     0.000000    0.000000   30.000000
   V    Mo   W    S 
   3   3   3  18
Direct configuration=     5
   0.32978482 -0.00359019  0.00000040
   0.33152083  0.33760309 -0.00041673
   0.67098176 -0.00183643  0.00042058
   1.00171427  0.34654122 -0.00016907
   0.67992876  0.66854670  0.00016881
  -0.01299902  0.65364633 -0.00000639
  -0.00869378 -0.00970023 -0.00015577
   0.32369319  0.65808672  0.00015412
   0.68294614  0.34955739  0.00000168
   0.11598066  0.22388766  0.94992035
   0.22661132  0.11354105  0.04933576
   0.11203666  0.55708635  0.94602247
   0.22551555  0.44162669  0.05233812
   0.11590679  0.89141613  0.94896761
   0.22473504  0.78257515  0.05104430
   0.44082222  0.22048456  0.95165319
   0.55383997  0.10747008  0.04834969
   0.44157356  0.55038393  0.94916864
   0.55004626  0.44038114  0.05120272
   0.44692834  0.89331159  0.95064978
   0.55723935  0.78268495  0.05009024
   0.77368754  0.21666220  0.94877683
   0.88368028  0.10822387  0.05084509
   0.77734212  0.55469285  0.94487892
   0.88803287  0.44402198  0.05513596
   0.77493096  0.89220873  0.94763313
   0.89042801  0.77870091  0.05398946
unknown system                          
           1
     8.268690    4.791703    0.000000
    -8.268728    4.791767    0.000000
     0.000000    0.000000   30.000000
   V    Mo   W    S 
   3   3   3  18
Direct configuration=     6
   0.32965070 -0.00371734  0.00000053
   0.33053888  0.33791564 -0.00041278
   0.67129776 -0.00282144  0.00041051
   1.00273079  0.34866405 -0.00003141
   0.68204505  0.66955563  0.00003090
  -0.01334112  0.65330364  0.00000268
  -0.00991585 -0.01203415 -0.00012493
   0.32135776  0.65686002  0.00012586
   0.68414396  0.35075960 -0.00000047
   0.11464782  0.22350657  0.95011802
   0.22602847  0.11338897  0.04928057
   0.11157476  0.55765599  0.94565630
   0.22498539  0.44144445  0.05260984
   0.11493341  0.89039519  0.94892388
   0.22372287  0.78160650  0.05108265
   0.44190695  0.22127033  0.95185761
   0.55462089  0.10855867  0.04814654
   0.44236489  0.55124307  0.94934259
   0.55099256  0.44091538  0.05117338
   0.44675908  0.89272100  0.95070870
   0.55685100  0.78134166  0.04989490
   0.77422550  0.21762499  0.94880980
   0.88455764  0.10902120  0.05066943
   0.77742738  0.55500346  0.94441476
   0.88834471  0.44411428  0.05559560
   0.77476229  0.89167557  0.94736583
   0.89100090  0.77824154  0.05434860
unknown system                          
           1
     8.270355    4.796967    0.000000
    -8.270380    4.797010    0.000000
     0.000000    0.000000   30.000000
   V    Mo   W    S 
   3   3   3  18
Direct configuration=     7
   0.32964444 -0.00367706 -0.00000008
   0.32934725  0.33816661 -0.00044549
   0.67150663 -0.00398635  0.00043966
   1.00410341  0.35116241  0.00001441
   0.68449668  0.67080953 -0.00001458
  -0.01378351  0.65287103 -0.00000057
  -0.01119182 -0.01479249 -0.00007024
   0.31856609  0.65546464  0.00006928
   0.68560722  0.35226695  0.00000025
   0.11352598  0.22303880  0.95043117
   0.22556538  0.11325830  0.04914816
   0.11117823  0.55802694  0.94539042
   0.22468005  0.44141033  0.05284119
   0.11437220  0.88977455  0.94888622
   0.22311046  0.78105241  0.05111879
   0.44254403  0.22183215  0.95214715
   0.55517067  0.10920895  0.04786300
   0.44290643  0.55190195  0.94963939
   0.55164624  0.44148438  0.05101393
   0.44659439  0.89224114  0.95083915
   0.55636673  0.78018450  0.04958824
   0.77480774  0.21830661  0.94896507
   0.88525324  0.10958202  0.05037717
   0.77756000  0.55519001  0.94417751
   0.88851774  0.44423551  0.05583328
   0.77475024  0.89135509  0.94713224
   0.89136831  0.77784556  0.05461520
unknown system                          
           1
     8.270181    4.803309    0.000000
    -8.270165    4.803281    0.000000
     0.000000    0.000000   30.000000
   V    Mo   W    S 
   3   3   3  18
Direct configuration=     8
   0.32968396 -0.00364692  0.00000083
   0.32837766  0.33829113 -0.00047438
   0.67164256 -0.00496165  0.00047091
   1.00515709  0.35289081  0.00006855
   0.68623611  0.67189010 -0.00006762
  -0.01394685  0.65271133  0.00000309
  -0.01210420 -0.01680066 -0.00005845
   0.31656767  0.65459212  0.00005921
   0.68658886  0.35323329  0.00000018
   0.11280099  0.22266075  0.95062572
   0.22532013  0.11316004  0.04908855
   0.11087551  0.55828990  0.94511068
   0.22453369  0.44141815  0.05303842
   0.11416605  0.88954290  0.94881161
   0.22288509  0.78084148  0.05118851
   0.44280376  0.22213115  0.95233091
   0.55547343  0.10946232  0.04767196
   0.44320266  0.55233630  0.94985047
   0.55196131  0.44181077  0.05091392
   0.44650185  0.89199664  0.95090700
   0.55600107  0.77948204  0.04938409
   0.77513435  0.21862093  0.94907483
   0.88566803  0.10986352  0.05015401
   0.77762537  0.55534180  0.94398457
   0.88867150  0.44429944  0.05602129
   0.77475905  0.89121484  0.94694999
   0.89162774  0.77754193  0.05489104
unknown system                          
           1
     8.278410    4.814378    0.000000
    -8.278417    4.814389    0.000000
     0.000000    0.000000   30.000000
   V    Mo   W    S 
   3   3   3  18
Direct configuration=     9
   0.32976883 -0.00355285 -0.00000030
   0.32631602  0.33841808 -0.00052141
   0.67176711 -0.00701909  0.00051787
   1.00730919  0.35608860  0.00012586
   0.68942174  0.67401472 -0.00012752
  -0.01408437  0.65257588 -0.00000383
  -0.01357466 -0.02057136  0.00000176
   0.31278504  0.65309461 -0.00000440
   0.68838195  0.35503754 -0.00000063
   0.11144605  0.22184264  0.95103347
   0.22480461  0.11292721  0.04892848
   0.11030476  0.55873477  0.94466449
   0.22431473  0.44153387  0.05336354
   0.11392622  0.88926141  0.94867951
   0.22260086  0.78060106  0.05132416
   0.44320291  0.22267361  0.95273453
   0.55600830  0.10986467  0.04726890
   0.44369774  0.55315674  0.95035357
   0.55248418  0.44243545  0.05061530
   0.44625859  0.89147497  0.95106764
   0.55517749  0.77811620  0.04897614
   0.77576356  0.21914961  0.94937337
   0.88650060  0.11036584  0.04965241
   0.77775260  0.55560850  0.94374361
   0.88893669  0.44442359  0.05626690
   0.77487327  0.89098756  0.94662251
   0.89207047  0.77697061  0.05534397
unknown system                          
           1
     8.283234    4.836905    0.000000
    -8.283225    4.836889    0.000000
     0.000000    0.000000   30.000000
   V    Mo   W    S 
   3   3   3  18
Direct configuration=    10
   0.32972841 -0.00359826  0.00000139
   0.32465771  0.33839841 -0.00053667
   0.67175706 -0.00868388  0.00053529
   1.00874738  0.35794481  0.00018929
   0.69128893  0.67546999 -0.00018484
  -0.01389052  0.65277180  0.00000485
  -0.01431689 -0.02285335  0.00002659
   0.31050824  0.65237973 -0.00002368
   0.68955012  0.35619926  0.00000170
   0.11047146  0.22119858  0.95127411
   0.22443604  0.11273015  0.04884925
   0.10983114  0.55905625  0.94430446
   0.22418683  0.44168216  0.05359529
   0.11387463  0.88915623  0.94854563
   0.22249764  0.78054242  0.05145221
   0.44342381  0.22303907  0.95301448
   0.55637301  0.11008148  0.04698446
   0.44406157  0.55374569  0.95073174
   0.55273000  0.44284012  0.05039111
   0.44606767  0.89110898  0.95114976
   0.55454189  0.77715531  0.04873010
   0.77616997  0.21939570  0.94960082
   0.88707990  0.11072294  0.04926813
   0.77784098  0.55585522  0.94359214
   0.88918704  0.44451520  0.05640972
   0.77502110  0.89086446  0.94639763
   0.89238934  0.77649600  0.05569494
unknown system                          
           1
     8.286515    4.834843    0.000000
    -8.286501    4.834818    0.000000
     0.000000    0.000000   30.000000
   V    Mo   W    S 
   3   3   3  18
Direct configuration=    11
   0.32940906 -0.00390655  0.00000004
   0.31842445  0.33817429 -0.00059460
   0.67153949 -0.01490222  0.00059047
   1.01396607  0.36486776  0.00030439
   0.69820002  0.68064511 -0.00030649
  -0.01346734  0.65319398 -0.00000049
  -0.01686366 -0.03102230  0.00017123
   0.30231403  0.64980344 -0.00017499
   0.69405830  0.36071706 -0.00000059
   0.10701260  0.21889499  0.95219823
   0.22300057  0.11195311  0.04849008
   0.10824494  0.56011599  0.94323577
   0.22375867  0.44235815  0.05435033
   0.11369654  0.88886394  0.94813283
   0.22220124  0.78036417  0.05186765
   0.44426217  0.22439878  0.95414293
   0.55773204  0.11092077  0.04585238
   0.44526613  0.55581893  0.95221722
   0.55365445  0.44430960  0.04945312
   0.44528977  0.88967397  0.95151458
   0.55223667  0.77369384  0.04780337
   0.77764422  0.22032781  0.95054592
   0.88915644  0.11193123  0.04778250
   0.77824425  0.55676381  0.94319143
   0.89009389  0.44491629  0.05681464
   0.77569343  0.89043017  0.94564803
   0.89344603  0.77490834  0.05676990
unknown system                          
           1
     8.289500    4.839628    0.000000
    -8.289491    4.839612    0.000000
     0.000000    0.000000   30.000000
   V    Mo   W    S 
   3   3   3  18
Direct configuration=    12
   0.32918391 -0.00413315  0.00000035
   0.32001736  0.33805413 -0.00054113
   0.67141472 -0.01331484  0.00053794
   1.01166086  0.36175655  0.00024647
   0.69509251  0.67835064 -0.00024543
  -0.01338386  0.65327883  0.00000059
  -0.01537455 -0.02731756  0.00010542
   0.30602880  0.65129838 -0.00010572
   0.69277166  0.35942967  0.00000055
   0.10799378  0.21952855  0.95186080
   0.22330847  0.11207858  0.04862087
   0.10866412  0.55980529  0.94360137
   0.22398859  0.44234642  0.05409720
   0.11385842  0.88906475  0.94822970
   0.22240415  0.78052787  0.05176984
   0.44405805  0.22405784  0.95388021
   0.55739222  0.11071743  0.04611742
   0.44491210  0.55513813  0.95188161
   0.55324271  0.44381527  0.04966265
   0.44541679  0.88998286  0.95138142
   0.55287092  0.77467651  0.04814189
   0.77714780  0.21991198  0.95033276
   0.88847452  0.11157671  0.04812014
   0.77823037  0.55669115  0.94336712
   0.89002118  0.44490039  0.05663720
   0.77568198  0.89066162  0.94589782
   0.89313687  0.77533045  0.05640083
unknown system                          
           1
     8.295672    4.845681    0.000000
    -8.295680    4.845693    0.000000
     0.000000    0.000000   30.000000
   V    Mo   W    S 
   3   3   3  18
Direct configuration=    13
   0.32861795 -0.00470708  0.00000097
   0.31814411  0.33768286 -0.00050087
   0.67106363 -0.01522621  0.00049929
   1.01265656  0.36307768  0.00023970
   0.69640856  0.67937686 -0.00023765
  -0.01310449  0.65355363  0.00000123
  -0.01559549 -0.02866186  0.00014806
   0.30468177  0.65111323 -0.00014733
   0.69399577  0.36065076  0.00000169
   0.10718493  0.21900755  0.95199291
   0.22291905  0.11184426  0.04856639
   0.10838108  0.56002492  0.94345580
   0.22389554  0.44265284  0.05423151
   0.11394268  0.88911902  0.94811797
   0.22245687  0.78060787  0.05188154
   0.44431260  0.22444434  0.95423301
   0.55778484  0.11096678  0.04575991
   0.44518916  0.55552491  0.95229548
   0.55329600  0.44405285  0.04939473
   0.44519814  0.88959946  0.95143939
   0.55236301  0.77389131  0.04800424
   0.77738410  0.21995593  0.95060428
   0.88884326  0.11184529  0.04770204
   0.77845381  0.55706933  0.94331375
   0.89040375  0.44512402  0.05668929
   0.77598003  0.89057483  0.94576750
   0.89335724  0.77504909  0.05654507
unknown system                          
           1
     8.296909    4.846565    0.000000
    -8.296894    4.846538    0.000000
     0.000000    0.000000   30.000000
   V    Mo   W    S 
   3   3   3  18
Direct configuration=    14
   0.32736923 -0.00594236  0.00000087
   0.31577173  0.33697337 -0.00042857
   0.67034898 -0.01755944  0.00042251
   1.01350552  0.36407367  0.00023485
   0.69740298  0.68017475 -0.00023468
  -0.01243967  0.65421642 -0.00000111
  -0.01543170 -0.02941321  0.00017307
   0.30392080  0.65122927 -0.00017507
   0.69527024  0.36193818  0.00000005
   0.10645027  0.21864679  0.95201010
   0.22255691  0.11161185  0.04857564
   0.10819971  0.56028128  0.94333297
   0.22379429  0.44307058  0.05435335
   0.11414212  0.88930117  0.94796211
   0.22263366  0.78081666  0.05204082
   0.44462633  0.22489559  0.95468874
   0.55823484  0.11128579  0.04530644
   0.44541686  0.55568505  0.95276648
   0.55319891  0.44414555  0.04910366
   0.44495773  0.88923615  0.95142746
   0.55197707  0.77312135  0.04799662
   0.77747438  0.21986508  0.95089373
   0.88902227  0.11208997  0.04723842
   0.77883019  0.55763951  0.94326723
   0.89096669  0.44550188  0.05674014
   0.77640231  0.89046399  0.94563416
   0.89361180  0.77486558  0.05666991
unknown system                          
           1
     8.296194    4.845881    0.000000
    -8.296183    4.845860    0.000000
     0.000000    0.000000   30.000000
   V    Mo   W    S 
   3   3   3  18
Direct configuration=    15
   0.32599794 -0.00731372  0.00000150
   0.31408056  0.33624133 -0.00035357
   0.66961667 -0.01925544  0.00035083
   1.01386266  0.36457453  0.00020989
   0.69790832  0.68054741 -0.00020695
  -0.01179421  0.65486738  0.00000317
  -0.01518626 -0.02952371  0.00020163
   0.30381653  0.65149269 -0.00019949
   0.69612123  0.36278755  0.00000241
   0.10604289  0.21856506  0.95193542
   0.22236032  0.11146760  0.04861446
   0.10823209  0.56046042  0.94330854
   0.22373355  0.44337893  0.05442506
   0.11434913  0.88952915  0.94783717
   0.22286627  0.78101813  0.05216099
   0.44483316  0.22517132  0.95503798
   0.55850932  0.11149328  0.04495661
   0.44552216  0.55562687  0.95307335
   0.55309315  0.44412082  0.04891423
   0.44480753  0.88903806  0.95139008
   0.55190292  0.77272120  0.04806539
   0.77745170  0.21976306  0.95108385
   0.88896240  0.11218934  0.04692904
   0.77920814  0.55807961  0.94325438
   0.89140849  0.44587663  0.05674618
   0.77671599  0.89039771  0.94556892
   0.89379183  0.77489927  0.05668883
unknown system                          
           1
     8.294570    4.844414    0.000000
    -8.294848    4.844890    0.000000
     0.000000    0.000000   30.000000
   V    Mo   W    S 
   3   3   3  18
Direct configuration=    16
   0.32626851 -0.00704429  0.00000147
   0.31446674  0.33638491 -0.00036784
   0.66976132 -0.01887300  0.00036493
   1.01375856  0.36444005  0.00021261
   0.69777296  0.68044566 -0.00020987
  -0.01192951  0.65473116  0.00000277
  -0.01522729 -0.02945503  0.00019663
   0.30388515  0.65145370 -0.00019484
   0.69592105  0.36258679  0.00000225
   0.10615180  0.21860147  0.95194321
   0.22241170  0.11150323  0.04860864
   0.10824261  0.56041520  0.94332444
   0.22374796  0.44331102  0.05440474
   0.11430926  0.88948664  0.94786606
   0.22282332  0.78097836  0.05213259
   0.44478484  0.22510474  0.95496014
   0.55844336  0.11144431  0.04503421
   0.44549063  0.55562196  0.95299985
   0.55310971  0.44411439  0.04895901
   0.44484522  0.88909008  0.95139593
   0.55194030  0.77283213  0.04805774
   0.77744496  0.21977818  0.95103918
   0.88895584  0.11215733  0.04700229
   0.77913087  0.55798208  0.94326088
   0.89131122  0.44579980  0.05674035
   0.77664669  0.89041374  0.94558905
   0.89374666  0.77490985  0.05667349
unknown system                          
           1
     8.298325    4.847766    0.000000
    -8.298093    4.847368    0.000000
     0.000000    0.000000   30.000000
   V    Mo   W    S 
   3   3   3  18
Direct configuration=    17
   0.32557384 -0.00778389  0.00000545
   0.31395421  0.33593572 -0.00033215
   0.66942678 -0.01978633  0.00033416
   1.01374733  0.36460387  0.00020882
   0.69785081  0.68068800 -0.00020785
  -0.01156095  0.65505527 -0.00000432
  -0.01527273 -0.02933732  0.00019817
   0.30401994  0.65169120 -0.00020101
   0.69620784  0.36287059  0.00000732
   0.10591478  0.21857455  0.95185560
   0.22232246  0.11140925  0.04866627
   0.10829469  0.56051402  0.94330433
   0.22368030  0.44346713  0.05445289
   0.11441385  0.88962252  0.94778529
   0.22294970  0.78106006  0.05222163
   0.44488247  0.22519735  0.95509781
   0.55859936  0.11149611  0.04486577
   0.44555720  0.55559417  0.95310389
   0.55306609  0.44407245  0.04891172
   0.44489001  0.88905530  0.95136114
   0.55204217  0.77280870  0.04811042
   0.77738555  0.21964014  0.95111301
   0.88877432  0.11215061  0.04686672
   0.77935294  0.55820103  0.94324765
   0.89155782  0.44602450  0.05675897
   0.77672747  0.89040803  0.94556886
   0.89385619  0.77498142  0.05669932
unknown system                          
           1
     8.311773    4.857214    0.000000
    -8.310694    4.855366    0.000000
     0.000000    0.000000   30.000000
   V    Mo   W    S 
   3   3   3  18
Direct configuration=    18
   0.32599677 -0.00732883 -0.00000722
   0.31399905  0.33625831 -0.00035544
   0.66957734 -0.01927026  0.00037464
   1.01385146  0.36453237  0.00021396
   0.69788371  0.68057751 -0.00022628
  -0.01178975  0.65491525  0.00000151
  -0.01514711 -0.02949639  0.00019499
   0.30384773  0.65154299 -0.00019734
   0.69613470  0.36276278 -0.00000022
   0.10599572  0.21852206  0.95192493
   0.22237351  0.11147175  0.04861009
   0.10819739  0.56046598  0.94329984
   0.22373428  0.44340187  0.05444801
   0.11438199  0.88950891  0.94783135
   0.22288099  0.78103950  0.05215499
   0.44483451  0.22519654  0.95508342
   0.55849497  0.11150635  0.04492936
   0.44553203  0.55561670  0.95310874
   0.55307248  0.44409502  0.04888893
   0.44476799  0.88901892  0.95140194
   0.55191444  0.77272276  0.04803347
   0.77745500  0.21977220  0.95109718
   0.88895215  0.11215107  0.04688858
   0.77923772  0.55810134  0.94325031
   0.89144712  0.44587553  0.05674024
   0.77677259  0.89038927  0.94560280
   0.89381569  0.77486495  0.05670711
unknown system                          
           1
     8.315212    4.861071    0.000000
    -8.313300    4.857797    0.000000
     0.000000    0.000000   30.000000
   V    Mo   W    S 
   3   3   3  18
Direct configuration=    19
   0.32555327 -0.00778757 -0.00003280
   0.31300402  0.33616289 -0.00029573
   0.66925061 -0.01951629  0.00037853
   1.01412054  0.36493318  0.00019042
   0.69842507  0.68063789 -0.00020304
  -0.01163841  0.65511791  0.00000663
  -0.01479670 -0.02983166  0.00022177
   0.30339537  0.65152869 -0.00020952
   0.69673247  0.36320720 -0.00001403
   0.10566530  0.21831829  0.95190490
   0.22230299  0.11135995  0.04858211
   0.10813257  0.56048488  0.94331824
   0.22371481  0.44358866  0.05449529
   0.11448229  0.88951687  0.94780458
   0.22297798  0.78114820  0.05215130
   0.44492857  0.22533133  0.95530884
   0.55849235  0.11163633  0.04477459
   0.44560178  0.55567676  0.95328249
   0.55305288  0.44407243  0.04874279
   0.44453575  0.88883000  0.95142988
   0.55169918  0.77235288  0.04799203
   0.77753536  0.21984395  0.95118457
   0.88911018  0.11219636  0.04671361
   0.77939186  0.55823524  0.94325421
   0.89162408  0.44595337  0.05670767
   0.77704601  0.89041207  0.94561317
   0.89387426  0.77480463  0.05669743
unknown system                          
           1
     8.312759    4.861686    0.000000
    -8.310619    4.858021    0.000000
     0.000000    0.000000   30.000000
   V    Mo   W    S 
   3   3   3  18
Direct configuration=    20
   0.32606468 -0.00730217 -0.00006662
   0.31279921  0.33653388 -0.00030396
   0.66937055 -0.01894067  0.00045825
   1.01427793  0.36502194  0.00018679
   0.69869929  0.68063091 -0.00022150
  -0.01195877  0.65491714  0.00001380
  -0.01463993 -0.03018533  0.00022080
   0.30296986  0.65134879 -0.00020184
   0.69689383  0.36319395 -0.00003136
   0.10558532  0.21813825  0.95198639
   0.22232978  0.11136014  0.04849433
   0.10796776  0.56040539  0.94333789
   0.22373310  0.44361437  0.05449826
   0.11445620  0.88934195  0.94786861
   0.22290992  0.78112383  0.05205001
   0.44491746  0.22538904  0.95538955
   0.55836360  0.11168571  0.04478823
   0.44559908  0.55577484  0.95336315
   0.55308754  0.44406417  0.04864426
   0.44434921  0.88870563  0.95151457
   0.55152111  0.77221442  0.04782456
   0.77765188  0.22001773  0.95120407
   0.88933786  0.11214836  0.04664275
   0.77931912  0.55813386  0.94327455
   0.89157081  0.44579449  0.05665586
   0.77719406  0.89044264  0.94572040
   0.89384401  0.77464118  0.05668809
unknown system                          
           1
     8.312094    4.859250    0.000000
    -8.310303    4.856184    0.000000
     0.000000    0.000000   30.000000
   V    Mo   W    S 
   3   3   3  18
Direct configuration=    21
   0.32626828 -0.00732592 -0.00015569
   0.31127411  0.33643371 -0.00024442
   0.66918457 -0.01909237  0.00056334
   1.01462506  0.36516713  0.00017347
   0.69929820  0.68095721 -0.00028274
  -0.01219866  0.65495064  0.00001725
  -0.01441599 -0.03063606  0.00019860
   0.30237953  0.65116760 -0.00017395
   0.69770287  0.36351403 -0.00008659
   0.10519180  0.21788666  0.95204995
   0.22225689  0.11130983  0.04841854
   0.10765412  0.56044222  0.94326406
   0.22358133  0.44388748  0.05457557
   0.11449014  0.88910483  0.94783984
   0.22285741  0.78119730  0.05204502
   0.44508423  0.22583662  0.95577261
   0.55839212  0.11194801  0.04464308
   0.44575383  0.55594584  0.95372803
   0.55300201  0.44393536  0.04833044
   0.44412107  0.88832896  0.95157378
   0.55127259  0.77177919  0.04755419
   0.77779813  0.22010625  0.95127504
   0.88963334  0.11219144  0.04632048
   0.77951960  0.55832964  0.94323595
   0.89194630  0.44589727  0.05668723
   0.77755387  0.89056592  0.94589233
   0.89398770  0.77438565  0.05678446
unknown system                          
           1
     8.312438    4.859002    0.000000
    -8.310619    4.855888    0.000000
     0.000000    0.000000   30.000000
   V    Mo   W    S 
   3   3   3  18
Direct configuration=    22
   0.32491295 -0.00877238 -0.00012772
   0.31046966  0.33549268 -0.00014515
   0.66861697 -0.02043498  0.00043220
   1.01458220  0.36532932  0.00014956
   0.69930604  0.68109519 -0.00024054
  -0.01138612  0.65560091  0.00002907
  -0.01436466 -0.03023109  0.00023464
   0.30276878  0.65146097 -0.00019699
   0.69804000  0.36386638 -0.00006626
   0.10508646  0.21809798  0.95185916
   0.22218130  0.11127747  0.04855517
   0.10790217  0.56062127  0.94323766
   0.22348981  0.44399075  0.05463493
   0.11462496  0.88944601  0.94768170
   0.22310151  0.78139299  0.05223458
   0.44517157  0.22594894  0.95587532
   0.55866179  0.11198615  0.04447224
   0.44581692  0.55572780  0.95378940
   0.55285332  0.44387897  0.04833338
   0.44429304  0.88837433  0.95142999
   0.55146195  0.77170520  0.04781161
   0.77762846  0.21981306  0.95129118
   0.88929081  0.11231146  0.04628122
   0.77982572  0.55867547  0.94318489
   0.89225581  0.44632881  0.05675256
   0.77748490  0.89055147  0.94570735
   0.89413815  0.77467934  0.05679870
unknown system                          
           1
     8.309010    4.856094    0.000000
    -8.307441    4.853409    0.000000
     0.000000    0.000000   30.000000
   V    Mo   W    S 
   3   3   3  18
Direct configuration=    23
   0.32427477 -0.00950797 -0.00013682
   0.30974282  0.33502923 -0.00008857
   0.66829698 -0.02103946  0.00039582
   1.01463166  0.36543142  0.00013852
   0.69946860  0.68120911 -0.00024403
  -0.01101436  0.65597276  0.00002954
  -0.01425609 -0.03012364  0.00023616
   0.30283679  0.65156706 -0.00019834
   0.69835544  0.36408196 -0.00007722
   0.10496088  0.21815209  0.95178158
   0.22214373  0.11123803  0.04860171
   0.10796351  0.56071260  0.94322262
   0.22340945  0.44409606  0.05467588
   0.11469658  0.88957959  0.94761423
   0.22324032  0.78151043  0.05230847
   0.44523510  0.22605999  0.95601403
   0.55875245  0.11204254  0.04435532
   0.44585896  0.55563293  0.95389885
   0.55278744  0.44383267  0.04826636
   0.44427783  0.88832132  0.95138313
   0.55149873  0.77157219  0.04787569
   0.77759522  0.21974498  0.95131671
   0.88918787  0.11236389  0.04619646
   0.78002118  0.55886133  0.94317692
   0.89246119  0.44654829  0.05676934
   0.77755407  0.89055309  0.94567081
   0.89423334  0.77477196  0.05681672
unknown system                          
           1
     8.304730    4.849811    0.000000
    -8.303847    4.848301    0.000000
     0.000000    0.000000   30.000000
   V    Mo   W    S 
   3   3   3  18
Direct configuration=    24
   0.32372221 -0.01005830 -0.00012480
   0.30952987  0.33471232 -0.00007453
   0.66809038 -0.02152299  0.00034788
   1.01460527  0.36547054  0.00013940
   0.69945969  0.68124296 -0.00024362
  -0.01070941  0.65623105  0.00002295
  -0.01425660 -0.02995902  0.00022898
   0.30302836  0.65168445 -0.00020061
   0.69842160  0.36421165 -0.00007725
   0.10495018  0.21825600  0.95172701
   0.22211340  0.11120284  0.04865053
   0.10806913  0.56078194  0.94322322
   0.22337461  0.44413444  0.05467830
   0.11473811  0.88973038  0.94757347
   0.22334750  0.78156260  0.05236685
   0.44526817  0.22605033  0.95604798
   0.55882070  0.11204812  0.04428375
   0.44586014  0.55553954  0.95391641
   0.55277795  0.44383277  0.04827956
   0.44430532  0.88835113  0.95133880