       N       E                     dE             d eps       ncg     rms          rms(c)
DAV:   1     0.112438158010E+04    0.11244E+04   -0.35873E+04  8160   0.577E+02
DAV:   2     0.367690630559E+01   -0.11207E+04   -0.10725E+04 10920   0.173E+02
DAV:   3    -0.199325448055E+03   -0.20300E+03   -0.19425E+03 10880   0.827E+01
DAV:   4    -0.208955362077E+03   -0.96299E+01   -0.93447E+01 11880   0.268E+01
DAV:   5    -0.209319233402E+03   -0.36387E+00   -0.36295E+00 11480   0.400E+00    0.275E+01
DAV:   6    -0.237930075148E+03   -0.28611E+02   -0.10694E+02 12360   0.601E+01    0.595E+01
DAV:   7    -0.196562808956E+03    0.41367E+02   -0.17601E+02 13520   0.153E+02    0.200E+01
DAV:   8    -0.189489259853E+03    0.70735E+01   -0.17938E+01 12200   0.127E+01    0.125E+01
DAV:   9    -0.188166985861E+03    0.13223E+01   -0.31384E+00 13480   0.624E+00    0.925E+00
DAV:  10    -0.186958030191E+03    0.12090E+01   -0.17576E+00 13400   0.770E+00    0.217E+00
DAV:  11    -0.187061838143E+03   -0.10381E+00   -0.59129E-01 13520   0.305E+00    0.389E+00
DAV:  12    -0.187005691271E+03    0.56147E-01   -0.83242E-01 12760   0.459E+00    0.370E+00
DAV:  13    -0.186887385370E+03    0.11831E+00   -0.30454E-01 13120   0.298E+00    0.187E+00
DAV:  14    -0.186850334832E+03    0.37051E-01   -0.10754E-01 13280   0.176E+00    0.904E-01
DAV:  15    -0.186848158703E+03    0.21761E-02   -0.29010E-02 12600   0.905E-01    0.818E-01
DAV:  16    -0.186842458797E+03    0.56999E-02   -0.11074E-02 13280   0.532E-01    0.274E-01
DAV:  17    -0.186841245380E+03    0.12134E-02   -0.44664E-03 12560   0.286E-01    0.182E-01
DAV:  18    -0.186841015619E+03    0.22976E-03   -0.18428E-03 11640   0.147E-01    0.130E-01
DAV:  19    -0.186840819752E+03    0.19587E-03   -0.81136E-04 10840   0.885E-02    0.585E-02
DAV:  20    -0.186841569354E+03   -0.74960E-03   -0.68499E-04  9120   0.738E-02    0.550E-02
DAV:  21    -0.186842402744E+03   -0.83339E-03   -0.24087E-04  8000   0.492E-02    0.321E-02
DAV:  22    -0.186843352367E+03   -0.94962E-03   -0.15776E-04  7560   0.383E-02    0.309E-02
DAV:  23    -0.186844506963E+03   -0.11546E-02   -0.10602E-04  7520   0.363E-02    0.130E-02
DAV:  24    -0.186845059078E+03   -0.55212E-03   -0.23871E-05  6800   0.152E-02    0.475E-03
DAV:  25    -0.186845453711E+03   -0.39463E-03   -0.16040E-05  5440   0.957E-03    0.320E-03
DAV:  26    -0.186845695367E+03   -0.24166E-03   -0.92957E-06  6840   0.702E-03    0.166E-03
DAV:  27    -0.186845783871E+03   -0.88503E-04   -0.32911E-06  7320   0.405E-03
   1 F= -.18684578E+03 E0= -.18667481E+03  d E =-.186846E+03
       N       E                     dE             d eps       ncg     rms          rms(c)
DAV:   1    -0.187499873969E+03   -0.65418E+00   -0.27222E+02  8160   0.350E+01    0.460E+00
DAV:   2    -0.189346021321E+03   -0.18461E+01   -0.19881E+01 12240   0.150E+01    0.856E+00
DAV:   3    -0.189359872037E+03   -0.13851E-01   -0.39309E+00 12400   0.120E+01    0.659E+00
DAV:   4    -0.188757107051E+03    0.60276E+00   -0.64178E-01 12520   0.476E+00    0.198E+00
DAV:   5    -0.188848448731E+03   -0.91342E-01   -0.41409E-01 11800   0.339E+00    0.484E+00
DAV:   6    -0.188755981574E+03    0.92467E-01   -0.73378E-01 12560   0.436E+00    0.270E+00
DAV:   7    -0.188676230955E+03    0.79751E-01   -0.21307E-01 12480   0.162E+00    0.101E+00
DAV:   8    -0.188661794881E+03    0.14436E-01   -0.50097E-02 11440   0.737E-01    0.659E-01
DAV:   9    -0.188657218238E+03    0.45766E-02   -0.12283E-02 12760   0.444E-01    0.441E-01
DAV:  10    -0.188657194413E+03    0.23825E-04   -0.57481E-03 11920   0.414E-01    0.412E-01
DAV:  11    -0.188655861341E+03    0.13331E-02   -0.36953E-03 12880   0.305E-01    0.128E-01
DAV:  12    -0.188655863182E+03   -0.18412E-05   -0.96798E-04 11760   0.990E-02
   2 F= -.18865586E+03 E0= -.18851712E+03  d E =-.181008E+01
       N       E                     dE             d eps       ncg     rms          rms(c)
DAV:   1    -0.190582356073E+03   -0.19265E+01   -0.31125E+01  9200   0.142E+01    0.445E+00
DAV:   2    -0.190528466687E+03    0.53889E-01   -0.27746E+00 11520   0.945E+00    0.718E+00
DAV:   3    -0.190064447706E+03    0.46402E+00   -0.12911E+00 12320   0.862E+00    0.425E+00
DAV:   4    -0.189852636501E+03    0.21181E+00   -0.68010E-01 13000   0.432E+00    0.253E+00
DAV:   5    -0.189822018547E+03    0.30618E-01   -0.36780E-01 12240   0.307E+00    0.281E+00
DAV:   6    -0.189751375208E+03    0.70643E-01   -0.15827E-01 12680   0.250E+00    0.752E-01
DAV:   7    -0.189745528039E+03    0.58472E-02   -0.15742E-02 11600   0.608E-01    0.384E-01
DAV:   8    -0.189745460443E+03    0.67596E-04   -0.58631E-03 12640   0.467E-01    0.346E-01
DAV:   9    -0.189744584645E+03    0.87580E-03   -0.21732E-03 11400   0.252E-01    0.121E-01
DAV:  10    -0.189745016451E+03   -0.43181E-03   -0.99508E-04 10640   0.106E-01    0.138E-01
DAV:  11    -0.189744708448E+03    0.30800E-03   -0.55722E-04  9600   0.843E-02    0.194E-02
DAV:  12    -0.189744730898E+03   -0.22450E-04   -0.64623E-05  7120   0.249E-02
   3 F= -.18974473E+03 E0= -.18962846E+03  d E =-.108887E+01
       N       E                     dE             d eps       ncg     rms          rms(c)
DAV:   1    -0.191299801126E+03   -0.15551E+01   -0.74223E+01  8160   0.196E+01    0.456E+00
DAV:   2    -0.191106027542E+03    0.19377E+00   -0.52549E+00 13440   0.750E+00    0.438E+00
DAV:   3    -0.191306320567E+03   -0.20029E+00   -0.14857E+00 12200   0.903E+00    0.733E+00
DAV:   4    -0.190898783082E+03    0.40754E+00   -0.16780E+00 11920   0.851E+00    0.352E+00
DAV:   5    -0.190903793912E+03   -0.50108E-02   -0.69537E-01 10960   0.545E+00    0.355E+00
DAV:   6    -0.190729019411E+03    0.17477E+00   -0.20363E-01 11400   0.313E+00    0.610E-01
DAV:   7    -0.190731721932E+03   -0.27025E-02   -0.34583E-02 12400   0.889E-01    0.737E-01
DAV:   8    -0.190728341786E+03    0.33801E-02   -0.17633E-02 11760   0.903E-01    0.534E-01
DAV:   9    -0.190725332319E+03    0.30095E-02   -0.46757E-03 11360   0.444E-01    0.150E-01
DAV:  10    -0.190725651364E+03   -0.31905E-03   -0.14574E-03 10080   0.138E-01    0.105E-01
DAV:  11    -0.190725499883E+03    0.15148E-03   -0.58572E-04  9880   0.909E-02    0.439E-02
DAV:  12    -0.190725498353E+03    0.15300E-05   -0.10340E-04  7120   0.359E-02
   4 F= -.19072550E+03 E0= -.19062790E+03  d E =-.980767E+00
       N       E                     dE             d eps       ncg     rms          rms(c)
DAV:   1    -0.192199861691E+03   -0.14744E+01   -0.17532E+02  8160   0.295E+01    0.587E+00
DAV:   2    -0.191896921548E+03    0.30294E+00   -0.98632E+00 10960   0.810E+00    0.404E+00
DAV:   3    -0.192373391186E+03   -0.47647E+00   -0.28128E+00 12200   0.109E+01    0.867E+00
DAV:   4    -0.191688125541E+03    0.68527E+00   -0.23513E+00 11560   0.110E+01    0.351E+00
DAV:   5    -0.191633699597E+03    0.54426E-01   -0.58681E-01 12240   0.565E+00    0.442E+00
DAV:   6    -0.191476130100E+03    0.15757E+00   -0.63445E-01 12320   0.524E+00    0.164E+00
DAV:   7    -0.191464910536E+03    0.11220E-01   -0.10147E-01 12480   0.188E+00    0.121E+00
DAV:   8    -0.191448725073E+03    0.16185E-01   -0.33591E-02 12240   0.139E+00    0.473E-01
DAV:   9    -0.191445920361E+03    0.28047E-02   -0.74303E-03 11360   0.493E-01    0.199E-01
DAV:  10    -0.191446055572E+03   -0.13521E-03   -0.28582E-03 11560   0.214E-01    0.104E-01
DAV:  11    -0.191445973107E+03    0.82465E-04   -0.61044E-04 10560   0.934E-02
   5 F= -.19144597E+03 E0= -.19135290E+03  d E =-.720475E+00
       N       E                     dE             d eps       ncg     rms          rms(c)
DAV:   1    -0.191519179241E+03   -0.73124E-01   -0.60997E+00  8160   0.520E+00    0.735E-01
DAV:   2    -0.191593020457E+03   -0.73841E-01   -0.31211E-01 13120   0.342E+00    0.241E+00
DAV:   3    -0.191528048319E+03    0.64972E-01   -0.11313E-01 12600   0.257E+00    0.334E-01
DAV:   4    -0.191530616438E+03   -0.25681E-02   -0.12124E-02 11520   0.738E-01    0.679E-01
DAV:   5    -0.191526400288E+03    0.42162E-02   -0.95802E-03 10800   0.702E-01    0.238E-01
DAV:   6    -0.191526708647E+03   -0.30836E-03   -0.37308E-03 11400   0.328E-01    0.275E-01
DAV:   7    -0.191526349094E+03    0.35955E-03   -0.34491E-03 11360   0.399E-01    0.232E-01
DAV:   8    -0.191525795048E+03    0.55405E-03   -0.10999E-03  9920   0.217E-01    0.414E-02
DAV:   9    -0.191525793532E+03    0.15157E-05   -0.10005E-04  6520   0.424E-02
   6 F= -.19152579E+03 E0= -.19143090E+03  d E =-.798204E-01
       N       E                     dE             d eps       ncg     rms          rms(c)
DAV:   1    -0.191626143459E+03   -0.10035E+00   -0.16463E+01  8160   0.846E+00    0.967E-01
DAV:   2    -0.191727159730E+03   -0.10102E+00   -0.46154E-01 13080   0.368E+00    0.278E+00
DAV:   3    -0.191641327837E+03    0.85832E-01   -0.18122E-01 12520   0.323E+00    0.641E-01
DAV:   4    -0.191648253013E+03   -0.69252E-02   -0.32565E-02 12000   0.123E+00    0.109E+00
DAV:   5    -0.191636792796E+03    0.11460E-01   -0.24058E-02 11800   0.109E+00    0.314E-01
DAV:   6    -0.191638282341E+03   -0.14895E-02   -0.79659E-03 11320   0.535E-01    0.480E-01
DAV:   7    -0.191636729036E+03    0.15533E-02   -0.77417E-03 11640   0.616E-01    0.289E-01
DAV:   8    -0.191635790208E+03    0.93883E-03   -0.19226E-03 10320   0.271E-01    0.553E-02
DAV:   9    -0.191635767273E+03    0.22935E-04   -0.22256E-04  7640   0.568E-02
   7 F= -.19163577E+03 E0= -.19154016E+03  d E =-.109974E+00
       N       E                     dE             d eps       ncg     rms          rms(c)
DAV:   1    -0.191665182447E+03   -0.29392E-01   -0.96484E-01  8160   0.216E+00    0.377E-01
DAV:   2    -0.191672473975E+03   -0.72915E-02   -0.49653E-02 12040   0.123E+00    0.863E-01
DAV:   3    -0.191664245884E+03    0.82281E-02   -0.17998E-02 11760   0.103E+00    0.220E-01
DAV:   4    -0.191664374382E+03   -0.12850E-03   -0.41786E-03 11880   0.393E-01    0.335E-01
DAV:   5    -0.191663593102E+03    0.78128E-03   -0.38005E-03 11080   0.443E-01    0.217E-01
DAV:   6    -0.191663114565E+03    0.47854E-03   -0.13676E-03 10360   0.221E-01    0.676E-02
DAV:   7    -0.191663106015E+03    0.85495E-05   -0.38573E-04  7880   0.111E-01
   8 F= -.19166311E+03 E0= -.19156703E+03  d E =-.273387E-01
       N       E                     dE             d eps       ncg     rms          rms(c)
DAV:   1    -0.191719444127E+03   -0.56330E-01   -0.59853E+00  8160   0.514E+00    0.548E-01
DAV:   2    -0.191746926798E+03   -0.27483E-01   -0.17247E-01 12760   0.203E+00    0.134E+00
DAV:   3    -0.191727153889E+03    0.19773E-01   -0.47972E-02 12480   0.163E+00    0.396E-01
DAV:   4    -0.191728385048E+03   -0.12312E-02   -0.10019E-02 12400   0.672E-01    0.556E-01
DAV:   5    -0.191725429532E+03    0.29555E-02   -0.68478E-03 10680   0.622E-01    0.220E-01
DAV:   6    -0.191725342280E+03    0.87252E-04   -0.23970E-03 11200   0.256E-01    0.145E-01
DAV:   7    -0.191725069701E+03    0.27258E-03   -0.11799E-03 10720   0.181E-01    0.121E-01
DAV:   8    -0.191724951934E+03    0.11777E-03   -0.45000E-04  8920   0.139E-01    0.545E-02
DAV:   9    -0.191724928814E+03    0.23120E-04   -0.72467E-05  5960   0.519E-02
   9 F= -.19172493E+03 E0= -.19162930E+03  d E =-.618228E-01
       N       E                     dE             d eps       ncg     rms          rms(c)
DAV:   1    -0.191750852856E+03   -0.25901E-01   -0.96053E-01  8160   0.212E+00    0.307E-01
DAV:   2    -0.191756656540E+03   -0.58037E-02   -0.40965E-02 13000   0.104E+00    0.706E-01
DAV:   3    -0.191751323637E+03    0.53329E-02   -0.12682E-02 11640   0.842E-01    0.208E-01
DAV:   4    -0.191751956109E+03   -0.63247E-03   -0.40611E-03 11680   0.421E-01    0.369E-01
DAV:   5    -0.191750688642E+03    0.12675E-02   -0.30863E-03 10960   0.401E-01    0.133E-01
DAV:   6    -0.191750594324E+03    0.94318E-04   -0.90958E-04  9880   0.163E-01
  10 F= -.19175059E+03 E0= -.19165505E+03  d E =-.256655E-01
       N       E                     dE             d eps       ncg     rms          rms(c)
DAV:   1    -0.191808928600E+03   -0.58240E-01   -0.67321E+00  8160   0.552E+00    0.605E-01
DAV:   2    -0.191837545699E+03   -0.28617E-01   -0.21904E-01 12440   0.206E+00    0.142E+00
DAV:   3    -0.191820239129E+03    0.17307E-01   -0.62215E-02 12400   0.167E+00    0.584E-01
DAV:   4    -0.191821764236E+03   -0.15251E-02   -0.18951E-02 12200   0.952E-01    0.715E-01
DAV:   5    -0.191816007502E+03    0.57567E-02   -0.97696E-03 11400   0.766E-01    0.197E-01
DAV:   6    -0.191816183319E+03   -0.17582E-03   -0.34634E-03 10920   0.265E-01    0.166E-01
DAV:   7    -0.191815742950E+03    0.44037E-03   -0.14708E-03 10800   0.212E-01    0.132E-01
DAV:   8    -0.191815598370E+03    0.14458E-03   -0.44433E-04  8680   0.150E-01    0.522E-02
DAV:   9    -0.191815569508E+03    0.28863E-04   -0.71499E-05  6040   0.486E-02
  11 F= -.19181557E+03 E0= -.19172086E+03  d E =-.649752E-01
       N       E                     dE             d eps       ncg     rms          rms(c)
DAV:   1    -0.191841690898E+03   -0.26093E-01   -0.10157E+00  8160   0.219E+00    0.303E-01
DAV:   2    -0.191846643088E+03   -0.49522E-02   -0.42295E-02 12200   0.897E-01    0.682E-01
DAV:   3    -0.191842981324E+03    0.36618E-02   -0.14636E-02 11760   0.802E-01    0.315E-01
DAV:   4    -0.191842639960E+03    0.34136E-03   -0.40437E-03 11480   0.433E-01    0.279E-01
DAV:   5    -0.191841875082E+03    0.76488E-03   -0.22515E-03 10560   0.380E-01    0.151E-01
DAV:   6    -0.191841667254E+03    0.20783E-03   -0.10867E-03  9800   0.193E-01    0.783E-02
DAV:   7    -0.191841637038E+03    0.30216E-04   -0.40039E-04  8400   0.126E-01
  12 F= -.19184164E+03 E0= -.19174711E+03  d E =-.260675E-01
       N       E                     dE             d eps       ncg     rms          rms(c)
DAV:   1    -0.191893833635E+03   -0.52166E-01   -0.52754E+00  8160   0.491E+00    0.537E-01
DAV:   2    -0.191915144617E+03   -0.21311E-01   -0.17423E-01 11600   0.163E+00    0.125E+00
DAV:   3    -0.191903960431E+03    0.11184E-01   -0.50224E-02 12520   0.145E+00    0.567E-01
DAV:   4    -0.191900968407E+03    0.29920E-02   -0.82982E-03 12000   0.517E-01    0.265E-01
DAV:   5    -0.191900208105E+03    0.76030E-03   -0.33788E-03 11720   0.375E-01    0.225E-01
DAV:   6    -0.191900526150E+03   -0.31804E-03   -0.34441E-03 12520   0.457E-01    0.256E-01
DAV:   7    -0.191899722133E+03    0.80402E-03   -0.15528E-03 10080   0.275E-01    0.110E-01
DAV:   8    -0.191899633067E+03    0.89066E-04   -0.32866E-04  8640   0.132E-01
  13 F= -.19189963E+03 E0= -.19180615E+03  d E =-.579960E-01
       N       E                     dE             d eps       ncg     rms          rms(c)
DAV:   1    -0.191916991391E+03   -0.17269E-01   -0.46342E-01  8160   0.148E+00    0.204E-01
DAV:   2    -0.191919737014E+03   -0.27456E-02   -0.20365E-02 11200   0.609E-01    0.500E-01
DAV:   3    -0.191917741549E+03    0.19955E-02   -0.71781E-03 11760   0.568E-01    0.202E-01
DAV:   4    -0.191917315604E+03    0.42594E-03   -0.11308E-03 10040   0.180E-01    0.788E-02
DAV:   5    -0.191917238795E+03    0.76809E-04   -0.41830E-04  9560   0.872E-02
  14 F= -.19191724E+03 E0= -.19182406E+03  d E =-.176057E-01
       N       E                     dE             d eps       ncg     rms          rms(c)
DAV:   1    -0.191973104175E+03   -0.55789E-01   -0.60847E+00  8160   0.531E+00    0.657E-01
DAV:   2    -0.192010509936E+03   -0.37406E-01   -0.23271E-01 11200   0.213E+00    0.182E+00
DAV:   3    -0.191983228700E+03    0.27281E-01   -0.81720E-02 12400   0.192E+00    0.571E-01
DAV:   4    -0.191981434151E+03    0.17945E-02   -0.12540E-02 11440   0.676E-01    0.488E-01
DAV:   5    -0.191979228294E+03    0.22059E-02   -0.84596E-03 12560   0.704E-01    0.324E-01
DAV:   6    -0.191979340348E+03   -0.11205E-03   -0.52286E-03 11640   0.508E-01    0.330E-01
DAV:   7    -0.191978652343E+03    0.68800E-03   -0.34291E-03 10920   0.457E-01    0.218E-01
DAV:   8    -0.191978028750E+03    0.62359E-03   -0.94457E-04 10000   0.223E-01    0.368E-02
DAV:   9    -0.191978021245E+03    0.75053E-05   -0.92225E-05  6720   0.391E-02
  15 F= -.19197802E+03 E0= -.19188600E+03  d E =-.607824E-01
       N       E                     dE             d eps       ncg     rms          rms(c)
DAV:   1    -0.192048528840E+03   -0.70500E-01   -0.22597E+01  8160   0.102E+01    0.122E+00
DAV:   2    -0.192191263033E+03   -0.14273E+00   -0.86972E-01 11200   0.411E+00    0.337E+00
DAV:   3    -0.192096345459E+03    0.94918E-01   -0.29071E-01 12240   0.371E+00    0.114E+00
DAV:   4    -0.192091274655E+03    0.50708E-02   -0.50374E-02 12160   0.164E+00    0.104E+00
DAV:   5    -0.192078200934E+03    0.13074E-01   -0.29690E-02 12400   0.140E+00    0.421E-01
DAV:   6    -0.192077769558E+03    0.43138E-03   -0.10744E-02 11840   0.584E-01    0.367E-01
DAV:   7    -0.192078011758E+03   -0.24220E-03   -0.82404E-03 12000   0.677E-01    0.480E-01
DAV:   8    -0.192075583891E+03    0.24279E-02   -0.35902E-03 11520   0.477E-01    0.720E-02
DAV:   9    -0.192075536757E+03    0.47134E-04   -0.32654E-04  8880   0.739E-02
  16 F= -.19207554E+03 E0= -.19198562E+03  d E =-.975155E-01
       N       E                     dE             d eps       ncg     rms          rms(c)
DAV:   1    -0.192100748429E+03   -0.25165E-01   -0.30015E+00  8160   0.373E+00    0.499E-01
DAV:   2    -0.192121550239E+03   -0.20802E-01   -0.14099E-01 11240   0.159E+00    0.129E+00
DAV:   3    -0.192107986135E+03    0.13564E-01   -0.42333E-02 12240   0.148E+00    0.474E-01
DAV:   4    -0.192105766525E+03    0.22196E-02   -0.63792E-03 11040   0.464E-01    0.269E-01
DAV:   5    -0.192105145448E+03    0.62108E-03   -0.35636E-03 12800   0.456E-01    0.214E-01
DAV:   6    -0.192104895542E+03    0.24991E-03   -0.21342E-03 11880   0.333E-01    0.149E-01
DAV:   7    -0.192104735499E+03    0.16004E-03   -0.11763E-03 10800   0.226E-01    0.133E-01
DAV:   8    -0.192104568105E+03    0.16739E-03   -0.38530E-04  8920   0.161E-01    0.501E-02
DAV:   9    -0.192104537434E+03    0.30671E-04   -0.54182E-05  6480   0.493E-02
  17 F= -.19210454E+03 E0= -.19201532E+03  d E =-.290007E-01
       N       E                     dE             d eps       ncg     rms          rms(c)
DAV:   1    -0.192128546332E+03   -0.23978E-01   -0.59402E+00  8160   0.518E+00    0.626E-01
DAV:   2    -0.192166393166E+03   -0.37847E-01   -0.23021E-01 11000   0.219E+00    0.160E+00
DAV:   3    -0.192141407782E+03    0.24985E-01   -0.63441E-02 12240   0.194E+00    0.587E-01
DAV:   4    -0.192140721539E+03    0.68624E-03   -0.12939E-02 11720   0.865E-01    0.550E-01
DAV:   5    -0.192137216518E+03    0.35050E-02   -0.71517E-03 12480   0.689E-01    0.198E-01
DAV:   6    -0.192137120670E+03    0.95848E-04   -0.25755E-03 11880   0.241E-01    0.136E-01
DAV:   7    -0.192136821813E+03    0.29886E-03   -0.11530E-03 10440   0.156E-01    0.878E-02
DAV:   8    -0.192136770770E+03    0.51043E-04   -0.29415E-04  9440   0.132E-01
  18 F= -.19213677E+03 E0= -.19204887E+03  d E =-.322333E-01
       N       E                     dE             d eps       ncg     rms          rms(c)
DAV:   1    -0.192146404846E+03   -0.95830E-02   -0.55472E-01  8160   0.161E+00    0.189E-01
DAV:   2    -0.192148095174E+03   -0.16903E-02   -0.18706E-02 11280   0.468E-01    0.288E-01
DAV:   3    -0.192147808878E+03    0.28630E-03   -0.36790E-03 12280   0.481E-01    0.250E-01
DAV:   4    -0.192147244232E+03    0.56465E-03   -0.10063E-03  9880   0.252E-01    0.111E-01
DAV:   5    -0.192147193859E+03    0.50373E-04   -0.55265E-04  8840   0.195E-01
  19 F= -.19214719E+03 E0= -.19206023E+03  d E =-.104231E-01
       N       E                     dE             d eps       ncg     rms          rms(c)
DAV:   1    -0.192153599653E+03   -0.63554E-02   -0.23184E-01  8160   0.104E+00    0.140E-01
DAV:   2    -0.192155157259E+03   -0.15576E-02   -0.85298E-03 11280   0.436E-01    0.344E-01
DAV:   3    -0.192153920957E+03    0.12363E-02   -0.25404E-03 12160   0.412E-01    0.113E-01
DAV:   4    -0.192153938644E+03   -0.17687E-04   -0.43711E-04  8600   0.172E-01
  20 F= -.19215394E+03 E0= -.19206670E+03  d E =-.674478E-02
       N       E                     dE             d eps       ncg     rms          rms(c)
DAV:   1    -0.192163042066E+03   -0.91211E-02   -0.45410E-01  8160   0.146E+00    0.183E-01
DAV:   2    -0.192164094893E+03   -0.10528E-02   -0.13075E-02 11560   0.431E-01    0.254E-01
DAV:   3    -0.192163893667E+03    0.20123E-03   -0.27758E-03 12240   0.430E-01    0.228E-01
DAV:   4    -0.192163505824E+03    0.38784E-03   -0.98089E-04  9920   0.259E-01    0.133E-01
DAV:   5    -0.192163380502E+03    0.12532E-03   -0.61580E-04  9200   0.212E-01    0.912E-02
DAV:   6    -0.192163353065E+03    0.27437E-04   -0.35248E-04  9320   0.128E-01
  21 F= -.19216335E+03 E0= -.19207664E+03  d E =-.941442E-02
       N       E                     dE             d eps       ncg     rms          rms(c)
DAV:   1    -0.192179463857E+03   -0.16083E-01   -0.14606E+00  8160   0.261E+00    0.311E-01
DAV:   2    -0.192184173083E+03   -0.47092E-02   -0.45395E-02 11200   0.812E-01    0.504E-01
DAV:   3    -0.192182075420E+03    0.20977E-02   -0.93009E-03 12040   0.785E-01    0.320E-01
DAV:   4    -0.192181716481E+03    0.35894E-03   -0.25584E-03 11480   0.435E-01    0.282E-01
DAV:   5    -0.192180915026E+03    0.80146E-03   -0.16967E-03 10160   0.365E-01    0.112E-01
DAV:   6    -0.192180911844E+03    0.31819E-05   -0.62272E-04 10440   0.138E-01
  22 F= -.19218091E+03 E0= -.19209444E+03  d E =-.175588E-01
       N       E                     dE             d eps       ncg     rms          rms(c)
DAV:   1    -0.192180876864E+03    0.38161E-04   -0.32822E-04  9960   0.142E-01    0.823E-02
DAV:   2    -0.192182589319E+03   -0.17125E-02   -0.27435E-03 11160   0.461E-01    0.403E-01
DAV:   3    -0.192180779937E+03    0.18094E-02   -0.19146E-03 10160   0.384E-01    0.212E-02
DAV:   4    -0.192180804029E+03   -0.24092E-04   -0.30104E-05  6000   0.329E-02
  23 F= -.19218080E+03 E0= -.19209452E+03  d E =0.107815E-03
       N       E                     dE             d eps       ncg     rms          rms(c)
DAV:   1    -0.192181671864E+03   -0.89193E-03   -0.56498E-02  8160   0.510E-01    0.749E-02
DAV:   2    -0.192182366877E+03   -0.69501E-03   -0.26839E-03 12440   0.305E-01    0.244E-01
DAV:   3    -0.192181732563E+03    0.63431E-03   -0.96803E-04  9680   0.262E-01    0.569E-02
DAV:   4    -0.192181713099E+03    0.19464E-04   -0.10149E-04  6080   0.681E-02
  24 F= -.19218171E+03 E0= -.19209546E+03  d E =-.909070E-03
       N       E                     dE             d eps       ncg     rms          rms(c)
DAV:   1    -0.192193394132E+03   -0.11662E-01   -0.68100E-01  8160   0.178E+00    0.221E-01
DAV:   2    -0.192195910112E+03   -0.25160E-02   -0.22207E-02 10880   0.618E-01    0.402E-01
DAV:   3    -0.192194554373E+03    0.13557E-02   -0.50418E-03 12600   0.568E-01    0.220E-01
DAV:   4    -0.192194314557E+03    0.23982E-03   -0.13031E-03  9800   0.291E-01    0.171E-01
DAV:   5    -0.192194008279E+03    0.30628E-03   -0.73703E-04  9960   0.248E-01    0.812E-02
DAV:   6    -0.192194010869E+03   -0.25891E-05   -0.27322E-04  8880   0.112E-01
  25 F= -.19219401E+03 E0= -.19210786E+03  d E =-.122978E-01
       N       E                     dE             d eps       ncg     rms          rms(c)
DAV:   1    -0.192192978764E+03    0.10295E-02   -0.46066E-03 10160   0.174E-01    0.474E-02
DAV:   2    -0.192193493655E+03   -0.51489E-03   -0.88086E-04 11120   0.250E-01    0.218E-01
DAV:   3    -0.192192953607E+03    0.54005E-03   -0.52951E-04  8840   0.212E-01    0.160E-02
DAV:   4    -0.192192962040E+03   -0.84337E-05   -0.21101E-05  5880   0.202E-02
  26 F= -.19219296E+03 E0= -.19210675E+03  d E =0.104883E-02
       N       E                     dE             d eps       ncg     rms          rms(c)
DAV:   1    -0.192190433932E+03    0.25197E-02   -0.93971E-02  8160   0.658E-01    0.117E-01
DAV:   2    -0.192192378151E+03   -0.19442E-02   -0.66097E-03 11800   0.529E-01    0.417E-01
DAV:   3    -0.192190512531E+03    0.18656E-02   -0.23837E-03 11080   0.425E-01    0.650E-02
DAV:   4    -0.192190508837E+03    0.36940E-05   -0.22661E-04  8720   0.112E-01
  27 F= -.19219051E+03 E0= -.19210443E+03  d E =0.245320E-02
       N       E                     dE             d eps       ncg     rms          rms(c)
DAV:   1    -0.192178861744E+03    0.11651E-01   -0.99353E-01  8160   0.215E+00    0.366E-01
DAV:   2    -0.192194956185E+03   -0.16094E-01   -0.58161E-02 12240   0.149E+00    0.121E+00
DAV:   3    -0.192179705879E+03    0.15250E-01   -0.21882E-02 12400   0.128E+00    0.221E-01
DAV:   4    -0.192179258894E+03    0.44699E-03   -0.23211E-03 10560   0.249E-01    0.160E-01
DAV:   5    -0.192178909807E+03    0.34909E-03   -0.13715E-03 11680   0.209E-01    0.139E-01
DAV:   6    -0.192178960936E+03   -0.51129E-04   -0.11013E-03 10520   0.265E-01    0.155E-01
DAV:   7    -0.192178732615E+03    0.22832E-03   -0.56257E-04  8560   0.179E-01    0.682E-02
DAV:   8    -0.192178689637E+03    0.42979E-04   -0.11886E-04  6360   0.975E-02
  28 F= -.19217869E+03 E0= -.19209280E+03  d E =0.118192E-01
       N       E                     dE             d eps       ncg     rms          rms(c)
DAV:   1    -0.192203793992E+03   -0.25061E-01   -0.35092E+00  8160   0.404E+00    0.597E-01
DAV:   2    -0.192243562790E+03   -0.39769E-01   -0.17579E-01 12120   0.236E+00    0.174E+00
DAV:   3    -0.192208692869E+03    0.34870E-01   -0.49112E-02 12000   0.191E+00    0.387E-01
DAV:   4    -0.192208472097E+03    0.22077E-03   -0.72357E-03 11280   0.658E-01    0.412E-01
DAV:   5    -0.192206586933E+03    0.18852E-02   -0.51952E-03 12760   0.597E-01    0.227E-01
DAV:   6    -0.192206479854E+03    0.10708E-03   -0.26960E-03 12000   0.354E-01    0.218E-01
DAV:   7    -0.192206364265E+03    0.11559E-03   -0.17874E-03 11120   0.356E-01    0.202E-01
DAV:   8    -0.192205860610E+03    0.50366E-03   -0.69596E-04  8960   0.207E-01    0.288E-02
DAV:   9    -0.192205861591E+03   -0.98160E-06   -0.61823E-05  6440   0.322E-02
  29 F= -.19220586E+03 E0= -.19211937E+03  d E =-.271720E-01
       N       E                     dE             d eps       ncg     rms          rms(c)
DAV:   1    -0.192218992299E+03   -0.13132E-01   -0.86770E-01  8160   0.200E+00    0.245E-01
DAV:   2    -0.192221963403E+03   -0.29711E-02   -0.26273E-02 11280   0.665E-01    0.432E-01
DAV:   3    -0.192220130472E+03    0.18329E-02   -0.67550E-03 12440   0.631E-01    0.227E-01
DAV:   4    -0.192220105240E+03    0.25232E-04   -0.17228E-03 10360   0.340E-01    0.229E-01
DAV:   5    -0.192219553924E+03    0.55132E-03   -0.10529E-03  9960   0.299E-01    0.908E-02
DAV:   6    -0.192219531430E+03    0.22494E-04   -0.39397E-04  9200   0.113E-01
  30 F= -.19221953E+03 E0= -.19213242E+03  d E =-.136698E-01
       N       E                     dE             d eps       ncg     rms          rms(c)
DAV:   1    -0.192224146175E+03   -0.45923E-02   -0.10525E-01  8160   0.701E-01    0.991E-02
DAV:   2    -0.192224977225E+03   -0.83105E-03   -0.41235E-03 10680   0.342E-01    0.257E-01
DAV:   3    -0.192224244631E+03    0.73259E-03   -0.13664E-03 11000   0.300E-01    0.716E-02
DAV:   4    -0.192224292869E+03   -0.48238E-04   -0.23852E-04  8320   0.132E-01
  31 F= -.19222429E+03 E0= -.19213698E+03  d E =-.476144E-02
       N       E                     dE             d eps       ncg     rms          rms(c)
DAV:   1    -0.192229506344E+03   -0.52617E-02   -0.13752E-01  8160   0.809E-01    0.115E-01
DAV:   2    -0.192230093436E+03   -0.58709E-03   -0.51173E-03 11280   0.309E-01    0.214E-01
DAV:   3    -0.192229692832E+03    0.40060E-03   -0.14727E-03 10680   0.295E-01    0.109E-01
DAV:   4    -0.192229648975E+03    0.43857E-04   -0.33565E-04  8440   0.149E-01
  32 F= -.19222965E+03 E0= -.19214222E+03  d E =-.535611E-02
       N       E                     dE             d eps       ncg     rms          rms(c)
DAV:   1    -0.192241415604E+03   -0.11723E-01   -0.91151E-01  8160   0.207E+00    0.301E-01
DAV:   2    -0.192245498750E+03   -0.40831E-02   -0.38141E-02 11080   0.834E-01    0.559E-01
DAV:   3    -0.192242736470E+03    0.27623E-02   -0.93629E-03 12440   0.770E-01    0.278E-01
DAV:   4    -0.192242210871E+03    0.52560E-03   -0.23825E-03 11000   0.385E-01    0.206E-01
DAV:   5    -0.192241875806E+03    0.33507E-03   -0.13560E-03 10280   0.338E-01    0.135E-01
DAV:   6    -0.192241728343E+03    0.14746E-03   -0.70226E-04 10760   0.186E-01    0.778E-02
DAV:   7    -0.192241717998E+03    0.10345E-04   -0.30946E-04  9600   0.143E-01
  33 F= -.19224172E+03 E0= -.19215433E+03  d E =-.120690E-01
       N       E                     dE             d eps       ncg     rms          rms(c)
DAV:   1    -0.192232448239E+03    0.92801E-02   -0.84508E-01  8160   0.201E+00    0.317E-01
DAV:   2    -0.192237340246E+03   -0.48920E-02   -0.37719E-02 12640   0.894E-01    0.641E-01
DAV:   3    -0.192233165618E+03    0.41746E-02   -0.10767E-02 12400   0.893E-01    0.304E-01
DAV:   4    -0.192232574320E+03    0.59130E-03   -0.30435E-03 11400   0.407E-01    0.223E-01
DAV:   5    -0.192232098132E+03    0.47619E-03   -0.18685E-03 10960   0.360E-01    0.155E-01
DAV:   6    -0.192231851215E+03    0.24692E-03   -0.90338E-04 10320   0.208E-01    0.716E-02
DAV:   7    -0.192231798951E+03    0.52263E-04   -0.28242E-04  8800   0.993E-02
  34 F= -.19223180E+03 E0= -.19214600E+03  d E =0.991905E-02
       N       E                     dE             d eps       ncg     rms          rms(c)
DAV:   1    -0.192254134904E+03   -0.22284E-01   -0.27009E+00  8160   0.364E+00    0.599E-01
DAV:   2    -0.192264572633E+03   -0.10438E-01   -0.11207E-01 12520   0.147E+00    0.106E+00
DAV:   3    -0.192254587683E+03    0.99849E-02   -0.34442E-02 12320   0.158E+00    0.637E-01
DAV:   4    -0.192251108835E+03    0.34788E-02   -0.11530E-02 12240   0.800E-01    0.390E-01
DAV:   5    -0.192249726742E+03    0.13821E-02   -0.74884E-03 12200   0.687E-01    0.313E-01
DAV:   6    -0.192248643033E+03    0.10837E-02   -0.33016E-03 11560   0.430E-01    0.127E-01
DAV:   7    -0.192248383304E+03    0.25973E-03   -0.97442E-04 10200   0.154E-01    0.584E-02
DAV:   8    -0.192248390207E+03   -0.69022E-05   -0.20856E-04  7920   0.115E-01
  35 F= -.19224839E+03 E0= -.19215947E+03  d E =-.165913E-01
       N       E                     dE             d eps       ncg     rms          rms(c)
DAV:   1    -0.192257872956E+03   -0.94897E-02   -0.55906E-01  8160   0.160E+00    0.216E-01
DAV:   2    -0.192260879772E+03   -0.30068E-02   -0.21771E-02 10920   0.718E-01    0.468E-01
DAV:   3    -0.192258554949E+03    0.23248E-02   -0.65367E-03 11960   0.608E-01    0.174E-01
DAV:   4    -0.192258621930E+03   -0.66981E-04   -0.13100E-03  9720   0.301E-01    0.196E-01
DAV:   5    -0.192258198332E+03    0.42360E-03   -0.77066E-04  9800   0.258E-01    0.755E-02
DAV:   6    -0.192258166652E+03    0.31680E-04   -0.30323E-04  8160   0.986E-02
  36 F= -.19225817E+03 E0= -.19216876E+03  d E =-.977645E-02
       N       E                     dE             d eps       ncg     rms          rms(c)
DAV:   1    -0.192269668123E+03   -0.11470E-01   -0.10053E+00  8160   0.214E+00    0.260E-01
DAV:   2    -0.192273004643E+03   -0.33365E-02   -0.33037E-02 11160   0.659E-01    0.419E-01
DAV:   3    -0.192271444795E+03    0.15598E-02   -0.81413E-03 12360   0.660E-01    0.262E-01
DAV:   4    -0.192271184496E+03    0.26030E-03   -0.19797E-03 10720   0.357E-01    0.220E-01
DAV:   5    -0.192270683002E+03    0.50149E-03   -0.10368E-03  9840   0.301E-01    0.100E-01
DAV:   6    -0.192270658618E+03    0.24384E-04   -0.51457E-04  9680   0.127E-01
  37 F= -.19227066E+03 E0= -.19218065E+03  d E =-.124920E-01
       N       E                     dE             d eps       ncg     rms          rms(c)
DAV:   1    -0.192290711464E+03   -0.20028E-01   -0.54361E+00  8160   0.497E+00    0.597E-01
DAV:   2    -0.192311494460E+03   -0.20783E-01   -0.18072E-01 11040   0.179E+00    0.109E+00
DAV:   3    -0.192298941134E+03    0.12553E-01   -0.48110E-02 12360   0.157E+00    0.524E-01
DAV:   4    -0.192298667488E+03    0.27365E-03   -0.10647E-02 12360   0.815E-01    0.526E-01
DAV:   5    -0.192295770491E+03    0.28970E-02   -0.60524E-03 10200   0.710E-01    0.228E-01
DAV:   6    -0.192295490982E+03    0.27951E-03   -0.27014E-03 11640   0.291E-01    0.139E-01
DAV:   7    -0.192295154279E+03    0.33670E-03   -0.99277E-04 10640   0.162E-01    0.819E-02
DAV:   8    -0.192295100932E+03    0.53346E-04   -0.19892E-04  9120   0.122E-01
  38 F= -.19229510E+03 E0= -.19220447E+03  d E =-.244423E-01
       N       E                     dE             d eps       ncg     rms          rms(c)
DAV:   1    -0.192305667749E+03   -0.10513E-01   -0.94832E+00  8160   0.656E+00    0.744E-01
DAV:   2    -0.192332490137E+03   -0.26822E-01   -0.29916E-01 11120   0.183E+00    0.105E+00
DAV:   3    -0.192324849002E+03    0.76411E-02   -0.66627E-02 12360   0.182E+00    0.806E-01
DAV:   4    -0.192320196224E+03    0.46528E-02   -0.18372E-02 12560   0.104E+00    0.550E-01
DAV:   5    -0.192317346514E+03    0.28497E-02   -0.84299E-03 10880   0.820E-01    0.317E-01
DAV:   6    -0.192316746167E+03    0.60035E-03   -0.45350E-03 12240   0.425E-01    0.184E-01
DAV:   7    -0.192316099726E+03    0.64644E-03   -0.16331E-03 10640   0.199E-01    0.741E-02
DAV:   8    -0.192316080695E+03    0.19030E-04   -0.28132E-04  9720   0.135E-01
  39 F= -.19231608E+03 E0= -.19222672E+03  d E =-.209798E-01
       N       E                     dE             d eps       ncg     rms          rms(c)
DAV:   1    -0.192316089279E+03    0.10447E-04   -0.30167E-01  8160   0.119E+00    0.152E-01
DAV:   2    -0.192317375446E+03   -0.12862E-02   -0.88943E-03 11840   0.458E-01    0.324E-01
DAV:   3    -0.192316227950E+03    0.11475E-02   -0.32070E-03 12400   0.438E-01    0.123E-01
DAV:   4    -0.192316215412E+03    0.12538E-04   -0.57072E-04  9400   0.188E-01
  40 F= -.19231622E+03 E0= -.19222727E+03  d E =-.134717E-03
       N       E                     dE             d eps       ncg     rms          rms(c)
DAV:   1    -0.192317160772E+03   -0.93282E-03   -0.57281E-02  8200   0.527E-01    0.949E-02
DAV:   2    -0.192317352239E+03   -0.19147E-03   -0.23943E-03 11720   0.232E-01    0.153E-01
DAV:   3    -0.192317136062E+03    0.21618E-03   -0.69889E-04  9800   0.237E-01    0.885E-02
DAV:   4    -0.192317087246E+03    0.48816E-04   -0.26502E-04  7720   0.131E-01
  41 F= -.19231709E+03 E0= -.19222859E+03  d E =-.871834E-03
       N       E                     dE             d eps       ncg     rms          rms(c)
DAV:   1    -0.192319314593E+03   -0.21785E-02   -0.14576E-01  8160   0.816E-01    0.927E-02
DAV:   2    -0.192319731605E+03   -0.41701E-03   -0.45290E-03 12480   0.228E-01    0.126E-01
DAV:   3    -0.192319615336E+03    0.11627E-03   -0.85535E-04 11080   0.222E-01    0.982E-02
DAV:   4    -0.192319544741E+03    0.70594E-04   -0.28570E-04  7600   0.130E-01
  42 F= -.19231954E+03 E0= -.19223157E+03  d E =-.245750E-02
       N       E                     dE             d eps       ncg     rms          rms(c)
DAV:   1    -0.192322529814E+03   -0.29145E-02   -0.29136E-01  8160   0.115E+00    0.142E-01
DAV:   2    -0.192323299292E+03   -0.76948E-03   -0.91275E-03 12680   0.321E-01    0.182E-01
DAV:   3    -0.192323129990E+03    0.16930E-03   -0.16294E-03 12480   0.340E-01    0.166E-01
DAV:   4    -0.192322903044E+03    0.22695E-03   -0.62633E-04  9240   0.204E-01    0.862E-02
DAV:   5    -0.192322843309E+03    0.59736E-04   -0.38283E-04  9000   0.138E-01
  43 F= -.19232284E+03 E0= -.19223557E+03  d E =-.329857E-02
       N       E                     dE             d eps       ncg     rms          rms(c)
DAV:   1    -0.192326356321E+03   -0.34533E-02   -0.59679E-01  8160   0.165E+00    0.191E-01
DAV:   2    -0.192328127921E+03   -0.17716E-02   -0.19396E-02 12840   0.492E-01    0.260E-01
DAV:   3    -0.192327630260E+03    0.49766E-03   -0.29250E-03 11960   0.460E-01    0.188E-01
DAV:   4    -0.192327313712E+03    0.31655E-03   -0.70341E-04 11000   0.231E-01    0.114E-01
DAV:   5    -0.192327250452E+03    0.63260E-04   -0.46718E-04  9480   0.194E-01
  44 F= -.19232725E+03 E0= -.19224158E+03  d E =-.440714E-02
       N       E                     dE             d eps       ncg     rms          rms(c)
DAV:   1    -0.192330546792E+03   -0.32331E-02   -0.74717E-01  8160   0.184E+00    0.210E-01
DAV:   2    -0.192332448458E+03   -0.19017E-02   -0.22468E-02 12960   0.554E-01    0.277E-01
DAV:   3    -0.192331935893E+03    0.51256E-03   -0.31597E-03 12040   0.491E-01    0.202E-01
DAV:   4    -0.192331556818E+03    0.37907E-03   -0.83329E-04 10600   0.259E-01    0.126E-01
DAV:   5    -0.192331492668E+03    0.64150E-04   -0.62237E-04  9840   0.219E-01
  45 F= -.19233149E+03 E0= -.19224766E+03  d E =-.424222E-02
       N       E                     dE             d eps       ncg     rms          rms(c)
DAV:   1    -0.192333210532E+03   -0.16537E-02   -0.43818E+00  8160   0.446E+00    0.481E-01
DAV:   2    -0.192342782656E+03   -0.95721E-02   -0.13014E-01 12040   0.110E+00    0.486E-01
DAV:   3    -0.192343744942E+03   -0.96229E-03   -0.16257E-02 12440   0.108E+00    0.600E-01
DAV:   4    -0.192339870736E+03    0.38742E-02   -0.60364E-03 12400   0.724E-01    0.245E-01
DAV:   5    -0.192339605265E+03    0.26547E-03   -0.30994E-03 11920   0.416E-01    0.222E-01
DAV:   6    -0.192339441708E+03    0.16356E-03   -0.21946E-03 11800   0.375E-01    0.159E-01
DAV:   7    -0.192339032725E+03    0.40898E-03   -0.81373E-04 10560   0.181E-01    0.461E-02
DAV:   8    -0.192339036870E+03   -0.41452E-05   -0.12859E-04  7080   0.894E-02
  46 F= -.19233904E+03 E0= -.19226002E+03  d E =-.754420E-02
       N       E                     dE             d eps       ncg     rms          rms(c)
DAV:   1    -0.192338888786E+03    0.14394E-03   -0.82667E-02  8240   0.633E-01    0.100E-01
DAV:   2    -0.192339206876E+03   -0.31809E-03   -0.33584E-03 11640   0.287E-01    0.184E-01
DAV:   3    -0.192338870538E+03    0.33634E-03   -0.84078E-04 10520   0.262E-01    0.849E-02
DAV:   4    -0.192338785064E+03    0.85473E-04   -0.21506E-04  7840   0.117E-01
  47 F= -.19233879E+03 E0= -.19225881E+03  d E =0.251806E-03
