<?xml version="1.0" encoding="ISO-8859-1"?>
<modeling>
 <generator>
  <i name="program" type="string">vasp </i>
  <i name="version" type="string">5.4.1  </i>
  <i name="subversion" type="string">05Feb16 (build Jul 05 2020 17:13:04) complex                          parallel </i>
  <i name="platform" type="string">IFC91_ompi </i>
  <i name="date" type="string">2024 04 22 </i>
  <i name="time" type="string">11:28:05 </i>
 </generator>
 <incar>
  <i type="int" name="ISTART">     0</i>
  <i type="string" name="PREC">normal</i>
  <i type="string" name="ALGO"> Normal</i>
  <i type="int" name="ISPIN">     1</i>
  <i type="int" name="ICHARG">     2</i>
  <i type="int" name="IBRION">     1</i>
  <i type="int" name="NSW">   100</i>
  <i type="int" name="ISIF">     3</i>
  <i type="int" name="ISYM">     0</i>
  <i name="SYMPREC">      0.00000001</i>
  <i name="POTIM">      0.50000000</i>
  <i type="logical" name="LREAL"> F  </i>
  <i type="logical" name="LPLANE"> F  </i>
  <i type="int" name="ISMEAR">     0</i>
  <i type="logical" name="LWAVE"> F  </i>
  <i type="logical" name="LCHARG"> F  </i>
  <v type="int" name="KPOINT_BSE">    -1     0     0     0</v>
 </incar>
 <kpoints>
  <generation param="Gamma">
   <v type="int" name="divisions">       8        8        1 </v>
   <v name="usershift">      0.00000000       0.00000000       0.00000000 </v>
   <v name="genvec1">      0.12500000       0.00000000       0.00000000 </v>
   <v name="genvec2">     -0.00000000       0.12500000       0.00000000 </v>
   <v name="genvec3">      0.00000000       0.00000000       1.00000000 </v>
   <v name="shift">      0.00000000       0.00000000       0.00000000 </v>
  </generation>
  <varray name="kpointlist" >
   <v>       0.00000000       0.00000000       0.00000000 </v>
   <v>       0.12500000       0.00000000       0.00000000 </v>
   <v>       0.25000000       0.00000000       0.00000000 </v>
   <v>       0.37500000       0.00000000       0.00000000 </v>
   <v>       0.50000000       0.00000000       0.00000000 </v>
   <v>       0.00000000       0.12500000       0.00000000 </v>
   <v>       0.12500000       0.12500000       0.00000000 </v>
   <v>       0.25000000       0.12500000       0.00000000 </v>
   <v>       0.37500000       0.12500000       0.00000000 </v>
   <v>       0.50000000       0.12500000       0.00000000 </v>
   <v>      -0.37500000       0.12500000       0.00000000 </v>
   <v>      -0.25000000       0.12500000       0.00000000 </v>
   <v>      -0.12500000       0.12500000       0.00000000 </v>
   <v>       0.00000000       0.25000000       0.00000000 </v>
   <v>       0.12500000       0.25000000       0.00000000 </v>
   <v>       0.25000000       0.25000000       0.00000000 </v>
   <v>       0.37500000       0.25000000       0.00000000 </v>
   <v>       0.50000000       0.25000000       0.00000000 </v>
   <v>      -0.37500000       0.25000000       0.00000000 </v>
   <v>      -0.25000000       0.25000000       0.00000000 </v>
   <v>      -0.12500000       0.25000000       0.00000000 </v>
   <v>      -0.00000000       0.37500000       0.00000000 </v>
   <v>       0.12500000       0.37500000       0.00000000 </v>
   <v>       0.25000000       0.37500000       0.00000000 </v>
   <v>       0.37500000       0.37500000       0.00000000 </v>
   <v>       0.50000000       0.37500000       0.00000000 </v>
   <v>      -0.37500000       0.37500000       0.00000000 </v>
   <v>      -0.25000000       0.37500000       0.00000000 </v>
   <v>      -0.12500000       0.37500000       0.00000000 </v>
   <v>       0.00000000       0.50000000       0.00000000 </v>
   <v>       0.12500000       0.50000000       0.00000000 </v>
   <v>       0.25000000       0.50000000       0.00000000 </v>
   <v>       0.37500000       0.50000000       0.00000000 </v>
   <v>       0.50000000       0.50000000       0.00000000 </v>
  </varray>
  <varray name="weights" >
   <v>       0.01562500 </v>
   <v>       0.03125000 </v>
   <v>       0.03125000 </v>
   <v>       0.03125000 </v>
   <v>       0.01562500 </v>
   <v>       0.03125000 </v>
   <v>       0.03125000 </v>
   <v>       0.03125000 </v>
   <v>       0.03125000 </v>
   <v>       0.03125000 </v>
   <v>       0.03125000 </v>
   <v>       0.03125000 </v>
   <v>       0.03125000 </v>
   <v>       0.03125000 </v>
   <v>       0.03125000 </v>
   <v>       0.03125000 </v>
   <v>       0.03125000 </v>
   <v>       0.03125000 </v>
   <v>       0.03125000 </v>
   <v>       0.03125000 </v>
   <v>       0.03125000 </v>
   <v>       0.03125000 </v>
   <v>       0.03125000 </v>
   <v>       0.03125000 </v>
   <v>       0.03125000 </v>
   <v>       0.03125000 </v>
   <v>       0.03125000 </v>
   <v>       0.03125000 </v>
   <v>       0.03125000 </v>
   <v>       0.01562500 </v>
   <v>       0.03125000 </v>
   <v>       0.03125000 </v>
   <v>       0.03125000 </v>
   <v>       0.01562500 </v>
  </varray>
 </kpoints>
 <parameters>
  <separator name="general" >
   <i type="string" name="SYSTEM">unknown system</i>
   <i type="logical" name="LCOMPAT"> F  </i>
  </separator>
  <separator name="electronic" >
   <i type="string" name="PREC">normal</i>
   <i name="ENMAX">    280.00000000</i>
   <i name="ENAUG">    373.43800000</i>
   <i name="EDIFF">      0.00010000</i>
   <i type="int" name="IALGO">    38</i>
   <i type="int" name="IWAVPR">    11</i>
   <i type="int" name="NBANDS">   120</i>
   <i name="NELECT">    159.00000000</i>
   <i type="int" name="TURBO">     0</i>
   <i type="int" name="IRESTART">     0</i>
   <i type="int" name="NREBOOT">     0</i>
   <i type="int" name="NMIN">     0</i>
   <i name="EREF">      0.00000000</i>
   <separator name="electronic smearing" >
    <i type="int" name="ISMEAR">     0</i>
    <i name="SIGMA">      0.20000000</i>
    <i name="KSPACING">      0.50000000</i>
    <i type="logical" name="KGAMMA"> T  </i>
   </separator>
   <separator name="electronic projectors" >
    <i type="logical" name="LREAL"> F  </i>
    <v name="ROPT">      0.00000000      0.00000000      0.00000000      0.00000000</v>
    <i type="int" name="LMAXPAW">  -100</i>
    <i type="int" name="LMAXMIX">     2</i>
    <i type="logical" name="NLSPLINE"> F  </i>
   </separator>
   <separator name="electronic startup" >
    <i type="int" name="ISTART">     0</i>
    <i type="int" name="ICHARG">     2</i>
    <i type="int" name="INIWAV">     1</i>
   </separator>
   <separator name="electronic spin" >
    <i type="int" name="ISPIN">     1</i>
    <i type="logical" name="LNONCOLLINEAR"> F  </i>
    <v name="MAGMOM">      1.00000000      1.00000000      1.00000000      1.00000000      1.00000000      1.00000000      1.00000000      1.00000000      1.00000000      1.00000000      1.00000000      1.00000000      1.00000000      1.00000000      1.00000000      1.00000000      1.00000000      1.00000000      1.00000000      1.00000000
      1.00000000      1.00000000      1.00000000      1.00000000      1.00000000      1.00000000      1.00000000</v>
    <i name="NUPDOWN">     -1.00000000</i>
    <i type="logical" name="LSORBIT"> F  </i>
    <v name="SAXIS">      0.00000000      0.00000000      1.00000000</v>
    <i type="logical" name="LSPIRAL"> F  </i>
    <v name="QSPIRAL">      0.00000000      0.00000000      0.00000000</v>
    <i type="logical" name="LZEROZ"> F  </i>
   </separator>
   <separator name="electronic exchange-correlation" >
    <i type="logical" name="LASPH"> F  </i>
    <i type="logical" name="LMETAGGA"> F  </i>
   </separator>
   <separator name="electronic convergence" >
    <i type="int" name="NELM">    60</i>
    <i type="int" name="NELMDL">    -5</i>
    <i type="int" name="NELMIN">     2</i>
    <i name="ENINI">    280.00000000</i>
    <separator name="electronic convergence detail" >
     <i type="logical" name="LDIAG"> T  </i>
     <i type="logical" name="LSUBROT"> F  </i>
     <i name="WEIMIN">      0.00100000</i>
     <i name="EBREAK">      0.00000021</i>
     <i name="DEPER">      0.30000000</i>
     <i type="int" name="NRMM">     4</i>
     <i name="TIME">      0.40000000</i>
    </separator>
   </separator>
   <separator name="electronic mixer" >
    <i name="AMIX">      0.40000000</i>
    <i name="BMIX">      1.00000000</i>
    <i name="AMIN">      0.10000000</i>
    <i name="AMIX_MAG">      1.60000000</i>
    <i name="BMIX_MAG">      1.00000000</i>
    <separator name="electronic mixer details" >
     <i type="int" name="IMIX">     4</i>
     <i type="logical" name="MIXFIRST"> F  </i>
     <i type="int" name="MAXMIX">   -45</i>
     <i name="WC">    100.00000000</i>
     <i type="int" name="INIMIX">     1</i>
     <i type="int" name="MIXPRE">     1</i>
     <i type="int" name="MREMOVE">     5</i>
    </separator>
   </separator>
   <separator name="electronic dipolcorrection" >
    <i type="logical" name="LDIPOL"> F  </i>
    <i type="logical" name="LMONO"> F  </i>
    <i type="int" name="IDIPOL">     0</i>
    <i name="EPSILON">      1.00000000</i>
    <v name="DIPOL">   -100.00000000   -100.00000000   -100.00000000</v>
    <i name="EFIELD">      0.00000000</i>
   </separator>
  </separator>
  <separator name="grids" >
   <i type="int" name="NGX">    42</i>
   <i type="int" name="NGY">    42</i>
   <i type="int" name="NGZ">   126</i>
   <i type="int" name="NGXF">    84</i>
   <i type="int" name="NGYF">    84</i>
   <i type="int" name="NGZF">   252</i>
   <i type="logical" name="ADDGRID"> F  </i>
  </separator>
  <separator name="ionic" >
   <i type="int" name="NSW">   100</i>
   <i type="int" name="IBRION">     1</i>
   <i type="int" name="ISIF">     3</i>
   <i name="PSTRESS">      0.00000000</i>
   <i name="EDIFFG">      0.00100000</i>
   <i type="int" name="NFREE">     0</i>
   <i name="POTIM">      0.50000000</i>
   <i name="SMASS">     -3.00000000</i>
   <i name="SCALEE">      1.00000000</i>
  </separator>
  <separator name="ionic md" >
   <i name="TEBEG">      0.00010000</i>
   <i name="TEEND">      0.00010000</i>
   <i type="int" name="NBLOCK">     1</i>
   <i type="int" name="KBLOCK">   100</i>
   <i type="int" name="NPACO">   256</i>
   <i name="APACO">     16.00000000</i>
  </separator>
  <separator name="symmetry" >
   <i type="int" name="ISYM">     0</i>
   <i name="SYMPREC">      0.00000001</i>
  </separator>
  <separator name="dos" >
   <i type="logical" name="LORBIT"> F  </i>
   <v name="RWIGS">     -1.00000000     -1.00000000     -1.00000000     -1.00000000</v>
   <i type="int" name="NEDOS">   301</i>
   <i name="EMIN">     10.00000000</i>
   <i name="EMAX">    -10.00000000</i>
   <i name="EFERMI">      0.00000000</i>
  </separator>
  <separator name="writing" >
   <i type="int" name="NWRITE">     2</i>
   <i type="logical" name="LWAVE"> F  </i>
   <i type="logical" name="LCHARG"> F  </i>
   <i type="logical" name="LPARD"> F  </i>
   <i type="logical" name="LVTOT"> F  </i>
   <i type="logical" name="LVHAR"> F  </i>
   <i type="logical" name="LELF"> F  </i>
   <i type="logical" name="LOPTICS"> F  </i>
   <v name="STM">      0.00000000      0.00000000      0.00000000      0.00000000      0.00000000      0.00000000      0.00000000</v>
  </separator>
  <separator name="performance" >
   <i type="int" name="NPAR">    40</i>
   <i type="int" name="NSIM">     4</i>
   <i type="int" name="NBLK">    -1</i>
   <i type="logical" name="LPLANE"> F  </i>
   <i type="logical" name="LSCALAPACK"> T  </i>
   <i type="logical" name="LSCAAWARE"> F  </i>
   <i type="logical" name="LSCALU"> F  </i>
   <i type="logical" name="LASYNC"> F  </i>
   <i type="logical" name="LORBITALREAL"> F  </i>
  </separator>
  <separator name="miscellaneous" >
   <i type="int" name="IDIOT">     3</i>
   <i type="logical" name="LMUSIC"> F  </i>
   <v name="POMASS">     50.94100000     95.94000000    183.85000000     32.06600000</v>
   <v name="DARWINR">      0.00000000      0.00000000      0.00000000      0.00000000</v>
   <v name="DARWINV">      1.00000000      1.00000000      1.00000000      1.00000000</v>
   <i type="logical" name="LCORR"> T  </i>
  </separator>
  <i type="logical" name="GGA_COMPAT"> T  </i>
  <i type="logical" name="LBERRY"> F  </i>
  <i type="int" name="ICORELEVEL">     0</i>
  <i type="logical" name="LDAU"> F  </i>
  <i type="int" name="I_CONSTRAINED_M">     0</i>
  <separator name="electronic exchange-correlation" >
   <i type="string" name="GGA">--</i>
   <i type="int" name="VOSKOWN">     0</i>
   <i type="logical" name="LHFCALC"> F  </i>
   <i type="string" name="PRECFOCK"></i>
   <i type="logical" name="LSYMGRAD"> F  </i>
   <i type="logical" name="LHFONE"> F  </i>
   <i type="logical" name="LRHFCALC"> F  </i>
   <i type="logical" name="LTHOMAS"> F  </i>
   <i type="logical" name="LMODELHF"> F  </i>
   <i name="ENCUT4O">     -1.00000000</i>
   <i type="int" name="EXXOEP">     0</i>
   <i type="int" name="FOURORBIT">     0</i>
   <i name="AEXX">      0.00000000</i>
   <i name="HFALPHA">      0.00000000</i>
   <i name="MCALPHA">      0.00000000</i>
   <i name="ALDAX">      1.00000000</i>
   <i name="AGGAX">      1.00000000</i>
   <i name="ALDAC">      1.00000000</i>
   <i name="AGGAC">      1.00000000</i>
   <i type="int" name="NKREDX">     1</i>
   <i type="int" name="NKREDY">     1</i>
   <i type="int" name="NKREDZ">     1</i>
   <i type="logical" name="SHIFTRED"> F  </i>
   <i type="logical" name="ODDONLY"> F  </i>
   <i type="logical" name="EVENONLY"> F  </i>
   <i type="int" name="LMAXFOCK">     0</i>
   <i type="int" name="NMAXFOCKAE">     0</i>
   <i type="logical" name="LFOCKAEDFT"> F  </i>
   <i name="HFSCREEN">      0.00000000</i>
   <i name="HFSCREENC">      0.00000000</i>
   <i type="int" name="NBANDSGWLOW">     0</i>
  </separator>
  <separator name="vdW DFT" >
   <i type="logical" name="LUSE_VDW"> F  </i>
   <i name="Zab_VDW">     -0.84910000</i>
   <i name="PARAM1">      0.12340000</i>
   <i name="PARAM2">      1.00000000</i>
   <i name="PARAM3">      0.00000000</i>
  </separator>
  <separator name="model GW" >
   <i type="int" name="MODEL_GW">     0</i>
   <i name="MODEL_EPS0">     58.26239943</i>
   <i name="MODEL_ALPHA">      1.00000000</i>
  </separator>
  <separator name="linear response parameters" >
   <i type="logical" name="LEPSILON"> F  </i>
   <i type="logical" name="LRPA"> F  </i>
   <i type="logical" name="LNABLA"> F  </i>
   <i type="logical" name="LVEL"> F  </i>
   <i type="int" name="KINTER">     0</i>
   <i name="CSHIFT">      0.10000000</i>
   <i name="OMEGAMAX">     -1.00000000</i>
   <i name="DEG_THRESHOLD">      0.00200000</i>
  </separator>
  <separator name="orbital magnetization" >
   <i type="logical" name="NUCIND"> F  </i>
   <v name="MAGPOS">      0.00000000      0.00000000      0.00000000</v>
   <i type="logical" name="LNICSALL"> T  </i>
   <i type="logical" name="ORBITALMAG"> F  </i>
   <i type="logical" name="LMAGBLOCH"> F  </i>
   <i type="logical" name="LCHIMAG"> F  </i>
   <i type="logical" name="LGAUGE"> T  </i>
   <i type="int" name="MAGATOM">     0</i>
   <v name="MAGDIPOL">      0.00000000      0.00000000      0.00000000</v>
   <v name="AVECCONST">      0.00000000      0.00000000      0.00000000</v>
  </separator>
  <separator name="response functions" >
   <i type="logical" name="LADDER"> F  </i>
   <i type="logical" name="LFXC"> F  </i>
   <i type="logical" name="LHARTREE"> T  </i>
   <i type="int" name="IBSE">     0</i>
   <v type="int" name="KPOINT">    -1     0     0     0</v>
   <i type="logical" name="LTCTE"> F  </i>
   <i type="logical" name="LTETE"> F  </i>
   <i type="logical" name="LTRIPLET"> F  </i>
   <i type="logical" name="LFXCEPS"> F  </i>
   <i type="logical" name="LFXHEG"> F  </i>
   <i type="int" name="NATURALO">     0</i>
   <i type="logical" name="L2ORDER"> F  </i>
   <i type="logical" name="LUSEW"> F  </i>
   <i name="ENCUTGW">     -2.00000000</i>
   <i name="ENCUTGWSOFT">     -2.00000000</i>
   <i name="ENCUTLF">     -1.00000000</i>
   <i type="int" name="LMAXMP2">    -1</i>
   <i name="SCISSOR">      0.00000000</i>
   <i type="int" name="NOMEGA">     0</i>
   <i type="int" name="NOMEGAR">     0</i>
   <i type="int" name="NBANDSGW">    -1</i>
   <i type="int" name="NBANDSO">    -1</i>
   <i type="int" name="NBANDSV">    -1</i>
   <i type="int" name="NELM">     1</i>
   <i type="int" name="NELMHF">     1</i>
   <i type="int" name="DIM">     3</i>
   <i type="int" name="ANTIRES">     0</i>
   <i name="OMEGAMAX">    -30.00000000</i>
   <i name="OMEGAMIN">    -30.00000000</i>
   <i name="OMEGATL">   -200.00000000</i>
   <i type="int" name="OMEGAGRID">     0</i>
   <i name="CSHIFT">     -0.10000000</i>
   <i type="logical" name="SELFENERGY"> F  </i>
   <i type="logical" name="LSPECTRAL"> F  </i>
   <i type="logical" name="LSPECTRALGW"> F  </i>
   <i type="logical" name="LSINGLES"> F  </i>
   <i type="logical" name="LFERMIGW"> F  </i>
   <i type="logical" name="ODDONLYGW"> F  </i>
   <i type="logical" name="EVENONLYGW"> F  </i>
   <i type="int" name="NKREDLFX">     1</i>
   <i type="int" name="NKREDLFY">     1</i>
   <i type="int" name="NKREDLFZ">     1</i>
   <i type="int" name="MAXMEM">  1800</i>
   <i type="int" name="TELESCOPE">     0</i>
   <i type="int" name="TAUPAR">     1</i>
   <i type="int" name="OMEGAPAR">    -1</i>
   <i name="LAMBDA">      1.00000000</i>
  </separator>
  <separator name="External order field" >
   <i name="OFIELD_KAPPA">      0.00000000</i>
   <v name="OFIELD_K">      0.00000000      0.00000000      0.00000000</v>
   <i name="OFIELD_Q6_NEAR">      0.00000000</i>
   <i name="OFIELD_Q6_FAR">      0.00000000</i>
   <i name="OFIELD_A">      0.00000000</i>
  </separator>
 </parameters>
 <atominfo>
  <atoms>      27 </atoms>
  <types>       4 </types>
  <array name="atoms" >
   <dimension dim="1">ion</dimension>
   <field type="string">element</field>
   <field type="int">atomtype</field>
   <set>
    <rc><c>V </c><c>   1</c></rc>
    <rc><c>V </c><c>   1</c></rc>
    <rc><c>V </c><c>   1</c></rc>
    <rc><c>Mo</c><c>   2</c></rc>
    <rc><c>Mo</c><c>   2</c></rc>
    <rc><c>Mo</c><c>   2</c></rc>
    <rc><c>W </c><c>   3</c></rc>
    <rc><c>W </c><c>   3</c></rc>
    <rc><c>W </c><c>   3</c></rc>
    <rc><c>S </c><c>   4</c></rc>
    <rc><c>S </c><c>   4</c></rc>
    <rc><c>S </c><c>   4</c></rc>
    <rc><c>S </c><c>   4</c></rc>
    <rc><c>S </c><c>   4</c></rc>
    <rc><c>S </c><c>   4</c></rc>
    <rc><c>S </c><c>   4</c></rc>
    <rc><c>S </c><c>   4</c></rc>
    <rc><c>S </c><c>   4</c></rc>
    <rc><c>S </c><c>   4</c></rc>
    <rc><c>S </c><c>   4</c></rc>
    <rc><c>S </c><c>   4</c></rc>
    <rc><c>S </c><c>   4</c></rc>
    <rc><c>S </c><c>   4</c></rc>
    <rc><c>S </c><c>   4</c></rc>
    <rc><c>S </c><c>   4</c></rc>
    <rc><c>S </c><c>   4</c></rc>
    <rc><c>S </c><c>   4</c></rc>
   </set>
  </array>
  <array name="atomtypes" >
   <dimension dim="1">type</dimension>
   <field type="int">atomspertype</field>
   <field type="string">element</field>
   <field>mass</field>
   <field>valence</field>
   <field type="string">pseudopotential</field>
   <set>
    <rc><c>   3</c><c>V </c><c>     50.94100000</c><c>      5.00000000</c><c> PAW_PBE V 08Apr2002                    </c></rc>
    <rc><c>   3</c><c>Mo</c><c>     95.94000000</c><c>      6.00000000</c><c> PAW_PBE Mo 08Apr2002                   </c></rc>
    <rc><c>   3</c><c>W </c><c>    183.85000000</c><c>      6.00000000</c><c> PAW_PBE W 08Apr2002                    </c></rc>
    <rc><c>  18</c><c>S </c><c>     32.06600000</c><c>      6.00000000</c><c>  PAW_PBE S 17Jan2003                   </c></rc>
   </set>
  </array>
 </atominfo>
 <structure name="initialpos" >
  <crystal>
   <varray name="basis" >
    <v>       8.66999996       5.03999989       0.00000000 </v>
    <v>      -8.66999982       5.04000013       0.00000000 </v>
    <v>       0.00000000       0.00000000      30.00000000 </v>
   </varray>
   <i name="volume">   2621.80797419 </i>
   <varray name="rec_basis" >
    <v>       0.05767013       0.09920635       0.00000000 </v>
    <v>      -0.05767013       0.09920635       0.00000000 </v>
    <v>       0.00000000       0.00000000       0.03333333 </v>
   </varray>
  </crystal>
  <varray name="positions" >
   <v>       0.66666669       0.00000000       0.00000000 </v>
   <v>       0.33333334       0.00000000       0.00000000 </v>
   <v>       0.33333334       0.66666669       0.00000000 </v>
   <v>       0.66666669       0.66666669       0.00000000 </v>
   <v>       1.00000000       0.33333334       0.00000000 </v>
   <v>       0.33333334       0.33333334       0.00000000 </v>
   <v>       0.00000000       0.00000000       0.00000000 </v>
   <v>       0.00000000       0.66666669       0.00000000 </v>
   <v>       0.66666669       0.33333334       0.00000000 </v>
   <v>       0.11068511       0.22244981       0.95539999 </v>
   <v>       0.22244981       0.11068511       0.04460000 </v>
   <v>       0.11068511       0.55578315       0.95539999 </v>
   <v>       0.22244981       0.44401845       0.04460000 </v>
   <v>       0.11068511       0.88911647       0.95539999 </v>
   <v>       0.22244981       0.77735180       0.04460000 </v>
   <v>       0.44401845       0.22244981       0.95539999 </v>
   <v>       0.55578315       0.11068511       0.04460000 </v>
   <v>       0.44401845       0.55578315       0.95539999 </v>
   <v>       0.55578315       0.44401845       0.04460000 </v>
   <v>       0.44401845       0.88911647       0.95539999 </v>
   <v>       0.55578315       0.77735180       0.04460000 </v>
   <v>       0.77735180       0.22244981       0.95539999 </v>
   <v>       0.88911647       0.11068511       0.04460000 </v>
   <v>       0.77735180       0.55578315       0.95539999 </v>
   <v>       0.88911647       0.44401845       0.04460000 </v>
   <v>       0.77735180       0.88911647       0.95539999 </v>
   <v>       0.88911647       0.77735180       0.04460000 </v>
  </varray>
 </structure>
 <calculation>
  <scstep>
   <time name="dav">   21.67   21.73</time>
   <time name="total">   21.71   21.78</time>
   <energy>
    <i name="alphaZ">     81.65567618 </i>
    <i name="ewald">  41891.17178115 </i>
    <i name="hartreedc"> -47723.81657148 </i>
    <i name="XCdc">   -242.92509781 </i>
    <i name="pawpsdc">   3467.42045192 </i>
    <i name="pawaedc">  -2871.19716117 </i>
    <i name="eentropy">     -0.54389080 </i>
    <i name="bandstr">   -238.82613217 </i>
    <i name="atom">   6761.44252427 </i>
    <i name="e_fr_energy">   1124.38158010 </i>
    <i name="e_wo_entrp">   1124.92547090 </i>
    <i name="e_0_energy">   1124.65352550 </i>
   </energy>
  </scstep>
  <scstep>
   <time name="dav">   27.41   27.47</time>
   <time name="total">   27.41   27.48</time>
   <energy>
    <i name="e_fr_energy">      3.67690631 </i>
    <i name="e_wo_entrp">      3.86623905 </i>
    <i name="e_0_energy">      3.77157268 </i>
   </energy>
  </scstep>
  <scstep>
   <time name="dav">   27.45   27.52</time>
   <time name="total">   27.46   27.53</time>
   <energy>
    <i name="e_fr_energy">   -199.32544806 </i>
    <i name="e_wo_entrp">   -199.07469034 </i>
    <i name="e_0_energy">   -199.20006920 </i>
   </energy>
  </scstep>
  <scstep>
   <time name="dav">   29.45   29.53</time>
   <time name="total">   29.46   29.53</time>
   <energy>
    <i name="e_fr_energy">   -208.95536208 </i>
    <i name="e_wo_entrp">   -208.67014638 </i>
    <i name="e_0_energy">   -208.81275423 </i>
   </energy>
  </scstep>
  <scstep>
   <time name="dav">   28.56   28.62</time>
   <time name="total">   29.02   29.10</time>
   <energy>
    <i name="e_fr_energy">   -209.31923340 </i>
    <i name="e_wo_entrp">   -209.03678155 </i>
    <i name="e_0_energy">   -209.17800747 </i>
   </energy>
  </scstep>
  <scstep>
   <time name="dav">   30.25   30.32</time>
   <time name="total">   30.75   30.83</time>
   <energy>
    <i name="e_fr_energy">   -237.93007515 </i>
    <i name="e_wo_entrp">   -237.67070476 </i>
    <i name="e_0_energy">   -237.80038995 </i>
   </energy>
  </scstep>
  <scstep>
   <time name="dav">   32.82   32.90</time>
   <time name="total">   33.32   33.41</time>
   <energy>
    <i name="e_fr_energy">   -196.56280896 </i>
    <i name="e_wo_entrp">   -196.22188084 </i>
    <i name="e_0_energy">   -196.39234490 </i>
   </energy>
  </scstep>
  <scstep>
   <time name="dav">   30.10   30.18</time>
   <time name="total">   30.62   30.71</time>
   <energy>
    <i name="e_fr_energy">   -189.48925985 </i>
    <i name="e_wo_entrp">   -189.17754124 </i>
    <i name="e_0_energy">   -189.33340054 </i>
   </energy>
  </scstep>
  <scstep>
   <time name="dav">   32.74   32.81</time>
   <time name="total">   33.26   33.35</time>
   <energy>
    <i name="e_fr_energy">   -188.16698586 </i>
    <i name="e_wo_entrp">   -187.85066377 </i>
    <i name="e_0_energy">   -188.00882481 </i>
   </energy>
  </scstep>
  <scstep>
   <time name="dav">   32.54   32.62</time>
   <time name="total">   33.08   33.17</time>
   <energy>
    <i name="e_fr_energy">   -186.95803019 </i>
    <i name="e_wo_entrp">   -186.60592062 </i>
    <i name="e_0_energy">   -186.78197540 </i>
   </energy>
  </scstep>
  <scstep>
   <time name="dav">   32.79   32.87</time>
   <time name="total">   33.32   33.41</time>
   <energy>
    <i name="e_fr_energy">   -187.06183814 </i>
    <i name="e_wo_entrp">   -186.71930950 </i>
    <i name="e_0_energy">   -186.89057382 </i>
   </energy>
  </scstep>
  <scstep>
   <time name="dav">   31.21   31.29</time>
   <time name="total">   31.75   31.83</time>
   <energy>
    <i name="e_fr_energy">   -187.00569127 </i>
    <i name="e_wo_entrp">   -186.67485159 </i>
    <i name="e_0_energy">   -186.84027143 </i>
   </energy>
  </scstep>
  <scstep>
   <time name="dav">   31.91   31.99</time>
   <time name="total">   32.45   32.54</time>
   <energy>
    <i name="e_fr_energy">   -186.88738537 </i>
    <i name="e_wo_entrp">   -186.55328724 </i>
    <i name="e_0_energy">   -186.72033631 </i>
   </energy>
  </scstep>
  <scstep>
   <time name="dav">   32.28   32.35</time>
   <time name="total">   32.81   32.89</time>
   <energy>
    <i name="e_fr_energy">   -186.85033483 </i>
    <i name="e_wo_entrp">   -186.50576407 </i>
    <i name="e_0_energy">   -186.67804945 </i>
   </energy>
  </scstep>
  <scstep>
   <time name="dav">   30.85   30.92</time>
   <time name="total">   31.39   31.69</time>
   <energy>
    <i name="e_fr_energy">   -186.84815870 </i>
    <i name="e_wo_entrp">   -186.50429560 </i>
    <i name="e_0_energy">   -186.67622715 </i>
   </energy>
  </scstep>
  <scstep>
   <time name="dav">   32.24   32.32</time>
   <time name="total">   32.77   32.86</time>
   <energy>
    <i name="e_fr_energy">   -186.84245880 </i>
    <i name="e_wo_entrp">   -186.49936318 </i>
    <i name="e_0_energy">   -186.67091099 </i>
   </energy>
  </scstep>
  <scstep>
   <time name="dav">   30.65   30.72</time>
   <time name="total">   31.18   31.27</time>
   <energy>
    <i name="e_fr_energy">   -186.84124538 </i>
    <i name="e_wo_entrp">   -186.49950315 </i>
    <i name="e_0_energy">   -186.67037426 </i>
   </energy>
  </scstep>
  <scstep>
   <time name="dav">   28.87   28.94</time>
   <time name="total">   29.40   29.48</time>
   <energy>
    <i name="e_fr_energy">   -186.84101562 </i>
    <i name="e_wo_entrp">   -186.49879926 </i>
    <i name="e_0_energy">   -186.66990744 </i>
   </energy>
  </scstep>
  <scstep>
   <time name="dav">   27.21   27.27</time>
   <time name="total">   27.74   27.82</time>
   <energy>
    <i name="e_fr_energy">   -186.84081975 </i>
    <i name="e_wo_entrp">   -186.49853525 </i>
    <i name="e_0_energy">   -186.66967750 </i>
   </energy>
  </scstep>
  <scstep>
   <time name="dav">   23.56   23.62</time>
   <time name="total">   24.10   24.16</time>
   <energy>
    <i name="e_fr_energy">   -186.84156935 </i>
    <i name="e_wo_entrp">   -186.49971094 </i>
    <i name="e_0_energy">   -186.67064015 </i>
   </energy>
  </scstep>
  <scstep>
   <time name="dav">   21.34   21.39</time>
   <time name="total">   21.87   21.94</time>
   <energy>
    <i name="e_fr_energy">   -186.84240274 </i>
    <i name="e_wo_entrp">   -186.50048440 </i>
    <i name="e_0_energy">   -186.67144357 </i>
   </energy>
  </scstep>
  <scstep>
   <time name="dav">   20.44   20.49</time>
   <time name="total">   20.98   21.03</time>
   <energy>
    <i name="e_fr_energy">   -186.84335237 </i>
    <i name="e_wo_entrp">   -186.50135591 </i>
    <i name="e_0_energy">   -186.67235414 </i>
   </energy>
  </scstep>
  <scstep>
   <time name="dav">   20.36   20.41</time>
   <time name="total">   20.90   20.96</time>
   <energy>
    <i name="e_fr_energy">   -186.84450696 </i>
    <i name="e_wo_entrp">   -186.50263549 </i>
    <i name="e_0_energy">   -186.67357123 </i>
   </energy>
  </scstep>
  <scstep>
   <time name="dav">   18.94   18.99</time>
   <time name="total">   19.48   19.53</time>
   <energy>
    <i name="e_fr_energy">   -186.84505908 </i>
    <i name="e_wo_entrp">   -186.50311646 </i>
    <i name="e_0_energy">   -186.67408777 </i>
   </energy>
  </scstep>
  <scstep>
   <time name="dav">   16.17   16.21</time>
   <time name="total">   16.70   16.75</time>
   <energy>
    <i name="e_fr_energy">   -186.84545371 </i>
    <i name="e_wo_entrp">   -186.50350007 </i>
    <i name="e_0_energy">   -186.67447689 </i>
   </energy>
  </scstep>
  <scstep>
   <time name="dav">   19.03   19.07</time>
   <time name="total">   19.56   19.61</time>
   <energy>
    <i name="e_fr_energy">   -186.84569537 </i>
    <i name="e_wo_entrp">   -186.50375960 </i>
    <i name="e_0_energy">   -186.67472748 </i>
   </energy>
  </scstep>
  <scstep>
   <time name="dav">   20.09   20.14</time>
   <time name="total">   20.13   20.18</time>
   <energy>
    <i name="alphaZ">     81.65567618 </i>
    <i name="ewald">  41891.17178115 </i>
    <i name="hartreedc"> -47833.65786972 </i>
    <i name="XCdc">   -231.60478578 </i>
    <i name="pawpsdc">   4192.08112454 </i>
    <i name="pawaedc">  -3610.08224157 </i>
    <i name="eentropy">     -0.34194218 </i>
    <i name="bandstr">  -1437.51005076 </i>
    <i name="atom">   6761.44252427 </i>
    <i name="e_fr_energy">   -186.84578387 </i>
    <i name="e_wo_entrp">   -186.50384169 </i>
    <i name="e_0_energy">   -186.67481278 </i>
   </energy>
  </scstep>
  <structure>
   <crystal>
    <varray name="basis" >
     <v>       8.66999996       5.03999989       0.00000000 </v>
     <v>      -8.66999982       5.04000013       0.00000000 </v>
     <v>       0.00000000       0.00000000      30.00000000 </v>
    </varray>
    <i name="volume">   2621.80797419 </i>
    <varray name="rec_basis" >
     <v>       0.05767013       0.09920635       0.00000000 </v>
     <v>      -0.05767013       0.09920635       0.00000000 </v>
     <v>       0.00000000       0.00000000       0.03333333 </v>
    </varray>
   </crystal>
   <varray name="positions" >
    <v>       0.66666669       0.00000000       0.00000000 </v>
    <v>       0.33333334       0.00000000       0.00000000 </v>
    <v>       0.33333334       0.66666669       0.00000000 </v>
    <v>       0.66666669       0.66666669       0.00000000 </v>
    <v>       1.00000000       0.33333334       0.00000000 </v>
    <v>       0.33333334       0.33333334       0.00000000 </v>
    <v>       0.00000000       0.00000000       0.00000000 </v>
    <v>       0.00000000       0.66666669       0.00000000 </v>
    <v>       0.66666669       0.33333334       0.00000000 </v>
    <v>       0.11068511       0.22244981       0.95539999 </v>
    <v>       0.22244981       0.11068511       0.04460000 </v>
    <v>       0.11068511       0.55578315       0.95539999 </v>
    <v>       0.22244981       0.44401845       0.04460000 </v>
    <v>       0.11068511       0.88911647       0.95539999 </v>
    <v>       0.22244981       0.77735180       0.04460000 </v>
    <v>       0.44401845       0.22244981       0.95539999 </v>
    <v>       0.55578315       0.11068511       0.04460000 </v>
    <v>       0.44401845       0.55578315       0.95539999 </v>
    <v>       0.55578315       0.44401845       0.04460000 </v>
    <v>       0.44401845       0.88911647       0.95539999 </v>
    <v>       0.55578315       0.77735180       0.04460000 </v>
    <v>       0.77735180       0.22244981       0.95539999 </v>
    <v>       0.88911647       0.11068511       0.04460000 </v>
    <v>       0.77735180       0.55578315       0.95539999 </v>
    <v>       0.88911647       0.44401845       0.04460000 </v>
    <v>       0.77735180       0.88911647       0.95539999 </v>
    <v>       0.88911647       0.77735180       0.04460000 </v>
   </varray>
  </structure>
  <varray name="forces" >
   <v>       0.13186026      -0.05551426      -0.04089447 </v>
   <v>      -0.02745377       0.10717219      -0.03770369 </v>
   <v>       0.34687504      -0.07128581      -0.01634935 </v>
   <v>      -0.03251733      -0.28628444      -0.05003467 </v>
   <v>       0.24895798       0.15589056       0.09132688 </v>
   <v>      -0.29436253       0.13179822       0.11873134 </v>
   <v>      -0.32268363       0.17712274       0.14869658 </v>
   <v>       0.09618831      -0.23887284      -0.07716416 </v>
   <v>      -0.21994485       0.07021390      -0.13511669 </v>
   <v>       0.21981469      -0.14458783      -2.88726128 </v>
   <v>       0.64593391      -0.15483423       2.10893234 </v>
   <v>       0.34468948       0.70622211      -2.15030834 </v>
   <v>      -0.50944316       0.68250752       2.19144320 </v>
   <v>       0.48527844       0.54752358      -2.14906666 </v>
   <v>       0.23545724       0.52553519       1.39862304 </v>
   <v>       0.63771229      -0.52674433      -2.12150875 </v>
   <v>       0.24698850      -0.53131737       1.40882635 </v>
   <v>      -0.74624399       0.02283477      -2.13683685 </v>
   <v>       0.02872590      -0.03088329       2.89498591 </v>
   <v>       0.06155154       0.00970525      -0.76095520 </v>
   <v>      -0.90600151      -0.00371309       1.45755670 </v>
   <v>       0.34835294      -0.69867189      -2.10892124 </v>
   <v>      -0.34220434      -0.68512246       2.19411361 </v>
   <v>       0.27657067      -0.00016549      -2.97858749 </v>
   <v>      -0.23233251       0.00019226       2.89986329 </v>
   <v>      -0.64952495       0.12769604      -2.10984753 </v>
   <v>      -0.07224463       0.16358298       2.84745715 </v>
  </varray>
  <varray name="stress" >
   <v>       7.33382793      -0.09190576      -1.53691189 </v>
   <v>      -0.09190549       4.41911999      -0.06366834 </v>
   <v>      -1.53691198      -0.06366849      30.31865219 </v>
  </varray>
  <energy>
   <i name="e_fr_energy">   -186.84578387 </i>
   <i name="e_wo_entrp">   -186.67481278 </i>
   <i name="e_0_energy">     -0.34194218 </i>
  </energy>
  <time name="totalsc">  784.94  787.27</time>
 </calculation>
 <calculation>
  <scstep>
   <time name="dav">   21.72   21.77</time>
   <time name="total">   22.26   22.32</time>
   <energy>
    <i name="alphaZ">     78.92174340 </i>
    <i name="ewald">  39379.28089845 </i>
    <i name="hartreedc"> -45336.58666905 </i>
    <i name="XCdc">   -239.06888966 </i>
    <i name="pawpsdc">   4192.06759740 </i>
    <i name="pawaedc">  -3610.06882059 </i>
    <i name="eentropy">     -0.27905783 </i>
    <i name="bandstr">  -1413.20920036 </i>
    <i name="atom">   6761.44252427 </i>
    <i name="e_fr_energy">   -187.49987397 </i>
    <i name="e_wo_entrp">   -187.22081614 </i>
    <i name="e_0_energy">   -187.36034505 </i>
   </energy>
  </scstep>
  <scstep>
   <time name="dav">   30.23   30.31</time>
   <time name="total">   30.77   30.86</time>
   <energy>
    <i name="e_fr_energy">   -189.34602132 </i>
    <i name="e_wo_entrp">   -189.02350402 </i>
    <i name="e_0_energy">   -189.18476267 </i>
   </energy>
  </scstep>
  <scstep>
   <time name="dav">   30.31   30.38</time>
   <time name="total">   30.86   30.94</time>
   <energy>
    <i name="e_fr_energy">   -189.35987204 </i>
    <i name="e_wo_entrp">   -189.10275163 </i>
    <i name="e_0_energy">   -189.23131183 </i>
   </energy>
  </scstep>
  <scstep>
   <time name="dav">   30.57   30.64</time>
   <time name="total">   31.12   31.20</time>
   <energy>
    <i name="e_fr_energy">   -188.75710705 </i>
    <i name="e_wo_entrp">   -188.47465964 </i>
    <i name="e_0_energy">   -188.61588335 </i>
   </energy>
  </scstep>
  <scstep>
   <time name="dav">   29.12   29.19</time>
   <time name="total">   29.66   29.74</time>
   <energy>
    <i name="e_fr_energy">   -188.84844873 </i>
    <i name="e_wo_entrp">   -188.56372134 </i>
    <i name="e_0_energy">   -188.70608503 </i>
   </energy>
  </scstep>
  <scstep>
   <time name="dav">   30.62   30.70</time>
   <time name="total">   31.17   31.25</time>
   <energy>
    <i name="e_fr_energy">   -188.75598157 </i>
    <i name="e_wo_entrp">   -188.47356221 </i>
    <i name="e_0_energy">   -188.61477189 </i>
   </energy>
  </scstep>
  <scstep>
   <time name="dav">   30.54   30.62</time>
   <time name="total">   31.09   31.17</time>
   <energy>
    <i name="e_fr_energy">   -188.67623095 </i>
    <i name="e_wo_entrp">   -188.39645651 </i>
    <i name="e_0_energy">   -188.53634373 </i>
   </energy>
  </scstep>
  <scstep>
   <time name="dav">   28.40   28.46</time>
   <time name="total">   28.94   29.02</time>
   <energy>
    <i name="e_fr_energy">   -188.66179488 </i>
    <i name="e_wo_entrp">   -188.38192076 </i>
    <i name="e_0_energy">   -188.52185782 </i>
   </energy>
  </scstep>
  <scstep>
   <time name="dav">   31.23   31.30</time>
   <time name="total">   31.77   31.85</time>
   <energy>
    <i name="e_fr_energy">   -188.65721824 </i>
    <i name="e_wo_entrp">   -188.37859737 </i>
    <i name="e_0_energy">   -188.51790780 </i>
   </energy>
  </scstep>
  <scstep>
   <time name="dav">   29.43   29.50</time>
   <time name="total">   29.98   30.06</time>
   <energy>
    <i name="e_fr_energy">   -188.65719441 </i>
    <i name="e_wo_entrp">   -188.37825899 </i>
    <i name="e_0_energy">   -188.51772670 </i>
   </energy>
  </scstep>
  <scstep>
   <time name="dav">   31.34   31.42</time>
   <time name="total">   31.89   31.97</time>
   <energy>
    <i name="e_fr_energy">   -188.65586134 </i>
    <i name="e_wo_entrp">   -188.37832124 </i>
    <i name="e_0_energy">   -188.51709129 </i>
   </energy>
  </scstep>
  <scstep>
   <time name="dav">   29.10   29.17</time>
   <time name="total">   29.13   29.21</time>
   <energy>
    <i name="alphaZ">     78.92174340 </i>
    <i name="ewald">  39379.28089845 </i>
    <i name="hartreedc"> -45347.61810213 </i>
    <i name="XCdc">   -237.97528480 </i>
    <i name="pawpsdc">   3952.75891781 </i>
    <i name="pawaedc">  -3367.28877830 </i>
    <i name="eentropy">     -0.27748631 </i>
    <i name="bandstr">  -1407.90029558 </i>
    <i name="atom">   6761.44252427 </i>
    <i name="e_fr_energy">   -188.65586318 </i>
    <i name="e_wo_entrp">   -188.37837687 </i>
    <i name="e_0_energy">   -188.51712002 </i>
   </energy>
  </scstep>
  <structure>
   <crystal>
    <varray name="basis" >
     <v>       8.85455767       5.10279154       0.00000000 </v>
     <v>      -8.85726622       5.10745139       0.00000000 </v>
     <v>       0.00000000       0.00000000      30.00000000 </v>
    </varray>
    <i name="volume">   2712.63017910 </i>
    <varray name="rec_basis" >
     <v>       0.05648523       0.09795585       0.00000000 </v>
     <v>      -0.05643370       0.09792589       0.00000000 </v>
     <v>       0.00000000       0.00000000       0.03333333 </v>
    </varray>
   </crystal>
   <varray name="positions" >
    <v>       0.66676785      -0.00063255      -0.00006576 </v>
    <v>       0.33376989       0.00058930      -0.00006063 </v>
    <v>       0.33395723       0.66536045      -0.00002629 </v>
    <v>       0.66520607       0.66538700      -0.00008046 </v>
    <v>       1.00143873       0.33338679       0.00014686 </v>
    <v>       0.33314516       0.33478309       0.00019093 </v>
    <v>      -0.00005005       0.00174546       0.00023912 </v>
    <v>      -0.00087563       0.66525584      -0.00012409 </v>
    <v>       0.66639081       0.33428131      -0.00021728 </v>
    <v>       0.11060468       0.22114626       0.95075702 </v>
    <v>       0.22350587       0.10814699       0.04799135 </v>
    <v>       0.11502405       0.55820413       0.95194210 </v>
    <v>       0.22429892       0.44870227       0.04812403 </v>
    <v>       0.11465567       0.89038678       0.95194410 </v>
    <v>       0.22562009       0.77921192       0.04684911 </v>
    <v>       0.44327168       0.21815461       0.95198842 </v>
    <v>       0.55392744       0.10745508       0.04686552 </v>
    <v>       0.44205157       0.55796861       0.95196377 </v>
    <v>       0.55571527       0.44379073       0.04925539 </v>
    <v>       0.44423615       0.88899167       0.95417631 </v>
    <v>       0.55324474       0.77985467       0.04694388 </v>
    <v>       0.77497714       0.21813681       0.95200866 </v>
    <v>       0.88488542       0.10835820       0.04812833 </v>
    <v>       0.77812047       0.55501290       0.95061016 </v>
    <v>       0.88847100       0.44466576       0.04926324 </v>
    <v>       0.77615586       0.89153470       0.95200717 </v>
    <v>       0.88969837       0.77833570       0.04917896 </v>
   </varray>
  </structure>
  <varray name="forces" >
   <v>       0.14449695       0.03147588      -0.07987317 </v>
   <v>      -0.06954967       0.07796397      -0.01015860 </v>
   <v>       0.30414118      -0.12726090       0.00944210 </v>
   <v>       0.33175460      -0.30303499       0.03567331 </v>
   <v>       0.32175203       0.12128702      -0.04134206 </v>
   <v>      -0.26962191       0.07842535       0.03138540 </v>
   <v>      -0.31907295       0.24106986       0.03810632 </v>
   <v>      -0.05313803      -0.46242946       0.04629573 </v>
   <v>      -0.35763736       0.35229260      -0.05649918 </v>
   <v>       0.06622000      -0.10030511      -0.09702547 </v>
   <v>      -0.02937231      -0.09850333       0.01139929 </v>
   <v>      -0.10003715       0.06630725       0.03518460 </v>
   <v>      -0.03115466       0.09040949       0.19548371 </v>
   <v>      -0.06020508      -0.07709747       0.17402402 </v>
   <v>      -0.04149600      -0.06236259      -0.22829248 </v>
   <v>       0.06563518       0.06353586       0.04856343 </v>
   <v>      -0.04842586       0.06329814      -0.16171695 </v>
   <v>      -0.07468300       0.00148199      -0.16192518 </v>
   <v>       0.14425446      -0.01688536       0.12687944 </v>
   <v>       0.02836595      -0.00184572       0.19648405 </v>
   <v>      -0.05916110      -0.01262774      -0.08507587 </v>
   <v>      -0.11084389      -0.05049166       0.14028857 </v>
   <v>       0.10668649      -0.05408823       0.09520334 </v>
   <v>       0.10672521      -0.01279126      -0.18773814 </v>
   <v>      -0.09816016      -0.01233563      -0.00662373 </v>
   <v>       0.02314527       0.09717209       0.04064657 </v>
   <v>       0.07938179       0.10733994      -0.10878905 </v>
  </varray>
  <varray name="stress" >
   <v>     -20.06710382      -0.00583581       0.07444164 </v>
   <v>      -0.00583587     -19.60615097       0.02202841 </v>
   <v>       0.07444167       0.02202857      -1.84773359 </v>
  </varray>
  <energy>
   <i name="e_fr_energy">   -188.65586318 </i>
   <i name="e_wo_entrp">   -188.51712002 </i>
   <i name="e_0_energy">     -0.27748631 </i>
  </energy>
  <time name="totalsc">  401.18  402.24</time>
 </calculation>
 <calculation>
  <scstep>
   <time name="dav">   23.78   23.83</time>
   <time name="total">   24.31   24.37</time>
   <energy>
    <i name="alphaZ">     82.35430723 </i>
    <i name="ewald">  41307.02994187 </i>
    <i name="hartreedc"> -47305.98465570 </i>
    <i name="XCdc">   -233.84657840 </i>
    <i name="pawpsdc">   3950.44450887 </i>
    <i name="pawaedc">  -3364.94679893 </i>
    <i name="eentropy">     -0.23201020 </i>
    <i name="bandstr">  -1386.84359509 </i>
    <i name="atom">   6761.44252427 </i>
    <i name="e_fr_energy">   -190.58235607 </i>
    <i name="e_wo_entrp">   -190.35034587 </i>
    <i name="e_0_energy">   -190.46635097 </i>
   </energy>
  </scstep>
  <scstep>
   <time name="dav">   28.55   28.62</time>
   <time name="total">   29.07   29.15</time>
   <energy>
    <i name="e_fr_energy">   -190.52846669 </i>
    <i name="e_wo_entrp">   -190.31179209 </i>
    <i name="e_0_energy">   -190.42012939 </i>
   </energy>
  </scstep>
  <scstep>
   <time name="dav">   30.11   30.19</time>
   <time name="total">   30.64   30.72</time>
   <energy>
    <i name="e_fr_energy">   -190.06444771 </i>
    <i name="e_wo_entrp">   -189.81460749 </i>
    <i name="e_0_energy">   -189.93952760 </i>
   </energy>
  </scstep>
  <scstep>
   <time name="dav">   31.62   31.69</time>
   <time name="total">   32.15   32.23</time>
   <energy>
    <i name="e_fr_energy">   -189.85263650 </i>
    <i name="e_wo_entrp">   -189.63024980 </i>
    <i name="e_0_energy">   -189.74144315 </i>
   </energy>
  </scstep>
  <scstep>
   <time name="dav">   29.95   30.02</time>
   <time name="total">   30.48   30.56</time>
   <energy>
    <i name="e_fr_energy">   -189.82201855 </i>
    <i name="e_wo_entrp">   -189.58082435 </i>
    <i name="e_0_energy">   -189.70142145 </i>
   </energy>
  </scstep>
  <scstep>
   <time name="dav">   30.93   31.00</time>
   <time name="total">   31.46   31.54</time>
   <energy>
    <i name="e_fr_energy">   -189.75137521 </i>
    <i name="e_wo_entrp">   -189.52070075 </i>
    <i name="e_0_energy">   -189.63603798 </i>
   </energy>
  </scstep>
  <scstep>
   <time name="dav">   28.66   28.72</time>
   <time name="total">   29.18   29.26</time>
   <energy>
    <i name="e_fr_energy">   -189.74552804 </i>
    <i name="e_wo_entrp">   -189.51288521 </i>
    <i name="e_0_energy">   -189.62920662 </i>
   </energy>
  </scstep>
  <scstep>
   <time name="dav">   30.83   30.90</time>
   <time name="total">   31.36   31.44</time>
   <energy>
    <i name="e_fr_energy">   -189.74546044 </i>
    <i name="e_wo_entrp">   -189.51314714 </i>
    <i name="e_0_energy">   -189.62930379 </i>
   </energy>
  </scstep>
  <scstep>
   <time name="dav">   28.26   28.33</time>
   <time name="total">   28.79   28.87</time>
   <energy>
    <i name="e_fr_energy">   -189.74458464 </i>
    <i name="e_wo_entrp">   -189.51232270 </i>
    <i name="e_0_energy">   -189.62845367 </i>
   </energy>
  </scstep>
  <scstep>
   <time name="dav">   26.75   26.81</time>
   <time name="total">   27.28   27.35</time>
   <energy>
    <i name="e_fr_energy">   -189.74501645 </i>
    <i name="e_wo_entrp">   -189.51244525 </i>
    <i name="e_0_energy">   -189.62873085 </i>
   </energy>
  </scstep>
  <scstep>
   <time name="dav">   24.66   24.72</time>
   <time name="total">   25.19   25.26</time>
   <energy>
    <i name="e_fr_energy">   -189.74470845 </i>
    <i name="e_wo_entrp">   -189.51215318 </i>
    <i name="e_0_energy">   -189.62843081 </i>
   </energy>
  </scstep>
  <scstep>
   <time name="dav">   19.65   19.69</time>
   <time name="total">   19.68   19.74</time>
   <energy>
    <i name="alphaZ">     82.35430723 </i>
    <i name="ewald">  41307.02994187 </i>
    <i name="hartreedc"> -47279.26820803 </i>
    <i name="XCdc">   -235.24510725 </i>
    <i name="pawpsdc">   4038.81525533 </i>
    <i name="pawaedc">  -3454.51279111 </i>
    <i name="eentropy">     -0.23254239 </i>
    <i name="bandstr">  -1410.12811083 </i>
    <i name="atom">   6761.44252427 </i>
    <i name="e_fr_energy">   -189.74473090 </i>
    <i name="e_wo_entrp">   -189.51218851 </i>
    <i name="e_0_energy">   -189.62845970 </i>
   </energy>
  </scstep>
  <structure>
   <crystal>
    <varray name="basis" >
     <v>       8.66586457       4.99651043       0.00000000 </v>
     <v>      -8.66857868       5.00118302       0.00000000 </v>
     <v>       0.00000000       0.00000000      30.00000000 </v>
    </varray>
    <i name="volume">   2599.56655742 </i>
    <varray name="rec_basis" >
     <v>       0.05771558       0.10003874       0.00000000 </v>
     <v>      -0.05766166       0.10000742       0.00000000 </v>
     <v>       0.00000000       0.00000000       0.03333333 </v>
    </varray>
   </crystal>
   <varray name="positions" >
    <v>       0.66695826      -0.00071843      -0.00011084 </v>
    <v>       0.33383268       0.00078504      -0.00006636 </v>
    <v>       0.33403704       0.66485882      -0.00002096 </v>
    <v>       0.66502075       0.66456753      -0.00006033 </v>
    <v>       1.00194763       0.33328045       0.00012353 </v>
    <v>       0.33301737       0.33517077       0.00020864 </v>
    <v>       0.00004462       0.00245007       0.00026062 </v>
    <v>      -0.00169344       0.66453985      -0.00009796 </v>
    <v>       0.66663307       0.33520719      -0.00024917 </v>
    <v>       0.11050164       0.22091666       0.95070226 </v>
    <v>       0.22331440       0.10801172       0.04799778 </v>
    <v>       0.11503835       0.55840967       0.95196196 </v>
    <v>       0.22441908       0.44888195       0.04823437 </v>
    <v>       0.11447021       0.89031647       0.95204232 </v>
    <v>       0.22547697       0.77914816       0.04672026 </v>
    <v>       0.44343984       0.21819724       0.95201583 </v>
    <v>       0.55398611       0.10760630       0.04677424 </v>
    <v>       0.44198260       0.55804243       0.95187238 </v>
    <v>       0.55582523       0.44362489       0.04932700 </v>
    <v>       0.44426022       0.88896150       0.95428720 </v>
    <v>       0.55316721       0.77989026       0.04689586 </v>
    <v>       0.77478738       0.21815900       0.95208784 </v>
    <v>       0.88489774       0.10816657       0.04818206 </v>
    <v>       0.77820133       0.55488971       0.95050420 </v>
    <v>       0.88835666       0.44473910       0.04925950 </v>
    <v>       0.77633917       0.89167370       0.95203011 </v>
    <v>       0.88995233       0.77843783       0.04911756 </v>
   </varray>
  </structure>
  <varray name="forces" >
   <v>       0.17056742       0.08823019      -0.06853414 </v>
   <v>      -0.11473880       0.06121532       0.00080235 </v>
   <v>       0.29911059      -0.16752143       0.01597041 </v>
   <v>       0.45757539      -0.28834668       0.03862980 </v>
   <v>       0.34539102       0.09842035      -0.05547191 </v>
   <v>      -0.25965081       0.04123604       0.00187192 </v>
   <v>      -0.31313870       0.25752211      -0.00174834 </v>
   <v>      -0.12402232      -0.54128111       0.06080474 </v>
   <v>      -0.40562026       0.44866166      -0.02305660 </v>
   <v>       0.03705702      -0.02578651      -0.65378310 </v>
   <v>       0.08566385      -0.02005300       0.51402545 </v>
   <v>       0.01769700       0.13424225      -0.46006759 </v>
   <v>      -0.07825414       0.16541198       0.70900238 </v>
   <v>       0.00554545       0.03955701      -0.31039264 </v>
   <v>       0.03616972       0.06580644       0.20859194 </v>
   <v>       0.04932105      -0.06893526      -0.44670531 </v>
   <v>       0.02679235      -0.05543508       0.27680686 </v>
   <v>      -0.14568670       0.00401875      -0.65565716 </v>
   <v>       0.06623658      -0.02611195       0.68790392 </v>
   <v>       0.03074771      -0.00729713      -0.21118442 </v>
   <v>      -0.12718532      -0.00941690       0.35052706 </v>
   <v>       0.00484131      -0.10935194      -0.33932361 </v>
   <v>      -0.03396974      -0.12282611       0.61695442 </v>
   <v>       0.02229327      -0.00570999      -0.79508384 </v>
   <v>      -0.01292676      -0.02538151       0.54581890 </v>
   <v>      -0.07574572       0.02089908      -0.43619536 </v>
   <v>       0.03592954       0.04823343       0.42949390 </v>
  </varray>
  <varray name="stress" >
   <v>     -10.17628639       0.02032740       0.04850724 </v>
   <v>       0.02032739      -9.83673572       0.03671666 </v>
   <v>       0.04850734       0.03671672       6.48210697 </v>
  </varray>
  <energy>
   <i name="e_fr_energy">   -189.74473090 </i>
   <i name="e_wo_entrp">   -189.62845970 </i>
   <i name="e_0_energy">     -0.23254239 </i>
  </energy>
  <time name="totalsc">  381.96  382.96</time>
 </calculation>
 <calculation>
  <scstep>
   <time name="dav">   21.70   21.75</time>
   <time name="total">   22.22   22.27</time>
   <energy>
    <i name="alphaZ">     85.80527039 </i>
    <i name="ewald">  42824.90774657 </i>
    <i name="hartreedc"> -48841.35269098 </i>
    <i name="XCdc">   -232.98325851 </i>
    <i name="pawpsdc">   4038.74825726 </i>
    <i name="pawaedc">  -3454.44186132 </i>
    <i name="eentropy">     -0.19050962 </i>
    <i name="bandstr">  -1373.23527919 </i>
    <i name="atom">   6761.44252427 </i>
    <i name="e_fr_energy">   -191.29980113 </i>
    <i name="e_wo_entrp">   -191.10929151 </i>
    <i name="e_0_energy">   -191.20454632 </i>
   </energy>
  </scstep>
  <scstep>
   <time name="dav">   32.58   32.65</time>
   <time name="total">   33.09   33.18</time>
   <energy>
    <i name="e_fr_energy">   -191.10602754 </i>
    <i name="e_wo_entrp">   -190.91685247 </i>
    <i name="e_0_energy">   -191.01144001 </i>
   </energy>
  </scstep>
  <scstep>
   <time name="dav">   29.85   29.92</time>
   <time name="total">   30.37   30.66</time>
   <energy>
    <i name="e_fr_energy">   -191.30632057 </i>
    <i name="e_wo_entrp">   -191.09145329 </i>
    <i name="e_0_energy">   -191.19888693 </i>
   </energy>
  </scstep>
  <scstep>
   <time name="dav">   29.26   29.33</time>
   <time name="total">   29.78   29.86</time>
   <energy>
    <i name="e_fr_energy">   -190.89878308 </i>
    <i name="e_wo_entrp">   -190.70010009 </i>
    <i name="e_0_energy">   -190.79944158 </i>
   </energy>
  </scstep>
  <scstep>
   <time name="dav">   27.34   27.41</time>
   <time name="total">   27.86   27.94</time>
   <energy>
    <i name="e_fr_energy">   -190.90379391 </i>
    <i name="e_wo_entrp">   -190.72036523 </i>
    <i name="e_0_energy">   -190.81207957 </i>
   </energy>
  </scstep>
  <scstep>
   <time name="dav">   28.23   28.30</time>
   <time name="total">   28.75   28.83</time>
   <energy>
    <i name="e_fr_energy">   -190.72901941 </i>
    <i name="e_wo_entrp">   -190.53369022 </i>
    <i name="e_0_energy">   -190.63135482 </i>
   </energy>
  </scstep>
  <scstep>
   <time name="dav">   30.28   30.36</time>
   <time name="total">   30.80   30.89</time>
   <energy>
    <i name="e_fr_energy">   -190.73172193 </i>
    <i name="e_wo_entrp">   -190.53661538 </i>
    <i name="e_0_energy">   -190.63416866 </i>
   </energy>
  </scstep>
  <scstep>
   <time name="dav">   29.05   29.12</time>
   <time name="total">   29.57   29.65</time>
   <energy>
    <i name="e_fr_energy">   -190.72834179 </i>
    <i name="e_wo_entrp">   -190.53352234 </i>
    <i name="e_0_energy">   -190.63093206 </i>
   </energy>
  </scstep>
  <scstep>
   <time name="dav">   28.16   28.22</time>
   <time name="total">   28.68   28.76</time>
   <energy>
    <i name="e_fr_energy">   -190.72533232 </i>
    <i name="e_wo_entrp">   -190.53032761 </i>
    <i name="e_0_energy">   -190.62782996 </i>
   </energy>
  </scstep>
  <scstep>
   <time name="dav">   25.56   25.63</time>
   <time name="total">   26.08   26.15</time>
   <energy>
    <i name="e_fr_energy">   -190.72565136 </i>
    <i name="e_wo_entrp">   -190.53054029 </i>
    <i name="e_0_energy">   -190.62809583 </i>
   </energy>
  </scstep>
  <scstep>
   <time name="dav">   25.34   25.40</time>
   <time name="total">   25.86   25.93</time>
   <energy>
    <i name="e_fr_energy">   -190.72549988 </i>
    <i name="e_wo_entrp">   -190.53035729 </i>
    <i name="e_0_energy">   -190.62792859 </i>
   </energy>
  </scstep>
  <scstep>
   <time name="dav">   19.63   19.67</time>
   <time name="total">   19.66   19.72</time>
   <energy>
    <i name="alphaZ">     85.80527039 </i>
    <i name="ewald">  42824.90774657 </i>
    <i name="hartreedc"> -48812.89617112 </i>
    <i name="XCdc">   -234.30870742 </i>
    <i name="pawpsdc">   4063.06308940 </i>
    <i name="pawaedc">  -3478.92579391 </i>
    <i name="eentropy">     -0.19520294 </i>
    <i name="bandstr">  -1399.61825359 </i>
    <i name="atom">   6761.44252427 </i>
    <i name="e_fr_energy">   -190.72549835 </i>
    <i name="e_wo_entrp">   -190.53029541 </i>
    <i name="e_0_energy">   -190.62789688 </i>
   </energy>
  </scstep>
  <structure>
   <crystal>
    <varray name="basis" >
     <v>       8.48598839       4.89855000       0.00000000 </v>
     <v>      -8.48748500       4.90111709       0.00000000 </v>
     <v>       0.00000000       0.00000000      30.00000000 </v>
    </varray>
    <i name="volume">   2495.01577197 </i>
    <varray name="rec_basis" >
     <v>       0.05893090       0.10205328       0.00000000 </v>
     <v>      -0.05890003       0.10203529       0.00000000 </v>
     <v>       0.00000000       0.00000000       0.03333333 </v>
    </varray>
   </crystal>
   <varray name="positions" >
    <v>       0.66830165      -0.00067847      -0.00024271 </v>
    <v>       0.33369556       0.00160334      -0.00005548 </v>
    <v>       0.33396196       0.66264352       0.00001749 </v>
    <v>       0.66508485       0.66097669       0.00002188 </v>
    <v>       1.00378422       0.33256107      -0.00000284 </v>
    <v>       0.33226134       0.33625688       0.00018765 </v>
    <v>       0.00057361       0.00521761       0.00022346 </v>
    <v>      -0.00581723       0.66151291       0.00003973 </v>
    <v>       0.66814335       0.33977565      -0.00026858 </v>
    <v>       0.11061693       0.22084816       0.94888436 </v>
    <v>       0.22385617       0.10760816       0.04948171 </v>
    <v>       0.11627665       0.55918430       0.95059558 </v>
    <v>       0.22528852       0.45044914       0.05012980 </v>
    <v>       0.11511974       0.89073833       0.95099392 </v>
    <v>       0.22644630       0.77963514       0.04751857 </v>
    <v>       0.44283597       0.21728480       0.95067700 </v>
    <v>       0.55354997       0.10676277       0.04771470 </v>
    <v>       0.44138761       0.55869957       0.95010368 </v>
    <v>       0.55576670       0.44331177       0.05121891 </v>
    <v>       0.44431536       0.88878835       0.95350814 </v>
    <v>       0.55256091       0.78039432       0.04798598 </v>
    <v>       0.77414130       0.21714830       0.95098378 </v>
    <v>       0.88363741       0.10755250       0.04989449 </v>
    <v>       0.77814305       0.55491168       0.94835213 </v>
    <v>       0.88824089       0.44447339       0.05085098 </v>
    <v>       0.77586686       0.89202921       0.95072849 </v>
    <v>       0.89017479       0.77852533       0.05045709 </v>
   </varray>
  </structure>
  <varray name="forces" >
   <v>       0.14821116       0.09980106      -0.01939108 </v>
   <v>      -0.09697272       0.06406449       0.02044907 </v>
   <v>       0.25005570      -0.14716314       0.02423334 </v>
   <v>       0.61122861      -0.28918828       0.01909703 </v>
   <v>       0.43479034       0.07317241      -0.02343776 </v>
   <v>      -0.24449856      -0.05164613      -0.03203117 </v>
   <v>      -0.33721602       0.37357913      -0.03449920 </v>
   <v>      -0.20520807      -0.61962351       0.03328211 </v>
   <v>      -0.47823399       0.50218202       0.02423927 </v>
   <v>       0.01759594       0.04596363      -0.50096209 </v>
   <v>      -0.01748471       0.02629065       0.37419386 </v>
   <v>       0.01704148       0.04526510      -0.26915936 </v>
   <v>      -0.03211559       0.07133749       0.52923222 </v>
   <v>      -0.01149615      -0.02394321      -0.14003776 </v>
   <v>       0.01316672      -0.03037995       0.09395800 </v>
   <v>      -0.01987557       0.02361493      -0.27525074 </v>
   <v>      -0.01699628       0.03786544       0.14402691 </v>
   <v>      -0.03246764       0.01372257      -0.43673047 </v>
   <v>      -0.01146643      -0.06724693       0.51652926 </v>
   <v>       0.03999157      -0.01826197      -0.21955722 </v>
   <v>       0.01894924      -0.02181525       0.23308663 </v>
   <v>      -0.02456069      -0.00212169      -0.18001454 </v>
   <v>      -0.04909340      -0.02701822       0.46149946 </v>
   <v>      -0.02611460      -0.00317640      -0.72024677 </v>
   <v>       0.07051301      -0.05685800       0.35592645 </v>
   <v>       0.01760310      -0.03521858      -0.23318780 </v>
   <v>      -0.03534642       0.01680235       0.25475238 </v>
  </varray>
  <varray name="stress" >
   <v>      -5.85473889      -0.11723842      -0.03451464 </v>
   <v>      -0.11723849      -5.86694970      -0.10103506 </v>
   <v>      -0.03451453      -0.10103495       4.52302589 </v>
  </varray>
  <energy>
   <i name="e_fr_energy">   -190.72549835 </i>
   <i name="e_wo_entrp">   -190.62789688 </i>
   <i name="e_0_energy">     -0.19520294 </i>
  </energy>
  <time name="totalsc">  375.56  376.77</time>
 </calculation>
 <calculation>
  <scstep>
   <time name="dav">   21.79   21.84</time>
   <time name="total">   22.30   22.35</time>
   <energy>
    <i name="alphaZ">     90.27188079 </i>
    <i name="ewald">  44714.63046679 </i>
    <i name="hartreedc"> -50758.79358841 </i>
    <i name="XCdc">   -231.75155559 </i>
    <i name="pawpsdc">   4063.01084851 </i>
    <i name="pawaedc">  -3478.87020041 </i>
    <i name="eentropy">     -0.17685416 </i>
    <i name="bandstr">  -1351.96338349 </i>
    <i name="atom">   6761.44252427 </i>
    <i name="e_fr_energy">   -192.19986169 </i>
    <i name="e_wo_entrp">   -192.02300754 </i>
    <i name="e_0_energy">   -192.11143461 </i>
   </energy>
  </scstep>
  <scstep>
   <time name="dav">   27.35   27.42</time>
   <time name="total">   27.86   27.93</time>
   <energy>
    <i name="e_fr_energy">   -191.89692155 </i>
    <i name="e_wo_entrp">   -191.70419186 </i>
    <i name="e_0_energy">   -191.80055671 </i>
   </energy>
  </scstep>
  <scstep>
   <time name="dav">   29.86   29.93</time>
   <time name="total">   30.36   30.44</time>
   <energy>
    <i name="e_fr_energy">   -192.37339119 </i>
    <i name="e_wo_entrp">   -192.18929285 </i>
    <i name="e_0_energy">   -192.28134202 </i>
   </energy>
  </scstep>
  <scstep>
   <time name="dav">   28.55   28.62</time>
   <time name="total">   29.06   29.13</time>
   <energy>
    <i name="e_fr_energy">   -191.68812554 </i>
    <i name="e_wo_entrp">   -191.50744606 </i>
    <i name="e_0_energy">   -191.59778580 </i>
   </energy>
  </scstep>
  <scstep>
   <time name="dav">   29.95   30.02</time>
   <time name="total">   30.46   30.54</time>
   <energy>
    <i name="e_fr_energy">   -191.63369960 </i>
    <i name="e_wo_entrp">   -191.43708023 </i>
    <i name="e_0_energy">   -191.53538991 </i>
   </energy>
  </scstep>
  <scstep>
   <time name="dav">   30.16   30.23</time>
   <time name="total">   30.67   30.75</time>
   <energy>
    <i name="e_fr_energy">   -191.47613010 </i>
    <i name="e_wo_entrp">   -191.29101449 </i>
    <i name="e_0_energy">   -191.38357229 </i>
   </energy>
  </scstep>
  <scstep>
   <time name="dav">   30.51   30.58</time>
   <time name="total">   31.02   31.10</time>
   <energy>
    <i name="e_fr_energy">   -191.46491054 </i>
    <i name="e_wo_entrp">   -191.28232033 </i>
    <i name="e_0_energy">   -191.37361543 </i>
   </energy>
  </scstep>
  <scstep>
   <time name="dav">   30.03   30.10</time>
   <time name="total">   30.54   30.62</time>
   <energy>
    <i name="e_fr_energy">   -191.44872507 </i>
    <i name="e_wo_entrp">   -191.26213979 </i>
    <i name="e_0_energy">   -191.35543243 </i>
   </energy>
  </scstep>
  <scstep>
   <time name="dav">   28.17   28.23</time>
   <time name="total">   28.67   28.75</time>
   <energy>
    <i name="e_fr_energy">   -191.44592036 </i>
    <i name="e_wo_entrp">   -191.26033213 </i>
    <i name="e_0_energy">   -191.35312625 </i>
   </energy>
  </scstep>
  <scstep>
   <time name="dav">   28.60   28.67</time>
   <time name="total">   29.11   29.18</time>
   <energy>
    <i name="e_fr_energy">   -191.44605557 </i>
    <i name="e_wo_entrp">   -191.25992471 </i>
    <i name="e_0_energy">   -191.35299014 </i>
   </energy>
  </scstep>
  <scstep>
   <time name="dav">   26.67   26.74</time>
   <time name="total">   26.71   26.78</time>
   <energy>
    <i name="alphaZ">     90.27188079 </i>
    <i name="ewald">  44714.63046679 </i>
    <i name="hartreedc"> -50723.97606995 </i>
    <i name="XCdc">   -233.29702517 </i>
    <i name="pawpsdc">   4087.96273774 </i>
    <i name="pawaedc">  -3503.94970926 </i>
    <i name="eentropy">     -0.18614177 </i>
    <i name="bandstr">  -1384.34463654 </i>
    <i name="atom">   6761.44252427 </i>
    <i name="e_fr_energy">   -191.44597311 </i>
    <i name="e_wo_entrp">   -191.25983134 </i>
    <i name="e_0_energy">   -191.35290222 </i>
   </energy>
  </scstep>
  <structure>
   <crystal>
    <varray name="basis" >
     <v>       8.27043307       4.77025936       0.00000000 </v>
     <v>      -8.27818953       4.78366818       0.00000000 </v>
     <v>       0.00000000       0.00000000      30.00000000 </v>
    </varray>
    <i name="volume">   2371.56355971 </i>
    <varray name="rec_basis" >
     <v>       0.06051284       0.10471812       0.00000000 </v>
     <v>      -0.06034322       0.10462001       0.00000000 </v>
     <v>       0.00000000       0.00000000       0.03333333 </v>
    </varray>
   </crystal>
   <varray name="positions" >
    <v>       0.67080906      -0.00042140      -0.00033607 </v>
    <v>       0.33364896       0.00312925       0.00002738 </v>
    <v>       0.33381532       0.65884374       0.00011733 </v>
    <v>       0.66598189       0.65300760       0.00011234 </v>
    <v>       1.00772930       0.33038136      -0.00012859 </v>
    <v>       0.32992191       0.33740970       0.00004730 </v>
    <v>       0.00267614       0.01207522       0.00006228 </v>
    <v>      -0.01509896       0.65524866       0.00020317 </v>
    <v>       0.67112353       0.34961449      -0.00016296 </v>
    <v>       0.11137903       0.22141886       0.94622903 </v>
    <v>       0.22450036       0.10791736       0.05156483 </v>
    <v>       0.11750386       0.55977118       0.94891631 </v>
    <v>       0.22619430       0.45206091       0.05287083 </v>
    <v>       0.11531347       0.89084284       0.94985752 </v>
    <v>       0.22685056       0.77954601       0.04839205 </v>
    <v>       0.44248539       0.21713994       0.94898356 </v>
    <v>       0.55356441       0.10668347       0.04880159 </v>
    <v>       0.44108816       0.55932094       0.94773461 </v>
    <v>       0.55483755       0.44265881       0.05395123 </v>
    <v>       0.44437273       0.88828370       0.95222261 </v>
    <v>       0.55220117       0.78027365       0.04942120 </v>
    <v>       0.77381150       0.21672489       0.94969672 </v>
    <v>       0.88236995       0.10743019       0.05235728 </v>
    <v>       0.77783824       0.55517038       0.94480345 </v>
    <v>       0.88811820       0.44321725       0.05293655 </v>
    <v>       0.77517214       0.89159474       0.94920616 </v>
    <v>       0.89000627       0.77887071       0.05211218 </v>
   </varray>
  </structure>
  <varray name="forces" >
   <v>       0.04400384       0.02228485      -0.03668849 </v>
   <v>       0.02040796       0.11057058      -0.01428315 </v>
   <v>       0.14438081      -0.01566197      -0.01008296 </v>
   <v>       0.37681804      -0.16403550      -0.01887500 </v>
   <v>       0.37764231       0.01965080       0.04289883 </v>
   <v>      -0.11244468      -0.19449520       0.00352182 </v>
   <v>      -0.23432137       0.46694498      -0.02286645 </v>
   <v>      -0.19478607      -0.40369486      -0.04864404 </v>
   <v>      -0.29639942       0.18052699       0.05400496 </v>
   <v>      -0.00571174       0.10892148      -0.32507187 </v>
   <v>      -0.12948194       0.03164083       0.09747100 </v>
   <v>      -0.04147820      -0.08371769       0.07753230 </v>
   <v>       0.02971339      -0.04066008       0.15609407 </v>
   <v>      -0.06582964      -0.12153718       0.15216262 </v>
   <v>      -0.07225263      -0.21883118      -0.13371288 </v>
   <v>      -0.05790022       0.14541305       0.00836605 </v>
   <v>      -0.09336951       0.19841419      -0.07137793 </v>
   <v>       0.09855929       0.03511410      -0.05393953 </v>
   <v>      -0.07587584      -0.14125473       0.21314066 </v>
   <v>       0.03615041      -0.01254970      -0.01488452 </v>
   <v>       0.23936660      -0.01962478      -0.03071599 </v>
   <v>      -0.13027562       0.13535521       0.15217755 </v>
   <v>      -0.00348939       0.09132988       0.14554173 </v>
   <v>      -0.04629698      -0.00644274      -0.45740629 </v>
   <v>       0.15061460      -0.08956025       0.07080708 </v>
   <v>       0.15437387      -0.06091078       0.13812346 </v>
   <v>      -0.11211787       0.02680971      -0.07329301 </v>
  </varray>
  <varray name="stress" >
   <v>       0.37497770      -0.22917242      -0.01182502 </v>
   <v>      -0.22917251       0.28047919      -0.33224721 </v>
   <v>      -0.01182493      -0.33224713      -0.23917599 </v>
  </varray>
  <energy>
   <i name="e_fr_energy">   -191.44597311 </i>
   <i name="e_wo_entrp">   -191.35290222 </i>
   <i name="e_0_energy">     -0.18614177 </i>
  </energy>
  <time name="totalsc">  359.04  359.98</time>
 </calculation>
 <calculation>
  <scstep>
   <time name="dav">   21.68   21.73</time>
   <time name="total">   22.19   22.24</time>
   <energy>
    <i name="alphaZ">     90.04983425 </i>
    <i name="ewald">  44592.53438518 </i>
    <i name="hartreedc"> -50600.28219205 </i>
    <i name="XCdc">   -233.54220293 </i>
    <i name="pawpsdc">   4088.43726519 </i>
    <i name="pawaedc">  -3504.42274216 </i>
    <i name="eentropy">     -0.18781136 </i>
    <i name="bandstr">  -1385.54823964 </i>
    <i name="atom">   6761.44252427 </i>
    <i name="e_fr_energy">   -191.51917924 </i>
    <i name="e_wo_entrp">   -191.33136788 </i>
    <i name="e_0_energy">   -191.42527356 </i>
   </energy>
  </scstep>
  <scstep>
   <time name="dav">   31.94   32.02</time>
   <time name="total">   32.45   32.53</time>
   <energy>
    <i name="e_fr_energy">   -191.59302046 </i>
    <i name="e_wo_entrp">   -191.39379053 </i>
    <i name="e_0_energy">   -191.49340549 </i>
   </energy>
  </scstep>
  <scstep>
   <time name="dav">   30.73   30.80</time>
   <time name="total">   31.24   31.32</time>
   <energy>
    <i name="e_fr_energy">   -191.52804832 </i>
    <i name="e_wo_entrp">   -191.33921276 </i>
    <i name="e_0_energy">   -191.43363054 </i>
   </energy>
  </scstep>
  <scstep>
   <time name="dav">   28.50   28.57</time>
   <time name="total">   29.01   29.09</time>
   <energy>
    <i name="e_fr_energy">   -191.53061644 </i>
    <i name="e_wo_entrp">   -191.33956648 </i>
    <i name="e_0_energy">   -191.43509146 </i>
   </energy>
  </scstep>
  <scstep>
   <time name="dav">   27.05   27.11</time>
   <time name="total">   27.56   27.63</time>
   <energy>
    <i name="e_fr_energy">   -191.52640029 </i>
    <i name="e_wo_entrp">   -191.33645024 </i>
    <i name="e_0_energy">   -191.43142527 </i>
   </energy>
  </scstep>
  <scstep>
   <time name="dav">   28.31   28.38</time>
   <time name="total">   28.82   28.90</time>
   <energy>
    <i name="e_fr_energy">   -191.52670865 </i>
    <i name="e_wo_entrp">   -191.33672341 </i>
    <i name="e_0_energy">   -191.43171603 </i>
   </energy>
  </scstep>
  <scstep>
   <time name="dav">   28.21   28.27</time>
   <time name="total">   28.72   28.79</time>
   <energy>
    <i name="e_fr_energy">   -191.52634909 </i>
    <i name="e_wo_entrp">   -191.33659777 </i>
    <i name="e_0_energy">   -191.43147343 </i>
   </energy>
  </scstep>
  <scstep>
   <time name="dav">   25.35   25.41</time>
   <time name="total">   25.86   25.93</time>
   <energy>
    <i name="e_fr_energy">   -191.52579505 </i>
    <i name="e_wo_entrp">   -191.33606101 </i>
    <i name="e_0_energy">   -191.43092803 </i>
   </energy>
  </scstep>
  <scstep>
   <time name="dav">   18.44   18.48</time>
   <time name="total">   18.47   18.53</time>
   <energy>
    <i name="alphaZ">     90.04983425 </i>
    <i name="ewald">  44592.53438518 </i>
    <i name="hartreedc"> -50603.30799467 </i>
    <i name="XCdc">   -233.43167023 </i>
    <i name="pawpsdc">   4084.48731850 </i>
    <i name="pawaedc">  -3500.41704213 </i>
    <i name="eentropy">     -0.18978369 </i>
    <i name="bandstr">  -1382.69336503 </i>
    <i name="atom">   6761.44252427 </i>
    <i name="e_fr_energy">   -191.52579353 </i>
    <i name="e_wo_entrp">   -191.33600984 </i>
    <i name="e_0_energy">   -191.43090169 </i>
   </energy>
  </scstep>
  <structure>
   <crystal>
    <varray name="basis" >
     <v>       8.27891956       4.77090651       0.00000000 </v>
     <v>      -8.29207367       4.79366157       0.00000000 </v>
     <v>       0.00000000       0.00000000      30.00000000 </v>
    </varray>
    <i name="volume">   2377.41140458 </i>
    <varray name="rec_basis" >
     <v>       0.06049010       0.10463574       0.00000000 </v>
     <v>      -0.06020296       0.10446975       0.00000000 </v>
     <v>       0.00000000       0.00000000       0.03333333 </v>
    </varray>
   </crystal>
   <varray name="positions" >
    <v>       0.67096730      -0.00044475      -0.00038960 </v>
    <v>       0.33424313       0.00356324       0.00000320 </v>
    <v>       0.33414824       0.65847358       0.00009911 </v>
    <v>       0.66621471       0.65138646       0.00008066 </v>
    <v>       1.00877088       0.32948514      -0.00005875 </v>
    <v>       0.32873291       0.33675277       0.00005672 </v>
    <v>       0.00422037       0.01479387       0.00003194 </v>
    <v>      -0.01733462       0.65401581       0.00012352 </v>
    <v>       0.67108391       0.35103747      -0.00008304 </v>
    <v>       0.11186664       0.22194189       0.94581330 </v>
    <v>       0.22426659       0.10842392       0.05164768 </v>
    <v>       0.11694126       0.55946440       0.94909159 </v>
    <v>       0.22605185       0.45172961       0.05302527 </v>
    <v>       0.11452814       0.89043153       0.95013227 </v>
    <v>       0.22557021       0.77868779       0.04815414 </v>
    <v>       0.44304397       0.21801603       0.94905283 </v>
    <v>       0.55426686       0.10791343       0.04865341 </v>
    <v>       0.44154469       0.55919537       0.94772696 </v>
    <v>       0.55397013       0.44220495       0.05419274 </v>
    <v>       0.44441145       0.88813630       0.95224182 </v>
    <v>       0.55278758       0.77951184       0.04932620 </v>
    <v>       0.77411255       0.21776115       0.94997539 </v>
    <v>       0.88284567       0.10788587       0.05250315 </v>
    <v>       0.77768780       0.55525900       0.94420890 </v>
    <v>       0.88810797       0.44240194       0.05297702 </v>
    <v>       0.77533442       0.89088157       0.94947001 </v>
    <v>       0.88982986       0.77930427       0.05194346 </v>
   </varray>
  </structure>
  <varray name="forces" >
   <v>       0.03391856      -0.00393783      -0.04577747 </v>
   <v>       0.04583141       0.14220084       0.00243036 </v>
   <v>       0.15887232       0.01929886       0.01384090 </v>
   <v>       0.36738889      -0.23126654      -0.00328474 </v>
   <v>       0.40029015       0.03669707       0.01206898 </v>
   <v>      -0.12811173      -0.20330513      -0.00894568 </v>
   <v>      -0.23714405       0.48710087      -0.03472136 </v>
   <v>      -0.16315461      -0.44238307       0.00391526 </v>
   <v>      -0.33672350       0.22235387       0.02026915 </v>
   <v>      -0.01178346       0.08406350      -0.28329901 </v>
   <v>      -0.07501825       0.02513275       0.09770368 </v>
   <v>      -0.03239907      -0.06124108       0.09556793 </v>
   <v>       0.01853066      -0.01088627       0.12151398 </v>
   <v>      -0.05817295      -0.08005395       0.15552139 </v>
   <v>      -0.06382043      -0.15642601      -0.17835213 </v>
   <v>      -0.04255730       0.07969061       0.00125312 </v>
   <v>      -0.06106247       0.12416317      -0.05708335 </v>
   <v>       0.06361731       0.00772105      -0.03385224 </v>
   <v>      -0.06309145      -0.10690572       0.15103713 </v>
   <v>       0.02465182      -0.00651261       0.01632796 </v>
   <v>       0.16293166      -0.00740643      -0.05458948 </v>
   <v>      -0.08938322       0.09375944       0.17592246 </v>
   <v>       0.00015922       0.06264850       0.11503216 </v>
   <v>      -0.02517465      -0.04768207      -0.31711428 </v>
   <v>       0.08913265      -0.05414013      -0.00476699 </v>
   <v>       0.11447229      -0.01947545       0.16197831 </v>
   <v>      -0.09219981       0.04679177      -0.12259604 </v>
  </varray>
  <varray name="stress" >
   <v>      -0.02500084      -0.05175245      -0.03049815 </v>
   <v>      -0.05175252      -0.13089242      -0.13365491 </v>
   <v>      -0.03049826      -0.13365471      -1.12944865 </v>
  </varray>
  <energy>
   <i name="e_fr_energy">   -191.52579353 </i>
   <i name="e_wo_entrp">   -191.43090169 </i>
   <i name="e_0_energy">     -0.18978369 </i>
  </energy>
  <time name="totalsc">  286.63  287.39</time>
 </calculation>
 <calculation>
  <scstep>
   <time name="dav">   21.66   21.71</time>
   <time name="total">   22.16   22.22</time>
   <energy>
    <i name="alphaZ">     90.12268704 </i>
    <i name="ewald">  44622.32197038 </i>
    <i name="hartreedc"> -50633.69596350 </i>
    <i name="XCdc">   -233.40199487 </i>
    <i name="pawpsdc">   4084.23671586 </i>
    <i name="pawaedc">  -3500.16337473 </i>
    <i name="eentropy">     -0.18718905 </i>
    <i name="bandstr">  -1382.30151886 </i>
    <i name="atom">   6761.44252427 </i>
    <i name="e_fr_energy">   -191.62614346 </i>
    <i name="e_wo_entrp">   -191.43895441 </i>
    <i name="e_0_energy">   -191.53254894 </i>
   </energy>
  </scstep>
  <scstep>
   <time name="dav">   31.81   31.89</time>
   <time name="total">   32.32   32.40</time>
   <energy>
    <i name="e_fr_energy">   -191.72715973 </i>
    <i name="e_wo_entrp">   -191.51973771 </i>
    <i name="e_0_energy">   -191.62344872 </i>
   </energy>
  </scstep>
  <scstep>
   <time name="dav">   30.58   30.65</time>
   <time name="total">   31.08   31.17</time>
   <energy>
    <i name="e_fr_energy">   -191.64132784 </i>
    <i name="e_wo_entrp">   -191.45259796 </i>
    <i name="e_0_energy">   -191.54696290 </i>
   </energy>
  </scstep>
  <scstep>
   <time name="dav">   29.54   29.61</time>
   <time name="total">   30.04   30.12</time>
   <energy>
    <i name="e_fr_energy">   -191.64825301 </i>
    <i name="e_wo_entrp">   -191.45633589 </i>
    <i name="e_0_energy">   -191.55229445 </i>
   </energy>
  </scstep>
  <scstep>
   <time name="dav">   29.15   29.21</time>
   <time name="total">   29.65   29.73</time>
   <energy>
    <i name="e_fr_energy">   -191.63679280 </i>
    <i name="e_wo_entrp">   -191.44606174 </i>
    <i name="e_0_energy">   -191.54142727 </i>
   </energy>
  </scstep>
  <scstep>
   <time name="dav">   28.11   28.18</time>
   <time name="total">   28.62   28.69</time>
   <energy>
    <i name="e_fr_energy">   -191.63828234 </i>
    <i name="e_wo_entrp">   -191.44678121 </i>
    <i name="e_0_energy">   -191.54253177 </i>
   </energy>
  </scstep>
  <scstep>
   <time name="dav">   28.82   28.89</time>
   <time name="total">   29.32   29.40</time>
   <energy>
    <i name="e_fr_energy">   -191.63672904 </i>
    <i name="e_wo_entrp">   -191.44527127 </i>
    <i name="e_0_energy">   -191.54100015 </i>
   </energy>
  </scstep>
  <scstep>
   <time name="dav">   26.12   26.18</time>
   <time name="total">   26.63   26.70</time>
   <energy>
    <i name="e_fr_energy">   -191.63579021 </i>
    <i name="e_wo_entrp">   -191.44450268 </i>
    <i name="e_0_energy">   -191.54014645 </i>
   </energy>
  </scstep>
  <scstep>
   <time name="dav">   20.71   20.76</time>
   <time name="total">   20.74   20.80</time>
   <energy>
    <i name="alphaZ">     90.12268704 </i>
    <i name="ewald">  44622.32197038 </i>
    <i name="hartreedc"> -50634.18300396 </i>
    <i name="XCdc">   -233.36611425 </i>
[...]
      <set comment="kpoint 31">
       <r>  -17.5058    1.0000 </r>
       <r>  -17.2825    1.0000 </r>
       <r>  -16.9300    1.0000 </r>
       <r>  -16.6558    1.0000 </r>
       <r>  -16.5174    1.0000 </r>
       <r>  -16.4152    1.0000 </r>
       <r>  -16.2828    1.0000 </r>
       <r>  -16.1769    1.0000 </r>
       <r>  -16.1196    1.0000 </r>
       <r>  -16.0482    1.0000 </r>
       <r>  -15.9356    1.0000 </r>
       <r>  -15.8537    1.0000 </r>
       <r>  -15.7903    1.0000 </r>
       <r>  -15.7123    1.0000 </r>
       <r>  -15.6041    1.0000 </r>
       <r>  -15.5530    1.0000 </r>
       <r>  -15.3636    1.0000 </r>
       <r>  -15.2745    1.0000 </r>
       <r>   -9.7393    1.0000 </r>
       <r>   -9.4419    1.0000 </r>
       <r>   -9.3190    1.0000 </r>
       <r>   -9.0308    1.0000 </r>
       <r>   -8.8157    1.0000 </r>
       <r>   -8.7160    1.0000 </r>
       <r>   -8.5123    1.0000 </r>
       <r>   -8.4681    1.0000 </r>
       <r>   -8.4428    1.0000 </r>
       <r>   -8.3509    1.0000 </r>
       <r>   -8.2718    1.0000 </r>
       <r>   -8.1851    1.0000 </r>
       <r>   -8.1485    1.0000 </r>
       <r>   -8.0757    1.0000 </r>
       <r>   -8.0074    1.0000 </r>
       <r>   -7.8850    1.0000 </r>
       <r>   -7.7462    1.0000 </r>
       <r>   -7.7127    1.0000 </r>
       <r>   -7.5738    1.0000 </r>
       <r>   -7.4027    1.0000 </r>
       <r>   -7.3394    1.0000 </r>
       <r>   -7.2668    1.0000 </r>
       <r>   -7.1453    1.0000 </r>
       <r>   -7.0665    1.0000 </r>
       <r>   -7.0265    1.0000 </r>
       <r>   -6.9765    1.0000 </r>
       <r>   -6.8621    1.0000 </r>
       <r>   -6.7373    1.0000 </r>
       <r>   -6.6958    1.0000 </r>
       <r>   -6.6111    1.0000 </r>
       <r>   -6.5596    1.0000 </r>
       <r>   -6.4564    1.0000 </r>
       <r>   -6.4043    1.0000 </r>
       <r>   -6.3548    1.0000 </r>
       <r>   -6.2574    1.0000 </r>
       <r>   -6.2133    1.0000 </r>
       <r>   -6.1493    1.0000 </r>
       <r>   -6.0959    1.0000 </r>
       <r>   -6.0529    1.0000 </r>
       <r>   -5.8912    1.0000 </r>
       <r>   -5.8502    1.0000 </r>
       <r>   -5.7856    1.0000 </r>
       <r>   -5.7172    1.0000 </r>
       <r>   -5.6701    1.0000 </r>
       <r>   -5.5912    1.0000 </r>
       <r>   -5.4492    1.0000 </r>
       <r>   -5.2299    1.0000 </r>
       <r>   -5.1016    1.0000 </r>
       <r>   -5.0022    1.0000 </r>
       <r>   -4.8522    1.0000 </r>
       <r>   -4.7551    1.0000 </r>
       <r>   -4.6260    1.0000 </r>
       <r>   -4.5394    1.0000 </r>
       <r>   -4.4042    1.0000 </r>
       <r>   -4.3339    1.0000 </r>
       <r>   -4.2472    1.0000 </r>
       <r>   -4.2128    1.0000 </r>
       <r>   -4.0758    1.0000 </r>
       <r>   -3.9144    1.0000 </r>
       <r>   -3.7569    0.9988 </r>
       <r>   -3.5345    0.9294 </r>
       <r>   -3.3089    0.4507 </r>
       <r>   -3.1033    0.0573 </r>
       <r>   -2.7198    0.0000 </r>
       <r>   -2.5618    0.0000 </r>
       <r>   -2.4553    0.0000 </r>
       <r>   -2.4056    0.0000 </r>
       <r>   -2.3346    0.0000 </r>
       <r>   -2.1829    0.0000 </r>
       <r>   -2.1052    0.0000 </r>
       <r>   -1.8981    0.0000 </r>
       <r>   -1.8866    0.0000 </r>
       <r>   -1.7609    0.0000 </r>
       <r>   -1.6000    0.0000 </r>
       <r>   -1.5247    0.0000 </r>
       <r>   -1.4099    0.0000 </r>
       <r>   -1.2955    0.0000 </r>
       <r>   -1.2337    0.0000 </r>
       <r>   -1.0867    0.0000 </r>
       <r>   -1.0686    0.0000 </r>
       <r>   -0.9708    0.0000 </r>
       <r>   -0.8567    0.0000 </r>
       <r>   -0.7838    0.0000 </r>
       <r>   -0.7485    0.0000 </r>
       <r>   -0.6726    0.0000 </r>
       <r>   -0.6031    0.0000 </r>
       <r>   -0.4931    0.0000 </r>
       <r>   -0.3544    0.0000 </r>
       <r>   -0.2585    0.0000 </r>
       <r>   -0.0289    0.0000 </r>
       <r>    0.0794    0.0000 </r>
       <r>    0.2775    0.0000 </r>
       <r>    0.3326    0.0000 </r>
       <r>    0.5400    0.0000 </r>
       <r>    0.7978    0.0000 </r>
       <r>    0.8894    0.0000 </r>
       <r>    1.0796    0.0000 </r>
       <r>    1.2050    0.0000 </r>
       <r>    1.3317    0.0000 </r>
       <r>    2.1192    0.0000 </r>
       <r>    2.2954    0.0000 </r>
       <r>    2.3698    0.0000 </r>
      </set>
      <set comment="kpoint 32">
       <r>  -17.5261    1.0000 </r>
       <r>  -17.1666    1.0000 </r>
       <r>  -17.0758    1.0000 </r>
       <r>  -16.6490    1.0000 </r>
       <r>  -16.4621    1.0000 </r>
       <r>  -16.3700    1.0000 </r>
       <r>  -16.2907    1.0000 </r>
       <r>  -16.2211    1.0000 </r>
       <r>  -16.1466    1.0000 </r>
       <r>  -16.0257    1.0000 </r>
       <r>  -15.9498    1.0000 </r>
       <r>  -15.8639    1.0000 </r>
       <r>  -15.7671    1.0000 </r>
       <r>  -15.6837    1.0000 </r>
       <r>  -15.6154    1.0000 </r>
       <r>  -15.5788    1.0000 </r>
       <r>  -15.3693    1.0000 </r>
       <r>  -15.2578    1.0000 </r>
       <r>   -9.6730    1.0000 </r>
       <r>   -9.5531    1.0000 </r>
       <r>   -9.3809    1.0000 </r>
       <r>   -9.0152    1.0000 </r>
       <r>   -8.7115    1.0000 </r>
       <r>   -8.6057    1.0000 </r>
       <r>   -8.5410    1.0000 </r>
       <r>   -8.4704    1.0000 </r>
       <r>   -8.4198    1.0000 </r>
       <r>   -8.2988    1.0000 </r>
       <r>   -8.2801    1.0000 </r>
       <r>   -8.2026    1.0000 </r>
       <r>   -8.1785    1.0000 </r>
       <r>   -8.1309    1.0000 </r>
       <r>   -8.0545    1.0000 </r>
       <r>   -7.9453    1.0000 </r>
       <r>   -7.8019    1.0000 </r>
       <r>   -7.6466    1.0000 </r>
       <r>   -7.5175    1.0000 </r>
       <r>   -7.4409    1.0000 </r>
       <r>   -7.3742    1.0000 </r>
       <r>   -7.2713    1.0000 </r>
       <r>   -7.1661    1.0000 </r>
       <r>   -7.0712    1.0000 </r>
       <r>   -7.0158    1.0000 </r>
       <r>   -6.9271    1.0000 </r>
       <r>   -6.8581    1.0000 </r>
       <r>   -6.7964    1.0000 </r>
       <r>   -6.7140    1.0000 </r>
       <r>   -6.5822    1.0000 </r>
       <r>   -6.5223    1.0000 </r>
       <r>   -6.4868    1.0000 </r>
       <r>   -6.3922    1.0000 </r>
       <r>   -6.3485    1.0000 </r>
       <r>   -6.3045    1.0000 </r>
       <r>   -6.1818    1.0000 </r>
       <r>   -6.1417    1.0000 </r>
       <r>   -6.0671    1.0000 </r>
       <r>   -6.0184    1.0000 </r>
       <r>   -5.8927    1.0000 </r>
       <r>   -5.8409    1.0000 </r>
       <r>   -5.7394    1.0000 </r>
       <r>   -5.6863    1.0000 </r>
       <r>   -5.6380    1.0000 </r>
       <r>   -5.4849    1.0000 </r>
       <r>   -5.4260    1.0000 </r>
       <r>   -5.3093    1.0000 </r>
       <r>   -5.1182    1.0000 </r>
       <r>   -5.0888    1.0000 </r>
       <r>   -4.9990    1.0000 </r>
       <r>   -4.8023    1.0000 </r>
       <r>   -4.6564    1.0000 </r>
       <r>   -4.4934    1.0000 </r>
       <r>   -4.3676    1.0000 </r>
       <r>   -4.3232    1.0000 </r>
       <r>   -4.2990    1.0000 </r>
       <r>   -4.1583    1.0000 </r>
       <r>   -4.0504    1.0000 </r>
       <r>   -3.9259    1.0000 </r>
       <r>   -3.6745    0.9931 </r>
       <r>   -3.4933    0.8809 </r>
       <r>   -3.3343    0.5220 </r>
       <r>   -3.0223    0.0157 </r>
       <r>   -2.7534    0.0000 </r>
       <r>   -2.6121    0.0000 </r>
       <r>   -2.4851    0.0000 </r>
       <r>   -2.4330    0.0000 </r>
       <r>   -2.3822    0.0000 </r>
       <r>   -2.1767    0.0000 </r>
       <r>   -2.1327    0.0000 </r>
       <r>   -1.9492    0.0000 </r>
       <r>   -1.8672    0.0000 </r>
       <r>   -1.7765    0.0000 </r>
       <r>   -1.5795    0.0000 </r>
       <r>   -1.5214    0.0000 </r>
       <r>   -1.4053    0.0000 </r>
       <r>   -1.2542    0.0000 </r>
       <r>   -1.2049    0.0000 </r>
       <r>   -1.1064    0.0000 </r>
       <r>   -1.0766    0.0000 </r>
       <r>   -0.9575    0.0000 </r>
       <r>   -0.8528    0.0000 </r>
       <r>   -0.7899    0.0000 </r>
       <r>   -0.7616    0.0000 </r>
       <r>   -0.6710    0.0000 </r>
       <r>   -0.5708    0.0000 </r>
       <r>   -0.4629    0.0000 </r>
       <r>   -0.3187    0.0000 </r>
       <r>   -0.2662    0.0000 </r>
       <r>   -0.0733    0.0000 </r>
       <r>   -0.0136    0.0000 </r>
       <r>    0.2357    0.0000 </r>
       <r>    0.4020    0.0000 </r>
       <r>    0.5928    0.0000 </r>
       <r>    0.7653    0.0000 </r>
       <r>    0.9348    0.0000 </r>
       <r>    1.0515    0.0000 </r>
       <r>    1.2285    0.0000 </r>
       <r>    1.3106    0.0000 </r>
       <r>    2.0939    0.0000 </r>
       <r>    2.2618    0.0000 </r>
       <r>    2.5585    0.0000 </r>
      </set>
      <set comment="kpoint 33">
       <r>  -17.5145    1.0000 </r>
       <r>  -17.2543    1.0000 </r>
       <r>  -16.9456    1.0000 </r>
       <r>  -16.6469    1.0000 </r>
       <r>  -16.5246    1.0000 </r>
       <r>  -16.4191    1.0000 </r>
       <r>  -16.3517    1.0000 </r>
       <r>  -16.1976    1.0000 </r>
       <r>  -16.0768    1.0000 </r>
       <r>  -15.9893    1.0000 </r>
       <r>  -15.9487    1.0000 </r>
       <r>  -15.8641    1.0000 </r>
       <r>  -15.7713    1.0000 </r>
       <r>  -15.6806    1.0000 </r>
       <r>  -15.6049    1.0000 </r>
       <r>  -15.5669    1.0000 </r>
       <r>  -15.4149    1.0000 </r>
       <r>  -15.2466    1.0000 </r>
       <r>   -9.7409    1.0000 </r>
       <r>   -9.4617    1.0000 </r>
       <r>   -9.3021    1.0000 </r>
       <r>   -9.0341    1.0000 </r>
       <r>   -8.8222    1.0000 </r>
       <r>   -8.7008    1.0000 </r>
       <r>   -8.6190    1.0000 </r>
       <r>   -8.4820    1.0000 </r>
       <r>   -8.3941    1.0000 </r>
       <r>   -8.2950    1.0000 </r>
       <r>   -8.2651    1.0000 </r>
       <r>   -8.1861    1.0000 </r>
       <r>   -8.1285    1.0000 </r>
       <r>   -8.0716    1.0000 </r>
       <r>   -8.0060    1.0000 </r>
       <r>   -7.9247    1.0000 </r>
       <r>   -7.7651    1.0000 </r>
       <r>   -7.6700    1.0000 </r>
       <r>   -7.5921    1.0000 </r>
       <r>   -7.3980    1.0000 </r>
       <r>   -7.3718    1.0000 </r>
       <r>   -7.2558    1.0000 </r>
       <r>   -7.1443    1.0000 </r>
       <r>   -7.0610    1.0000 </r>
       <r>   -6.9979    1.0000 </r>
       <r>   -6.9537    1.0000 </r>
       <r>   -6.8636    1.0000 </r>
       <r>   -6.7899    1.0000 </r>
       <r>   -6.7106    1.0000 </r>
       <r>   -6.6221    1.0000 </r>
       <r>   -6.5301    1.0000 </r>
       <r>   -6.5066    1.0000 </r>
       <r>   -6.4066    1.0000 </r>
       <r>   -6.3313    1.0000 </r>
       <r>   -6.2224    1.0000 </r>
       <r>   -6.1674    1.0000 </r>
       <r>   -6.1281    1.0000 </r>
       <r>   -6.0647    1.0000 </r>
       <r>   -6.0021    1.0000 </r>
       <r>   -5.9561    1.0000 </r>
       <r>   -5.8482    1.0000 </r>
       <r>   -5.8005    1.0000 </r>
       <r>   -5.7125    1.0000 </r>
       <r>   -5.6489    1.0000 </r>
       <r>   -5.5592    1.0000 </r>
       <r>   -5.3443    1.0000 </r>
       <r>   -5.2835    1.0000 </r>
       <r>   -5.1846    1.0000 </r>
       <r>   -5.0817    1.0000 </r>
       <r>   -4.9646    1.0000 </r>
       <r>   -4.7926    1.0000 </r>
       <r>   -4.6384    1.0000 </r>
       <r>   -4.5033    1.0000 </r>
       <r>   -4.3816    1.0000 </r>
       <r>   -4.3185    1.0000 </r>
       <r>   -4.2658    1.0000 </r>
       <r>   -4.1264    1.0000 </r>
       <r>   -4.0375    1.0000 </r>
       <r>   -3.9248    1.0000 </r>
       <r>   -3.6117    0.9782 </r>
       <r>   -3.5363    0.9311 </r>
       <r>   -3.3499    0.5659 </r>
       <r>   -2.9073    0.0015 </r>
       <r>   -2.7959    0.0001 </r>
       <r>   -2.6856    0.0000 </r>
       <r>   -2.5182    0.0000 </r>
       <r>   -2.4716    0.0000 </r>
       <r>   -2.4131    0.0000 </r>
       <r>   -2.1835    0.0000 </r>
       <r>   -2.1698    0.0000 </r>
       <r>   -1.9763    0.0000 </r>
       <r>   -1.8596    0.0000 </r>
       <r>   -1.7487    0.0000 </r>
       <r>   -1.5523    0.0000 </r>
       <r>   -1.5153    0.0000 </r>
       <r>   -1.3609    0.0000 </r>
       <r>   -1.2413    0.0000 </r>
       <r>   -1.2163    0.0000 </r>
       <r>   -1.1233    0.0000 </r>
       <r>   -1.0884    0.0000 </r>
       <r>   -0.9414    0.0000 </r>
       <r>   -0.8497    0.0000 </r>
       <r>   -0.7834    0.0000 </r>
       <r>   -0.7433    0.0000 </r>
       <r>   -0.6909    0.0000 </r>
       <r>   -0.5131    0.0000 </r>
       <r>   -0.4373    0.0000 </r>
       <r>   -0.3935    0.0000 </r>
       <r>   -0.2542    0.0000 </r>
       <r>   -0.1288    0.0000 </r>
       <r>   -0.0711    0.0000 </r>
       <r>    0.1786    0.0000 </r>
       <r>    0.4628    0.0000 </r>
       <r>    0.5978    0.0000 </r>
       <r>    0.7586    0.0000 </r>
       <r>    0.9958    0.0000 </r>
       <r>    1.1081    0.0000 </r>
       <r>    1.2293    0.0000 </r>
       <r>    1.3345    0.0000 </r>
       <r>    2.1289    0.0000 </r>
       <r>    2.2900    0.0000 </r>
       <r>    2.3892    0.0000 </r>
      </set>
      <set comment="kpoint 34">
       <r>  -17.4968    1.0000 </r>
       <r>  -17.3127    1.0000 </r>
       <r>  -16.7911    1.0000 </r>
       <r>  -16.6817    1.0000 </r>
       <r>  -16.6407    1.0000 </r>
       <r>  -16.4353    1.0000 </r>
       <r>  -16.3429    1.0000 </r>
       <r>  -16.2051    1.0000 </r>
       <r>  -16.0338    1.0000 </r>
       <r>  -15.9725    1.0000 </r>
       <r>  -15.9515    1.0000 </r>
       <r>  -15.8507    1.0000 </r>
       <r>  -15.7812    1.0000 </r>
       <r>  -15.6916    1.0000 </r>
       <r>  -15.5944    1.0000 </r>
       <r>  -15.5195    1.0000 </r>
       <r>  -15.4732    1.0000 </r>
       <r>  -15.2434    1.0000 </r>
       <r>   -9.7802    1.0000 </r>
       <r>   -9.3739    1.0000 </r>
       <r>   -9.1662    1.0000 </r>
       <r>   -9.1083    1.0000 </r>
       <r>   -8.9535    1.0000 </r>
       <r>   -8.7857    1.0000 </r>
       <r>   -8.6276    1.0000 </r>
       <r>   -8.5081    1.0000 </r>
       <r>   -8.4173    1.0000 </r>
       <r>   -8.2801    1.0000 </r>
       <r>   -8.2502    1.0000 </r>
       <r>   -8.1249    1.0000 </r>
       <r>   -8.1173    1.0000 </r>
       <r>   -8.0647    1.0000 </r>
       <r>   -7.9295    1.0000 </r>
       <r>   -7.8376    1.0000 </r>
       <r>   -7.8225    1.0000 </r>
       <r>   -7.7393    1.0000 </r>
       <r>   -7.5636    1.0000 </r>
       <r>   -7.4146    1.0000 </r>
       <r>   -7.3171    1.0000 </r>
       <r>   -7.2731    1.0000 </r>
       <r>   -7.1649    1.0000 </r>
       <r>   -7.0531    1.0000 </r>
       <r>   -6.9638    1.0000 </r>
       <r>   -6.9316    1.0000 </r>
       <r>   -6.8982    1.0000 </r>
       <r>   -6.7564    1.0000 </r>
       <r>   -6.7151    1.0000 </r>
       <r>   -6.5788    1.0000 </r>
       <r>   -6.5456    1.0000 </r>
       <r>   -6.5119    1.0000 </r>
       <r>   -6.4328    1.0000 </r>
       <r>   -6.3430    1.0000 </r>
       <r>   -6.2622    1.0000 </r>
       <r>   -6.2128    1.0000 </r>
       <r>   -6.1015    1.0000 </r>
       <r>   -6.0509    1.0000 </r>
       <r>   -5.9711    1.0000 </r>
       <r>   -5.9284    1.0000 </r>
       <r>   -5.8809    1.0000 </r>
       <r>   -5.8660    1.0000 </r>
       <r>   -5.7692    1.0000 </r>
       <r>   -5.6365    1.0000 </r>
       <r>   -5.5127    1.0000 </r>
       <r>   -5.4097    1.0000 </r>
       <r>   -5.3281    1.0000 </r>
       <r>   -5.1024    1.0000 </r>
       <r>   -5.0622    1.0000 </r>
       <r>   -4.9713    1.0000 </r>
       <r>   -4.7550    1.0000 </r>
       <r>   -4.6217    1.0000 </r>
       <r>   -4.4692    1.0000 </r>
       <r>   -4.3851    1.0000 </r>
       <r>   -4.3440    1.0000 </r>
       <r>   -4.2450    1.0000 </r>
       <r>   -4.1295    1.0000 </r>
       <r>   -4.0374    1.0000 </r>
       <r>   -3.9222    1.0000 </r>
       <r>   -3.6132    0.9787 </r>
       <r>   -3.5524    0.9450 </r>
       <r>   -3.3422    0.5444 </r>
       <r>   -2.8405    0.0003 </r>
       <r>   -2.8098    0.0001 </r>
       <r>   -2.7489    0.0000 </r>
       <r>   -2.5247    0.0000 </r>
       <r>   -2.4919    0.0000 </r>
       <r>   -2.4252    0.0000 </r>
       <r>   -2.2000    0.0000 </r>
       <r>   -2.1776    0.0000 </r>
       <r>   -1.9847    0.0000 </r>
       <r>   -1.8646    0.0000 </r>
       <r>   -1.7062    0.0000 </r>
       <r>   -1.5706    0.0000 </r>
       <r>   -1.4838    0.0000 </r>
       <r>   -1.3267    0.0000 </r>
       <r>   -1.2634    0.0000 </r>
       <r>   -1.2312    0.0000 </r>
       <r>   -1.1273    0.0000 </r>
       <r>   -1.0863    0.0000 </r>
       <r>   -0.9457    0.0000 </r>
       <r>   -0.8341    0.0000 </r>
       <r>   -0.7862    0.0000 </r>
       <r>   -0.7343    0.0000 </r>
       <r>   -0.6542    0.0000 </r>
       <r>   -0.5731    0.0000 </r>
       <r>   -0.4375    0.0000 </r>
       <r>   -0.3623    0.0000 </r>
       <r>   -0.2623    0.0000 </r>
       <r>   -0.1771    0.0000 </r>
       <r>   -0.0877    0.0000 </r>
       <r>    0.1672    0.0000 </r>
       <r>    0.4752    0.0000 </r>
       <r>    0.5809    0.0000 </r>
       <r>    0.7806    0.0000 </r>
       <r>    1.0131    0.0000 </r>
       <r>    1.1585    0.0000 </r>
       <r>    1.2295    0.0000 </r>
       <r>    1.3514    0.0000 </r>
       <r>    2.2095    0.0000 </r>
       <r>    2.2458    0.0000 </r>
       <r>    2.3812    0.0000 </r>
      </set>
     </set>
    </set>
   </array>
  </eigenvalues>
  <separator name="orbital magnetization" >
   <v name="MAGDIPOLOUT">      0.00000000      0.00000000      0.00000000</v>
  </separator>
 </calculation>
 <structure name="finalpos" >
  <crystal>
   <varray name="basis" >
    <v>       8.34091017       4.81605924       0.00000000 </v>
    <v>      -8.36026198       4.84982260       0.00000000 </v>
    <v>       0.00000000       0.00000000      30.00000000 </v>
   </varray>
   <i name="volume">   2421.46354858 </i>
   <varray name="rec_basis" >
    <v>       0.06008543       0.10357697       0.00000000 </v>
    <v>      -0.05966713       0.10333722       0.00000000 </v>
    <v>       0.00000000       0.00000000       0.03333333 </v>
   </varray>
  </crystal>
  <varray name="positions" >
   <v>       0.64729217      -0.03880946      -0.00261716 </v>
   <v>       0.34979820       0.03370390       0.00177833 </v>
   <v>       0.33601454       0.64641215      -0.00003950 </v>
   <v>       0.64822576       0.63780060      -0.00088525 </v>
   <v>       1.03199770       0.35080704       0.00069472 </v>
   <v>       0.33362659       0.33786608       0.00046022 </v>
   <v>       0.02646269       0.04373933       0.00178097 </v>
   <v>      -0.02917988       0.62890388      -0.00265388 </v>
   <v>       0.65637285       0.35110686       0.00033352 </v>
   <v>       0.11853156       0.23330067       0.94459333 </v>
   <v>       0.22939148       0.11682720       0.05489044 </v>
   <v>       0.11868308       0.56128733       0.94676708 </v>
   <v>       0.23153397       0.45361839       0.05576512 </v>
   <v>       0.11199821       0.89087896       0.95574716 </v>
   <v>       0.22113960       0.77954737       0.04090143 </v>
   <v>       0.44378599       0.22266435       0.94676027 </v>
   <v>       0.55649200       0.10753726       0.04842120 </v>
   <v>       0.44093503       0.55760720       0.94522458 </v>
   <v>       0.55182538       0.44266754       0.05680425 </v>
   <v>       0.43679804       0.88459554       0.95325412 </v>
   <v>       0.54945344       0.76992538       0.05123283 </v>
   <v>       0.77421185       0.21456355       0.95956609 </v>
   <v>       0.88355564       0.11316116       0.05011549 </v>
   <v>       0.76834072       0.54823628       0.94217210 </v>
   <v>       0.88334342       0.43698697       0.05290959 </v>
   <v>       0.78436357       0.88859887       0.95197051 </v>
   <v>       0.89322085       0.78468005       0.04405233 </v>
  </varray>
 </structure>
</modeling>
