   27   27  100    1
  0.9710400E+02  0.1002848E-08  0.1002848E-08  0.3000000E-08  0.5000000E-15
  1.000000000000000E-004
  CAR 
 unknown system                          
    159     34    120
 
  0.0000000E+00  0.0000000E+00  0.0000000E+00  0.1562500E-01
    1      -17.836049   1.000000
    2      -16.742661   1.000000
    3      -16.682446   1.000000
    4      -16.611989   1.000000
    5      -16.539358   1.000000
    6      -16.415761   1.000000
    7      -16.372316   1.000000
    8      -16.347168   1.000000
    9      -16.179552   1.000000
   10      -16.121138   1.000000
   11      -16.094401   1.000000
   12      -15.965734   1.000000
   13      -15.878477   1.000000
   14      -15.668542   1.000000
   15      -15.547906   1.000000
   16      -15.484162   1.000000
   17      -15.364583   1.000000
   18      -15.178772   1.000000
   19       -9.515036   1.000000
   20       -9.118883   1.000000
   21       -8.890651   1.000000
   22       -8.809848   1.000000
   23       -8.743632   1.000000
   24       -8.711220   1.000000
   25       -8.704237   1.000000
   26       -8.573807   1.000000
   27       -8.526238   1.000000
   28       -8.391496   1.000000
   29       -8.336556   1.000000
   30       -8.263792   1.000000
   31       -8.169778   1.000000
   32       -8.143061   1.000000
   33       -7.999287   1.000000
   34       -7.966262   1.000000
   35       -7.869052   1.000000
   36       -7.800164   1.000000
   37       -7.732234   1.000000
   38       -7.605882   1.000000
   39       -7.577705   1.000000
   40       -7.453258   1.000000
   41       -7.357120   1.000000
   42       -7.200538   1.000000
   43       -7.090161   1.000000
   44       -6.893492   1.000000
   45       -6.869724   1.000000
   46       -6.801232   1.000000
   47       -6.782578   1.000000
   48       -6.671181   1.000000
   49       -6.625606   1.000000
   50       -6.474241   1.000000
   51       -6.425563   1.000000
   52       -6.391538   1.000000
   53       -6.327530   1.000000
   54       -6.270250   1.000000
   55       -6.209283   1.000000
   56       -6.129241   1.000000
   57       -6.037478   1.000000
   58       -5.939364   1.000000
   59       -5.677149   1.000000
   60       -5.628711   1.000000
   61       -5.465101   1.000000
   62       -5.365932   1.000000
   63       -5.196340   1.000000
   64       -5.066554   1.000000
   65       -4.987283   1.000000
   66       -4.943316   1.000000
   67       -4.875921   1.000000
   68       -4.829416   1.000000
   69       -4.812981   1.000000
   70       -4.694315   1.000000
   71       -4.643919   1.000000
   72       -4.593668   1.000000
   73       -4.456083   1.000000
   74       -4.289075   1.000000
   75       -4.174659   1.000000
   76       -4.056059   1.000000
   77       -3.671241   0.995398
   78       -3.522145   0.939448
   79       -3.502396   0.920805
   80       -3.455409   0.859540
   81       -3.332844   0.583785
   82       -2.842641   0.000568
   83       -2.692919   0.000008
   84       -2.581078   0.000000
   85       -2.565192   0.000000
   86       -2.500506   0.000000
   87       -2.362184   0.000000
   88       -2.293797   0.000000
   89       -2.282791   0.000000
   90       -2.199199   0.000000
   91       -1.598363   0.000000
   92       -1.544959   0.000000
   93       -1.287184   0.000000
   94       -1.233136   0.000000
   95       -1.170442   0.000000
   96       -1.068488   0.000000
   97       -1.017293   0.000000
   98       -0.966182   0.000000
   99       -0.894854   0.000000
  100       -0.634080   0.000000
  101       -0.603249   0.000000
  102       -0.531908   0.000000
  103       -0.461579   0.000000
  104       -0.380293   0.000000
  105       -0.167662   0.000000
  106        0.022987   0.000000
  107        0.103791   0.000000
  108        0.192963   0.000000
  109        0.255688   0.000000
  110        0.315104   0.000000
  111        0.438289   0.000000
  112        0.541594   0.000000
  113        0.604145   0.000000
  114        0.758513   0.000000
  115        0.808219   0.000000
  116        0.824523   0.000000
  117        1.057802   0.000000
  118        1.640590   0.000000
  119        1.833323   0.000000
  120        2.153641   0.000000
 
  0.1250000E+00  0.2775558E-16  0.0000000E+00  0.3125000E-01
    1      -17.810988   1.000000
    2      -16.830500   1.000000
    3      -16.737444   1.000000
    4      -16.599231   1.000000
    5      -16.479334   1.000000
    6      -16.462524   1.000000
    7      -16.360486   1.000000
    8      -16.307397   1.000000
    9      -16.250587   1.000000
   10      -16.078618   1.000000
   11      -16.027942   1.000000
   12      -15.937963   1.000000
   13      -15.864618   1.000000
   14      -15.677239   1.000000
   15      -15.550088   1.000000
   16      -15.495872   1.000000
   17      -15.361708   1.000000
   18      -15.186918   1.000000
   19       -9.508458   1.000000
   20       -9.272968   1.000000
   21       -8.973501   1.000000
   22       -8.876564   1.000000
   23       -8.818097   1.000000
   24       -8.724223   1.000000
   25       -8.625949   1.000000
   26       -8.543286   1.000000
   27       -8.490689   1.000000
   28       -8.430042   1.000000
   29       -8.309140   1.000000
   30       -8.241707   1.000000
   31       -8.118146   1.000000
   32       -8.071366   1.000000
   33       -8.007382   1.000000
   34       -7.912336   1.000000
   35       -7.840325   1.000000
   36       -7.705669   1.000000
   37       -7.692390   1.000000
   38       -7.582562   1.000000
   39       -7.502993   1.000000
   40       -7.433296   1.000000
   41       -7.366963   1.000000
   42       -7.184373   1.000000
   43       -7.114885   1.000000
   44       -6.975299   1.000000
   45       -6.922429   1.000000
   46       -6.882253   1.000000
   47       -6.765344   1.000000
   48       -6.637927   1.000000
   49       -6.573148   1.000000
   50       -6.482213   1.000000
   51       -6.446076   1.000000
   52       -6.405862   1.000000
   53       -6.322035   1.000000
   54       -6.278805   1.000000
   55       -6.217374   1.000000
   56       -6.076751   1.000000
   57       -6.011307   1.000000
   58       -5.907218   1.000000
   59       -5.650095   1.000000
   60       -5.619656   1.000000
   61       -5.469628   1.000000
   62       -5.429737   1.000000
   63       -5.265778   1.000000
   64       -5.165693   1.000000
   65       -5.112085   1.000000
   66       -4.994216   1.000000
   67       -4.940566   1.000000
   68       -4.813735   1.000000
   69       -4.776102   1.000000
   70       -4.672496   1.000000
   71       -4.562657   1.000000
   72       -4.533361   1.000000
   73       -4.394527   1.000000
   74       -4.201626   1.000000
   75       -4.105343   1.000000
   76       -4.031987   1.000000
   77       -3.826821   0.999894
   78       -3.681004   0.996246
   79       -3.515934   0.933996
   80       -3.380076   0.707318
   81       -3.239087   0.325861
   82       -2.847158   0.000635
   83       -2.670576   0.000004
   84       -2.642460   0.000002
   85       -2.532567   0.000000
   86       -2.479173   0.000000
   87       -2.347685   0.000000
   88       -2.289543   0.000000
   89       -2.248935   0.000000
   90       -2.168196   0.000000
   91       -1.602491   0.000000
   92       -1.555679   0.000000
   93       -1.292366   0.000000
   94       -1.230915   0.000000
   95       -1.169879   0.000000
   96       -1.079216   0.000000
   97       -1.031037   0.000000
   98       -0.940285   0.000000
   99       -0.873805   0.000000
  100       -0.696207   0.000000
  101       -0.655630   0.000000
  102       -0.564275   0.000000
  103       -0.510213   0.000000
  104       -0.427384   0.000000
  105       -0.224371   0.000000
  106       -0.006110   0.000000
  107        0.050943   0.000000
  108        0.130989   0.000000
  109        0.194081   0.000000
  110        0.314208   0.000000
  111        0.435984   0.000000
  112        0.480824   0.000000
  113        0.649217   0.000000
  114        0.764969   0.000000
  115        0.860686   0.000000
  116        0.953252   0.000000
  117        1.118627   0.000000
  118        1.684766   0.000000
  119        1.872228   0.000000
  120        2.188780   0.000000
 
  0.2500000E+00  0.5551115E-16  0.0000000E+00  0.3125000E-01
    1      -17.736939   1.000000
    2      -17.039184   1.000000
    3      -16.725235   1.000000
    4      -16.635373   1.000000
    5      -16.557308   1.000000
    6      -16.404778   1.000000
    7      -16.350668   1.000000
    8      -16.279337   1.000000
    9      -16.230969   1.000000
   10      -16.035328   1.000000
   11      -15.977506   1.000000
   12      -15.879143   1.000000
   13      -15.806066   1.000000
   14      -15.690011   1.000000
   15      -15.575015   1.000000
   16      -15.507996   1.000000
   17      -15.351471   1.000000
   18      -15.208933   1.000000
   19       -9.614543   1.000000
   20       -9.377902   1.000000
   21       -9.165546   1.000000
   22       -8.992470   1.000000
   23       -8.873938   1.000000
   24       -8.717524   1.000000
   25       -8.595344   1.000000
   26       -8.528909   1.000000
   27       -8.447435   1.000000
   28       -8.389236   1.000000
   29       -8.272742   1.000000
   30       -8.207048   1.000000
   31       -8.164738   1.000000
   32       -8.030321   1.000000
   33       -7.935440   1.000000
   34       -7.831701   1.000000
   35       -7.686161   1.000000
   36       -7.645513   1.000000
   37       -7.615220   1.000000
   38       -7.495021   1.000000
   39       -7.459705   1.000000
   40       -7.346751   1.000000
   41       -7.261541   1.000000
   42       -7.166855   1.000000
   43       -7.107371   1.000000
   44       -7.014088   1.000000
   45       -6.975823   1.000000
   46       -6.934582   1.000000
   47       -6.763715   1.000000
   48       -6.649559   1.000000
   49       -6.587129   1.000000
   50       -6.537836   1.000000
   51       -6.440631   1.000000
   52       -6.381779   1.000000
   53       -6.312045   1.000000
   54       -6.221997   1.000000
   55       -6.164087   1.000000
   56       -6.044862   1.000000
   57       -5.974126   1.000000
   58       -5.852719   1.000000
   59       -5.717328   1.000000
   60       -5.622884   1.000000
   61       -5.600415   1.000000
   62       -5.585439   1.000000
   63       -5.466516   1.000000
   64       -5.305878   1.000000
   65       -5.154784   1.000000
   66       -5.044487   1.000000
   67       -4.946236   1.000000
   68       -4.852704   1.000000
   69       -4.755561   1.000000
   70       -4.554531   1.000000
   71       -4.457151   1.000000
   72       -4.408701   1.000000
   73       -4.295849   1.000000
   74       -4.223793   1.000000
   75       -4.074362   1.000000
   76       -4.030953   1.000000
   77       -3.904761   0.999990
   78       -3.828599   0.999899
   79       -3.513310   0.931582
   80       -3.331674   0.580557
   81       -3.149609   0.139165
   82       -2.855303   0.000775
   83       -2.704929   0.000012
   84       -2.605938   0.000000
   85       -2.525613   0.000000
   86       -2.455795   0.000000
   87       -2.320275   0.000000
   88       -2.272032   0.000000
   89       -2.179963   0.000000
   90       -2.065573   0.000000
   91       -1.628626   0.000000
   92       -1.566663   0.000000
   93       -1.328389   0.000000
   94       -1.235133   0.000000
   95       -1.157907   0.000000
   96       -1.094804   0.000000
   97       -1.049647   0.000000
   98       -0.934690   0.000000
   99       -0.868273   0.000000
  100       -0.812496   0.000000
  101       -0.704650   0.000000
  102       -0.667180   0.000000
  103       -0.616347   0.000000
  104       -0.529086   0.000000
  105       -0.340286   0.000000
  106       -0.133652   0.000000
  107       -0.084422   0.000000
  108        0.041566   0.000000
  109        0.145681   0.000000
  110        0.266186   0.000000
  111        0.422000   0.000000
  112        0.484500   0.000000
  113        0.611860   0.000000
  114        0.793604   0.000000
  115        0.997419   0.000000
  116        1.137005   0.000000
  117        1.292311   0.000000
  118        1.807972   0.000000
  119        1.984638   0.000000
  120        2.292787   0.000000
 
  0.3750000E+00  0.0000000E+00  0.0000000E+00  0.3125000E-01
    1      -17.618216   1.000000
    2      -17.249698   1.000000
    3      -16.709038   1.000000
    4      -16.663740   1.000000
    5      -16.618531   1.000000
    6      -16.425748   1.000000
    7      -16.330942   1.000000
    8      -16.250176   1.000000
    9      -16.175201   1.000000
   10      -15.990481   1.000000
   11      -15.927198   1.000000
   12      -15.848381   1.000000
   13      -15.788468   1.000000
   14      -15.688195   1.000000
   15      -15.606897   1.000000
   16      -15.503152   1.000000
   17      -15.331343   1.000000
   18      -15.236904   1.000000
   19       -9.797316   1.000000
   20       -9.346008   1.000000
   21       -9.288032   1.000000
   22       -9.066982   1.000000
   23       -8.931383   1.000000
   24       -8.719340   1.000000
   25       -8.592203   1.000000
   26       -8.511988   1.000000
   27       -8.411889   1.000000
   28       -8.348889   1.000000
   29       -8.240297   1.000000
   30       -8.198746   1.000000
   31       -8.175913   1.000000
   32       -8.008955   1.000000
   33       -7.923568   1.000000
   34       -7.836023   1.000000
   35       -7.717246   1.000000
   36       -7.614616   1.000000
   37       -7.507367   1.000000
   38       -7.484922   1.000000
   39       -7.338258   1.000000
   40       -7.256348   1.000000
   41       -7.225642   1.000000
   42       -7.163127   1.000000
   43       -7.069894   1.000000
   44       -6.982294   1.000000
   45       -6.891263   1.000000
   46       -6.787836   1.000000
   47       -6.691517   1.000000
   48       -6.653564   1.000000
   49       -6.613651   1.000000
   50       -6.496458   1.000000
   51       -6.432520   1.000000
   52       -6.344512   1.000000
   53       -6.292136   1.000000
   54       -6.204026   1.000000
   55       -6.167077   1.000000
   56       -6.072299   1.000000
   57       -5.992647   1.000000
   58       -5.879862   1.000000
   59       -5.851896   1.000000
   60       -5.810532   1.000000
   61       -5.724839   1.000000
   62       -5.645638   1.000000
   63       -5.568359   1.000000
   64       -5.365984   1.000000
   65       -5.165037   1.000000
   66       -5.019936   1.000000
   67       -4.921109   1.000000
   68       -4.821196   1.000000
   69       -4.751030   1.000000
   70       -4.678806   1.000000
   71       -4.445281   1.000000
   72       -4.335777   1.000000
   73       -4.301394   1.000000
   74       -4.200792   1.000000
   75       -4.157825   1.000000
   76       -4.013143   1.000000
   77       -3.833995   0.999913
   78       -3.734581   0.998865
   79       -3.523619   0.940688
   80       -3.313306   0.529269
   81       -3.099487   0.075147
   82       -2.864042   0.000957
   83       -2.724119   0.000021
   84       -2.581505   0.000000
   85       -2.504404   0.000000
   86       -2.455524   0.000000
   87       -2.294849   0.000000
   88       -2.236003   0.000000
   89       -2.108139   0.000000
   90       -1.949121   0.000000
   91       -1.670980   0.000000
   92       -1.561037   0.000000
   93       -1.390601   0.000000
   94       -1.243531   0.000000
   95       -1.180508   0.000000
   96       -1.123525   0.000000
   97       -1.056924   0.000000
   98       -0.995467   0.000000
   99       -0.893435   0.000000
  100       -0.873164   0.000000
  101       -0.781592   0.000000
  102       -0.730693   0.000000
  103       -0.669493   0.000000
  104       -0.612936   0.000000
  105       -0.429883   0.000000
  106       -0.278044   0.000000
  107       -0.167182   0.000000
  108       -0.025048   0.000000
  109        0.103618   0.000000
  110        0.187989   0.000000
  111        0.416241   0.000000
  112        0.494777   0.000000
  113        0.587662   0.000000
  114        0.839946   0.000000
  115        1.105097   0.000000
  116        1.248509   0.000000
  117        1.463920   0.000000
  118        1.991950   0.000000
  119        2.158573   0.000000
  120        2.451986   0.000000
 
  0.5000000E+00  0.1110223E-15  0.0000000E+00  0.1562500E-01
    1      -17.495244   1.000000
    2      -17.404972   1.000000
    3      -16.699000   1.000000
    4      -16.673048   1.000000
    5      -16.644072   1.000000
    6      -16.437636   1.000000
    7      -16.325861   1.000000
    8      -16.239964   1.000000
    9      -16.150920   1.000000
   10      -15.963257   1.000000
   11      -15.903247   1.000000
   12      -15.846583   1.000000
   13      -15.765020   1.000000
   14      -15.730921   1.000000
   15      -15.604704   1.000000
   16      -15.495771   1.000000
   17      -15.317007   1.000000
   18      -15.252896   1.000000
   19       -9.868158   1.000000
   20       -9.361088   1.000000
   21       -9.300092   1.000000
   22       -9.077217   1.000000
   23       -8.954719   1.000000
   24       -8.724918   1.000000
   25       -8.608910   1.000000
   26       -8.527432   1.000000
   27       -8.394908   1.000000
   28       -8.312739   1.000000
   29       -8.211200   1.000000
   30       -8.179971   1.000000
   31       -8.105433   1.000000
   32       -8.072445   1.000000
   33       -7.940401   1.000000
   34       -7.861011   1.000000
   35       -7.778653   1.000000
   36       -7.605226   1.000000
   37       -7.527377   1.000000
   38       -7.438324   1.000000
   39       -7.335544   1.000000
   40       -7.247830   1.000000
   41       -7.165694   1.000000
   42       -7.071271   1.000000
   43       -7.015350   1.000000
   44       -6.958285   1.000000
   45       -6.843473   1.000000
   46       -6.731403   1.000000
   47       -6.677704   1.000000
   48       -6.602452   1.000000
   49       -6.580851   1.000000
   50       -6.475710   1.000000
   51       -6.421854   1.000000
   52       -6.375509   1.000000
   53       -6.329370   1.000000
   54       -6.270844   1.000000
   55       -6.173563   1.000000
   56       -6.095168   1.000000
   57       -5.979107   1.000000
   58       -5.925987   1.000000
   59       -5.894756   1.000000
   60       -5.804294   1.000000
   61       -5.755056   1.000000
   62       -5.659003   1.000000
   63       -5.585680   1.000000
   64       -5.406993   1.000000
   65       -5.151724   1.000000
   66       -5.072454   1.000000
   67       -4.984888   1.000000
   68       -4.862716   1.000000
   69       -4.783603   1.000000
   70       -4.634978   1.000000
   71       -4.414288   1.000000
   72       -4.312842   1.000000
   73       -4.291592   1.000000
   74       -4.234489   1.000000
   75       -4.163031   1.000000
   76       -4.002126   1.000000
   77       -3.789553   0.999710
   78       -3.667597   0.995041
   79       -3.543474   0.955525
   80       -3.309067   0.517334
   81       -3.080741   0.058085
   82       -2.868956   0.001075
   83       -2.727306   0.000023
   84       -2.580478   0.000000
   85       -2.489132   0.000000
   86       -2.458112   0.000000
   87       -2.280583   0.000000
   88       -2.221439   0.000000
   89       -2.071052   0.000000
   90       -1.898899   0.000000
   91       -1.693575   0.000000
   92       -1.553042   0.000000
   93       -1.421482   0.000000
   94       -1.259028   0.000000
   95       -1.203920   0.000000
   96       -1.140198   0.000000
   97       -1.045610   0.000000
   98       -1.031375   0.000000
   99       -0.927876   0.000000
  100       -0.882379   0.000000
  101       -0.814384   0.000000
  102       -0.765335   0.000000
  103       -0.667361   0.000000
  104       -0.641615   0.000000
  105       -0.464421   0.000000
  106       -0.326599   0.000000
  107       -0.193180   0.000000
  108       -0.050532   0.000000
  109        0.084849   0.000000
  110        0.151072   0.000000
  111        0.413091   0.000000
  112        0.503664   0.000000
  113        0.581169   0.000000
  114        0.857914   0.000000
  115        1.143483   0.000000
  116        1.287939   0.000000
  117        1.527384   0.000000
  118        2.219285   0.000000
  119        2.225472   0.000000
  120        2.365948   0.000000
 
  0.0000000E+00  0.1250000E+00  0.0000000E+00  0.3125000E-01
    1      -17.814426   1.000000
    2      -16.762739   1.000000
    3      -16.714002   1.000000
    4      -16.673361   1.000000
    5      -16.579026   1.000000
    6      -16.401107   1.000000
    7      -16.364779   1.000000
    8      -16.294973   1.000000
    9      -16.197582   1.000000
   10      -16.118402   1.000000
   11      -16.044822   1.000000
   12      -15.916328   1.000000
   13      -15.861201   1.000000
   14      -15.684985   1.000000
   15      -15.554332   1.000000
   16      -15.484914   1.000000
   17      -15.363204   1.000000
   18      -15.189720   1.000000
   19       -9.525281   1.000000
   20       -9.166800   1.000000
   21       -8.996214   1.000000
   22       -8.885730   1.000000
   23       -8.823209   1.000000
   24       -8.752656   1.000000
   25       -8.685081   1.000000
   26       -8.585042   1.000000
   27       -8.517558   1.000000
   28       -8.433427   1.000000
   29       -8.329620   1.000000
   30       -8.187189   1.000000
   31       -8.080844   1.000000
   32       -8.061679   1.000000
   33       -7.938759   1.000000
   34       -7.867200   1.000000
   35       -7.809499   1.000000
   36       -7.731694   1.000000
   37       -7.697716   1.000000
   38       -7.619568   1.000000
   39       -7.584277   1.000000
   40       -7.511711   1.000000
   41       -7.266090   1.000000
   42       -7.205432   1.000000
   43       -7.108486   1.000000
   44       -6.960445   1.000000
   45       -6.906079   1.000000
   46       -6.849822   1.000000
   47       -6.802281   1.000000
   48       -6.593731   1.000000
   49       -6.572424   1.000000
   50       -6.519266   1.000000
   51       -6.460110   1.000000
   52       -6.380753   1.000000
   53       -6.349842   1.000000
   54       -6.236437   1.000000
   55       -6.215418   1.000000
   56       -6.128513   1.000000
   57       -5.992927   1.000000
   58       -5.902704   1.000000
   59       -5.661617   1.000000
   60       -5.626546   1.000000
   61       -5.488124   1.000000
   62       -5.406470   1.000000
   63       -5.228456   1.000000
   64       -5.188330   1.000000
   65       -5.096783   1.000000
   66       -4.980331   1.000000
   67       -4.921739   1.000000
   68       -4.842033   1.000000
   69       -4.739920   1.000000
   70       -4.683600   1.000000
   71       -4.624392   1.000000
   72       -4.512822   1.000000
   73       -4.422071   1.000000
   74       -4.212741   1.000000
   75       -4.131370   1.000000
   76       -4.016833   1.000000
   77       -3.816141   0.999858
   78       -3.664414   0.994708
   79       -3.550929   0.960257
   80       -3.363459   0.665700
   81       -3.234401   0.314013
   82       -2.831856   0.000433
   83       -2.694401   0.000008
   84       -2.580709   0.000000
   85       -2.537233   0.000000
   86       -2.471671   0.000000
   87       -2.374317   0.000000
   88       -2.277874   0.000000
   89       -2.241344   0.000000
   90       -2.183739   0.000000
   91       -1.613119   0.000000
   92       -1.539353   0.000000
   93       -1.291287   0.000000
   94       -1.241287   0.000000
   95       -1.181332   0.000000
   96       -1.068544   0.000000
   97       -1.023753   0.000000
   98       -0.961232   0.000000
   99       -0.873272   0.000000
  100       -0.687027   0.000000
  101       -0.663317   0.000000
  102       -0.607296   0.000000
  103       -0.518251   0.000000
  104       -0.380973   0.000000
  105       -0.216041   0.000000
  106       -0.047144   0.000000
  107        0.067945   0.000000
  108        0.140553   0.000000
  109        0.203765   0.000000
  110        0.316469   0.000000
  111        0.398346   0.000000
  112        0.573831   0.000000
  113        0.640133   0.000000
  114        0.808032   0.000000
  115        0.866009   0.000000
  116        0.907305   0.000000
  117        1.070009   0.000000
  118        1.682616   0.000000
  119        1.872176   0.000000
  120        2.188143   0.000000
 
  0.1250000E+00  0.1250000E+00  0.0000000E+00  0.3125000E-01
    1      -17.768841   1.000000
    2      -16.894303   1.000000
    3      -16.794714   1.000000
    4      -16.689996   1.000000
    5      -16.495149   1.000000
    6      -16.420173   1.000000
    7      -16.335008   1.000000
    8      -16.273586   1.000000
    9      -16.245930   1.000000
   10      -16.089402   1.000000
   11      -15.968510   1.000000
   12      -15.877750   1.000000
   13      -15.818315   1.000000
   14      -15.703951   1.000000
   15      -15.568915   1.000000
   16      -15.493244   1.000000
   17      -15.358713   1.000000
   18      -15.204062   1.000000
   19       -9.540327   1.000000
   20       -9.370053   1.000000
   21       -9.084834   1.000000
   22       -9.015782   1.000000
   23       -8.855125   1.000000
   24       -8.692783   1.000000
   25       -8.651214   1.000000
   26       -8.540563   1.000000
   27       -8.497222   1.000000
   28       -8.382273   1.000000
   29       -8.314915   1.000000
   30       -8.209721   1.000000
   31       -8.085156   1.000000
   32       -8.021145   1.000000
   33       -7.981161   1.000000
   34       -7.823500   1.000000
   35       -7.745786   1.000000
   36       -7.702706   1.000000
   37       -7.585818   1.000000
   38       -7.518396   1.000000
   39       -7.434591   1.000000
   40       -7.384537   1.000000
   41       -7.300958   1.000000
   42       -7.211811   1.000000
   43       -7.112259   1.000000
   44       -7.006260   1.000000
   45       -6.942431   1.000000
   46       -6.905727   1.000000
   47       -6.797479   1.000000
   48       -6.626552   1.000000
   49       -6.596943   1.000000
   50       -6.515947   1.000000
   51       -6.435543   1.000000
   52       -6.415713   1.000000
   53       -6.303210   1.000000
   54       -6.228886   1.000000
   55       -6.194050   1.000000
   56       -6.091484   1.000000
   57       -5.957970   1.000000
   58       -5.846015   1.000000
   59       -5.669828   1.000000
   60       -5.618313   1.000000
   61       -5.574811   1.000000
   62       -5.505684   1.000000
   63       -5.401045   1.000000
   64       -5.246546   1.000000
   65       -5.170354   1.000000
   66       -5.063673   1.000000
   67       -4.953059   1.000000
   68       -4.882620   1.000000
   69       -4.705275   1.000000
   70       -4.600068   1.000000
   71       -4.517708   1.000000
   72       -4.430332   1.000000
   73       -4.337528   1.000000
   74       -4.173232   1.000000
   75       -4.082701   1.000000
   76       -4.022115   1.000000
   77       -3.954129   0.999998
   78       -3.801886   0.999791
   79       -3.527816   0.944111
   80       -3.321522   0.552323
   81       -3.168530   0.170983
   82       -2.838421   0.000511
   83       -2.669380   0.000004
   84       -2.600780   0.000000
   85       -2.523246   0.000000
   86       -2.445752   0.000000
   87       -2.352505   0.000000
   88       -2.257743   0.000000
   89       -2.183678   0.000000
   90       -2.123479   0.000000
   91       -1.614156   0.000000
   92       -1.547908   0.000000
   93       -1.320212   0.000000
   94       -1.257378   0.000000
   95       -1.180695   0.000000
   96       -1.076845   0.000000
   97       -1.041012   0.000000
   98       -0.956074   0.000000
   99       -0.865340   0.000000
  100       -0.760397   0.000000
  101       -0.734428   0.000000
  102       -0.674186   0.000000
  103       -0.586418   0.000000
  104       -0.493139   0.000000
  105       -0.266600   0.000000
  106       -0.120354   0.000000
  107       -0.016436   0.000000
  108        0.021577   0.000000
  109        0.176023   0.000000
  110        0.264710   0.000000
  111        0.426771   0.000000
  112        0.529515   0.000000
  113        0.658616   0.000000
  114        0.864734   0.000000
  115        0.952601   0.000000
  116        1.048180   0.000000
  117        1.158191   0.000000
  118        1.763956   0.000000
  119        1.948081   0.000000
  120        2.256987   0.000000
 
  0.2500000E+00  0.1250000E+00  0.0000000E+00  0.3125000E-01
    1      -17.677117   1.000000
    2      -17.109081   1.000000
    3      -16.846767   1.000000
    4      -16.685686   1.000000
    5      -16.461019   1.000000
    6      -16.396537   1.000000
    7      -16.347912   1.000000
    8      -16.260138   1.000000
    9      -16.225332   1.000000
   10      -16.049491   1.000000
   11      -15.921242   1.000000
   12      -15.840232   1.000000
   13      -15.792138   1.000000
   14      -15.692439   1.000000
   15      -15.596599   1.000000
   16      -15.501785   1.000000
   17      -15.342767   1.000000
   18      -15.225394   1.000000
   19       -9.675055   1.000000
   20       -9.487145   1.000000
   21       -9.248588   1.000000
   22       -9.039782   1.000000
   23       -8.886264   1.000000
   24       -8.660376   1.000000
   25       -8.535894   1.000000
   26       -8.502356   1.000000
   27       -8.416058   1.000000
   28       -8.392036   1.000000
   29       -8.257198   1.000000
   30       -8.212322   1.000000
   31       -8.173762   1.000000
   32       -8.064953   1.000000
   33       -8.000530   1.000000
   34       -7.861187   1.000000
   35       -7.746565   1.000000
   36       -7.541864   1.000000
   37       -7.533454   1.000000
   38       -7.418903   1.000000
   39       -7.359934   1.000000
   40       -7.330320   1.000000
   41       -7.251464   1.000000
   42       -7.117960   1.000000
   43       -7.073812   1.000000
   44       -6.999113   1.000000
   45       -6.908205   1.000000
   46       -6.873928   1.000000
   47       -6.738874   1.000000