<?xml version="1.0" encoding="ISO-8859-1"?>
<modeling>
 <generator>
  <i name="program" type="string">vasp </i>
  <i name="version" type="string">5.4.1  </i>
  <i name="subversion" type="string">05Feb16 (build Jul 05 2020 17:13:04) complex                          parallel </i>
  <i name="platform" type="string">IFC91_ompi </i>
  <i name="date" type="string">2024 04 27 </i>
  <i name="time" type="string">08:18:04 </i>
 </generator>
 <incar>
  <i type="int" name="ISTART">     0</i>
  <i type="string" name="PREC">normal</i>
  <i type="string" name="ALGO"> Normal</i>
  <i type="int" name="ISPIN">     1</i>
  <i type="int" name="ICHARG">     2</i>
  <i type="int" name="IBRION">     1</i>
  <i type="int" name="NSW">   100</i>
  <i type="int" name="ISIF">     3</i>
  <i type="int" name="ISYM">     0</i>
  <i name="SYMPREC">      0.00000001</i>
  <i name="POTIM">      0.50000000</i>
  <i type="logical" name="LREAL"> F  </i>
  <i type="logical" name="LPLANE"> F  </i>
  <i type="int" name="ISMEAR">     0</i>
  <i type="logical" name="LWAVE"> F  </i>
  <i type="logical" name="LCHARG"> F  </i>
  <v type="int" name="KPOINT_BSE">    -1     0     0     0</v>
 </incar>
 <kpoints>
  <generation param="Gamma">
   <v type="int" name="divisions">       8        8        1 </v>
   <v name="usershift">      0.00000000       0.00000000       0.00000000 </v>
   <v name="genvec1">      0.12500000       0.00000000       0.00000000 </v>
   <v name="genvec2">     -0.00000000       0.12500000       0.00000000 </v>
   <v name="genvec3">      0.00000000       0.00000000       1.00000000 </v>
   <v name="shift">      0.00000000       0.00000000       0.00000000 </v>
  </generation>
  <varray name="kpointlist" >
   <v>       0.00000000       0.00000000       0.00000000 </v>
   <v>       0.12500000       0.00000000       0.00000000 </v>
   <v>       0.25000000       0.00000000       0.00000000 </v>
   <v>       0.37500000       0.00000000       0.00000000 </v>
   <v>       0.50000000       0.00000000       0.00000000 </v>
   <v>       0.00000000       0.12500000       0.00000000 </v>
   <v>       0.12500000       0.12500000       0.00000000 </v>
   <v>       0.25000000       0.12500000       0.00000000 </v>
   <v>       0.37500000       0.12500000       0.00000000 </v>
   <v>       0.50000000       0.12500000       0.00000000 </v>
   <v>      -0.37500000       0.12500000       0.00000000 </v>
   <v>      -0.25000000       0.12500000       0.00000000 </v>
   <v>      -0.12500000       0.12500000       0.00000000 </v>
   <v>       0.00000000       0.25000000       0.00000000 </v>
   <v>       0.12500000       0.25000000       0.00000000 </v>
   <v>       0.25000000       0.25000000       0.00000000 </v>
   <v>       0.37500000       0.25000000       0.00000000 </v>
   <v>       0.50000000       0.25000000       0.00000000 </v>
   <v>      -0.37500000       0.25000000       0.00000000 </v>
   <v>      -0.25000000       0.25000000       0.00000000 </v>
   <v>      -0.12500000       0.25000000       0.00000000 </v>
   <v>      -0.00000000       0.37500000       0.00000000 </v>
   <v>       0.12500000       0.37500000       0.00000000 </v>
   <v>       0.25000000       0.37500000       0.00000000 </v>
   <v>       0.37500000       0.37500000       0.00000000 </v>
   <v>       0.50000000       0.37500000       0.00000000 </v>
   <v>      -0.37500000       0.37500000       0.00000000 </v>
   <v>      -0.25000000       0.37500000       0.00000000 </v>
   <v>      -0.12500000       0.37500000       0.00000000 </v>
   <v>       0.00000000       0.50000000       0.00000000 </v>
   <v>       0.12500000       0.50000000       0.00000000 </v>
   <v>       0.25000000       0.50000000       0.00000000 </v>
   <v>       0.37500000       0.50000000       0.00000000 </v>
   <v>       0.50000000       0.50000000       0.00000000 </v>
  </varray>
  <varray name="weights" >
   <v>       0.01562500 </v>
   <v>       0.03125000 </v>
   <v>       0.03125000 </v>
   <v>       0.03125000 </v>
   <v>       0.01562500 </v>
   <v>       0.03125000 </v>
   <v>       0.03125000 </v>
   <v>       0.03125000 </v>
   <v>       0.03125000 </v>
   <v>       0.03125000 </v>
   <v>       0.03125000 </v>
   <v>       0.03125000 </v>
   <v>       0.03125000 </v>
   <v>       0.03125000 </v>
   <v>       0.03125000 </v>
   <v>       0.03125000 </v>
   <v>       0.03125000 </v>
   <v>       0.03125000 </v>
   <v>       0.03125000 </v>
   <v>       0.03125000 </v>
   <v>       0.03125000 </v>
   <v>       0.03125000 </v>
   <v>       0.03125000 </v>
   <v>       0.03125000 </v>
   <v>       0.03125000 </v>
   <v>       0.03125000 </v>
   <v>       0.03125000 </v>
   <v>       0.03125000 </v>
   <v>       0.03125000 </v>
   <v>       0.01562500 </v>
   <v>       0.03125000 </v>
   <v>       0.03125000 </v>
   <v>       0.03125000 </v>
   <v>       0.01562500 </v>
  </varray>
 </kpoints>
 <parameters>
  <separator name="general" >
   <i type="string" name="SYSTEM">unknown system</i>
   <i type="logical" name="LCOMPAT"> F  </i>
  </separator>
  <separator name="electronic" >
   <i type="string" name="PREC">normal</i>
   <i name="ENMAX">    280.00000000</i>
   <i name="ENAUG">    373.43800000</i>
   <i name="EDIFF">      0.00010000</i>
   <i type="int" name="IALGO">    38</i>
   <i type="int" name="IWAVPR">    11</i>
   <i type="int" name="NBANDS">   120</i>
   <i name="NELECT">    159.00000000</i>
   <i type="int" name="TURBO">     0</i>
   <i type="int" name="IRESTART">     0</i>
   <i type="int" name="NREBOOT">     0</i>
   <i type="int" name="NMIN">     0</i>
   <i name="EREF">      0.00000000</i>
   <separator name="electronic smearing" >
    <i type="int" name="ISMEAR">     0</i>
    <i name="SIGMA">      0.20000000</i>
    <i name="KSPACING">      0.50000000</i>
    <i type="logical" name="KGAMMA"> T  </i>
   </separator>
   <separator name="electronic projectors" >
    <i type="logical" name="LREAL"> F  </i>
    <v name="ROPT">      0.00000000      0.00000000      0.00000000      0.00000000</v>
    <i type="int" name="LMAXPAW">  -100</i>
    <i type="int" name="LMAXMIX">     2</i>
    <i type="logical" name="NLSPLINE"> F  </i>
   </separator>
   <separator name="electronic startup" >
    <i type="int" name="ISTART">     0</i>
    <i type="int" name="ICHARG">     2</i>
    <i type="int" name="INIWAV">     1</i>
   </separator>
   <separator name="electronic spin" >
    <i type="int" name="ISPIN">     1</i>
    <i type="logical" name="LNONCOLLINEAR"> F  </i>
    <v name="MAGMOM">      1.00000000      1.00000000      1.00000000      1.00000000      1.00000000      1.00000000      1.00000000      1.00000000      1.00000000      1.00000000      1.00000000      1.00000000      1.00000000      1.00000000      1.00000000      1.00000000      1.00000000      1.00000000      1.00000000      1.00000000
      1.00000000      1.00000000      1.00000000      1.00000000      1.00000000      1.00000000      1.00000000</v>
    <i name="NUPDOWN">     -1.00000000</i>
    <i type="logical" name="LSORBIT"> F  </i>
    <v name="SAXIS">      0.00000000      0.00000000      1.00000000</v>
    <i type="logical" name="LSPIRAL"> F  </i>
    <v name="QSPIRAL">      0.00000000      0.00000000      0.00000000</v>
    <i type="logical" name="LZEROZ"> F  </i>
   </separator>
   <separator name="electronic exchange-correlation" >
    <i type="logical" name="LASPH"> F  </i>
    <i type="logical" name="LMETAGGA"> F  </i>
   </separator>
   <separator name="electronic convergence" >
    <i type="int" name="NELM">    60</i>
    <i type="int" name="NELMDL">    -5</i>
    <i type="int" name="NELMIN">     2</i>
    <i name="ENINI">    280.00000000</i>
    <separator name="electronic convergence detail" >
     <i type="logical" name="LDIAG"> T  </i>
     <i type="logical" name="LSUBROT"> F  </i>
     <i name="WEIMIN">      0.00100000</i>
     <i name="EBREAK">      0.00000021</i>
     <i name="DEPER">      0.30000000</i>
     <i type="int" name="NRMM">     4</i>
     <i name="TIME">      0.40000000</i>
    </separator>
   </separator>
   <separator name="electronic mixer" >
    <i name="AMIX">      0.40000000</i>
    <i name="BMIX">      1.00000000</i>
    <i name="AMIN">      0.10000000</i>
    <i name="AMIX_MAG">      1.60000000</i>
    <i name="BMIX_MAG">      1.00000000</i>
    <separator name="electronic mixer details" >
     <i type="int" name="IMIX">     4</i>
     <i type="logical" name="MIXFIRST"> F  </i>
     <i type="int" name="MAXMIX">   -45</i>
     <i name="WC">    100.00000000</i>
     <i type="int" name="INIMIX">     1</i>
     <i type="int" name="MIXPRE">     1</i>
     <i type="int" name="MREMOVE">     5</i>
    </separator>
   </separator>
   <separator name="electronic dipolcorrection" >
    <i type="logical" name="LDIPOL"> F  </i>
    <i type="logical" name="LMONO"> F  </i>
    <i type="int" name="IDIPOL">     0</i>
    <i name="EPSILON">      1.00000000</i>
    <v name="DIPOL">   -100.00000000   -100.00000000   -100.00000000</v>
    <i name="EFIELD">      0.00000000</i>
   </separator>
  </separator>
  <separator name="grids" >
   <i type="int" name="NGX">    42</i>
   <i type="int" name="NGY">    42</i>
   <i type="int" name="NGZ">   126</i>
   <i type="int" name="NGXF">    84</i>
   <i type="int" name="NGYF">    84</i>
   <i type="int" name="NGZF">   252</i>
   <i type="logical" name="ADDGRID"> F  </i>
  </separator>
  <separator name="ionic" >
   <i type="int" name="NSW">   100</i>
   <i type="int" name="IBRION">     1</i>
   <i type="int" name="ISIF">     3</i>
   <i name="PSTRESS">      0.00000000</i>
   <i name="EDIFFG">      0.00100000</i>
   <i type="int" name="NFREE">     0</i>
   <i name="POTIM">      0.50000000</i>
   <i name="SMASS">     -3.00000000</i>
   <i name="SCALEE">      1.00000000</i>
  </separator>
  <separator name="ionic md" >
   <i name="TEBEG">      0.00010000</i>
   <i name="TEEND">      0.00010000</i>
   <i type="int" name="NBLOCK">     1</i>
   <i type="int" name="KBLOCK">   100</i>
   <i type="int" name="NPACO">   256</i>
   <i name="APACO">     16.00000000</i>
  </separator>
  <separator name="symmetry" >
   <i type="int" name="ISYM">     0</i>
   <i name="SYMPREC">      0.00000001</i>
  </separator>
  <separator name="dos" >
   <i type="logical" name="LORBIT"> F  </i>
   <v name="RWIGS">     -1.00000000     -1.00000000     -1.00000000     -1.00000000</v>
   <i type="int" name="NEDOS">   301</i>
   <i name="EMIN">     10.00000000</i>
   <i name="EMAX">    -10.00000000</i>
   <i name="EFERMI">      0.00000000</i>
  </separator>
  <separator name="writing" >
   <i type="int" name="NWRITE">     2</i>
   <i type="logical" name="LWAVE"> F  </i>
   <i type="logical" name="LCHARG"> F  </i>
   <i type="logical" name="LPARD"> F  </i>
   <i type="logical" name="LVTOT"> F  </i>
   <i type="logical" name="LVHAR"> F  </i>
   <i type="logical" name="LELF"> F  </i>
   <i type="logical" name="LOPTICS"> F  </i>
   <v name="STM">      0.00000000      0.00000000      0.00000000      0.00000000      0.00000000      0.00000000      0.00000000</v>
  </separator>
  <separator name="performance" >
   <i type="int" name="NPAR">    40</i>
   <i type="int" name="NSIM">     4</i>
   <i type="int" name="NBLK">    -1</i>
   <i type="logical" name="LPLANE"> F  </i>
   <i type="logical" name="LSCALAPACK"> T  </i>
   <i type="logical" name="LSCAAWARE"> F  </i>
   <i type="logical" name="LSCALU"> F  </i>
   <i type="logical" name="LASYNC"> F  </i>
   <i type="logical" name="LORBITALREAL"> F  </i>
  </separator>
  <separator name="miscellaneous" >
   <i type="int" name="IDIOT">     3</i>
   <i type="logical" name="LMUSIC"> F  </i>
   <v name="POMASS">     50.94100000     95.94000000    183.85000000     32.06600000</v>
   <v name="DARWINR">      0.00000000      0.00000000      0.00000000      0.00000000</v>
   <v name="DARWINV">      1.00000000      1.00000000      1.00000000      1.00000000</v>
   <i type="logical" name="LCORR"> T  </i>
  </separator>
  <i type="logical" name="GGA_COMPAT"> T  </i>
  <i type="logical" name="LBERRY"> F  </i>
  <i type="int" name="ICORELEVEL">     0</i>
  <i type="logical" name="LDAU"> F  </i>
  <i type="int" name="I_CONSTRAINED_M">     0</i>
  <separator name="electronic exchange-correlation" >
   <i type="string" name="GGA">--</i>
   <i type="int" name="VOSKOWN">     0</i>
   <i type="logical" name="LHFCALC"> F  </i>
   <i type="string" name="PRECFOCK"></i>
   <i type="logical" name="LSYMGRAD"> F  </i>
   <i type="logical" name="LHFONE"> F  </i>
   <i type="logical" name="LRHFCALC"> F  </i>
   <i type="logical" name="LTHOMAS"> F  </i>
   <i type="logical" name="LMODELHF"> F  </i>
   <i name="ENCUT4O">     -1.00000000</i>
   <i type="int" name="EXXOEP">     0</i>
   <i type="int" name="FOURORBIT">     0</i>
   <i name="AEXX">      0.00000000</i>
   <i name="HFALPHA">      0.00000000</i>
   <i name="MCALPHA">      0.00000000</i>
   <i name="ALDAX">      1.00000000</i>
   <i name="AGGAX">      1.00000000</i>
   <i name="ALDAC">      1.00000000</i>
   <i name="AGGAC">      1.00000000</i>
   <i type="int" name="NKREDX">     1</i>
   <i type="int" name="NKREDY">     1</i>
   <i type="int" name="NKREDZ">     1</i>
   <i type="logical" name="SHIFTRED"> F  </i>
   <i type="logical" name="ODDONLY"> F  </i>
   <i type="logical" name="EVENONLY"> F  </i>
   <i type="int" name="LMAXFOCK">     0</i>
   <i type="int" name="NMAXFOCKAE">     0</i>
   <i type="logical" name="LFOCKAEDFT"> F  </i>
   <i name="HFSCREEN">      0.00000000</i>
   <i name="HFSCREENC">      0.00000000</i>
   <i type="int" name="NBANDSGWLOW">     0</i>
  </separator>
  <separator name="vdW DFT" >
   <i type="logical" name="LUSE_VDW"> F  </i>
   <i name="Zab_VDW">     -0.84910000</i>
   <i name="PARAM1">      0.12340000</i>
   <i name="PARAM2">      1.00000000</i>
   <i name="PARAM3">      0.00000000</i>
  </separator>
  <separator name="model GW" >
   <i type="int" name="MODEL_GW">     0</i>
   <i name="MODEL_EPS0">     58.26239943</i>
   <i name="MODEL_ALPHA">      1.00000000</i>
  </separator>
  <separator name="linear response parameters" >
   <i type="logical" name="LEPSILON"> F  </i>
   <i type="logical" name="LRPA"> F  </i>
   <i type="logical" name="LNABLA"> F  </i>
   <i type="logical" name="LVEL"> F  </i>
   <i type="int" name="KINTER">     0</i>
   <i name="CSHIFT">      0.10000000</i>
   <i name="OMEGAMAX">     -1.00000000</i>
   <i name="DEG_THRESHOLD">      0.00200000</i>
  </separator>
  <separator name="orbital magnetization" >
   <i type="logical" name="NUCIND"> F  </i>
   <v name="MAGPOS">      0.00000000      0.00000000      0.00000000</v>
   <i type="logical" name="LNICSALL"> T  </i>
   <i type="logical" name="ORBITALMAG"> F  </i>
   <i type="logical" name="LMAGBLOCH"> F  </i>
   <i type="logical" name="LCHIMAG"> F  </i>
   <i type="logical" name="LGAUGE"> T  </i>
   <i type="int" name="MAGATOM">     0</i>
   <v name="MAGDIPOL">      0.00000000      0.00000000      0.00000000</v>
   <v name="AVECCONST">      0.00000000      0.00000000      0.00000000</v>
  </separator>
  <separator name="response functions" >
   <i type="logical" name="LADDER"> F  </i>
   <i type="logical" name="LFXC"> F  </i>
   <i type="logical" name="LHARTREE"> T  </i>
   <i type="int" name="IBSE">     0</i>
   <v type="int" name="KPOINT">    -1     0     0     0</v>
   <i type="logical" name="LTCTE"> F  </i>
   <i type="logical" name="LTETE"> F  </i>
   <i type="logical" name="LTRIPLET"> F  </i>
   <i type="logical" name="LFXCEPS"> F  </i>
   <i type="logical" name="LFXHEG"> F  </i>
   <i type="int" name="NATURALO">     0</i>
   <i type="logical" name="L2ORDER"> F  </i>
   <i type="logical" name="LUSEW"> F  </i>
   <i name="ENCUTGW">     -2.00000000</i>
   <i name="ENCUTGWSOFT">     -2.00000000</i>
   <i name="ENCUTLF">     -1.00000000</i>
   <i type="int" name="LMAXMP2">    -1</i>
   <i name="SCISSOR">      0.00000000</i>
   <i type="int" name="NOMEGA">     0</i>
   <i type="int" name="NOMEGAR">     0</i>
   <i type="int" name="NBANDSGW">    -1</i>
   <i type="int" name="NBANDSO">    -1</i>
   <i type="int" name="NBANDSV">    -1</i>
   <i type="int" name="NELM">     1</i>
   <i type="int" name="NELMHF">     1</i>
   <i type="int" name="DIM">     3</i>
   <i type="int" name="ANTIRES">     0</i>
   <i name="OMEGAMAX">    -30.00000000</i>
   <i name="OMEGAMIN">    -30.00000000</i>
   <i name="OMEGATL">   -200.00000000</i>
   <i type="int" name="OMEGAGRID">     0</i>
   <i name="CSHIFT">     -0.10000000</i>
   <i type="logical" name="SELFENERGY"> F  </i>
   <i type="logical" name="LSPECTRAL"> F  </i>
   <i type="logical" name="LSPECTRALGW"> F  </i>
   <i type="logical" name="LSINGLES"> F  </i>
   <i type="logical" name="LFERMIGW"> F  </i>
   <i type="logical" name="ODDONLYGW"> F  </i>
   <i type="logical" name="EVENONLYGW"> F  </i>
   <i type="int" name="NKREDLFX">     1</i>
   <i type="int" name="NKREDLFY">     1</i>
   <i type="int" name="NKREDLFZ">     1</i>
   <i type="int" name="MAXMEM">  1800</i>
   <i type="int" name="TELESCOPE">     0</i>
   <i type="int" name="TAUPAR">     1</i>
   <i type="int" name="OMEGAPAR">    -1</i>
   <i name="LAMBDA">      1.00000000</i>
  </separator>
  <separator name="External order field" >
   <i name="OFIELD_KAPPA">      0.00000000</i>
   <v name="OFIELD_K">      0.00000000      0.00000000      0.00000000</v>
   <i name="OFIELD_Q6_NEAR">      0.00000000</i>
   <i name="OFIELD_Q6_FAR">      0.00000000</i>
   <i name="OFIELD_A">      0.00000000</i>
  </separator>
 </parameters>
 <atominfo>
  <atoms>      27 </atoms>
  <types>       4 </types>
  <array name="atoms" >
   <dimension dim="1">ion</dimension>
   <field type="string">element</field>
   <field type="int">atomtype</field>
   <set>
    <rc><c>V </c><c>   1</c></rc>
    <rc><c>V </c><c>   1</c></rc>
    <rc><c>V </c><c>   1</c></rc>
    <rc><c>Mo</c><c>   2</c></rc>
    <rc><c>Mo</c><c>   2</c></rc>
    <rc><c>Mo</c><c>   2</c></rc>
    <rc><c>W </c><c>   3</c></rc>
    <rc><c>W </c><c>   3</c></rc>
    <rc><c>W </c><c>   3</c></rc>
    <rc><c>S </c><c>   4</c></rc>
    <rc><c>S </c><c>   4</c></rc>
    <rc><c>S </c><c>   4</c></rc>
    <rc><c>S </c><c>   4</c></rc>
    <rc><c>S </c><c>   4</c></rc>
    <rc><c>S </c><c>   4</c></rc>
    <rc><c>S </c><c>   4</c></rc>
    <rc><c>S </c><c>   4</c></rc>
    <rc><c>S </c><c>   4</c></rc>
    <rc><c>S </c><c>   4</c></rc>
    <rc><c>S </c><c>   4</c></rc>
    <rc><c>S </c><c>   4</c></rc>
    <rc><c>S </c><c>   4</c></rc>
    <rc><c>S </c><c>   4</c></rc>
    <rc><c>S </c><c>   4</c></rc>
    <rc><c>S </c><c>   4</c></rc>
    <rc><c>S </c><c>   4</c></rc>
    <rc><c>S </c><c>   4</c></rc>
   </set>
  </array>
  <array name="atomtypes" >
   <dimension dim="1">type</dimension>
   <field type="int">atomspertype</field>
   <field type="string">element</field>
   <field>mass</field>
   <field>valence</field>
   <field type="string">pseudopotential</field>
   <set>
    <rc><c>   3</c><c>V </c><c>     50.94100000</c><c>      5.00000000</c><c> PAW_PBE V 08Apr2002                    </c></rc>
    <rc><c>   3</c><c>Mo</c><c>     95.94000000</c><c>      6.00000000</c><c> PAW_PBE Mo 08Apr2002                   </c></rc>
    <rc><c>   3</c><c>W </c><c>    183.85000000</c><c>      6.00000000</c><c> PAW_PBE W 08Apr2002                    </c></rc>
    <rc><c>  18</c><c>S </c><c>     32.06600000</c><c>      6.00000000</c><c>  PAW_PBE S 17Jan2003                   </c></rc>
   </set>
  </array>
 </atominfo>
 <structure name="initialpos" >
  <crystal>
   <varray name="basis" >
    <v>       8.66999996       5.03999989       0.00000000 </v>
    <v>      -8.66999982       5.04000013       0.00000000 </v>
    <v>       0.00000000       0.00000000      30.00000000 </v>
   </varray>
   <i name="volume">   2621.80797419 </i>
   <varray name="rec_basis" >
    <v>       0.05767013       0.09920635       0.00000000 </v>
    <v>      -0.05767013       0.09920635       0.00000000 </v>
    <v>       0.00000000       0.00000000       0.03333333 </v>
   </varray>
  </crystal>
  <varray name="positions" >
   <v>       1.00000000       0.33333334       0.00000000 </v>
   <v>       0.33333334       0.33333334       0.00000000 </v>
   <v>       0.00000000       0.66666669       0.00000000 </v>
   <v>       0.66666669       0.66666669       0.00000000 </v>
   <v>       0.66666669       0.33333334       0.00000000 </v>
   <v>       0.33333334       0.66666669       0.00000000 </v>
   <v>       0.00000000       0.00000000       0.00000000 </v>
   <v>       0.33333334       0.00000000       0.00000000 </v>
   <v>       0.66666669       0.00000000       0.00000000 </v>
   <v>       0.11068511       0.22244981       0.95539999 </v>
   <v>       0.22244981       0.11068511       0.04460000 </v>
   <v>       0.11068511       0.55578315       0.95539999 </v>
   <v>       0.22244981       0.44401845       0.04460000 </v>
   <v>       0.11068511       0.88911647       0.95539999 </v>
   <v>       0.22244981       0.77735180       0.04460000 </v>
   <v>       0.44401845       0.22244981       0.95539999 </v>
   <v>       0.55578315       0.11068511       0.04460000 </v>
   <v>       0.44401845       0.55578315       0.95539999 </v>
   <v>       0.55578315       0.44401845       0.04460000 </v>
   <v>       0.44401845       0.88911647       0.95539999 </v>
   <v>       0.55578315       0.77735180       0.04460000 </v>
   <v>       0.77735180       0.22244981       0.95539999 </v>
   <v>       0.88911647       0.11068511       0.04460000 </v>
   <v>       0.77735180       0.55578315       0.95539999 </v>
   <v>       0.88911647       0.44401845       0.04460000 </v>
   <v>       0.77735180       0.88911647       0.95539999 </v>
   <v>       0.88911647       0.77735180       0.04460000 </v>
  </varray>
 </structure>
 <calculation>
  <scstep>
   <time name="dav">   21.74   21.80</time>
   <time name="total">   21.79   21.85</time>
   <energy>
    <i name="alphaZ">     81.65567618 </i>
    <i name="ewald">  41890.25210944 </i>
    <i name="hartreedc"> -47722.89516424 </i>
    <i name="XCdc">   -242.92702698 </i>
    <i name="pawpsdc">   3467.42045192 </i>
    <i name="pawaedc">  -2871.19716117 </i>
    <i name="eentropy">     -0.53346574 </i>
    <i name="bandstr">   -239.69437541 </i>
    <i name="atom">   6761.44252427 </i>
    <i name="e_fr_energy">   1123.52356827 </i>
    <i name="e_wo_entrp">   1124.05703401 </i>
    <i name="e_0_energy">   1123.79030114 </i>
   </energy>
  </scstep>
  <scstep>
   <time name="dav">   28.36   28.43</time>
   <time name="total">   28.36   28.44</time>
   <energy>
    <i name="e_fr_energy">     -3.77105198 </i>
    <i name="e_wo_entrp">     -3.55577922 </i>
    <i name="e_0_energy">     -3.66341560 </i>
   </energy>
  </scstep>
  <scstep>
   <time name="dav">   27.67   27.74</time>
   <time name="total">   27.67   27.74</time>
   <energy>
    <i name="e_fr_energy">   -199.97293933 </i>
    <i name="e_wo_entrp">   -199.70637825 </i>
    <i name="e_0_energy">   -199.83965879 </i>
   </energy>
  </scstep>
  <scstep>
   <time name="dav">   29.95   30.02</time>
   <time name="total">   29.95   30.03</time>
   <energy>
    <i name="e_fr_energy">   -208.98865770 </i>
    <i name="e_wo_entrp">   -208.68345878 </i>
    <i name="e_0_energy">   -208.83605824 </i>
   </energy>
  </scstep>
  <scstep>
   <time name="dav">   28.65   28.72</time>
   <time name="total">   29.12   29.19</time>
   <energy>
    <i name="e_fr_energy">   -209.32346511 </i>
    <i name="e_wo_entrp">   -209.02106623 </i>
    <i name="e_0_energy">   -209.17226567 </i>
   </energy>
  </scstep>
  <scstep>
   <time name="dav">   30.67   30.75</time>
   <time name="total">   31.18   31.27</time>
   <energy>
    <i name="e_fr_energy">   -237.08448730 </i>
    <i name="e_wo_entrp">   -236.80584966 </i>
    <i name="e_0_energy">   -236.94516848 </i>
   </energy>
  </scstep>
  <scstep>
   <time name="dav">   32.48   32.56</time>
   <time name="total">   32.99   33.08</time>
   <energy>
    <i name="e_fr_energy">   -196.44497910 </i>
    <i name="e_wo_entrp">   -196.12828713 </i>
    <i name="e_0_energy">   -196.28663311 </i>
   </energy>
  </scstep>
  <scstep>
   <time name="dav">   29.97   30.04</time>
   <time name="total">   30.49   30.57</time>
   <energy>
    <i name="e_fr_energy">   -189.40239963 </i>
    <i name="e_wo_entrp">   -189.11080663 </i>
    <i name="e_0_energy">   -189.25660313 </i>
   </energy>
  </scstep>
  <scstep>
   <time name="dav">   31.86   31.93</time>
   <time name="total">   32.38   32.47</time>
   <energy>
    <i name="e_fr_energy">   -188.16927571 </i>
    <i name="e_wo_entrp">   -187.82997916 </i>
    <i name="e_0_energy">   -187.99962744 </i>
   </energy>
  </scstep>
  <scstep>
   <time name="dav">   32.78   32.86</time>
   <time name="total">   33.32   33.41</time>
   <energy>
    <i name="e_fr_energy">   -186.99907307 </i>
    <i name="e_wo_entrp">   -186.65151614 </i>
    <i name="e_0_energy">   -186.82529461 </i>
   </energy>
  </scstep>
  <scstep>
   <time name="dav">   32.47   32.55</time>
   <time name="total">   33.01   33.10</time>
   <energy>
    <i name="e_fr_energy">   -186.96724241 </i>
    <i name="e_wo_entrp">   -186.61742186 </i>
    <i name="e_0_energy">   -186.79233213 </i>
   </energy>
  </scstep>
  <scstep>
   <time name="dav">   30.29   30.36</time>
   <time name="total">   30.83   30.91</time>
   <energy>
    <i name="e_fr_energy">   -187.08941324 </i>
    <i name="e_wo_entrp">   -186.74957988 </i>
    <i name="e_0_energy">   -186.91949656 </i>
   </energy>
  </scstep>
  <scstep>
   <time name="dav">   31.64   31.72</time>
   <time name="total">   32.18   32.26</time>
   <energy>
    <i name="e_fr_energy">   -186.88104471 </i>
    <i name="e_wo_entrp">   -186.54416422 </i>
    <i name="e_0_energy">   -186.71260446 </i>
   </energy>
  </scstep>
  <scstep>
   <time name="dav">   32.81   32.89</time>
   <time name="total">   33.35   33.44</time>
   <energy>
    <i name="e_fr_energy">   -186.85663308 </i>
    <i name="e_wo_entrp">   -186.51195435 </i>
    <i name="e_0_energy">   -186.68429371 </i>
   </energy>
  </scstep>
  <scstep>
   <time name="dav">   29.59   29.66</time>
   <time name="total">   30.13   30.21</time>
   <energy>
    <i name="e_fr_energy">   -186.83708205 </i>
    <i name="e_wo_entrp">   -186.49028870 </i>
    <i name="e_0_energy">   -186.66368538 </i>
   </energy>
  </scstep>
  <scstep>
   <time name="dav">   29.75   29.82</time>
   <time name="total">   30.29   30.37</time>
   <energy>
    <i name="e_fr_energy">   -186.82943265 </i>
    <i name="e_wo_entrp">   -186.48265185 </i>
    <i name="e_0_energy">   -186.65604225 </i>
   </energy>
  </scstep>
  <scstep>
   <time name="dav">   31.13   31.20</time>
   <time name="total">   31.67   31.75</time>
   <energy>
    <i name="e_fr_energy">   -186.82755349 </i>
    <i name="e_wo_entrp">   -186.48273329 </i>
    <i name="e_0_energy">   -186.65514339 </i>
   </energy>
  </scstep>
  <scstep>
   <time name="dav">   29.14   29.21</time>
   <time name="total">   29.68   29.76</time>
   <energy>
    <i name="e_fr_energy">   -186.82709303 </i>
    <i name="e_wo_entrp">   -186.48202903 </i>
    <i name="e_0_energy">   -186.65456103 </i>
   </energy>
  </scstep>
  <scstep>
   <time name="dav">   27.67   27.74</time>
   <time name="total">   28.21   28.29</time>
   <energy>
    <i name="e_fr_energy">   -186.82673915 </i>
    <i name="e_wo_entrp">   -186.48138896 </i>
    <i name="e_0_energy">   -186.65406406 </i>
   </energy>
  </scstep>
  <scstep>
   <time name="dav">   23.89   23.94</time>
   <time name="total">   24.43   24.49</time>
   <energy>
    <i name="e_fr_energy">   -186.82747681 </i>
    <i name="e_wo_entrp">   -186.48230181 </i>
    <i name="e_0_energy">   -186.65488931 </i>
   </energy>
  </scstep>
  <scstep>
   <time name="dav">   21.29   21.34</time>
   <time name="total">   21.83   21.89</time>
   <energy>
    <i name="e_fr_energy">   -186.82806766 </i>
    <i name="e_wo_entrp">   -186.48306274 </i>
    <i name="e_0_energy">   -186.65556520 </i>
   </energy>
  </scstep>
  <scstep>
   <time name="dav">   20.54   20.59</time>
   <time name="total">   21.09   21.14</time>
   <energy>
    <i name="e_fr_energy">   -186.82923307 </i>
    <i name="e_wo_entrp">   -186.48406718 </i>
    <i name="e_0_energy">   -186.65665013 </i>
   </energy>
  </scstep>
  <scstep>
   <time name="dav">   20.44   20.49</time>
   <time name="total">   20.98   21.04</time>
   <energy>
    <i name="e_fr_energy">   -186.83045994 </i>
    <i name="e_wo_entrp">   -186.48540162 </i>
    <i name="e_0_energy">   -186.65793078 </i>
   </energy>
  </scstep>
  <scstep>
   <time name="dav">   18.67   18.72</time>
   <time name="total">   19.21   19.27</time>
   <energy>
    <i name="e_fr_energy">   -186.83104809 </i>
    <i name="e_wo_entrp">   -186.48597220 </i>
    <i name="e_0_energy">   -186.65851015 </i>
   </energy>
  </scstep>
  <scstep>
   <time name="dav">   17.07   17.11</time>
   <time name="total">   17.61   17.66</time>
   <energy>
    <i name="e_fr_energy">   -186.83141327 </i>
    <i name="e_wo_entrp">   -186.48629819 </i>
    <i name="e_0_energy">   -186.65885573 </i>
   </energy>
  </scstep>
  <scstep>
   <time name="dav">   18.85   18.89</time>
   <time name="total">   19.39   19.44</time>
   <energy>
    <i name="e_fr_energy">   -186.83164814 </i>
    <i name="e_wo_entrp">   -186.48654927 </i>
    <i name="e_0_energy">   -186.65909871 </i>
   </energy>
  </scstep>
  <scstep>
   <time name="dav">   19.63   19.67</time>
   <time name="total">   20.16   20.22</time>
   <energy>
    <i name="e_fr_energy">   -186.83175118 </i>
    <i name="e_wo_entrp">   -186.48665024 </i>
    <i name="e_0_energy">   -186.65920071 </i>
   </energy>
  </scstep>
  <scstep>
   <time name="dav">   20.24   20.29</time>
   <time name="total">   20.28   20.34</time>
   <energy>
    <i name="alphaZ">     81.65567618 </i>
    <i name="ewald">  41890.25210944 </i>
    <i name="hartreedc"> -47832.89620462 </i>
    <i name="XCdc">   -231.61129549 </i>
    <i name="pawpsdc">   4192.00683298 </i>
    <i name="pawaedc">  -3610.00929711 </i>
    <i name="eentropy">     -0.34509835 </i>
    <i name="bandstr">  -1437.32703918 </i>
    <i name="atom">   6761.44252427 </i>
    <i name="e_fr_energy">   -186.83179189 </i>
    <i name="e_wo_entrp">   -186.48669354 </i>
    <i name="e_0_energy">   -186.65924271 </i>
   </energy>
  </scstep>
  <structure>
   <crystal>
    <varray name="basis" >
     <v>       8.66999996       5.03999989       0.00000000 </v>
     <v>      -8.66999982       5.04000013       0.00000000 </v>
     <v>       0.00000000       0.00000000      30.00000000 </v>
    </varray>
    <i name="volume">   2621.80797419 </i>
    <varray name="rec_basis" >
     <v>       0.05767013       0.09920635       0.00000000 </v>
     <v>      -0.05767013       0.09920635       0.00000000 </v>
     <v>       0.00000000       0.00000000       0.03333333 </v>
    </varray>
   </crystal>
   <varray name="positions" >
    <v>       1.00000000       0.33333334       0.00000000 </v>
    <v>       0.33333334       0.33333334       0.00000000 </v>
    <v>       0.00000000       0.66666669       0.00000000 </v>
    <v>       0.66666669       0.66666669       0.00000000 </v>
    <v>       0.66666669       0.33333334       0.00000000 </v>
    <v>       0.33333334       0.66666669       0.00000000 </v>
    <v>       0.00000000       0.00000000       0.00000000 </v>
    <v>       0.33333334       0.00000000       0.00000000 </v>
    <v>       0.66666669       0.00000000       0.00000000 </v>
    <v>       0.11068511       0.22244981       0.95539999 </v>
    <v>       0.22244981       0.11068511       0.04460000 </v>
    <v>       0.11068511       0.55578315       0.95539999 </v>
    <v>       0.22244981       0.44401845       0.04460000 </v>
    <v>       0.11068511       0.88911647       0.95539999 </v>
    <v>       0.22244981       0.77735180       0.04460000 </v>
    <v>       0.44401845       0.22244981       0.95539999 </v>
    <v>       0.55578315       0.11068511       0.04460000 </v>
    <v>       0.44401845       0.55578315       0.95539999 </v>
    <v>       0.55578315       0.44401845       0.04460000 </v>
    <v>       0.44401845       0.88911647       0.95539999 </v>
    <v>       0.55578315       0.77735180       0.04460000 </v>
    <v>       0.77735180       0.22244981       0.95539999 </v>
    <v>       0.88911647       0.11068511       0.04460000 </v>
    <v>       0.77735180       0.55578315       0.95539999 </v>
    <v>       0.88911647       0.44401845       0.04460000 </v>
    <v>       0.77735180       0.88911647       0.95539999 </v>
    <v>       0.88911647       0.77735180       0.04460000 </v>
   </varray>
  </structure>
  <varray name="forces" >
   <v>      -0.19866534       0.20657332      -0.01067191 </v>
   <v>      -0.07590964       0.44311196      -0.08690860 </v>
   <v>       0.06559276      -0.28289868       0.09944860 </v>
   <v>       0.01803505      -0.29167419       0.09495571 </v>
   <v>      -0.25137880       0.15487848      -0.00221649 </v>
   <v>       0.24615910       0.08550608       0.01601025 </v>
   <v>      -0.01815421      -0.23787996      -0.02983344 </v>
   <v>       0.25166740       0.12454960      -0.09796091 </v>
   <v>      -0.00855032      -0.28775081      -0.02728774 </v>
   <v>      -0.22391489       0.53425208      -1.41338419 </v>
   <v>      -0.47747352       0.57173684       2.12466942 </v>
   <v>      -0.31375058      -0.66775124      -1.41289248 </v>
   <v>       0.31348732      -0.66305345       1.41510533 </v>
   <v>       0.46627717      -0.55138592      -2.14808672 </v>
   <v>      -0.62628160      -0.57574129       2.13732485 </v>
   <v>      -0.69053856      -0.16329116      -2.13391501 </v>
   <v>      -0.04067543      -0.10627032       2.90991115 </v>
   <v>       0.52781577      -0.73116583      -2.18333949 </v>
   <v>      -0.52482863      -0.67513275       2.17532152 </v>
   <v>       0.03564970       0.15335720      -2.95252353 </v>
   <v>      -0.18555937       0.17114319       2.91127779 </v>
   <v>       0.61325271       0.53920758      -2.11293796 </v>
   <v>      -0.46714236       0.56208274       2.16884424 </v>
   <v>       0.53218607       0.69326436      -2.14781675 </v>
   <v>       0.31131544       0.69722498       1.45155027 </v>
   <v>       0.03825047       0.14619131      -2.88571082 </v>
   <v>       0.68313429       0.15091585       2.14106691 </v>
  </varray>
  <varray name="stress" >
   <v>       7.30516217       0.13885223      -1.63158544 </v>
   <v>       0.13885227       4.42409434       0.14736520 </v>
   <v>      -1.63158556       0.14736507      30.32936604 </v>
  </varray>
  <energy>
   <i name="e_fr_energy">   -186.83179189 </i>
   <i name="e_wo_entrp">   -186.65924271 </i>
   <i name="e_0_energy">     -0.34509835 </i>
  </energy>
  <time name="totalsc">  804.36  806.52</time>
 </calculation>
 <calculation>
  <scstep>
   <time name="dav">   21.75   21.80</time>
   <time name="total">   22.29   22.35</time>
   <energy>
    <i name="alphaZ">     78.92709367 </i>
    <i name="ewald">  39382.16999748 </i>
    <i name="hartreedc"> -45339.65844442 </i>
    <i name="XCdc">   -239.06724322 </i>
    <i name="pawpsdc">   4192.00687729 </i>
    <i name="pawaedc">  -3610.00933518 </i>
    <i name="eentropy">     -0.28733115 </i>
    <i name="bandstr">  -1412.98347242 </i>
    <i name="atom">   6761.44252427 </i>
    <i name="e_fr_energy">   -187.45933368 </i>
    <i name="e_wo_entrp">   -187.17200253 </i>
    <i name="e_0_energy">   -187.31566811 </i>
   </energy>
  </scstep>
  <scstep>
   <time name="dav">   30.43   30.50</time>
   <time name="total">   30.97   31.05</time>
   <energy>
    <i name="e_fr_energy">   -189.26065517 </i>
    <i name="e_wo_entrp">   -188.94519526 </i>
    <i name="e_0_energy">   -189.10292521 </i>
   </energy>
  </scstep>
  <scstep>
   <time name="dav">   30.50   30.57</time>
   <time name="total">   31.05   31.13</time>
   <energy>
    <i name="e_fr_energy">   -189.36717251 </i>
    <i name="e_wo_entrp">   -189.08625118 </i>
    <i name="e_0_energy">   -189.22671184 </i>
   </energy>
  </scstep>
  <scstep>
   <time name="dav">   30.94   31.02</time>
   <time name="total">   31.49   31.57</time>
   <energy>
    <i name="e_fr_energy">   -188.72490128 </i>
    <i name="e_wo_entrp">   -188.43869760 </i>
    <i name="e_0_energy">   -188.58179944 </i>
   </energy>
  </scstep>
  <scstep>
   <time name="dav">   25.96   26.02</time>
   <time name="total">   26.50   26.58</time>
   <energy>
    <i name="e_fr_energy">   -188.72133939 </i>
    <i name="e_wo_entrp">   -188.43343339 </i>
    <i name="e_0_energy">   -188.57738639 </i>
   </energy>
  </scstep>
  <scstep>
   <time name="dav">   27.47   27.53</time>
   <time name="total">   28.02   28.09</time>
   <energy>
    <i name="e_fr_energy">   -188.66022661 </i>
    <i name="e_wo_entrp">   -188.37393500 </i>
    <i name="e_0_energy">   -188.51708081 </i>
   </energy>
  </scstep>
  <scstep>
   <time name="dav">   28.44   28.51</time>
   <time name="total">   28.99   29.07</time>
   <energy>
    <i name="e_fr_energy">   -188.64268403 </i>
    <i name="e_wo_entrp">   -188.35686244 </i>
    <i name="e_0_energy">   -188.49977323 </i>
   </energy>
  </scstep>
  <scstep>
   <time name="dav">   30.64   30.72</time>
   <time name="total">   31.19   31.27</time>
   <energy>
    <i name="e_fr_energy">   -188.63857171 </i>
    <i name="e_wo_entrp">   -188.35374062 </i>
    <i name="e_0_energy">   -188.49615616 </i>
   </energy>
  </scstep>
  <scstep>
   <time name="dav">   31.97   32.05</time>
   <time name="total">   32.52   32.60</time>
   <energy>
    <i name="e_fr_energy">   -188.63412166 </i>
    <i name="e_wo_entrp">   -188.34878805 </i>
    <i name="e_0_energy">   -188.49145485 </i>
   </energy>
  </scstep>
  <scstep>
   <time name="dav">   31.46   31.54</time>
   <time name="total">   32.02   32.10</time>
   <energy>
    <i name="e_fr_energy">   -188.63377125 </i>
    <i name="e_wo_entrp">   -188.34900539 </i>
    <i name="e_0_energy">   -188.49138832 </i>
   </energy>
  </scstep>
  <scstep>
   <time name="dav">   29.89   29.97</time>
   <time name="total">   30.44   30.52</time>
   <energy>
    <i name="e_fr_energy">   -188.63351664 </i>
    <i name="e_wo_entrp">   -188.34911861 </i>
    <i name="e_0_energy">   -188.49131763 </i>
   </energy>
  </scstep>
  <scstep>
   <time name="dav">   27.62   27.69</time>
   <time name="total">   28.17   28.25</time>
   <energy>
    <i name="e_fr_energy">   -188.63385718 </i>
    <i name="e_wo_entrp">   -188.34958530 </i>
    <i name="e_0_energy">   -188.49172124 </i>
   </energy>
  </scstep>
  <scstep>
   <time name="dav">   24.87   24.93</time>
   <time name="total">   25.44   25.51</time>
   <energy>
    <i name="e_fr_energy">   -188.63353202 </i>
    <i name="e_wo_entrp">   -188.34896699 </i>
    <i name="e_0_energy">   -188.49124950 </i>
   </energy>
  </scstep>
  <scstep>
   <time name="dav">   20.25   20.30</time>
   <time name="total">   20.80   20.86</time>
   <energy>
    <i name="e_fr_energy">   -188.63363947 </i>
    <i name="e_wo_entrp">   -188.34901839 </i>
    <i name="e_0_energy">   -188.49132893 </i>
   </energy>
  </scstep>
  <scstep>
   <time name="dav">   20.69   20.74</time>
   <time name="total">   20.72   20.78</time>
   <energy>
    <i name="alphaZ">     78.92709367 </i>
    <i name="ewald">  39382.16999748 </i>
    <i name="hartreedc"> -45350.08519910 </i>
    <i name="XCdc">   -237.98535430 </i>
    <i name="pawpsdc">   3949.08550828 </i>
    <i name="pawaedc">  -3363.57731010 </i>
    <i name="eentropy">     -0.28459632 </i>
    <i name="bandstr">  -1408.32633734 </i>
    <i name="atom">   6761.44252427 </i>
    <i name="e_fr_energy">   -188.63367344 </i>
    <i name="e_wo_entrp">   -188.34907713 </i>
    <i name="e_0_energy">   -188.49137529 </i>
   </energy>
  </scstep>
  <structure>
   <crystal>
    <varray name="basis" >
     <v>       8.85723150       5.10871454       0.00000000 </v>
     <v>      -8.85313903       5.10167499       0.00000000 </v>
     <v>       0.00000000       0.00000000      30.00000000 </v>
    </varray>
    <i name="volume">   2712.44629659 </i>
    <varray name="rec_basis" >
     <v>       0.05642517       0.09791684       0.00000000 </v>
     <v>      -0.05650303       0.09796210       0.00000000 </v>
     <v>       0.00000000       0.00000000       0.03333333 </v>
    </varray>
   </crystal>
   <varray name="positions" >
    <v>       1.00043594       0.33487472      -0.00001716 </v>
    <v>       0.33524287       0.33566526      -0.00013976 </v>
    <v>      -0.00117146       0.66513025       0.00015992 </v>
    <v>       0.66532092       0.66522056       0.00015270 </v>
    <v>       0.66670856       0.33477396      -0.00000356 </v>
    <v>       0.33442743       0.66639106       0.00002575 </v>
    <v>      -0.00118900      -0.00108798      -0.00004797 </v>
    <v>       0.33462961      -0.00010409      -0.00015753 </v>
    <v>       0.66526573      -0.00135338      -0.00004388 </v>
    <v>       0.11261906       0.22562969       0.95312714 </v>
    <v>       0.22385772       0.11474984       0.04801666 </v>
    <v>       0.10661636       0.55346021       0.95312793 </v>
    <v>       0.22014862       0.43997292       0.04687561 </v>
    <v>       0.10934345       0.88518029       0.95194568 </v>
    <v>       0.21795191       0.77633873       0.04803701 </v>
    <v>       0.44131576       0.22358949       0.95196847 </v>
    <v>       0.55516138       0.11028967       0.04927939 </v>
    <v>       0.44198758       0.55081534       0.95188899 </v>
    <v>       0.55109183       0.44224744       0.04809811 </v>
    <v>       0.44485160       0.88975125       0.95065207 </v>
    <v>       0.55608598       0.77868714       0.04928159 </v>
    <v>       0.78163860       0.22332428       0.95200220 </v>
    <v>       0.89050692       0.11467489       0.04808769 </v>
    <v>       0.78215037       0.55762047       0.95194611 </v>
    <v>       0.89331950       0.44648923       0.04693422 </v>
    <v>       0.77815788       0.88970972       0.95075951 </v>
    <v>       0.89173933       0.77617349       0.04804302 </v>
   </varray>
  </structure>
  <varray name="forces" >
   <v>      -0.13982036       0.12080349      -0.07285065 </v>
   <v>      -0.02223041       0.40524824      -0.01492077 </v>
   <v>      -0.01843891      -0.24206587       0.02245202 </v>
   <v>      -0.08983937      -0.14828909       0.02400336 </v>
   <v>      -0.23122128       0.00166230      -0.07188863 </v>
   <v>       0.16756918       0.43037135       0.06629417 </v>
   <v>      -0.04753711      -0.30697277       0.01621956 </v>
   <v>       0.37389935       0.21101764       0.06644174 </v>
   <v>      -0.03470398      -0.41623857      -0.00350387 </v>
   <v>       0.06102858      -0.07268222       0.18544099 </v>
   <v>       0.04142886      -0.06201026      -0.26920765 </v>
   <v>       0.00478177      -0.04421105       0.08322837 </v>
   <v>       0.00895715      -0.04557758      -0.06450632 </v>
   <v>      -0.03960203       0.05173959       0.13623849 </v>
   <v>      -0.08282927       0.05272771      -0.09642659 </v>
   <v>      -0.00324275      -0.11065097      -0.03240216 </v>
   <v>       0.07115079      -0.09984071      -0.00422261 </v>
   <v>       0.04310875      -0.08998290      -0.16764741 </v>
   <v>      -0.04060620      -0.07427175       0.16215802 </v>
   <v>      -0.07187093       0.10410722      -0.15740133 </v>
   <v>      -0.03841160       0.11016064       0.18822403 </v>
   <v>       0.07765670      -0.03949821       0.13006429 </v>
   <v>       0.05523138      -0.05626686      -0.14434039 </v>
   <v>       0.03165724       0.07278763      -0.04280218 </v>
   <v>      -0.00024121       0.06224880       0.03568577 </v>
   <v>      -0.06513822       0.08844799      -0.01230134 </v>
   <v>      -0.01073613       0.09723620       0.03797107 </v>
  </varray>
  <varray name="stress" >
   <v>     -19.85563751      -0.01328644      -0.02926284 </v>
   <v>      -0.01328637     -19.45736409       0.00997259 </v>
   <v>      -0.02926274       0.00997267      -1.67460885 </v>
  </varray>
  <energy>
   <i name="e_fr_energy">   -188.63367344 </i>
   <i name="e_wo_entrp">   -188.49137529 </i>
   <i name="e_0_energy">     -0.28459632 </i>
  </energy>
  <time name="totalsc">  463.01  464.25</time>
 </calculation>
 <calculation>
  <scstep>
   <time name="dav">   24.02   24.08</time>
   <time name="total">   24.56   24.62</time>
   <energy>
    <i name="alphaZ">     82.35323446 </i>
    <i name="ewald">  41305.78681320 </i>
    <i name="hartreedc"> -47304.35412651 </i>
    <i name="XCdc">   -233.86216026 </i>
    <i name="pawpsdc">   3949.02823344 </i>
    <i name="pawaedc">  -3363.51997882 </i>
    <i name="eentropy">     -0.23671627 </i>
    <i name="bandstr">  -1387.18982254 </i>
    <i name="atom">   6761.44252427 </i>
    <i name="e_fr_energy">   -190.55199902 </i>
    <i name="e_wo_entrp">   -190.31528275 </i>
    <i name="e_0_energy">   -190.43364088 </i>
   </energy>
  </scstep>
  <scstep>
   <time name="dav">   29.00   29.07</time>
   <time name="total">   29.53   29.60</time>
   <energy>
    <i name="e_fr_energy">   -190.54594766 </i>
    <i name="e_wo_entrp">   -190.30632651 </i>
    <i name="e_0_energy">   -190.42613708 </i>
   </energy>
  </scstep>
  <scstep>
   <time name="dav">   30.22   30.29</time>
   <time name="total">   30.75   30.84</time>
   <energy>
    <i name="e_fr_energy">   -190.02451931 </i>
    <i name="e_wo_entrp">   -189.77593534 </i>
    <i name="e_0_energy">   -189.90022732 </i>
   </energy>
  </scstep>
  <scstep>
   <time name="dav">   31.56   31.64</time>
   <time name="total">   32.10   32.18</time>
   <energy>
    <i name="e_fr_energy">   -189.81991982 </i>
    <i name="e_wo_entrp">   -189.58251044 </i>
    <i name="e_0_energy">   -189.70121513 </i>
   </energy>
  </scstep>
  <scstep>
   <time name="dav">   28.39   28.46</time>
   <time name="total">   28.94   29.01</time>
   <energy>
    <i name="e_fr_energy">   -189.73722671 </i>
    <i name="e_wo_entrp">   -189.49500473 </i>
    <i name="e_0_energy">   -189.61611572 </i>
   </energy>
  </scstep>
  <scstep>
   <time name="dav">   29.52   29.60</time>
   <time name="total">   30.06   30.14</time>
   <energy>
    <i name="e_fr_energy">   -189.72306660 </i>
    <i name="e_wo_entrp">   -189.48414561 </i>
    <i name="e_0_energy">   -189.60360610 </i>
   </energy>
  </scstep>
  <scstep>
   <time name="dav">   30.04   30.11</time>
   <time name="total">   30.58   30.66</time>
   <energy>
    <i name="e_fr_energy">   -189.71710905 </i>
    <i name="e_wo_entrp">   -189.47726887 </i>
    <i name="e_0_energy">   -189.59718896 </i>
   </energy>
  </scstep>
  <scstep>
   <time name="dav">   26.69   26.76</time>
   <time name="total">   27.23   27.30</time>
   <energy>
    <i name="e_fr_energy">   -189.71696227 </i>
    <i name="e_wo_entrp">   -189.47743461 </i>
    <i name="e_0_energy">   -189.59719844 </i>
   </energy>
  </scstep>
  <scstep>
   <time name="dav">   27.86   27.92</time>
   <time name="total">   28.39   28.47</time>
   <energy>
    <i name="e_fr_energy">   -189.71717805 </i>
    <i name="e_wo_entrp">   -189.47739352 </i>
    <i name="e_0_energy">   -189.59728578 </i>
   </energy>
  </scstep>
  <scstep>
   <time name="dav">   25.88   25.94</time>
   <time name="total">   26.41   26.48</time>
   <energy>
    <i name="e_fr_energy">   -189.71757701 </i>
    <i name="e_wo_entrp">   -189.47788342 </i>
    <i name="e_0_energy">   -189.59773022 </i>
   </energy>
  </scstep>
  <scstep>
   <time name="dav">   25.18   25.24</time>
   <time name="total">   25.71   25.78</time>
   <energy>
    <i name="e_fr_energy">   -189.71699355 </i>
    <i name="e_wo_entrp">   -189.47723308 </i>
    <i name="e_0_energy">   -189.59711331 </i>
   </energy>
  </scstep>
  <scstep>
   <time name="dav">   16.93   16.97</time>
   <time name="total">   16.97   17.02</time>
   <energy>
    <i name="alphaZ">     82.35323446 </i>
    <i name="ewald">  41305.78681320 </i>
    <i name="hartreedc"> -47278.02139476 </i>
    <i name="XCdc">   -235.25361599 </i>
    <i name="pawpsdc">   4038.50777267 </i>
    <i name="pawaedc">  -3454.20424465 </i>
    <i name="eentropy">     -0.23969533 </i>
    <i name="bandstr">  -1410.08840995 </i>
    <i name="atom">   6761.44252427 </i>
    <i name="e_fr_energy">   -189.71701608 </i>
    <i name="e_wo_entrp">   -189.47732074 </i>
    <i name="e_0_energy">   -189.59716841 </i>
   </energy>
  </scstep>
  <structure>
   <crystal>
    <varray name="basis" >
     <v>       8.66907189       5.00227904       0.00000000 </v>
     <v>      -8.66521141       4.99563765       0.00000000 </v>
     <v>       0.00000000       0.00000000      30.00000000 </v>
    </varray>
    <i name="volume">   2599.60042048 </i>
    <varray name="rec_basis" >
     <v>       0.05765083       0.09999858       0.00000000 </v>
     <v>      -0.05772748       0.10004313       0.00000000 </v>
     <v>       0.00000000       0.00000000       0.03333333 </v>
    </varray>
   </crystal>
   <varray name="positions" >
    <v>       1.00050313       0.33521132      -0.00005858 </v>
    <v>       0.33589829       0.33636381      -0.00014824 </v>
    <v>      -0.00159348       0.66474355       0.00017269 </v>
    <v>       0.66498679       0.66505937       0.00016634 </v>
    <v>       0.66648880       0.33499958      -0.00004444 </v>
    <v>       0.33530747       0.66694867       0.00006344 </v>
    <v>      -0.00174743      -0.00155508      -0.00003875 </v>
    <v>       0.33534189      -0.00011184      -0.00011975 </v>
    <v>       0.66453716      -0.00201542      -0.00004587 </v>
    <v>       0.11255641       0.22544943       0.95323258 </v>
    <v>       0.22379403       0.11460630       0.04786360 </v>
    <v>       0.10654713       0.55338173       0.95317525 </v>
    <v>       0.22008112       0.43988813       0.04683894 </v>
    <v>       0.10939174       0.88530491       0.95202314 </v>
    <v>       0.21796025       0.77650666       0.04798218 </v>
    <v>       0.44112784       0.22340773       0.95195004 </v>
    <v>       0.55506311       0.11005427       0.04927699 </v>
    <v>       0.44187878       0.55062344       0.95179367 </v>
    <v>       0.55092870       0.44216247       0.04819030 </v>
    <v>       0.44495630       0.88999446       0.95056258 </v>
    <v>       0.55623300       0.77890823       0.04938861 </v>
    <v>       0.78164737       0.22318344       0.95207615 </v>
    <v>       0.89046610       0.11452765       0.04800563 </v>
    <v>       0.78230240       0.55771158       0.95192178 </v>
    <v>       0.89342323       0.44659347       0.04695451 </v>
    <v>       0.77824291       0.88992028       0.95075252 </v>
    <v>       0.89189140       0.77634631       0.04806461 </v>
   </varray>
  </structure>
  <varray name="forces" >
   <v>      -0.12096015       0.07549075      -0.07423836 </v>
   <v>       0.01219581       0.39913174       0.00519429 </v>
   <v>      -0.06750666      -0.22044485      -0.00231327 </v>
   <v>      -0.12946094      -0.09776985       0.00106910 </v>
   <v>      -0.22076996      -0.05386194      -0.07004029 </v>
   <v>       0.13730648       0.54226366       0.05552757 </v>
   <v>      -0.05638161      -0.33784673       0.02121607 </v>
   <v>       0.42923735       0.23188409       0.08357027 </v>
   <v>      -0.04200419      -0.47221571      -0.00218342 </v>
   <v>      -0.01351672       0.06308351      -0.26079736 </v>
   <v>      -0.03100847       0.06266569       0.20582878 </v>
   <v>      -0.02533337      -0.08239122      -0.34542579 </v>
   <v>       0.04339123      -0.10145729       0.37198580 </v>
   <v>       0.04676409      -0.07052534      -0.35377973 </v>
   <v>      -0.07017780      -0.07870097       0.38936077 </v>
   <v>      -0.11732262      -0.04403798      -0.53305937 </v>
   <v>       0.03527347      -0.01433369       0.55240036 </v>
   <v>       0.07580602      -0.14041913      -0.66280258 </v>
   <v>      -0.07874889      -0.13852449       0.65712544 </v>
   <v>      -0.02278167       0.02907340      -0.74580058 </v>
   <v>       0.00892122       0.04487757       0.75378162 </v>
   <v>       0.07496663       0.07991457      -0.34098390 </v>
   <v>      -0.03492415       0.06261907       0.35272329 </v>
   <v>       0.05823257       0.13746057      -0.52325633 </v>
   <v>       0.03440912       0.11109520       0.48885852 </v>
   <v>      -0.02924904       0.00572173      -0.56848984 </v>
   <v>       0.10364226       0.00724763       0.54452895 </v>
  </varray>
  <varray name="stress" >
   <v>     -10.19895201      -0.03988583      -0.03483534 </v>
   <v>      -0.03988578      -9.84957155      -0.02357541 </v>
   <v>      -0.03483513      -0.02357544       6.49400950 </v>
  </varray>
  <energy>
   <i name="e_fr_energy">   -189.71701608 </i>
   <i name="e_wo_entrp">   -189.59716841 </i>
   <i name="e_0_energy">     -0.23969533 </i>
  </energy>
  <time name="totalsc">  373.85  374.84</time>
 </calculation>
 <calculation>
  <scstep>
   <time name="dav">   21.82   21.87</time>
   <time name="total">   22.35   22.40</time>
   <energy>
    <i name="alphaZ">     85.86162713 </i>
    <i name="ewald">  42852.75490213 </i>
    <i name="hartreedc"> -48869.77246731 </i>
    <i name="XCdc">   -232.93656909 </i>
    <i name="pawpsdc">   4038.52582355 </i>
    <i name="pawaedc">  -3454.21947557 </i>
    <i name="eentropy">     -0.19608808 </i>
    <i name="bandstr">  -1372.74240888 </i>
    <i name="atom">   6761.44252427 </i>
    <i name="e_fr_energy">   -191.28213185 </i>
    <i name="e_wo_entrp">   -191.08604376 </i>
    <i name="e_0_energy">   -191.18408780 </i>
   </energy>
  </scstep>
  <scstep>
   <time name="dav">   32.57   32.65</time>
   <time name="total">   33.08   33.17</time>
   <energy>
    <i name="e_fr_energy">   -191.15719177 </i>
    <i name="e_wo_entrp">   -190.95463659 </i>
    <i name="e_0_energy">   -191.05591418 </i>
   </energy>
  </scstep>
  <scstep>
   <time name="dav">   30.13   30.20</time>
   <time name="total">   30.65   30.73</time>
   <energy>
    <i name="e_fr_energy">   -191.19698979 </i>
    <i name="e_wo_entrp">   -190.98048214 </i>
    <i name="e_0_energy">   -191.08873597 </i>
   </energy>
  </scstep>
  <scstep>
   <time name="dav">   30.90   30.97</time>
   <time name="total">   31.42   31.50</time>
   <energy>
    <i name="e_fr_energy">   -190.83765089 </i>
    <i name="e_wo_entrp">   -190.63347732 </i>
    <i name="e_0_energy">   -190.73556411 </i>
   </energy>
  </scstep>
  <scstep>
   <time name="dav">   29.53   29.60</time>
   <time name="total">   30.06   30.14</time>
   <energy>
    <i name="e_fr_energy">   -190.83340038 </i>
    <i name="e_wo_entrp">   -190.63549970 </i>
    <i name="e_0_energy">   -190.73445004 </i>
   </energy>
  </scstep>
  <scstep>
   <time name="dav">   29.90   29.97</time>
   <time name="total">   30.41   30.50</time>
   <energy>
    <i name="e_fr_energy">   -190.68852768 </i>
    <i name="e_wo_entrp">   -190.48443331 </i>
    <i name="e_0_energy">   -190.58648049 </i>
   </energy>
  </scstep>
  <scstep>
   <time name="dav">   30.35   30.42</time>
   <time name="total">   30.87   30.95</time>
   <energy>
    <i name="e_fr_energy">   -190.68306959 </i>
    <i name="e_wo_entrp">   -190.48104537 </i>
    <i name="e_0_energy">   -190.58205748 </i>
   </energy>
  </scstep>
  <scstep>
   <time name="dav">   29.07   29.14</time>
   <time name="total">   29.59   29.67</time>
   <energy>
    <i name="e_fr_energy">   -190.68154445 </i>
    <i name="e_wo_entrp">   -190.47930341 </i>
    <i name="e_0_energy">   -190.58042393 </i>
   </energy>
  </scstep>
  <scstep>
   <time name="dav">   28.37   28.44</time>
   <time name="total">   28.89   28.97</time>
   <energy>
    <i name="e_fr_energy">   -190.67935021 </i>
    <i name="e_wo_entrp">   -190.47700280 </i>
    <i name="e_0_energy">   -190.57817650 </i>
   </energy>
  </scstep>
  <scstep>
   <time name="dav">   26.58   26.64</time>
   <time name="total">   27.10   27.17</time>
   <energy>
    <i name="e_fr_energy">   -190.67962252 </i>
    <i name="e_wo_entrp">   -190.47699122 </i>
    <i name="e_0_energy">   -190.57830687 </i>
   </energy>
  </scstep>
  <scstep>
   <time name="dav">   26.68   26.74</time>
   <time name="total">   27.20   27.28</time>
   <energy>
    <i name="e_fr_energy">   -190.67946255 </i>
    <i name="e_wo_entrp">   -190.47705778 </i>
    <i name="e_0_energy">   -190.57826017 </i>
   </energy>
  </scstep>
  <scstep>
   <time name="dav">   19.86   19.91</time>
   <time name="total">   19.90   19.95</time>
   <energy>
    <i name="alphaZ">     85.86162713 </i>
    <i name="ewald">  42852.75490213 </i>
    <i name="hartreedc"> -48840.97378650 </i>
    <i name="XCdc">   -234.28255506 </i>
    <i name="pawpsdc">   4063.65801345 </i>
    <i name="pawaedc">  -3479.53336401 </i>
    <i name="eentropy">     -0.20242353 </i>
    <i name="bandstr">  -1399.40439435 </i>
    <i name="atom">   6761.44252427 </i>
    <i name="e_fr_energy">   -190.67945646 </i>
    <i name="e_wo_entrp">   -190.47703293 </i>
    <i name="e_0_energy">   -190.57824470 </i>
   </energy>
  </scstep>
  <structure>
   <crystal>
    <varray name="basis" >
     <v>       8.48406232       4.90032610       0.00000000 </v>
     <v>      -8.48217020       4.89708852       0.00000000 </v>
     <v>       0.00000000       0.00000000      30.00000000 </v>
    </varray>
    <i name="volume">   2493.37812572 </i>
    <varray name="rec_basis" >
     <v>       0.05892113       0.10205636       0.00000000 </v>
     <v>      -0.05896008       0.10207913       0.00000000 </v>
     <v>       0.00000000       0.00000000       0.03333333 </v>
    </varray>
   </crystal>
   <varray name="positions" >
    <v>       1.00045243       0.33598330      -0.00021398 </v>
    <v>       0.33848568       0.33876379      -0.00012020 </v>
    <v>      -0.00324044       0.66372824       0.00014664 </v>
    <v>       0.66397287       0.66509937       0.00014889 </v>
    <v>       0.66522543       0.33530689      -0.00018834 </v>
    <v>       0.33945132       0.67018620       0.00016955 </v>
    <v>      -0.00416583      -0.00353981       0.00000960 </v>
    <v>       0.33848788      -0.00023930       0.00006853 </v>
    <v>       0.66126532      -0.00496276      -0.00004928 </v>
    <v>       0.11313777       0.22634580       0.95230806 </v>
    <v>       0.22428449       0.11553249       0.04869863 </v>
    <v>       0.10579754       0.55290313       0.95209003 </v>
    <v>       0.21950990       0.43890178       0.04798606 </v>
    <v>       0.10893529       0.88425794       0.95086792 </v>
    <v>       0.21689847       0.77591674       0.04920768 </v>
    <v>       0.44042805       0.22389038       0.95041330 </v>
    <v>       0.55526422       0.11010386       0.05090192 </v>
    <v>       0.44119135       0.54929071       0.94999214 </v>
    <v>       0.54955537       0.44147070       0.04997988 </v>
    <v>       0.44493868       0.88999942       0.94850866 </v>
    <v>       0.55645162       0.77892464       0.05143951 </v>
    <v>       0.78271832       0.22371883       0.95096378 </v>
    <v>       0.89090176       0.11547892       0.04916469 </v>
    <v>       0.78357896       0.55848900       0.95042272 </v>
    <v>       0.89441958       0.44723992       0.04835871 </v>
    <v>       0.77801653       0.88980167       0.94909454 </v>
    <v>       0.89225190       0.77562261       0.04963025 </v>
   </varray>
  </structure>
  <varray name="forces" >
   <v>      -0.07266901       0.05820189      -0.04901742 </v>
   <v>       0.02039367       0.36878534       0.05218843 </v>
   <v>      -0.15277830      -0.21974517      -0.04854110 </v>
   <v>      -0.15038990      -0.02305052      -0.02439803 </v>
   <v>      -0.22724133      -0.06807158      -0.03204599 </v>
   <v>       0.09395279       0.60867225       0.01027002 </v>
   <v>      -0.10847599      -0.38240516       0.02833818 </v>
   <v>       0.53433547       0.25803516       0.05173867 </v>
   <v>      -0.03163715      -0.53377141       0.00617731 </v>
   <v>       0.01482549       0.02517267      -0.17499270 </v>
   <v>      -0.00154291       0.01820806       0.01908786 </v>
   <v>       0.02955867       0.04935738      -0.21806960 </v>
   <v>      -0.00997050       0.04011265       0.24910480 </v>
   <v>       0.05491798      -0.01872370      -0.15519731 </v>
   <v>       0.02855770      -0.02887643       0.25430638 </v>
   <v>      -0.04553629      -0.02497850      -0.38335954 </v>
   <v>       0.02381936       0.07000862       0.40304225 </v>
   <v>       0.01180324      -0.01799383      -0.48117466 </v>
   <v>      -0.04797937      -0.03009763       0.46317955 </v>
   <v>       0.01991931      -0.01503924      -0.62184742 </v>
   <v>       0.04909322       0.01068524       0.61581132 </v>
   <v>       0.01235138      -0.01276761      -0.19111210 </v>
   <v>      -0.05429166      -0.01376525       0.20997873 </v>
   <v>      -0.00173665       0.01948120      -0.36599115 </v>
   <v>      -0.01699198       0.00524247       0.37607151 </v>
   <v>      -0.01551821      -0.06300489      -0.40929974 </v>
   <v>       0.04323095      -0.07967200       0.41575176 </v>
  </varray>
  <varray name="stress" >
   <v>      -5.78573704       0.07945848      -0.05656880 </v>
   <v>       0.07945846      -5.72845844       0.05319153 </v>
   <v>      -0.05656888       0.05319153       4.56459158 </v>
  </varray>
  <energy>
   <i name="e_fr_energy">   -190.67945646 </i>
   <i name="e_wo_entrp">   -190.57824470 </i>
   <i name="e_0_energy">     -0.20242353 </i>
  </energy>
  <time name="totalsc">  383.90  384.92</time>
 </calculation>
 <calculation>
  <scstep>
   <time name="dav">   21.84   21.89</time>
   <time name="total">   22.36   22.41</time>
   <energy>
    <i name="alphaZ">     90.23209868 </i>
    <i name="ewald">  44691.57393832 </i>
    <i name="hartreedc"> -50735.33165337 </i>
    <i name="XCdc">   -231.81652439 </i>
    <i name="pawpsdc">   4063.60545149 </i>
    <i name="pawaedc">  -3479.47566670 </i>
    <i name="eentropy">     -0.18025059 </i>
    <i name="bandstr">  -1352.11390090 </i>
    <i name="atom">   6761.44252427 </i>
    <i name="e_fr_energy">   -192.06398319 </i>
    <i name="e_wo_entrp">   -191.88373260 </i>
    <i name="e_0_energy">   -191.97385790 </i>
   </energy>
  </scstep>
  <scstep>
   <time name="dav">   29.67   29.74</time>
   <time name="total">   30.17   30.25</time>
   <energy>
    <i name="e_fr_energy">   -191.84178111 </i>
    <i name="e_wo_entrp">   -191.64957609 </i>
    <i name="e_0_energy">   -191.74567860 </i>
   </energy>
  </scstep>
  <scstep>
   <time name="dav">   29.97   30.04</time>
   <time name="total">   30.48   30.56</time>
   <energy>
    <i name="e_fr_energy">   -192.22536225 </i>
    <i name="e_wo_entrp">   -192.02403143 </i>
    <i name="e_0_energy">   -192.12469684 </i>
   </energy>
  </scstep>
  <scstep>
   <time name="dav">   29.87   29.94</time>
   <time name="total">   30.38   30.46</time>
   <energy>
    <i name="e_fr_energy">   -191.56107406 </i>
    <i name="e_wo_entrp">   -191.37340648 </i>
    <i name="e_0_energy">   -191.46724027 </i>
   </energy>
  </scstep>
  <scstep>
   <time name="dav">   30.24   30.31</time>
   <time name="total">   30.75   30.84</time>
   <energy>
    <i name="e_fr_energy">   -191.38797477 </i>
    <i name="e_wo_entrp">   -191.20214110 </i>
    <i name="e_0_energy">   -191.29505794 </i>
   </energy>
  </scstep>
  <scstep>
   <time name="dav">   30.77   30.85</time>
   <time name="total">   31.28   31.37</time>
   <energy>
    <i name="e_fr_energy">   -191.37117655 </i>
    <i name="e_wo_entrp">   -191.17723649 </i>
    <i name="e_0_energy">   -191.27420652 </i>
   </energy>
  </scstep>
  <scstep>
   <time name="dav">   29.96   30.03</time>
   <time name="total">   30.47   30.55</time>
   <energy>
    <i name="e_fr_energy">   -191.34723367 </i>
    <i name="e_wo_entrp">   -191.16031580 </i>
    <i name="e_0_energy">   -191.25377474 </i>
   </energy>
  </scstep>
  <scstep>
   <time name="dav">   27.97   28.04</time>
   <time name="total">   28.48   28.55</time>
   <energy>
    <i name="e_fr_energy">   -191.33987056 </i>
    <i name="e_wo_entrp">   -191.15150021 </i>
    <i name="e_0_energy">   -191.24568538 </i>
   </energy>
  </scstep>
  <scstep>
   <time name="dav">   30.74   30.82</time>
   <time name="total">   31.26   31.34</time>
   <energy>
    <i name="e_fr_energy">   -191.34118762 </i>
    <i name="e_wo_entrp">   -191.15250492 </i>
    <i name="e_0_energy">   -191.24684627 </i>
   </energy>
  </scstep>
  <scstep>
   <time name="dav">   28.35   28.42</time>
   <time name="total">   28.86   28.94</time>
   <energy>
    <i name="e_fr_energy">   -191.34015777 </i>
    <i name="e_wo_entrp">   -191.15154781 </i>
    <i name="e_0_energy">   -191.24585279 </i>
   </energy>
  </scstep>
  <scstep>
   <time name="dav">   26.61   26.68</time>
   <time name="total">   27.13   27.20</time>
   <energy>
    <i name="e_fr_energy">   -191.33999122 </i>
    <i name="e_wo_entrp">   -191.15132596 </i>
    <i name="e_0_energy">   -191.24565859 </i>
   </energy>
  </scstep>
  <scstep>
   <time name="dav">   20.34   20.39</time>
   <time name="total">   20.38   20.43</time>
   <energy>
    <i name="alphaZ">     90.23209868 </i>
    <i name="ewald">  44691.57393832 </i>
    <i name="hartreedc"> -50701.13343891 </i>
    <i name="XCdc">   -233.35934412 </i>
    <i name="pawpsdc">   4084.64411552 </i>
    <i name="pawaedc">  -3500.58571667 </i>
    <i name="eentropy">     -0.18864233 </i>
    <i name="bandstr">  -1383.96549247 </i>
    <i name="atom">   6761.44252427 </i>
    <i name="e_fr_energy">   -191.33995770 </i>
    <i name="e_wo_entrp">   -191.15131537 </i>
    <i name="e_0_energy">   -191.24563654 </i>
   </energy>
  </scstep>
  <structure>
   <crystal>
    <varray name="basis" >
     <v>       8.27573949       4.78477750       0.00000000 </v>
     <v>      -8.27006451       4.77498755       0.00000000 </v>
     <v>       0.00000000       0.00000000      30.00000000 </v>
    </varray>
    <i name="volume">   2372.60914974 </i>
    <varray name="rec_basis" >
     <v>       0.06037641       0.10456924       0.00000000 </v>
     <v>      -0.06050020       0.10464100       0.00000000 </v>
     <v>       0.00000000       0.00000000       0.03333333 </v>
    </varray>
   </crystal>
   <varray name="positions" >
    <v>       1.00053418       0.33712418      -0.00042464 </v>
    <v>       0.34323118       0.34312285       0.00008267 </v>
    <v>      -0.00695145       0.66217724      -0.00004666 </v>
    <v>       0.66260171       0.66594810       0.00004261 </v>
    <v>       0.66267093       0.33592060      -0.00033493 </v>
    <v>       0.34777750       0.67720174       0.00022432 </v>
    <v>      -0.00959749      -0.00750889       0.00012383 </v>
    <v>       0.34543604      -0.00083324       0.00030912 </v>
    <v>       0.65442056      -0.01131703      -0.00002781 </v>
    <v>       0.11385568       0.22715776       0.95112374 </v>
    <v>       0.22478261       0.11635142       0.04934319 </v>
    <v>       0.10617665       0.55307071       0.95072865 </v>
    <v>       0.21964082       0.43895554       0.04947665 </v>
    <v>       0.10878985       0.88306273       0.94965879 </v>
    <v>       0.21620847       0.77497129       0.05077414 </v>
    <v>       0.43970101       0.22432734       0.94830904 </v>
    <v>       0.55634765       0.11094798       0.05313970 </v>
    <v>       0.44081958       0.54851868       0.94748555 </v>
    <v>       0.54838616       0.44116706       0.05242107 </v>
    <v>       0.44479275       0.88949041       0.94537965 </v>
    <v>       0.55683833       0.77853645       0.05452947 </v>
    <v>       0.78320622       0.22391983       0.94965617 </v>
    <v>       0.89068954       0.11629845       0.05056941 </v>
    <v>       0.78429264       0.55902270       0.94840363 </v>
    <v>       0.89478995       0.44763577       0.05036723 </v>
    <v>       0.77705730       0.88896866       0.94682691 </v>
    <v>       0.89171608       0.77397613       0.05185838 </v>
   </varray>
  </structure>
  <varray name="forces" >
   <v>       0.01117760       0.10821656      -0.05272905 </v>
   <v>      -0.02803146       0.34178243       0.00580841 </v>
   <v>      -0.24802455      -0.30616003      -0.01349352 </v>
   <v>      -0.01200243       0.08596873       0.03877076 </v>
   <v>      -0.18828637      -0.00813710       0.02470992 </v>
   <v>       0.03367634       0.29852138      -0.02247806 </v>
   <v>      -0.24710389      -0.45367918       0.04638442 </v>
   <v>       0.46944469       0.22400692      -0.05327074 </v>
   <v>       0.07209519      -0.27948307       0.06654757 </v>
   <v>       0.06581701      -0.03011636       0.09983748 </v>
   <v>       0.11631604      -0.07684386      -0.31536423 </v>
   <v>       0.04417725       0.18491025       0.09132094 </v>
   <v>      -0.06403395       0.19877563      -0.01073136 </v>
   <v>       0.03164297       0.08043283       0.18539046 </v>
   <v>       0.13392548       0.07125191      -0.06920665 </v>
   <v>       0.04002501      -0.04615840      -0.04978102 </v>
   <v>       0.09514021       0.13780242       0.15316793 </v>
   <v>      -0.06897744       0.10159034      -0.12637944 </v>
   <v>      -0.02310812       0.07780393       0.13150452 </v>
   <v>       0.02962691      -0.00048066      -0.35910457 </v>
   <v>       0.09116272       0.01424866       0.28323171 </v>
   <v>      -0.04206000      -0.17607198       0.12085669 </v>
   <v>      -0.07455406      -0.15549849      -0.02183004 </v>
   <v>      -0.08086391      -0.10521940      -0.11811145 </v>
   <v>      -0.06544671      -0.06620203       0.02854166 </v>
   <v>      -0.07433278      -0.09695398      -0.19822527 </v>
   <v>      -0.01740176      -0.12430745       0.13463295 </v>
  </varray>
  <varray name="stress" >
   <v>      -0.30659914       0.18481229       0.27759589 </v>
   <v>       0.18481211       0.11784868       0.18656505 </v>
   <v>       0.27759573       0.18656478      -0.43385128 </v>
  </varray>
  <energy>
   <i name="e_fr_energy">   -191.33995770 </i>
   <i name="e_wo_entrp">   -191.24563654 </i>
   <i name="e_0_energy">     -0.18864233 </i>
  </energy>
  <time name="totalsc">  384.47  385.49</time>
 </calculation>
 <calculation>
  <scstep>
   <time name="dav">   21.81   21.86</time>
   <time name="total">   22.32   22.38</time>
   <energy>
    <i name="alphaZ">     90.31750474 </i>
    <i name="ewald">  44708.01077172 </i>
    <i name="hartreedc"> -50719.29603615 </i>
    <i name="XCdc">   -233.39205882 </i>
    <i name="pawpsdc">   4084.53787238 </i>
    <i name="pawaedc">  -3500.47433473 </i>
    <i name="eentropy">     -0.18942594 </i>
    <i name="bandstr">  -1382.38349409 </i>
    <i name="atom">   6761.44252427 </i>
    <i name="e_fr_energy">   -191.42667662 </i>
    <i name="e_wo_entrp">   -191.23725068 </i>
    <i name="e_0_energy">   -191.33196365 </i>
   </energy>
  </scstep>
  <scstep>
   <time name="dav">   32.28   32.35</time>
   <time name="total">   32.78   32.87</time>
   <energy>
    <i name="e_fr_energy">   -191.48932951 </i>
    <i name="e_wo_entrp">   -191.28875730 </i>
    <i name="e_0_energy">   -191.38904340 </i>
   </energy>
  </scstep>
  <scstep>
   <time name="dav">   30.13   30.20</time>
   <time name="total">   30.64   30.72</time>
   <energy>
    <i name="e_fr_energy">   -191.44247335 </i>
    <i name="e_wo_entrp">   -191.25243465 </i>
    <i name="e_0_energy">   -191.34745400 </i>
   </energy>
  </scstep>
  <scstep>
   <time name="dav">   29.11   29.18</time>
   <time name="total">   29.62   29.70</time>
   <energy>
    <i name="e_fr_energy">   -191.44290152 </i>
    <i name="e_wo_entrp">   -191.25182092 </i>
    <i name="e_0_energy">   -191.34736122 </i>
   </energy>
  </scstep>
  <scstep>
   <time name="dav">   29.02   29.09</time>
   <time name="total">   29.53   29.61</time>
   <energy>
    <i name="e_fr_energy">   -191.43753843 </i>
    <i name="e_wo_entrp">   -191.24619501 </i>
    <i name="e_0_energy">   -191.34186672 </i>
   </energy>
  </scstep>
  <scstep>
   <time name="dav">   27.61   27.67</time>
   <time name="total">   28.11   28.19</time>
   <energy>
    <i name="e_fr_energy">   -191.43708658 </i>
    <i name="e_wo_entrp">   -191.24549449 </i>
    <i name="e_0_energy">   -191.34129053 </i>
   </energy>
  </scstep>
  <scstep>
   <time name="dav">   26.44   26.50</time>
   <time name="total">   26.95   27.02</time>
   <energy>
    <i name="e_fr_energy">   -191.43685159 </i>
    <i name="e_wo_entrp">   -191.24507781 </i>
    <i name="e_0_energy">   -191.34096470 </i>
   </energy>
  </scstep>
  <scstep>
   <time name="dav">   24.60   24.66</time>
   <time name="total">   24.64   24.70</time>
   <energy>
    <i name="alphaZ">     90.31750474 </i>
    <i name="ewald">  44708.01077172 </i>
    <i name="hartreedc"> -50719.56346874 </i>
    <i name="XCdc">   -233.39714463 </i>
    <i name="pawpsdc">   4083.04888525 </i>
    <i name="pawaedc">  -3498.95430795 </i>
    <i name="eentropy">     -0.19158760 </i>
    <i name="bandstr">  -1382.14998367 </i>
    <i name="atom">   6761.44252427 </i>
    <i name="e_fr_energy">   -191.43680661 </i>
    <i name="e_wo_entrp">   -191.24521900 </i>
    <i name="e_0_energy">   -191.34101280 </i>
   </energy>
  </scstep>
  <structure>
   <crystal>
    <varray name="basis" >
     <v>       8.26944573       4.78947608       0.00000000 </v>
     <v>      -8.25894361       4.77132010       0.00000000 </v>
     <v>       0.00000000       0.00000000      30.00000000 </v>
    </varray>
    <i name="volume">   2370.36556257 </i>
    <varray name="rec_basis" >
     <v>       0.06038714       0.10452747       0.00000000 </v>
     <v>      -0.06061693       0.10466038       0.00000000 </v>
     <v>       0.00000000       0.00000000       0.03333333 </v>
    </varray>
   </crystal>
   <varray name="positions" >
    <v>       1.00112707       0.33766669      -0.00051482 </v>
    <v>       0.34498586       0.34503954       0.00009520 </v>
    <v>      -0.00932919       0.66131275      -0.00007176 </v>
    <v>       0.66298972       0.66644204       0.00010484 </v>
    <v>       0.66202773       0.33644922      -0.00029657 </v>
    <v>       0.34954713       0.67875187       0.00018823 </v>
    <v>      -0.01276113      -0.00917637       0.00020198 </v>
    <v>       0.34809879      -0.00108709       0.00022524 </v>
    <v>       0.65308832      -0.01307339       0.00008214 </v>
    <v>       0.11391015       0.22682322       0.95126585 </v>
    <v>       0.22474280       0.11562394       0.04883871 </v>
    <v>       0.10726581       0.55389543       0.95085405 </v>
    <v>       0.22047640       0.44017118       0.04948604 </v>
    <v>       0.10929495       0.88336069       0.94994048 </v>
    <v>       0.21696099       0.77492139       0.05068884 </v>
    <v>       0.43957005       0.22397951       0.94819004 </v>
    <v>       0.55736076       0.11139042       0.05343161 </v>
    <v>       0.44113103       0.54923444       0.94723423 </v>
    <v>       0.54869745       0.44163146       0.05267993 </v>
    <v>       0.44487551       0.88938990       0.94473495 </v>
    <v>       0.55718896       0.77833000       0.05504841 </v>
    <v>       0.78218318       0.22314215       0.94983050 </v>
    <v>       0.88966330       0.11573518       0.05055994 </v>
    <v>       0.78352274       0.55873097       0.94817344 </v>
    <v>       0.89426208       0.44749703       0.05044914 </v>
    <v>       0.77631913       0.88867532       0.94646025 </v>
    <v>       0.89101485       0.77335697       0.05211900 </v>
   </varray>
  </structure>
  <varray name="forces" >
   <v>       0.03365785       0.16299449      -0.10396414 </v>
   <v>      -0.07457384       0.39073119      -0.00186224 </v>
   <v>      -0.24874766      -0.34398094      -0.02205909 </v>
   <v>       0.02697928       0.08314371       0.01165431 </v>
   <v>      -0.22288511      -0.00718742       0.00410744 </v>
   <v>       0.08327970       0.29384600      -0.00263943 </v>
   <v>      -0.32825130      -0.52127007       0.02506080 </v>
   <v>       0.49668755       0.27772310      -0.00342925 </v>
   <v>       0.10165168      -0.28399899       0.00901615 </v>
   <v>       0.07020840      -0.03005728       0.15906846 </v>
   <v>       0.08510647      -0.08988472      -0.39796957 </v>
   <v>       0.00793221       0.12623777       0.12641656 </v>
   <v>      -0.03439554       0.13188808      -0.02845571 </v>
   <v>       0.00523123       0.06647931       0.24233441 </v>
   <v>       0.07545851       0.05108665      -0.12711805 </v>
   <v>       0.01968091      -0.02984889      -0.01148314 </v>
   <v>       0.07599851       0.09726376       0.08242252 </v>
   <v>      -0.02367380       0.07653735      -0.09408515 </v>
   <v>      -0.03125683       0.04375252       0.11573267 </v>
   <v>       0.05422940       0.02962038      -0.25478193 </v>
   <v>       0.07589617      -0.00672967       0.19930859 </v>
   <v>      -0.02288298      -0.12150774       0.18632799 </v>
   <v>      -0.06245130      -0.10538536       0.00848944 </v>
   <v>      -0.05530560      -0.08207846      -0.10120695 </v>
   <v>      -0.04728536      -0.04166920       0.00177953 </v>
   <v>      -0.05306420      -0.07973691      -0.17427362 </v>
   <v>      -0.00722436      -0.08796867       0.15160939 </v>
  </varray>
  <varray name="stress" >
   <v>       0.05784960       0.05965381       0.13854139 </v>
   <v>       0.05965393       0.09535390       0.04384935 </v>
   <v>       0.13854130       0.04384921      -1.22655536 </v>
  </varray>
  <energy>
   <i name="e_fr_energy">   -191.43680661 </i>
   <i name="e_wo_entrp">   -191.34101280 </i>
   <i name="e_0_energy">     -0.19158760 </i>
  </energy>
  <time name="totalsc">  267.26  267.97</time>
 </calculation>
 <calculation>
  <scstep>
   <time name="dav">   21.75   21.80</time>
   <time name="total">   22.26   22.31</time>
   <energy>
    <i name="alphaZ">     90.29930098 </i>
    <i name="ewald">  44700.81453678 </i>
    <i name="hartreedc"> -50712.11181477 </i>
    <i name="XCdc">   -233.40539666 </i>
    <i name="pawpsdc">   4083.04413275 </i>
    <i name="pawaedc">  -3498.94966449 </i>
    <i name="eentropy">     -0.19118540 </i>
    <i name="bandstr">  -1382.40243331 </i>
    <i name="atom">   6761.44252427 </i>
    <i name="e_fr_energy">   -191.45999986 </i>
    <i name="e_wo_entrp">   -191.26881445 </i>
    <i name="e_0_energy">   -191.36440716 </i>
   </energy>
  </scstep>
  <scstep>
   <time name="dav">   33.06   33.14</time>
   <time name="total">   33.57   33.66</time>
   <energy>
    <i name="e_fr_energy">   -191.46328871 </i>
    <i name="e_wo_entrp">   -191.26936848 </i>
    <i name="e_0_energy">   -191.36632859 </i>
   </energy>
  </scstep>
  <scstep>
   <time name="dav">   28.57   28.64</time>
   <time name="total">   29.08   29.16</time>
   <energy>
    <i name="e_fr_energy">   -191.46065194 </i>
    <i name="e_wo_entrp">   -191.26934665 </i>
    <i name="e_0_energy">   -191.36499929 </i>
   </energy>
  </scstep>
  <scstep>
   <time name="dav">   25.64   25.70</time>
   <time name="total">   26.14   26.21</time>
   <energy>
    <i name="e_fr_energy">   -191.46081937 </i>
    <i name="e_wo_entrp">   -191.26930258 </i>
    <i name="e_0_energy">   -191.36506098 </i>
   </energy>
  </scstep>
  <scstep>
   <time name="dav">   22.96   23.01</time>
   <time name="total">   23.47   23.53</time>
   <energy>
    <i name="e_fr_energy">   -191.46047602 </i>
    <i name="e_wo_entrp">   -191.26884418 </i>
    <i name="e_0_energy">   -191.36466010 </i>
   </energy>
  </scstep>
  <scstep>
[...]
      <set comment="kpoint 31">
       <r>  -17.6164    1.0000 </r>
       <r>  -17.1400    1.0000 </r>
       <r>  -16.9588    1.0000 </r>
       <r>  -16.6818    1.0000 </r>
       <r>  -16.5298    1.0000 </r>
       <r>  -16.4000    1.0000 </r>
       <r>  -16.3306    1.0000 </r>
       <r>  -16.2498    1.0000 </r>
       <r>  -16.1113    1.0000 </r>
       <r>  -16.0222    1.0000 </r>
       <r>  -15.9378    1.0000 </r>
       <r>  -15.8838    1.0000 </r>
       <r>  -15.7598    1.0000 </r>
       <r>  -15.6348    1.0000 </r>
       <r>  -15.5907    1.0000 </r>
       <r>  -15.5242    1.0000 </r>
       <r>  -15.3220    1.0000 </r>
       <r>  -15.2583    1.0000 </r>
       <r>   -9.7537    1.0000 </r>
       <r>   -9.5334    1.0000 </r>
       <r>   -9.2518    1.0000 </r>
       <r>   -9.1064    1.0000 </r>
       <r>   -8.9179    1.0000 </r>
       <r>   -8.7774    1.0000 </r>
       <r>   -8.5140    1.0000 </r>
       <r>   -8.4198    1.0000 </r>
       <r>   -8.3617    1.0000 </r>
       <r>   -8.3197    1.0000 </r>
       <r>   -8.2949    1.0000 </r>
       <r>   -8.2051    1.0000 </r>
       <r>   -8.1135    1.0000 </r>
       <r>   -8.0891    1.0000 </r>
       <r>   -7.9623    1.0000 </r>
       <r>   -7.8941    1.0000 </r>
       <r>   -7.8085    1.0000 </r>
       <r>   -7.6851    1.0000 </r>
       <r>   -7.6018    1.0000 </r>
       <r>   -7.4500    1.0000 </r>
       <r>   -7.3289    1.0000 </r>
       <r>   -7.1991    1.0000 </r>
       <r>   -7.1069    1.0000 </r>
       <r>   -7.0713    1.0000 </r>
       <r>   -7.0073    1.0000 </r>
       <r>   -6.9255    1.0000 </r>
       <r>   -6.8684    1.0000 </r>
       <r>   -6.8095    1.0000 </r>
       <r>   -6.7080    1.0000 </r>
       <r>   -6.6107    1.0000 </r>
       <r>   -6.5054    1.0000 </r>
       <r>   -6.4725    1.0000 </r>
       <r>   -6.3871    1.0000 </r>
       <r>   -6.3072    1.0000 </r>
       <r>   -6.2602    1.0000 </r>
       <r>   -6.1793    1.0000 </r>
       <r>   -6.1310    1.0000 </r>
       <r>   -6.0708    1.0000 </r>
       <r>   -5.9914    1.0000 </r>
       <r>   -5.9206    1.0000 </r>
       <r>   -5.8502    1.0000 </r>
       <r>   -5.8157    1.0000 </r>
       <r>   -5.7259    1.0000 </r>
       <r>   -5.6795    1.0000 </r>
       <r>   -5.5739    1.0000 </r>
       <r>   -5.3629    1.0000 </r>
       <r>   -5.2651    1.0000 </r>
       <r>   -5.1510    1.0000 </r>
       <r>   -5.0656    1.0000 </r>
       <r>   -4.8935    1.0000 </r>
       <r>   -4.7311    1.0000 </r>
       <r>   -4.6636    1.0000 </r>
       <r>   -4.4380    1.0000 </r>
       <r>   -4.3865    1.0000 </r>
       <r>   -4.2992    1.0000 </r>
       <r>   -4.2425    1.0000 </r>
       <r>   -4.1993    1.0000 </r>
       <r>   -4.0434    1.0000 </r>
       <r>   -3.8457    0.9999 </r>
       <r>   -3.6524    0.9933 </r>
       <r>   -3.4757    0.8890 </r>
       <r>   -3.2785    0.4315 </r>
       <r>   -3.0737    0.0525 </r>
       <r>   -2.8290    0.0004 </r>
       <r>   -2.6494    0.0000 </r>
       <r>   -2.5538    0.0000 </r>
       <r>   -2.5016    0.0000 </r>
       <r>   -2.4483    0.0000 </r>
       <r>   -2.2957    0.0000 </r>
       <r>   -2.1461    0.0000 </r>
       <r>   -2.0206    0.0000 </r>
       <r>   -2.0051    0.0000 </r>
       <r>   -1.7000    0.0000 </r>
       <r>   -1.5229    0.0000 </r>
       <r>   -1.4021    0.0000 </r>
       <r>   -1.3109    0.0000 </r>
       <r>   -1.1839    0.0000 </r>
       <r>   -1.1270    0.0000 </r>
       <r>   -1.0835    0.0000 </r>
       <r>   -1.0489    0.0000 </r>
       <r>   -1.0064    0.0000 </r>
       <r>   -0.8920    0.0000 </r>
       <r>   -0.8579    0.0000 </r>
       <r>   -0.7399    0.0000 </r>
       <r>   -0.6126    0.0000 </r>
       <r>   -0.5518    0.0000 </r>
       <r>   -0.5013    0.0000 </r>
       <r>   -0.3057    0.0000 </r>
       <r>   -0.1806    0.0000 </r>
       <r>   -0.0467    0.0000 </r>
       <r>    0.0158    0.0000 </r>
       <r>    0.0790    0.0000 </r>
       <r>    0.3902    0.0000 </r>
       <r>    0.6068    0.0000 </r>
       <r>    0.7455    0.0000 </r>
       <r>    1.0152    0.0000 </r>
       <r>    1.1142    0.0000 </r>
       <r>    1.1875    0.0000 </r>
       <r>    1.2963    0.0000 </r>
       <r>    2.1109    0.0000 </r>
       <r>    2.2854    0.0000 </r>
       <r>    2.3737    0.0000 </r>
      </set>
      <set comment="kpoint 32">
       <r>  -17.5956    1.0000 </r>
       <r>  -17.1519    1.0000 </r>
       <r>  -17.0287    1.0000 </r>
       <r>  -16.6781    1.0000 </r>
       <r>  -16.4275    1.0000 </r>
       <r>  -16.3703    1.0000 </r>
       <r>  -16.3131    1.0000 </r>
       <r>  -16.2447    1.0000 </r>
       <r>  -16.2061    1.0000 </r>
       <r>  -16.0485    1.0000 </r>
       <r>  -15.9183    1.0000 </r>
       <r>  -15.8718    1.0000 </r>
       <r>  -15.7729    1.0000 </r>
       <r>  -15.6490    1.0000 </r>
       <r>  -15.6041    1.0000 </r>
       <r>  -15.4993    1.0000 </r>
       <r>  -15.3171    1.0000 </r>
       <r>  -15.2529    1.0000 </r>
       <r>   -9.7163    1.0000 </r>
       <r>   -9.6373    1.0000 </r>
       <r>   -9.3492    1.0000 </r>
       <r>   -9.0523    1.0000 </r>
       <r>   -8.7665    1.0000 </r>
       <r>   -8.5827    1.0000 </r>
       <r>   -8.5441    1.0000 </r>
       <r>   -8.4691    1.0000 </r>
       <r>   -8.4060    1.0000 </r>
       <r>   -8.3427    1.0000 </r>
       <r>   -8.2804    1.0000 </r>
       <r>   -8.2075    1.0000 </r>
       <r>   -8.1494    1.0000 </r>
       <r>   -8.0919    1.0000 </r>
       <r>   -8.0505    1.0000 </r>
       <r>   -7.9551    1.0000 </r>
       <r>   -7.8077    1.0000 </r>
       <r>   -7.6618    1.0000 </r>
       <r>   -7.5550    1.0000 </r>
       <r>   -7.4026    1.0000 </r>
       <r>   -7.3107    1.0000 </r>
       <r>   -7.2428    1.0000 </r>
       <r>   -7.1432    1.0000 </r>
       <r>   -7.0865    1.0000 </r>
       <r>   -7.0390    1.0000 </r>
       <r>   -6.9150    1.0000 </r>
       <r>   -6.8787    1.0000 </r>
       <r>   -6.7910    1.0000 </r>
       <r>   -6.6917    1.0000 </r>
       <r>   -6.6113    1.0000 </r>
       <r>   -6.5456    1.0000 </r>
       <r>   -6.4209    1.0000 </r>
       <r>   -6.3870    1.0000 </r>
       <r>   -6.3260    1.0000 </r>
       <r>   -6.2740    1.0000 </r>
       <r>   -6.2074    1.0000 </r>
       <r>   -6.1415    1.0000 </r>
       <r>   -6.0754    1.0000 </r>
       <r>   -5.9518    1.0000 </r>
       <r>   -5.8959    1.0000 </r>
       <r>   -5.8528    1.0000 </r>
       <r>   -5.7465    1.0000 </r>
       <r>   -5.7118    1.0000 </r>
       <r>   -5.5814    1.0000 </r>
       <r>   -5.5597    1.0000 </r>
       <r>   -5.4330    1.0000 </r>
       <r>   -5.2999    1.0000 </r>
       <r>   -5.1850    1.0000 </r>
       <r>   -4.9775    1.0000 </r>
       <r>   -4.9234    1.0000 </r>
       <r>   -4.8380    1.0000 </r>
       <r>   -4.6816    1.0000 </r>
       <r>   -4.4785    1.0000 </r>
       <r>   -4.3802    1.0000 </r>
       <r>   -4.2790    1.0000 </r>
       <r>   -4.2361    1.0000 </r>
       <r>   -4.1781    1.0000 </r>
       <r>   -4.0192    1.0000 </r>
       <r>   -3.8475    0.9999 </r>
       <r>   -3.6173    0.9869 </r>
       <r>   -3.4209    0.7980 </r>
       <r>   -3.2701    0.4083 </r>
       <r>   -3.0964    0.0721 </r>
       <r>   -2.8265    0.0004 </r>
       <r>   -2.6672    0.0000 </r>
       <r>   -2.5797    0.0000 </r>
       <r>   -2.5339    0.0000 </r>
       <r>   -2.4594    0.0000 </r>
       <r>   -2.3076    0.0000 </r>
       <r>   -2.2006    0.0000 </r>
       <r>   -2.0200    0.0000 </r>
       <r>   -1.9886    0.0000 </r>
       <r>   -1.7028    0.0000 </r>
       <r>   -1.5820    0.0000 </r>
       <r>   -1.3454    0.0000 </r>
       <r>   -1.2753    0.0000 </r>
       <r>   -1.1912    0.0000 </r>
       <r>   -1.1447    0.0000 </r>
       <r>   -1.0860    0.0000 </r>
       <r>   -1.0158    0.0000 </r>
       <r>   -1.0020    0.0000 </r>
       <r>   -0.8579    0.0000 </r>
       <r>   -0.8232    0.0000 </r>
       <r>   -0.7320    0.0000 </r>
       <r>   -0.6108    0.0000 </r>
       <r>   -0.5751    0.0000 </r>
       <r>   -0.4452    0.0000 </r>
       <r>   -0.2978    0.0000 </r>
       <r>   -0.1936    0.0000 </r>
       <r>   -0.0359    0.0000 </r>
       <r>    0.0377    0.0000 </r>
       <r>    0.1377    0.0000 </r>
       <r>    0.3014    0.0000 </r>
       <r>    0.5899    0.0000 </r>
       <r>    0.6359    0.0000 </r>
       <r>    0.9778    0.0000 </r>
       <r>    1.1041    0.0000 </r>
       <r>    1.2448    0.0000 </r>
       <r>    1.3349    0.0000 </r>
       <r>    2.0883    0.0000 </r>
       <r>    2.2607    0.0000 </r>
       <r>    2.5464    0.0000 </r>
      </set>
      <set comment="kpoint 33">
       <r>  -17.5487    1.0000 </r>
       <r>  -17.3085    1.0000 </r>
       <r>  -16.8717    1.0000 </r>
       <r>  -16.6755    1.0000 </r>
       <r>  -16.4933    1.0000 </r>
       <r>  -16.4008    1.0000 </r>
       <r>  -16.3131    1.0000 </r>
       <r>  -16.2543    1.0000 </r>
       <r>  -16.1795    1.0000 </r>
       <r>  -16.0465    1.0000 </r>
       <r>  -15.9045    1.0000 </r>
       <r>  -15.8221    1.0000 </r>
       <r>  -15.7618    1.0000 </r>
       <r>  -15.6709    1.0000 </r>
       <r>  -15.6333    1.0000 </r>
       <r>  -15.4939    1.0000 </r>
       <r>  -15.3105    1.0000 </r>
       <r>  -15.2596    1.0000 </r>
       <r>   -9.8333    1.0000 </r>
       <r>   -9.4698    1.0000 </r>
       <r>   -9.3510    1.0000 </r>
       <r>   -8.9905    1.0000 </r>
       <r>   -8.8758    1.0000 </r>
       <r>   -8.6963    1.0000 </r>
       <r>   -8.5808    1.0000 </r>
       <r>   -8.4633    1.0000 </r>
       <r>   -8.4348    1.0000 </r>
       <r>   -8.3240    1.0000 </r>
       <r>   -8.2586    1.0000 </r>
       <r>   -8.2075    1.0000 </r>
       <r>   -8.0943    1.0000 </r>
       <r>   -8.0550    1.0000 </r>
       <r>   -7.9997    1.0000 </r>
       <r>   -7.9236    1.0000 </r>
       <r>   -7.7875    1.0000 </r>
       <r>   -7.6575    1.0000 </r>
       <r>   -7.5880    1.0000 </r>
       <r>   -7.4631    1.0000 </r>
       <r>   -7.3196    1.0000 </r>
       <r>   -7.2045    1.0000 </r>
       <r>   -7.1132    1.0000 </r>
       <r>   -7.0514    1.0000 </r>
       <r>   -6.9821    1.0000 </r>
       <r>   -6.9486    1.0000 </r>
       <r>   -6.9016    1.0000 </r>
       <r>   -6.7556    1.0000 </r>
       <r>   -6.6916    1.0000 </r>
       <r>   -6.5901    1.0000 </r>
       <r>   -6.5534    1.0000 </r>
       <r>   -6.4804    1.0000 </r>
       <r>   -6.4254    1.0000 </r>
       <r>   -6.3400    1.0000 </r>
       <r>   -6.2627    1.0000 </r>
       <r>   -6.1748    1.0000 </r>
       <r>   -6.1322    1.0000 </r>
       <r>   -6.0898    1.0000 </r>
       <r>   -6.0099    1.0000 </r>
       <r>   -5.9284    1.0000 </r>
       <r>   -5.8560    1.0000 </r>
       <r>   -5.7951    1.0000 </r>
       <r>   -5.7635    1.0000 </r>
       <r>   -5.6466    1.0000 </r>
       <r>   -5.5951    1.0000 </r>
       <r>   -5.3256    1.0000 </r>
       <r>   -5.1878    1.0000 </r>
       <r>   -5.1233    1.0000 </r>
       <r>   -5.0958    1.0000 </r>
       <r>   -4.8788    1.0000 </r>
       <r>   -4.7450    1.0000 </r>
       <r>   -4.6979    1.0000 </r>
       <r>   -4.4736    1.0000 </r>
       <r>   -4.3895    1.0000 </r>
       <r>   -4.3030    1.0000 </r>
       <r>   -4.2474    1.0000 </r>
       <r>   -4.1489    1.0000 </r>
       <r>   -4.0031    1.0000 </r>
       <r>   -3.8313    0.9999 </r>
       <r>   -3.5760    0.9733 </r>
       <r>   -3.4837    0.8994 </r>
       <r>   -3.2180    0.2741 </r>
       <r>   -3.1259    0.1054 </r>
       <r>   -2.8563    0.0008 </r>
       <r>   -2.6935    0.0000 </r>
       <r>   -2.6025    0.0000 </r>
       <r>   -2.5570    0.0000 </r>
       <r>   -2.4605    0.0000 </r>
       <r>   -2.3119    0.0000 </r>
       <r>   -2.2377    0.0000 </r>
       <r>   -2.0133    0.0000 </r>
       <r>   -1.9468    0.0000 </r>
       <r>   -1.7088    0.0000 </r>
       <r>   -1.6271    0.0000 </r>
       <r>   -1.2925    0.0000 </r>
       <r>   -1.2670    0.0000 </r>
       <r>   -1.1837    0.0000 </r>
       <r>   -1.1585    0.0000 </r>
       <r>   -1.0957    0.0000 </r>
       <r>   -0.9972    0.0000 </r>
       <r>   -0.9597    0.0000 </r>
       <r>   -0.8507    0.0000 </r>
       <r>   -0.8287    0.0000 </r>
       <r>   -0.6940    0.0000 </r>
       <r>   -0.6082    0.0000 </r>
       <r>   -0.5447    0.0000 </r>
       <r>   -0.4009    0.0000 </r>
       <r>   -0.3653    0.0000 </r>
       <r>   -0.2491    0.0000 </r>
       <r>   -0.1089    0.0000 </r>
       <r>    0.0612    0.0000 </r>
       <r>    0.2781    0.0000 </r>
       <r>    0.3000    0.0000 </r>
       <r>    0.5102    0.0000 </r>
       <r>    0.5816    0.0000 </r>
       <r>    0.9227    0.0000 </r>
       <r>    1.1416    0.0000 </r>
       <r>    1.2262    0.0000 </r>
       <r>    1.4660    0.0000 </r>
       <r>    2.1261    0.0000 </r>
       <r>    2.2939    0.0000 </r>
       <r>    2.3905    0.0000 </r>
      </set>
      <set comment="kpoint 34">
       <r>  -17.4994    1.0000 </r>
       <r>  -17.3961    1.0000 </r>
       <r>  -16.7110    1.0000 </r>
       <r>  -16.6652    1.0000 </r>
       <r>  -16.6589    1.0000 </r>
       <r>  -16.4162    1.0000 </r>
       <r>  -16.3119    1.0000 </r>
       <r>  -16.2462    1.0000 </r>
       <r>  -16.1665    1.0000 </r>
       <r>  -16.0353    1.0000 </r>
       <r>  -15.9019    1.0000 </r>
       <r>  -15.7734    1.0000 </r>
       <r>  -15.7457    1.0000 </r>
       <r>  -15.6978    1.0000 </r>
       <r>  -15.6504    1.0000 </r>
       <r>  -15.4992    1.0000 </r>
       <r>  -15.3069    1.0000 </r>
       <r>  -15.2660    1.0000 </r>
       <r>   -9.8739    1.0000 </r>
       <r>   -9.3478    1.0000 </r>
       <r>   -9.3234    1.0000 </r>
       <r>   -9.0306    1.0000 </r>
       <r>   -8.9309    1.0000 </r>
       <r>   -8.7832    1.0000 </r>
       <r>   -8.6068    1.0000 </r>
       <r>   -8.5203    1.0000 </r>
       <r>   -8.4240    1.0000 </r>
       <r>   -8.3021    1.0000 </r>
       <r>   -8.2452    1.0000 </r>
       <r>   -8.1992    1.0000 </r>
       <r>   -8.0892    1.0000 </r>
       <r>   -8.0111    1.0000 </r>
       <r>   -7.9533    1.0000 </r>
       <r>   -7.8839    1.0000 </r>
       <r>   -7.7577    1.0000 </r>
       <r>   -7.6316    1.0000 </r>
       <r>   -7.6046    1.0000 </r>
       <r>   -7.5046    1.0000 </r>
       <r>   -7.3913    1.0000 </r>
       <r>   -7.1827    1.0000 </r>
       <r>   -7.0670    1.0000 </r>
       <r>   -7.0109    1.0000 </r>
       <r>   -6.9715    1.0000 </r>
       <r>   -6.9347    1.0000 </r>
       <r>   -6.9042    1.0000 </r>
       <r>   -6.7242    1.0000 </r>
       <r>   -6.6779    1.0000 </r>
       <r>   -6.5972    1.0000 </r>
       <r>   -6.5373    1.0000 </r>
       <r>   -6.5262    1.0000 </r>
       <r>   -6.4331    1.0000 </r>
       <r>   -6.3941    1.0000 </r>
       <r>   -6.3110    1.0000 </r>
       <r>   -6.1996    1.0000 </r>
       <r>   -6.1290    1.0000 </r>
       <r>   -6.0630    1.0000 </r>
       <r>   -5.9912    1.0000 </r>
       <r>   -5.9635    1.0000 </r>
       <r>   -5.8725    1.0000 </r>
       <r>   -5.8183    1.0000 </r>
       <r>   -5.7492    1.0000 </r>
       <r>   -5.7128    1.0000 </r>
       <r>   -5.6056    1.0000 </r>
       <r>   -5.3236    1.0000 </r>
       <r>   -5.1939    1.0000 </r>
       <r>   -5.0899    1.0000 </r>
       <r>   -4.9800    1.0000 </r>
       <r>   -4.9166    1.0000 </r>
       <r>   -4.7920    1.0000 </r>
       <r>   -4.5689    1.0000 </r>
       <r>   -4.4387    1.0000 </r>
       <r>   -4.3999    1.0000 </r>
       <r>   -4.3333    1.0000 </r>
       <r>   -4.3003    1.0000 </r>
       <r>   -4.1262    1.0000 </r>
       <r>   -4.0020    1.0000 </r>
       <r>   -3.8141    0.9998 </r>
       <r>   -3.5458    0.9570 </r>
       <r>   -3.5414    0.9542 </r>
       <r>   -3.2016    0.2368 </r>
       <r>   -3.1403    0.1251 </r>
       <r>   -2.8729    0.0012 </r>
       <r>   -2.7038    0.0000 </r>
       <r>   -2.6136    0.0000 </r>
       <r>   -2.5646    0.0000 </r>
       <r>   -2.4608    0.0000 </r>
       <r>   -2.3174    0.0000 </r>
       <r>   -2.2416    0.0000 </r>
       <r>   -2.0070    0.0000 </r>
       <r>   -1.9229    0.0000 </r>
       <r>   -1.7191    0.0000 </r>
       <r>   -1.6370    0.0000 </r>
       <r>   -1.2763    0.0000 </r>
       <r>   -1.2613    0.0000 </r>
       <r>   -1.1981    0.0000 </r>
       <r>   -1.1326    0.0000 </r>
       <r>   -1.1106    0.0000 </r>
       <r>   -0.9794    0.0000 </r>
       <r>   -0.9534    0.0000 </r>
       <r>   -0.8560    0.0000 </r>
       <r>   -0.8372    0.0000 </r>
       <r>   -0.6933    0.0000 </r>
       <r>   -0.5410    0.0000 </r>
       <r>   -0.4932    0.0000 </r>
       <r>   -0.4891    0.0000 </r>
       <r>   -0.3789    0.0000 </r>
       <r>   -0.2905    0.0000 </r>
       <r>   -0.1329    0.0000 </r>
       <r>    0.0831    0.0000 </r>
       <r>    0.2936    0.0000 </r>
       <r>    0.3392    0.0000 </r>
       <r>    0.4807    0.0000 </r>
       <r>    0.5682    0.0000 </r>
       <r>    0.9051    0.0000 </r>
       <r>    1.1786    0.0000 </r>
       <r>    1.2003    0.0000 </r>
       <r>    1.5262    0.0000 </r>
       <r>    2.2086    0.0000 </r>
       <r>    2.2472    0.0000 </r>
       <r>    2.3805    0.0000 </r>
      </set>
     </set>
    </set>
   </array>
  </eigenvalues>
  <separator name="orbital magnetization" >
   <v name="MAGDIPOLOUT">      0.00000000      0.00000000      0.00000000</v>
  </separator>
 </calculation>
 <structure name="finalpos" >
  <crystal>
   <varray name="basis" >
    <v>       8.33320488       4.81591272       0.00000000 </v>
    <v>      -8.34422954       4.83499625       0.00000000 </v>
    <v>       0.00000000       0.00000000      30.00000000 </v>
   </varray>
   <i name="volume">   2414.28286642 </i>
   <varray name="rec_basis" >
    <v>       0.06007991       0.10368581       0.00000000 </v>
    <v>      -0.05984277       0.10354882       0.00000000 </v>
    <v>       0.00000000       0.00000000       0.03333333 </v>
   </varray>
  </crystal>
  <varray name="positions" >
   <v>       0.97216652       0.32418857       0.00070719 </v>
   <v>       0.36248903       0.36876557      -0.00053311 </v>
   <v>       0.03176371       0.67926750      -0.00043233 </v>
   <v>       0.65470116       0.68802977       0.00047603 </v>
   <v>       0.64616641       0.29624926      -0.00009098 </v>
   <v>       0.35503392       0.68654015      -0.00001419 </v>
   <v>      -0.00494071      -0.02748507      -0.00090809 </v>
   <v>       0.33949288      -0.01182548      -0.00013601 </v>
   <v>       0.64669483      -0.00512831       0.00047105 </v>
   <v>       0.11493798       0.22590834       0.95539098 </v>
   <v>       0.22736685       0.12194452       0.04503169 </v>
   <v>       0.11129120       0.55292941       0.95110014 </v>
   <v>       0.21878164       0.44246751       0.04527097 </v>
   <v>       0.11210103       0.87954258       0.94649433 </v>
   <v>       0.22126648       0.77459466       0.05405585 </v>
   <v>       0.43512967       0.21981732       0.94855340 </v>
   <v>       0.54726970       0.10271941       0.05679274 </v>
   <v>       0.44719728       0.56120025       0.94560102 </v>
   <v>       0.55697566       0.44837564       0.05019813 </v>
   <v>       0.44552103       0.89141910       0.94312149 </v>
   <v>       0.55614336       0.78486454       0.05730300 </v>
   <v>       0.77506874       0.21777235       0.94667911 </v>
   <v>       0.88924973       0.10967375       0.04793265 </v>
   <v>       0.77962262       0.55502900       0.95998332 </v>
   <v>       0.88668251       0.44553642       0.04864908 </v>
   <v>       0.77880206       0.89656815       0.94711805 </v>
   <v>       0.89123914       0.76924956       0.05118439 </v>
  </varray>
 </structure>
</modeling>
