unknown system                          
           1
     8.857232    5.108715    0.000000
    -8.853139    5.101675    0.000000
     0.000000    0.000000   30.000000
   V    Mo   W    S 
   3   3   3  18
Direct configuration=     1
   1.00000000  0.33333334  0.00000000
   0.33333334  0.33333334  0.00000000
   0.00000000  0.66666669  0.00000000
   0.66666669  0.66666669  0.00000000
   0.66666669  0.33333334  0.00000000
   0.33333334  0.66666669  0.00000000
   0.00000000  0.00000000  0.00000000
   0.33333334  0.00000000  0.00000000
   0.66666669  0.00000000  0.00000000
   0.11068511  0.22244981  0.95539999
   0.22244981  0.11068511  0.04460000
   0.11068511  0.55578315  0.95539999
   0.22244981  0.44401845  0.04460000
   0.11068511  0.88911647  0.95539999
   0.22244981  0.77735180  0.04460000
   0.44401845  0.22244981  0.95539999
   0.55578315  0.11068511  0.04460000
   0.44401845  0.55578315  0.95539999
   0.55578315  0.44401845  0.04460000
   0.44401845  0.88911647  0.95539999
   0.55578315  0.77735180  0.04460000
   0.77735180  0.22244981  0.95539999
   0.88911647  0.11068511  0.04460000
   0.77735180  0.55578315  0.95539999
   0.88911647  0.44401845  0.04460000
   0.77735180  0.88911647  0.95539999
   0.88911647  0.77735180  0.04460000
unknown system                          
           1
     8.669072    5.002279    0.000000
    -8.665211    4.995638    0.000000
     0.000000    0.000000   30.000000
   V    Mo   W    S 
   3   3   3  18
Direct configuration=     2
   1.00043594  0.33487472 -0.00001716
   0.33524287  0.33566526 -0.00013976
  -0.00117146  0.66513025  0.00015992
   0.66532092  0.66522056  0.00015270
   0.66670856  0.33477396 -0.00000356
   0.33442743  0.66639106  0.00002575
  -0.00118900 -0.00108798 -0.00004797
   0.33462961 -0.00010409 -0.00015753
   0.66526573 -0.00135338 -0.00004388
   0.11261906  0.22562969  0.95312714
   0.22385772  0.11474984  0.04801666
   0.10661636  0.55346021  0.95312793
   0.22014862  0.43997292  0.04687561
   0.10934345  0.88518029  0.95194568
   0.21795191  0.77633873  0.04803701
   0.44131576  0.22358949  0.95196847
   0.55516138  0.11028967  0.04927939
   0.44198758  0.55081534  0.95188899
   0.55109183  0.44224744  0.04809811
   0.44485160  0.88975125  0.95065207
   0.55608598  0.77868714  0.04928159
   0.78163860  0.22332428  0.95200220
   0.89050692  0.11467489  0.04808769
   0.78215037  0.55762047  0.95194611
   0.89331950  0.44648923  0.04693422
   0.77815788  0.88970972  0.95075951
   0.89173933  0.77617349  0.04804302
unknown system                          
           1
     8.484062    4.900326    0.000000
    -8.482170    4.897089    0.000000
     0.000000    0.000000   30.000000
   V    Mo   W    S 
   3   3   3  18
Direct configuration=     3
   1.00050313  0.33521132 -0.00005858
   0.33589829  0.33636381 -0.00014824
  -0.00159348  0.66474355  0.00017269
   0.66498679  0.66505937  0.00016634
   0.66648880  0.33499958 -0.00004444
   0.33530747  0.66694867  0.00006344
  -0.00174743 -0.00155508 -0.00003875
   0.33534189 -0.00011184 -0.00011975
   0.66453716 -0.00201542 -0.00004587
   0.11255641  0.22544943  0.95323258
   0.22379403  0.11460630  0.04786360
   0.10654713  0.55338173  0.95317525
   0.22008112  0.43988813  0.04683894
   0.10939174  0.88530491  0.95202314
   0.21796025  0.77650666  0.04798218
   0.44112784  0.22340773  0.95195004
   0.55506311  0.11005427  0.04927699
   0.44187878  0.55062344  0.95179367
   0.55092870  0.44216247  0.04819030
   0.44495630  0.88999446  0.95056258
   0.55623300  0.77890823  0.04938861
   0.78164737  0.22318344  0.95207615
   0.89046610  0.11452765  0.04800563
   0.78230240  0.55771158  0.95192178
   0.89342323  0.44659347  0.04695451
   0.77824291  0.88992028  0.95075252
   0.89189140  0.77634631  0.04806461
unknown system                          
           1
     8.275739    4.784778    0.000000
    -8.270065    4.774988    0.000000
     0.000000    0.000000   30.000000
   V    Mo   W    S 
   3   3   3  18
Direct configuration=     4
   1.00045243  0.33598330 -0.00021398
   0.33848568  0.33876379 -0.00012020
  -0.00324044  0.66372824  0.00014664
   0.66397287  0.66509937  0.00014889
   0.66522543  0.33530689 -0.00018834
   0.33945132  0.67018620  0.00016955
  -0.00416583 -0.00353981  0.00000960
   0.33848788 -0.00023930  0.00006853
   0.66126532 -0.00496276 -0.00004928
   0.11313777  0.22634580  0.95230806
   0.22428449  0.11553249  0.04869863
   0.10579754  0.55290313  0.95209003
   0.21950990  0.43890178  0.04798606
   0.10893529  0.88425794  0.95086792
   0.21689847  0.77591674  0.04920768
   0.44042805  0.22389038  0.95041330
   0.55526422  0.11010386  0.05090192
   0.44119135  0.54929071  0.94999214
   0.54955537  0.44147070  0.04997988
   0.44493868  0.88999942  0.94850866
   0.55645162  0.77892464  0.05143951
   0.78271832  0.22371883  0.95096378
   0.89090176  0.11547892  0.04916469
   0.78357896  0.55848900  0.95042272
   0.89441958  0.44723992  0.04835871
   0.77801653  0.88980167  0.94909454
   0.89225190  0.77562261  0.04963025
unknown system                          
           1
     8.269446    4.789476    0.000000
    -8.258944    4.771320    0.000000
     0.000000    0.000000   30.000000
   V    Mo   W    S 
   3   3   3  18
Direct configuration=     5
   1.00053418  0.33712418 -0.00042464
   0.34323118  0.34312285  0.00008267
  -0.00695145  0.66217724 -0.00004666
   0.66260171  0.66594810  0.00004261
   0.66267093  0.33592060 -0.00033493
   0.34777750  0.67720174  0.00022432
  -0.00959749 -0.00750889  0.00012383
   0.34543604 -0.00083324  0.00030912
   0.65442056 -0.01131703 -0.00002781
   0.11385568  0.22715776  0.95112374
   0.22478261  0.11635142  0.04934319
   0.10617665  0.55307071  0.95072865
   0.21964082  0.43895554  0.04947665
   0.10878985  0.88306273  0.94965879
   0.21620847  0.77497129  0.05077414
   0.43970101  0.22432734  0.94830904
   0.55634765  0.11094798  0.05313970
   0.44081958  0.54851868  0.94748555
   0.54838616  0.44116706  0.05242107
   0.44479275  0.88949041  0.94537965
   0.55683833  0.77853645  0.05452947
   0.78320622  0.22391983  0.94965617
   0.89068954  0.11629845  0.05056941
   0.78429264  0.55902270  0.94840363
   0.89478995  0.44763577  0.05036723
   0.77705730  0.88896866  0.94682691
   0.89171608  0.77397613  0.05185838
unknown system                          
           1
     8.270384    4.790303    0.000000
    -8.259531    4.771539    0.000000
     0.000000    0.000000   30.000000
   V    Mo   W    S 
   3   3   3  18
Direct configuration=     6
   1.00112707  0.33766669 -0.00051482
   0.34498586  0.34503954  0.00009520
  -0.00932919  0.66131275 -0.00007176
   0.66298972  0.66644204  0.00010484
   0.66202773  0.33644922 -0.00029657
   0.34954713  0.67875187  0.00018823
  -0.01276113 -0.00917637  0.00020198
   0.34809879 -0.00108709  0.00022524
   0.65308832 -0.01307339  0.00008214
   0.11391015  0.22682322  0.95126585
   0.22474280  0.11562394  0.04883871
   0.10726581  0.55389543  0.95085405
   0.22047640  0.44017118  0.04948604
   0.10929495  0.88336069  0.94994048
   0.21696099  0.77492139  0.05068884
   0.43957005  0.22397951  0.94819004
   0.55736076  0.11139042  0.05343161
   0.44113103  0.54923444  0.94723423
   0.54869745  0.44163146  0.05267993
   0.44487551  0.88938990  0.94473495
   0.55718896  0.77833000  0.05504841
   0.78218318  0.22314215  0.94983050
   0.88966330  0.11573518  0.05055994
   0.78352274  0.55873097  0.94817344
   0.89426208  0.44749703  0.05044914
   0.77631913  0.88867532  0.94646025
   0.89101485  0.77335697  0.05211900
unknown system                          
           1
     8.260810    4.780289    0.000000
    -8.253254    4.767235    0.000000
     0.000000    0.000000   30.000000
   V    Mo   W    S 
   3   3   3  18
Direct configuration=     7
   1.00135899  0.33784550 -0.00055636
   0.34540919  0.34557533  0.00009374
  -0.00993326  0.66106423 -0.00008008
   0.66311930  0.66652367  0.00010966
   0.66186436  0.33660208 -0.00029458
   0.34995137  0.67903767  0.00018713
  -0.01364308 -0.00958200  0.00021150
   0.34879007 -0.00109674  0.00022344
   0.65282713 -0.01348608  0.00008520
   0.11392046  0.22672986  0.95133527
   0.22468834  0.11544439  0.04867459
   0.10742830  0.55404794  0.95091072
   0.22061649  0.44036149  0.04946849
   0.10938293  0.88344601  0.95004368
   0.21708234  0.77493503  0.05063089
   0.43954947  0.22392585  0.94819388
   0.55753370  0.11145374  0.05345545
   0.44121207  0.54935054  0.94720614
   0.54873362  0.44171035  0.05271707
   0.44495430  0.88939015  0.94464504
   0.55723388  0.77826731  0.05511635
   0.78201227  0.22300502  0.94991147
   0.88948643  0.11564497  0.05055779
   0.78337659  0.55866565  0.94814070
   0.89417390  0.44747762  0.05044195
   0.77618404  0.88861668  0.94639917
   0.89090127  0.77325820  0.05217160
unknown system                          
           1
     8.260405    4.782786    0.000000
    -8.251745    4.767817    0.000000
     0.000000    0.000000   30.000000
   V    Mo   W    S 
   3   3   3  18
Direct configuration=     8
   1.00017364  0.33671241 -0.00036519
   0.34427533  0.34356032  0.00009914
  -0.00708411  0.66229572 -0.00007814
   0.66171732  0.66599155  0.00005257
   0.66188181  0.33551462 -0.00031504
   0.34889850  0.67815507  0.00019163
  -0.00975285 -0.00771190  0.00007281
   0.34629111 -0.00095013  0.00026749
   0.65336308 -0.01204133  0.00002254
   0.11399419  0.22718160  0.95105694
   0.22510281  0.11625038  0.04940852
   0.10716294  0.55349424  0.95066267
   0.22025481  0.43985289  0.04947273
   0.10919988  0.88313793  0.94953260
   0.21687309  0.77494784  0.05093521
   0.43959685  0.22415488  0.94815992
   0.55674258  0.11122813  0.05341656
   0.44089874  0.54893664  0.94737324
   0.54851129  0.44146189  0.05254820
   0.44464119  0.88945119  0.94492274
   0.55706138  0.77850016  0.05494491
   0.78245154  0.22340655  0.94953469
   0.89000904  0.11585698  0.05056771
   0.78365191  0.55887846  0.94826108
   0.89432456  0.44739888  0.05053691
   0.77681073  0.88894028  0.94673645
   0.89116311  0.77360919  0.05198099
unknown system                          
           1
     8.252468    4.778823    0.000000
    -8.243658    4.763593    0.000000
     0.000000    0.000000   30.000000
   V    Mo   W    S 
   3   3   3  18
Direct configuration=     9
   0.99849709  0.33551309 -0.00022479
   0.34374103  0.34184740  0.00013335
  -0.00516007  0.66314310 -0.00010194
   0.66056201  0.66598187  0.00011044
   0.66187370  0.33435229 -0.00034273
   0.34892220  0.67868662  0.00019873
  -0.00653387 -0.00660814  0.00007419
   0.34466732 -0.00111748  0.00027171
   0.65313018 -0.01115973  0.00005656
   0.11416543  0.22752792  0.95084344
   0.22554786  0.11654927  0.04992166
   0.10748081  0.55328357  0.95060926
   0.22046542  0.44024673  0.04941380
   0.10940725  0.88291908  0.94914080
   0.21719181  0.77496692  0.05119399
   0.43946773  0.22405489  0.94794926
   0.55650692  0.11118668  0.05359281
   0.44065789  0.54898429  0.94725060
   0.54862627  0.44163252  0.05261903
   0.44437760  0.88950181  0.94480945
   0.55715844  0.77881352  0.05510322
   0.78214892  0.22329246  0.94924106
   0.88980409  0.11552626  0.05051952
   0.78344857  0.55892957  0.94843568
   0.89411193  0.44735591  0.05055678
   0.77691364  0.88917258  0.94688504
   0.89103426  0.77363146  0.05173895
unknown system                          
           1
     8.257320    4.782573    0.000000
    -8.247929    4.766338    0.000000
     0.000000    0.000000   30.000000
   V    Mo   W    S 
   3   3   3  18
Direct configuration=    10
   0.99879367  0.33603820 -0.00036909
   0.34512142  0.34354258  0.00010625
  -0.00724818  0.66220384 -0.00016329
   0.66085480  0.66640896  0.00008198
   0.66151086  0.33477187 -0.00031563
   0.35076685  0.68017088  0.00017688
  -0.00902542 -0.00800868  0.00006616
   0.34693423 -0.00122662  0.00021166
   0.65187389 -0.01270840  0.00007320
   0.11412950  0.22713772  0.95114497
   0.22532374  0.11584010  0.04936464
   0.10796384  0.55377940  0.95088960
   0.22090167  0.44094267  0.04925869
   0.10970010  0.88314485  0.94953589
   0.21757228  0.77503471  0.05097584
   0.43944150  0.22377991  0.94797974
   0.55699317  0.11133903  0.05365935
   0.44094039  0.54944264  0.94720107
   0.54883178  0.44186863  0.05272265
   0.44472884  0.88961681  0.94453525
   0.55733996  0.77877315  0.05532065
   0.78153027  0.22278098  0.94951071
   0.88919477  0.11510370  0.05045834
   0.78300612  0.55874832  0.94843197
   0.89379375  0.44737589  0.05048326
   0.77651673  0.88907327  0.94677990
   0.89072391  0.77324006  0.05187928
unknown system                          
           1
     8.266495    4.791516    0.000000
    -8.254696    4.771110    0.000000
     0.000000    0.000000   30.000000
   V    Mo   W    S 
   3   3   3  18
Direct configuration=    11
   0.99885205  0.33616118 -0.00040098
   0.34549320  0.34400404  0.00010916
  -0.00786757  0.66192547 -0.00016721
   0.66100799  0.66652948  0.00010444
   0.66143743  0.33490100 -0.00030321
   0.35118536  0.68049169  0.00017617
  -0.00979690 -0.00842301  0.00008658
   0.34754824 -0.00123162  0.00021007
   0.65165520 -0.01303792  0.00009912
   0.11414135  0.22707041  0.95120356
   0.22529611  0.11569225  0.04922711
   0.10808621  0.55390856  0.95094539
   0.22100513  0.44110458  0.04923156
   0.10976844  0.88317681  0.94961313
   0.21764881  0.77503362  0.05092717
   0.43942117  0.22372819  0.94796266
   0.55713573  0.11138472  0.05369804
   0.44099722  0.54954334  0.94715076
   0.54886516  0.44193218  0.05276708
   0.44479867  0.88962538  0.94441938
   0.55740524  0.77874576  0.05540364
   0.78139101  0.22266133  0.94955668
   0.88906406  0.11503050  0.05045972
   0.78289560  0.55871023  0.94839467
   0.89374028  0.44738536  0.05048765
   0.77639689  0.88903391  0.94670429
   0.89064238  0.77312698  0.05193327
unknown system                          
           1
     8.251624    4.773518    0.000000
    -8.248006    4.767265    0.000000
     0.000000    0.000000   30.000000
   V    Mo   W    S 
   3   3   3  18
Direct configuration=    12
   0.99936194  0.33675607 -0.00056199
   0.34717837  0.34617461  0.00011359
  -0.01061630  0.66069879 -0.00018459
   0.66174572  0.66695878  0.00017544
   0.66097669  0.33549361 -0.00026879
   0.35287132  0.68166428  0.00016194
  -0.01352433 -0.01021822  0.00016150
   0.35037630 -0.00114455  0.00019038
   0.65086442 -0.01443713  0.00017149
   0.11416139  0.22672566  0.95149868
   0.22509937  0.11505351  0.04855501
   0.10855606  0.55443900  0.95119910
   0.22141561  0.44169006  0.04911149
   0.11002299  0.88340441  0.95001844
   0.21798672  0.77507114  0.05066329
   0.43936723  0.22355665  0.94795981
   0.55776677  0.11157640  0.05380071
   0.44126839  0.54992245  0.94699797
   0.54895585  0.44214677  0.05291311
   0.44514077  0.88966467  0.94404703
   0.55764544  0.77859540  0.05568278
   0.78085485  0.22219644  0.94982326
   0.88856926  0.11476814  0.05046097
   0.78241776  0.55848799  0.94823572
   0.89351958  0.44737583  0.05048886
   0.77590690  0.88885083  0.94641125
   0.89032539  0.77274286  0.05217344
unknown system                          
           1
     8.247222    4.773290    0.000000
    -8.241557    4.763498    0.000000
     0.000000    0.000000   30.000000
   V    Mo   W    S 
   3   3   3  18
Direct configuration=    13
   0.99724682  0.33447502 -0.00003616
   0.34278393  0.33974365  0.00014757
  -0.00261197  0.66433899 -0.00013727
   0.65916885  0.66612994  0.00006124
   0.66149490  0.33291562 -0.00030720
   0.34898689  0.67968244  0.00019284
  -0.00232892 -0.00504444 -0.00005471
   0.34316921 -0.00152639  0.00032712
   0.65201624 -0.01073185  0.00005166
   0.11416576  0.22780764  0.95067620
   0.22599346  0.11674358  0.05052474
   0.10778877  0.55305754  0.95055512
   0.22061982  0.44070043  0.04928050
   0.10954192  0.88265182  0.94868148
   0.21748544  0.77497125  0.05151646
   0.43956513  0.22396687  0.94786920
   0.55589493  0.11096026  0.05356497
   0.44044489  0.54907656  0.94736823
   0.54873216  0.44169104  0.05249005
   0.44423588  0.88967399  0.94480380
   0.55710238  0.77924354  0.05513668
   0.78179160  0.22303855  0.94902393
   0.88948158  0.11501145  0.05031200
   0.78336366  0.55905481  0.94866757
   0.89384893  0.44738438  0.05050945
   0.77733596  0.88966621  0.94726614
   0.89089621  0.77353155  0.05150830
unknown system                          
           1
     8.252770    4.780087    0.000000
    -8.245025    4.766694    0.000000
     0.000000    0.000000   30.000000
   V    Mo   W    S 
   3   3   3  18
Direct configuration=    14
   0.99602647  0.33383188  0.00011336
   0.34179292  0.33785754  0.00013559
  -0.00039005  0.66530810 -0.00018958
   0.65774350  0.66584701 -0.00001177
   0.66172246  0.33205390 -0.00040187
   0.34889379  0.68006749  0.00018872
   0.00211603 -0.00359748 -0.00008645
   0.34077975 -0.00182803  0.00020815
   0.65140472 -0.01015523 -0.00000098
   0.11420854  0.22802482  0.95051846
   0.22633128  0.11699647  0.05106136
   0.10770973  0.55273968  0.95049379
   0.22055562  0.44076439  0.04915938
   0.10962534  0.88241923  0.94835525
   0.21749761  0.77503860  0.05178323
   0.43949955  0.22378768  0.94784112
   0.55548408  0.11085700  0.05370919
   0.44009339  0.54895773  0.94748648
   0.54875832  0.44166817  0.05240118
   0.44397122  0.88981608  0.94481810
   0.55707786  0.77960124  0.05512842
   0.78177157  0.22304287  0.94884174
   0.88948963  0.11468048  0.05015738
   0.78341703  0.55917920  0.94898198
   0.89379440  0.44743400  0.05046709
   0.77771520  0.89009716  0.94763188
   0.89112450  0.77372446  0.05120869
unknown system                          
           1
     8.259010    4.790785    0.000000
    -8.247338    4.770592    0.000000
     0.000000    0.000000   30.000000
   V    Mo   W    S 
   3   3   3  18
Direct configuration=    15
   0.99554010  0.33416539  0.00006287
   0.34276865  0.33871820  0.00012995
  -0.00140031  0.66478564 -0.00019266
   0.65691998  0.66572905  0.00002475
   0.66160885  0.33204624 -0.00036828
   0.35061218  0.68137117  0.00019611
   0.00245213 -0.00405857 -0.00000372
   0.34156350 -0.00186356  0.00018928
   0.64994685 -0.01113143  0.00006643
   0.11429725  0.22779233  0.95071496
   0.22637497  0.11666129  0.05081688
   0.10801897  0.55305315  0.95068040
   0.22080059  0.44121980  0.04893541
   0.10986999  0.88239601  0.94845720
   0.21772551  0.77511548  0.05165654
   0.43940869  0.22357237  0.94779454
   0.55563552  0.11088503  0.05382426
   0.43999062  0.54911372  0.94740298
   0.54883039  0.44177228  0.05246052
   0.44410511  0.88995128  0.94448373
   0.55730394  0.77969684  0.05535119
   0.78136449  0.22263916  0.94894934
   0.88908457  0.11413467  0.05000079
   0.78307414  0.55912328  0.94905347
   0.89356938  0.44747866  0.05043472
   0.77766588  0.89031844  0.94769282
   0.89108251  0.77352855  0.05118542
unknown system                          
           1
     8.265133    4.795757    0.000000
    -8.251807    4.772707    0.000000
     0.000000    0.000000   30.000000
   V    Mo   W    S 
   3   3   3  18
Direct configuration=    16
   0.99386940  0.33483981 -0.00001067
   0.34476131  0.34059891  0.00004305
  -0.00390915  0.66340215 -0.00022815
   0.65512150  0.66567384  0.00007258
   0.66181534  0.33209603 -0.00034932
   0.35421746  0.68414835  0.00010328
   0.00411449 -0.00504376  0.00004139
   0.34323126 -0.00219371  0.00006634
   0.64648223 -0.01311290  0.00017063
   0.11442655  0.22737872  0.95119393
   0.22690112  0.11632201  0.05050088
   0.10879340  0.55371266  0.95114488
   0.22128485  0.44229495  0.04838822
   0.11027336  0.88203400  0.94860371
   0.21830858  0.77519695  0.05131814
   0.43942905  0.22325434  0.94775656
   0.55572909  0.11088599  0.05402073
   0.43988354  0.54957755  0.94721540
   0.54899958  0.44202672  0.05260420
   0.44431296  0.89021677  0.94390891
   0.55787802  0.77993381  0.05587735
   0.78043924  0.22171348  0.94917874
   0.88824798  0.11302851  0.04951789
   0.78220764  0.55909571  0.94922665
   0.89307687  0.44750178  0.05044189
   0.77760616  0.89074699  0.94806592
   0.89071260  0.77288479  0.05112676
unknown system                          
           1
     8.268531    4.800524    0.000000
    -8.252872    4.773439    0.000000
     0.000000    0.000000   30.000000
   V    Mo   W    S 
   3   3   3  18
Direct configuration=    17
   0.99363759  0.33497403 -0.00001242
   0.34523289  0.34124964  0.00004756
  -0.00508338  0.66276901 -0.00021973
   0.65521821  0.66562551  0.00014359
   0.66190813  0.33230520 -0.00033214
   0.35447027  0.68401197  0.00009979
   0.00401385 -0.00530162  0.00006557
   0.34386474 -0.00197136  0.00007239
   0.64635899 -0.01312032  0.00025050
   0.11443706  0.22738741  0.95126891
   0.22706401  0.11642669  0.05041454
   0.10890656  0.55379357  0.95118677
   0.22132244  0.44237346  0.04832646
   0.11025920  0.88185775  0.94861126
   0.21835981  0.77510875  0.05120436
   0.43951478  0.22334818  0.94777433
   0.55582203  0.11095310  0.05403239
   0.43999591  0.54964082  0.94712616
   0.54896322  0.44203790  0.05261704
   0.44433118  0.89016277  0.94381366
   0.55797216  0.77995679  0.05592282
   0.78033067  0.22158401  0.94918626
   0.88818582  0.11302008  0.04945086
   0.78202407  0.55906210  0.94912424
   0.89300297  0.44742661  0.05054100
   0.77753549  0.89074076  0.94807904
   0.89056579  0.77279164  0.05120467
unknown system                          
           1
     8.263925    4.795810    0.000000
    -8.249893    4.771538    0.000000
     0.000000    0.000000   30.000000
   V    Mo   W    S 
   3   3   3  18
Direct configuration=    18
   0.99284456  0.33529721 -0.00004703
   0.34618859  0.34237226  0.00000648
  -0.00702830  0.66169424 -0.00022292
   0.65478555  0.66551992  0.00018987
   0.66220032  0.33253222 -0.00031857
   0.35579443  0.68467218  0.00005016
   0.00466223 -0.00579669  0.00006318
   0.34482013 -0.00186509  0.00002542
   0.64515662 -0.01364205  0.00030282
   0.11447270  0.22728104  0.95149670
   0.22737837  0.11645422  0.05026673
   0.10917493  0.55402757  0.95138002
   0.22146809  0.44271648  0.04811032
   0.11034383  0.88156044  0.94867921
   0.21854841  0.77505133  0.05096551
   0.43961490  0.22335353  0.94779201
   0.55590821  0.11104597  0.05410095
   0.44012532  0.54984752  0.94701610
   0.54898187  0.44211018  0.05267124
   0.44443657  0.89018586  0.94363459
   0.55819864  0.78005409  0.05609491
   0.77996958  0.22122733  0.94926408
   0.88793329  0.11268327  0.04924343
   0.78160586  0.55901263  0.94908705
   0.89276192  0.44736048  0.05063576
   0.77750315  0.89089645  0.94825945
   0.89036467  0.77256187  0.05125243
unknown system                          
           1
     8.261510    4.791918    0.000000
    -8.249817    4.771688    0.000000
     0.000000    0.000000   30.000000
   V    Mo   W    S 
   3   3   3  18
Direct configuration=    19
   0.99339409  0.33515370 -0.00004262
   0.34565285  0.34180438  0.00002337
  -0.00602647  0.66226084 -0.00022807
   0.65516783  0.66561987  0.00014790
   0.66205058  0.33246740 -0.00033515
   0.35503883  0.68429814  0.00007143
   0.00399225 -0.00561553  0.00004868
   0.34439597 -0.00193774  0.00003915
   0.64585905 -0.01338579  0.00023998
   0.11443500  0.22732569  0.95138230
   0.22717431  0.11642152  0.05031838
   0.10901098  0.55388994  0.95127830
   0.22138054  0.44251146  0.04824149
   0.11027853  0.88175788  0.94868000
   0.21844741  0.77508810  0.05108429
   0.43957358  0.22336451  0.94779875
   0.55588736  0.11100420  0.05405455
   0.44009281  0.54974497  0.94709004
   0.54896792  0.44206609  0.05264353
   0.44441960  0.89017558  0.94377551
   0.55804489  0.77996899  0.05599235
   0.78017713  0.22143218  0.94924476
   0.88808802  0.11291460  0.04937667
   0.78185221  0.55903616  0.94910307
   0.89290983  0.44739618  0.05058090
   0.77748374  0.89076462  0.94814755
   0.89046561  0.77268654  0.05124278
unknown system                          
           1
     8.262148    4.793496    0.000000
    -8.249475    4.771569    0.000000
     0.000000    0.000000   30.000000
   V    Mo   W    S 
   3   3   3  18
Direct configuration=    20
   0.99417360  0.33492052 -0.00002485
   0.34490711  0.34096793  0.00006276
  -0.00439841  0.66314118 -0.00023218
   0.65556845  0.66580089  0.00011345
   0.66174214  0.33228356 -0.00034241
   0.35409760  0.68394682  0.00011770
   0.00300956 -0.00532584  0.00006110
   0.34383890 -0.00206446  0.00007262
   0.64675783 -0.01313959  0.00019222
   0.11439579  0.22739844  0.95120426
   0.22689189  0.11633567  0.05038336
   0.10884271  0.55370509  0.95112364
   0.22127256  0.44228046  0.04841197
   0.11023454  0.88207295  0.94865554
   0.21834600  0.77516164  0.05129272
   0.43948602  0.22335106  0.94778517
   0.55586217  0.11090774  0.05399593
   0.43997658  0.54958929  0.94717609
   0.54894804  0.44200890  0.05260567
   0.44437374  0.89018097  0.94389463
   0.55785498  0.77986122  0.05587993
   0.78046520  0.22168179  0.94921401
   0.88824495  0.11322427  0.04956101
   0.78217818  0.55908391  0.94913047
   0.89314179  0.44744329  0.05049088
   0.77742739  0.89057664  0.94794971
   0.89057516  0.77282010  0.05122449
unknown system                          
           1
     8.263987    4.795943    0.000000
    -8.249933    4.771633    0.000000
     0.000000    0.000000   30.000000
   V    Mo   W    S 
   3   3   3  18
Direct configuration=    21
   0.99432608  0.33506633 -0.00005420
   0.34522165  0.34138130  0.00006119
  -0.00480217  0.66294254 -0.00024326
   0.65576362  0.66596889  0.00012507
   0.66164706  0.33243997 -0.00033787
   0.35431519  0.68417094  0.00010568
   0.00205906 -0.00578379  0.00008286
   0.34441021 -0.00208314  0.00006629
   0.64669559 -0.01346644  0.00021968
   0.11438561  0.22729586  0.95126629
   0.22686666  0.11619709  0.05022655
   0.10899809  0.55384230  0.95117060
   0.22139743  0.44245691  0.04837636
   0.11025685  0.88213459  0.94875215
   0.21846379  0.77521606  0.05124747
   0.43947935  0.22332595  0.94779620
   0.55598543  0.11092122  0.05400107
   0.44001172  0.54969067  0.94716479
   0.54895587  0.44203117  0.05262444
   0.44443809  0.89019193  0.94380476
   0.55791127  0.77984077  0.05594855
   0.78034251  0.22154568  0.94928082
   0.88810341  0.11318059  0.04955765
   0.78209290  0.55907146  0.94913418
   0.89313565  0.44745961  0.05048001
   0.77727256  0.89048700  0.94788670
   0.89048095  0.77268897  0.05125585
unknown system                          
           1
     8.260106    4.791564    0.000000
    -8.248218    4.770994    0.000000
     0.000000    0.000000   30.000000
   V    Mo   W    S 
   3   3   3  18
Direct configuration=    22
   0.99334951  0.33505834 -0.00001926
   0.34549005  0.34165135  0.00003507
  -0.00590345  0.66228406 -0.00022179
   0.65510873  0.66555895  0.00015223
   0.66207816  0.33238072 -0.00032842
   0.35493523  0.68418339  0.00007435
   0.00426176 -0.00538556  0.00005984
   0.34425102 -0.00187734  0.00005693
   0.64595550 -0.01322374  0.00026724
   0.11442922  0.22737441  0.95134574
   0.22718943  0.11645658  0.05036114
   0.10898639  0.55382165  0.95125279
   0.22132673  0.44246582  0.04825620
   0.11029346  0.88177744  0.94864370
   0.21843754  0.77508268  0.05111070
   0.43957455  0.22337261  0.94778964
   0.55587460  0.11099631  0.05405395
   0.44006744  0.54971083  0.94708702
   0.54896573  0.44204748  0.05263537
   0.44435437  0.89013799  0.94376313
   0.55806064  0.78000379  0.05597556
   0.78023534  0.22146878  0.94921863
   0.88811860  0.11294838  0.04937240
   0.78184849  0.55902110  0.94908764
   0.89293077  0.44735434  0.05058492
   0.77751439  0.89078449  0.94815082
   0.89048026  0.77275961  0.05123434
unknown system                          
           1
     8.254879    4.784861    0.000000
    -8.246827    4.770923    0.000000
     0.000000    0.000000   30.000000
   V    Mo   W    S 
   3   3   3  18
Direct configuration=    23
   0.99444238  0.33488852 -0.00002236
   0.34489030  0.34090028  0.00007925
  -0.00393323  0.66336781 -0.00023828
   0.65568707  0.66592097  0.00011037
   0.66151292  0.33224002 -0.00033980
   0.35389773  0.68395552  0.00012391
   0.00230130 -0.00540782  0.00009445
   0.34392676 -0.00207816  0.00009644
   0.64703239 -0.01321349  0.00022563
   0.11437399  0.22735614  0.95118834
   0.22679291  0.11622092  0.05031546
   0.10891092  0.55372189  0.95109836
   0.22131226  0.44231655  0.04842585
   0.11025496  0.88221444  0.94867666
   0.21841569  0.77523563  0.05134938
   0.43944514  0.22331518  0.94778371
   0.55590594  0.11085680  0.05396438
   0.43992767  0.54960383  0.94720366
   0.54894500  0.44200707  0.05259830
   0.44435958  0.89018153  0.94385669
   0.55784471  0.77983983  0.05588645
   0.78048171  0.22168057  0.94924663
   0.88820346  0.11327164  0.04958953
   0.78220509  0.55909042  0.94915614
   0.89320537  0.44744974  0.05044341
   0.77733458  0.89048257  0.94786017
   0.89053785  0.77279606  0.05122718
unknown system                          
           1
     8.262038    4.791678    0.000000
    -8.251204    4.772933    0.000000
     0.000000    0.000000   30.000000
   V    Mo   W    S 
   3   3   3  18
Direct configuration=    24
   0.99494684  0.33448412  0.00003213
   0.34373064  0.33949130  0.00011064
  -0.00107598  0.66466956 -0.00026596
   0.65575507  0.66616808  0.00003806
   0.66127523  0.33174642 -0.00038530
   0.35263651  0.68366364  0.00015902
   0.00204928 -0.00463728  0.00008274
   0.34270523 -0.00240539  0.00008433
   0.64802436 -0.01283085  0.00010413
   0.11427896  0.22747729  0.95095967
   0.22651430  0.11615502  0.05053210
   0.10867985  0.55335237  0.95091400
   0.22105824  0.44201564  0.04858486
   0.11024085  0.88259955  0.94857180
   0.21833209  0.77534098  0.05168966
   0.43933614  0.22322484  0.94775030
   0.55577280  0.11072014  0.05392724
   0.43965713  0.54941018  0.94732150
   0.54896953  0.44196464  0.05256102
   0.44426995  0.89025247  0.94404230