 vasp.5.4.1 05Feb16 (build Jul 05 2020 17:13:04) complex                        
  
 executed on           IFC91_ompi date 2024.05.11  03:57:06
 running on   40 total cores
 distrk:  each k-point on   40 cores,    1 groups
 distr:  one band on NCORES_PER_BAND=   1 cores,   40 groups


--------------------------------------------------------------------------------------------------------


 INCAR:
 POTCAR:   PAW_PBE V 08Apr2002                    
 POTCAR:   PAW_PBE Mo 08Apr2002                   
 POTCAR:   PAW_PBE W 08Apr2002                    
 POTCAR:    PAW_PBE S 17Jan2003                   

 ----------------------------------------------------------------------------- 
|                                                                             |
|           W    W    AA    RRRRR   N    N  II  N    N   GGGG   !!!           |
|           W    W   A  A   R    R  NN   N  II  NN   N  G    G  !!!           |
|           W    W  A    A  R    R  N N  N  II  N N  N  G       !!!           |
|           W WW W  AAAAAA  RRRRR   N  N N  II  N  N N  G  GGG   !            |
|           WW  WW  A    A  R   R   N   NN  II  N   NN  G    G                |
|           W    W  A    A  R    R  N    N  II  N    N   GGGG   !!!           |
|                                                                             |
|      For optimal performance we recommend to set                            |
|        NCORE= 4 - approx SQRT( number of cores)                             |
|      NCORE specifies how many cores store one orbital (NPAR=cpu/NCORE).     |
|      This setting can  greatly improve the performance of VASP for DFT.     |
|      The default, NPAR=number of cores might be grossly inefficient         |
|      on modern multi-core architectures or massively parallel machines.     |
|      Do your own testing !!!!                                               |
|      Unfortunately you need to use the default for GW and RPA calculations. |
|      (for HF NCORE is supported but not extensively tested yet)             |
|                                                                             |
 ----------------------------------------------------------------------------- 

 POTCAR:   PAW_PBE V 08Apr2002                    
   VRHFIN =V: p6 d4 s1                                                          
   LEXCH  = PE                                                                  
   EATOM  =   170.8679 eV,   12.5584 Ry                                         
                                                                                
   TITEL  = PAW_PBE V 08Apr2002                                                 
   LULTRA =        F    use ultrasoft PP ?                                      
   IUNSCR =        1    unscreen: 0-lin 1-nonlin 2-no                           
   RPACOR =    2.000    partial core radius                                     
   POMASS =   50.941; ZVAL   =    5.000    mass and valenz                      
   RCORE  =    2.700    outmost cutoff radius                                   
   RWIGS  =    2.500; RWIGS  =    1.323    wigner-seitz radius (au A)           
   ENMAX  =  192.543; ENMIN  =  144.408 eV                                      
   RCLOC  =    1.779    cutoff for local pot                                    
   LCOR   =        T    correct aug charges                                     
   LPAW   =        T    paw PP                                                  
   EAUG   =  358.662                                                            
   DEXC   =    -.034                                                            
   RMAX   =    3.323    core radius for proj-oper                               
   RAUG   =    1.300    factor for augmentation sphere                          
   RDEP   =    2.762    radius for radial grids                                 
   QCUT   =   -3.762; QGAM   =    7.524    optimization parameters              
                                                                                
   Description                                                                  
     l     E      TYP  RCUT    TYP  RCUT                                        
     2   .000     23  2.700                                                     
     2   .000     23  2.700                                                     
     0   .000     23  2.700                                                     
     0  2.000     23  2.700                                                     
     1   .000     23  2.700                                                     
     1  2.000     23  2.700                                                     
     3   .000      7   .000                                                     
  local pseudopotential read in
  partial core-charges read in
  atomic valenz-charges read in
  non local Contribution for L=           2  read in
    real space projection operators read in
  non local Contribution for L=           2  read in
    real space projection operators read in
  non local Contribution for L=           0  read in
    real space projection operators read in
  non local Contribution for L=           0  read in
    real space projection operators read in
  non local Contribution for L=           1  read in
    real space projection operators read in
  non local Contribution for L=           1  read in
    real space projection operators read in
    PAW grid and wavefunctions read in
 
   number of l-projection  operators is LMAX  =           6
   number of lm-projection operators is LMMAX =          18
 
 POTCAR:   PAW_PBE Mo 08Apr2002                   
   VRHFIN =Mo: 4p5s4d                                                           
   LEXCH  = PE                                                                  
   EATOM  =   217.5180 eV,   15.9871 Ry                                         
                                                                                
   TITEL  = PAW_PBE Mo 08Apr2002                                                
   LULTRA =        F    use ultrasoft PP ?                                      
   IUNSCR =        1    unscreen: 0-lin 1-nonlin 2-no                           
   RPACOR =    2.200    partial core radius                                     
   POMASS =   95.940; ZVAL   =    6.000    mass and valenz                      
   RCORE  =    2.750    outmost cutoff radius                                   
   RWIGS  =    2.750; RWIGS  =    1.455    wigner-seitz radius (au A)           
   ENMAX  =  224.584; ENMIN  =  168.438 eV                                      
   RCLOC  =    2.111    cutoff for local pot                                    
   LCOR   =        T    correct aug charges                                     
   LPAW   =        T    paw PP                                                  
   EAUG   =  345.278                                                            
   DEXC   =    -.088                                                            
   RMAX   =    3.077    core radius for proj-oper                               
   RAUG   =    1.300    factor for augmentation sphere                          
   RDEP   =    2.815    radius for radial grids                                 
   QCUT   =   -4.063; QGAM   =    8.126    optimization parameters              
                                                                                
   Description                                                                  
     l     E      TYP  RCUT    TYP  RCUT                                        
     2   .000     23  2.500                                                     
     2   .000     23  2.500                                                     
     0   .000     23  2.600                                                     
     0  1.000     23  2.600                                                     
     1   .400     23  2.750                                                     
     1  2.000     23  2.750                                                     
     3   .000      7   .000                                                     
  local pseudopotential read in
  partial core-charges read in
  atomic valenz-charges read in
  non local Contribution for L=           2  read in
    real space projection operators read in
  non local Contribution for L=           2  read in
    real space projection operators read in
  non local Contribution for L=           0  read in
    real space projection operators read in
  non local Contribution for L=           0  read in
    real space projection operators read in
  non local Contribution for L=           1  read in
    real space projection operators read in
  non local Contribution for L=           1  read in
    real space projection operators read in
    PAW grid and wavefunctions read in
 
   number of l-projection  operators is LMAX  =           6
   number of lm-projection operators is LMMAX =          18
 
 POTCAR:   PAW_PBE W 08Apr2002                    
   VRHFIN =W : 6s5d                                                             
   LEXCH  = PE                                                                  
   EATOM  =   204.6100 eV,   15.0384 Ry                                         
                                                                                
   TITEL  = PAW_PBE W 08Apr2002                                                 
   LULTRA =        F    use ultrasoft PP ?                                      
   IUNSCR =        1    unscreen: 0-lin 1-nonlin 2-no                           
   RPACOR =    2.330    partial core radius                                     
   POMASS =  183.850; ZVAL   =    6.000    mass and valenz                      
   RCORE  =    2.750    outmost cutoff radius                                   
   RWIGS  =    2.750; RWIGS  =    1.455    wigner-seitz radius (au A)           
   ENMAX  =  223.057; ENMIN  =  167.293 eV                                      
   RCLOC  =    2.147    cutoff for local pot                                    
   LCOR   =        T    correct aug charges                                     
   LPAW   =        T    paw PP                                                  
   EAUG   =  373.438                                                            
   DEXC   =    -.060                                                            
   RMAX   =    3.087    core radius for proj-oper                               
   RAUG   =    1.300    factor for augmentation sphere                          
   RDEP   =    2.886    radius for radial grids                                 
   QCUT   =   -4.049; QGAM   =    8.098    optimization parameters              
                                                                                
   Description                                                                  
     l     E      TYP  RCUT    TYP  RCUT                                        
     2   .000     23  2.500                                                     
     2   .000     23  2.500                                                     
     0   .000     23  2.500                                                     
     0   .000     23  2.500                                                     
     1   .200     23  2.750                                                     
     1  2.000     23  2.750                                                     
     3   .000      7   .000                                                     
  local pseudopotential read in
  partial core-charges read in
  atomic valenz-charges read in
  non local Contribution for L=           2  read in
    real space projection operators read in
  non local Contribution for L=           2  read in
    real space projection operators read in
  non local Contribution for L=           0  read in
    real space projection operators read in
  non local Contribution for L=           0  read in
    real space projection operators read in
  non local Contribution for L=           1  read in
    real space projection operators read in
  non local Contribution for L=           1  read in
    real space projection operators read in
    PAW grid and wavefunctions read in
 
   number of l-projection  operators is LMAX  =           6
   number of lm-projection operators is LMMAX =          18
 
 POTCAR:    PAW_PBE S 17Jan2003                   
   VRHFIN =S : s2p4                                                             
   LEXCH  = PE                                                                  
   EATOM  =   276.8230 eV,   20.3459 Ry                                         
                                                                                
   TITEL  = PAW_PBE S 17Jan2003                                                 
   LULTRA =        F    use ultrasoft PP ?                                      
   IUNSCR =        1    unscreen: 0-lin 1-nonlin 2-no                           
   RPACOR =    1.500    partial core radius                                     
   POMASS =   32.066; ZVAL   =    6.000    mass and valenz                      
   RCORE  =    1.900    outmost cutoff radius                                   
   RWIGS  =    2.200; RWIGS  =    1.164    wigner-seitz radius (au A)           
   ENMAX  =  280.000; ENMIN  =  194.016 eV                                      
   ICORE  =        2    local potential                                         
   LCOR   =        T    correct aug charges                                     
   LPAW   =        T    paw PP                                                  
   EAUG   =  335.092                                                            
   DEXC   =     .000                                                            
   RMAX   =    2.867    core radius for proj-oper                               
   RAUG   =    1.300    factor for augmentation sphere                          
   RDEP   =    1.954    radius for radial grids                                 
   QCUT   =   -4.360; QGAM   =    8.721    optimization parameters              
                                                                                
   Description                                                                  
     l     E      TYP  RCUT    TYP  RCUT                                        
     0   .000     23  1.900                                                     
     0   .000     23  1.900                                                     
     1   .000     23  1.900                                                     
     1   .000     23  1.900                                                     
     2   .000     23  1.900                                                     
  local pseudopotential read in
  partial core-charges read in
  atomic valenz-charges read in
  non local Contribution for L=           0  read in
    real space projection operators read in
  non local Contribution for L=           0  read in
    real space projection operators read in
  non local Contribution for L=           1  read in
    real space projection operators read in
  non local Contribution for L=           1  read in
    real space projection operators read in
    PAW grid and wavefunctions read in
 
   number of l-projection  operators is LMAX  =           4
   number of lm-projection operators is LMMAX =           8
 

 ----------------------------------------------------------------------------- 
|                                                                             |
|  ADVICE TO THIS USER RUNNING 'VASP/VAMP'   (HEAR YOUR MASTER'S VOICE ...):  |
|                                                                             |
|      You have a (more or less) 'large supercell' and for larger cells       |
|      it might be more efficient to use real space projection operators      |
|      So try LREAL= Auto  in the INCAR   file.                               |
|      Mind: If you want to do a very accurate calculations keep the          |
|      reciprocal projection scheme          (i.e. LREAL=.FALSE.)             |
|                                                                             |
 ----------------------------------------------------------------------------- 

 PAW_PBE V 08Apr2002                    :
 energy of atom  1       EATOM= -170.8679
 kinetic energy error for atom=    0.0047 (will be added to EATOM!!)
 PAW_PBE Mo 08Apr2002                   :
 energy of atom  2       EATOM= -217.5180
 kinetic energy error for atom=    0.0215 (will be added to EATOM!!)
 PAW_PBE W 08Apr2002                    :
 energy of atom  3       EATOM= -204.6100
 kinetic energy error for atom=    0.0205 (will be added to EATOM!!)
  PAW_PBE S 17Jan2003                   :
 energy of atom  4       EATOM= -276.8230
 kinetic energy error for atom=    0.0122 (will be added to EATOM!!)
 
 
 POSCAR: crystal structure from VMoWS2 with Hexag
  positions in cartesian coordinates
  No initial velocities read in
 exchange correlation table for  LEXCH =        8
   RHO(1)=    0.500       N(1)  =     2000
   RHO(2)=  100.500       N(2)  =     4000
 


--------------------------------------------------------------------------------------------------------


 ion  position               nearest neighbor table
   1  0.333  0.667  0.000-  15 2.34  18 2.34  20 2.36  21 2.36  13 2.36  12 2.36
   2  0.000  0.000  0.000-  23 2.34  14 2.34  11 2.36  10 2.36  27 2.36  26 2.36
   3  1.000  0.333  0.000-  25 2.34  10 2.34  13 2.36  12 2.36  22 2.36  23 2.36
   4  0.000  0.667  0.000-  27 2.34  12 2.34  14 2.36  15 2.36  24 2.36  25 2.36   9 3.34   5 3.36
                             6 3.36
   5  0.333  0.000  0.000-  11 2.34  20 2.34  17 2.36  16 2.36  15 2.36  14 2.36   7 3.34   8 3.34
                             4 3.36   6 3.36
   6  0.667  0.333  0.000-  19 2.34  22 2.34  25 2.36  24 2.36  17 2.36  16 2.36   9 3.34   8 3.34
                             7 3.34   4 3.36   5 3.36
   7  0.333  0.333  0.000-  13 2.34  16 2.34  19 2.36  18 2.36  11 2.36  10 2.36   5 3.34   6 3.34
                             9 3.36
   8  0.667  0.000  0.000-  17 2.34  26 2.34  23 2.36  22 2.36  21 2.36  20 2.36   9 3.34   6 3.34
                             5 3.34
   9  0.667  0.667  0.000-  21 2.34  24 2.34  27 2.36  26 2.36  19 2.36  18 2.36   4 3.34   8 3.34
                             6 3.34   7 3.36
  10  0.111  0.222  0.955-   3 2.34   2 2.36   7 2.36
  11  0.222  0.111  0.045-   5 2.34   2 2.36   7 2.36
  12  0.111  0.556  0.955-   4 2.34   3 2.36   1 2.36
  13  0.222  0.444  0.045-   7 2.34   3 2.36   1 2.36
  14  0.111  0.889  0.955-   2 2.34   4 2.36   5 2.36
  15  0.222  0.777  0.045-   1 2.34   4 2.36   5 2.36
  16  0.444  0.222  0.955-   7 2.34   5 2.36   6 2.36
  17  0.556  0.111  0.045-   8 2.34   5 2.36   6 2.36
  18  0.444  0.556  0.955-   1 2.34   7 2.36   9 2.36
  19  0.556  0.444  0.045-   6 2.34   7 2.36   9 2.36
  20  0.444  0.889  0.955-   5 2.34   1 2.36   8 2.36
  21  0.556  0.777  0.045-   9 2.34   1 2.36   8 2.36
  22  0.777  0.222  0.955-   6 2.34   8 2.36   3 2.36
  23  0.889  0.111  0.045-   2 2.34   8 2.36   3 2.36
  24  0.777  0.556  0.955-   9 2.34   6 2.36   4 2.36
  25  0.889  0.444  0.045-   3 2.34   6 2.36   4 2.36
  26  0.777  0.889  0.955-   8 2.34   9 2.36   2 2.36
  27  0.889  0.777  0.045-   4 2.34   9 2.36   2 2.36
 

IMPORTANT INFORMATION: All symmetrisations will be switched off!
NOSYMM: (Re-)initialisation of all symmetry stuff for point group C_1.

 
 
 KPOINTS: K-POINTS 	#supercell of CrS2 in hexagona

Automatic generation of k-mesh.
Space group operators:
 irot       det(A)        alpha          n_x          n_y          n_z        tau_x        tau_y        tau_z
    1     1.000000     0.000000     1.000000     0.000000     0.000000     0.000000     0.000000     0.000000
 
 Subroutine IBZKPT returns following result:
 ===========================================
 
 Found     34 irreducible k-points:
 
 Following reciprocal coordinates:
            Coordinates               Weight
  0.000000  0.000000  0.000000      1.000000
  0.125000  0.000000  0.000000      2.000000
  0.250000  0.000000  0.000000      2.000000
  0.375000  0.000000  0.000000      2.000000
  0.500000  0.000000  0.000000      1.000000
  0.000000  0.125000  0.000000      2.000000
  0.125000  0.125000  0.000000      2.000000
  0.250000  0.125000  0.000000      2.000000
  0.375000  0.125000  0.000000      2.000000
  0.500000  0.125000  0.000000      2.000000
 -0.375000  0.125000  0.000000      2.000000
 -0.250000  0.125000  0.000000      2.000000
 -0.125000  0.125000  0.000000      2.000000
  0.000000  0.250000  0.000000      2.000000
  0.125000  0.250000  0.000000      2.000000
  0.250000  0.250000  0.000000      2.000000
  0.375000  0.250000  0.000000      2.000000
  0.500000  0.250000  0.000000      2.000000
 -0.375000  0.250000  0.000000      2.000000
 -0.250000  0.250000  0.000000      2.000000
 -0.125000  0.250000  0.000000      2.000000
 -0.000000  0.375000  0.000000      2.000000
  0.125000  0.375000  0.000000      2.000000
  0.250000  0.375000  0.000000      2.000000
  0.375000  0.375000  0.000000      2.000000
  0.500000  0.375000  0.000000      2.000000
 -0.375000  0.375000  0.000000      2.000000
 -0.250000  0.375000  0.000000      2.000000
 -0.125000  0.375000  0.000000      2.000000
  0.000000  0.500000  0.000000      1.000000
  0.125000  0.500000  0.000000      2.000000
  0.250000  0.500000  0.000000      2.000000
  0.375000  0.500000  0.000000      2.000000
  0.500000  0.500000  0.000000      1.000000
 
 Following cartesian coordinates:
            Coordinates               Weight
  0.000000  0.000000  0.000000      1.000000
  0.007209  0.012401  0.000000      2.000000
  0.014418  0.024802  0.000000      2.000000
  0.021626  0.037202  0.000000      2.000000
  0.028835  0.049603  0.000000      1.000000
 -0.007209  0.012401  0.000000      2.000000
  0.000000  0.024802  0.000000      2.000000
  0.007209  0.037202  0.000000      2.000000
  0.014418  0.049603  0.000000      2.000000
  0.021626  0.062004  0.000000      2.000000
 -0.028835 -0.024802  0.000000      2.000000
 -0.021626 -0.012401  0.000000      2.000000
 -0.014418  0.000000  0.000000      2.000000
 -0.014418  0.024802  0.000000      2.000000
 -0.007209  0.037202  0.000000      2.000000
  0.000000  0.049603  0.000000      2.000000
  0.007209  0.062004  0.000000      2.000000
  0.014418  0.074405  0.000000      2.000000
 -0.036044 -0.012401  0.000000      2.000000
 -0.028835  0.000000  0.000000      2.000000
 -0.021626  0.012401  0.000000      2.000000
 -0.021626  0.037202  0.000000      2.000000
 -0.014418  0.049603  0.000000      2.000000
 -0.007209  0.062004  0.000000      2.000000
  0.000000  0.074405  0.000000      2.000000
  0.007209  0.086806  0.000000      2.000000
 -0.043253  0.000000  0.000000      2.000000
 -0.036044  0.012401  0.000000      2.000000
 -0.028835  0.024802  0.000000      2.000000
 -0.028835  0.049603  0.000000      1.000000
 -0.021626  0.062004  0.000000      2.000000
 -0.014418  0.074405  0.000000      2.000000
 -0.007209  0.086806  0.000000      2.000000
  0.000000  0.099206  0.000000      1.000000
 


--------------------------------------------------------------------------------------------------------




 Dimension of arrays:
   k-points           NKPTS =     34   k-points in BZ     NKDIM =     34   number of bands    NBANDS=    120
   number of dos      NEDOS =    301   number of ions     NIONS =     27
   non local maximal  LDIM  =      6   non local SUM 2l+1 LMDIM =     18
   total plane-waves  NPLWV = 222264
   max r-space proj   IRMAX =      1   max aug-charges    IRDMAX=   5642
   dimension x,y,z NGX =    42 NGY =   42 NGZ =  126
   dimension x,y,z NGXF=    84 NGYF=   84 NGZF=  252
   support grid    NGXF=    84 NGYF=   84 NGZF=  252
   ions per type =               3   3   3  18
 NGX,Y,Z   is equivalent  to a cutoff of   6.96,  6.96,  6.98 a.u.
 NGXF,Y,Z  is equivalent  to a cutoff of  13.92, 13.92, 13.96 a.u.


 I would recommend the setting:
   dimension x,y,z NGX =    41 NGY =   41 NGZ =  123
 SYSTEM =  unknown system                          
 POSCAR =  crystal structure from VMoWS2 with Hexag

 Startparameter for this run:
   NWRITE =      2    write-flag & timer
   PREC   = normal    normal or accurate (medium, high low for compatibility)
   ISTART =      0    job   : 0-new  1-cont  2-samecut
   ICHARG =      2    charge: 1-file 2-atom 10-const
   ISPIN  =      1    spin polarized calculation?
   LNONCOLLINEAR =      F non collinear calculations
   LSORBIT =      F    spin-orbit coupling
   INIWAV =      1    electr: 0-lowe 1-rand  2-diag
   LASPH  =      F    aspherical Exc in radial PAW
   METAGGA=      F    non-selfconsistent MetaGGA calc.

 Electronic Relaxation 1
   ENCUT  =  280.0 eV  20.58 Ry    4.54 a.u.  13.68 13.68 40.93*2*pi/ulx,y,z
   ENINI  =  280.0     initial cutoff
   ENAUG  =  373.4 eV  augmentation charge cutoff
   NELM   =     60;   NELMIN=  2; NELMDL= -5     # of ELM steps 
   EDIFF  = 0.1E-03   stopping-criterion for ELM
   LREAL  =      F    real-space projection
   NLSPLINE    = F    spline interpolate recip. space projectors
   LCOMPAT=      F    compatible to vasp.4.4
   GGA_COMPAT  = T    GGA compatible to vasp.4.4-vasp.4.6
   LMAXPAW     = -100 max onsite density
   LMAXMIX     =    2 max onsite mixed and CHGCAR
   VOSKOWN=      0    Vosko Wilk Nusair interpolation
   ROPT   =    0.00000   0.00000   0.00000   0.00000
 Ionic relaxation
   EDIFFG = 0.1E-02   stopping-criterion for IOM
   NSW    =    100    number of steps for IOM
   NBLOCK =      1;   KBLOCK =    100    inner block; outer block 
   IBRION =      1    ionic relax: 0-MD 1-quasi-New 2-CG
   NFREE  =      0    steps in history (QN), initial steepest desc. (CG)
   ISIF   =      3    stress and relaxation
   IWAVPR =     11    prediction:  0-non 1-charg 2-wave 3-comb
   ISYM   =      0    0-nonsym 1-usesym 2-fastsym
   LCORR  =      T    Harris-Foulkes like correction to forces

   POTIM  = 0.5000    time-step for ionic-motion
   TEIN   =    0.0    initial temperature
   TEBEG  =    0.0;   TEEND  =   0.0 temperature during run
   SMASS  =  -3.00    Nose mass-parameter (am)
   estimated Nose-frequenzy (Omega)   =  0.10E-29 period in steps =****** mass=  -0.230E-26a.u.
   SCALEE = 1.0000    scale energy and forces
   NPACO  =    256;   APACO  = 16.0  distance and # of slots for P.C.
   PSTRESS=    0.0 pullay stress

  Mass of Ions in am
   POMASS =  50.94 95.94183.85 32.07
  Ionic Valenz
   ZVAL   =   5.00  6.00  6.00  6.00
  Atomic Wigner-Seitz radii
   RWIGS  =  -1.00 -1.00 -1.00 -1.00
  virtual crystal weights 
   VCA    =   1.00  1.00  1.00  1.00
   NELECT =     159.0000    total number of electrons
   NUPDOWN=      -1.0000    fix difference up-down

 DOS related values:
   EMIN   =  10.00;   EMAX   =-10.00  energy-range for DOS
   EFERMI =   0.00
   ISMEAR =     0;   SIGMA  =   0.20  broadening in eV -4-tet -1-fermi 0-gaus

 Electronic relaxation 2 (details)
   IALGO  =     38    algorithm
   LDIAG  =      T    sub-space diagonalisation (order eigenvalues)
   LSUBROT=      F    optimize rotation matrix (better conditioning)
   TURBO    =      0    0=normal 1=particle mesh
   IRESTART =      0    0=no restart 2=restart with 2 vectors
   NREBOOT  =      0    no. of reboots
   NMIN     =      0    reboot dimension
   EREF     =   0.00    reference energy to select bands
   IMIX   =      4    mixing-type and parameters
     AMIX     =   0.40;   BMIX     =  1.00
     AMIX_MAG =   1.60;   BMIX_MAG =  1.00
     AMIN     =   0.10
     WC   =   100.;   INIMIX=   1;  MIXPRE=   1;  MAXMIX= -45

 Intra band minimization:
   WEIMIN = 0.0010     energy-eigenvalue tresh-hold
   EBREAK =  0.21E-06  absolut break condition
   DEPER  =   0.30     relativ break condition  

   TIME   =   0.40     timestep for ELM

  volume/ion in A,a.u.               =      97.10       655.29
  Fermi-wavevector in a.u.,A,eV,Ry     =   0.643191  1.215456  5.628665  0.413695
  Thomas-Fermi vector in A             =   1.710110
 
 Write flags
   LWAVE  =      F    write WAVECAR
   LCHARG =      F    write CHGCAR
   LVTOT  =      F    write LOCPOT, total local potential
   LVHAR  =      F    write LOCPOT, Hartree potential only
   LELF   =      F    write electronic localiz. function (ELF)
   LORBIT =      0    0 simple, 1 ext, 2 COOP (PROOUT)


 Dipole corrections
   LMONO  =      F    monopole corrections only (constant potential shift)
   LDIPOL =      F    correct potential (dipole corrections)
   IDIPOL =      0    1-x, 2-y, 3-z, 4-all directions 
   EPSILON=  1.0000000 bulk dielectric constant

 Exchange correlation treatment:
   GGA     =    --    GGA type
   LEXCH   =     8    internal setting for exchange type
   VOSKOWN=      0    Vosko Wilk Nusair interpolation
   LHFCALC =     F    Hartree Fock is set to
   LHFONE  =     F    Hartree Fock one center treatment
   AEXX    =    0.0000 exact exchange contribution

 Linear response parameters
   LEPSILON=     F    determine dielectric tensor
   LRPA    =     F    only Hartree local field effects (RPA)
   LNABLA  =     F    use nabla operator in PAW spheres
   LVEL    =     F    velocity operator in full k-point grid
   LINTERFAST=   F  fast interpolation
   KINTER  =     0    interpolate to denser k-point grid
   CSHIFT  =0.1000    complex shift for real part using Kramers Kronig
   OMEGAMAX=  -1.0    maximum frequency
   DEG_THRESHOLD= 0.2000000E-02 threshold for treating states as degnerate
   RTIME   =    0.100 relaxation time in fs

 Orbital magnetization related:
   ORBITALMAG=     F  switch on orbital magnetization
   LCHIMAG   =     F  perturbation theory with respect to B field
   DQ        =  0.001000  dq finite difference perturbation B field



--------------------------------------------------------------------------------------------------------


 quasi-Newton-method for relaxation of ions
 charge density and potential will be updated during run
 non-spin polarized calculation
 Variant of blocked Davidson
 Davidson routine will perform the subspace rotation
 perform sub-space diagonalisation
    after iterative eigenvector-optimisation
 modified Broyden-mixing scheme, WC =      100.0
 initial mixing is a Kerker type mixing with AMIX =  0.4000 and BMIX =      1.0000
 Hartree-type preconditioning will be used
 using additional bands           40
 reciprocal scheme for non local part
 use partial core corrections
 calculate Harris-corrections to forces 
   (improved forces if not selfconsistent)
 use gradient corrections 
 use of overlap-Matrix (Vanderbilt PP)
 Gauss-broadening in eV      SIGMA  =   0.20


--------------------------------------------------------------------------------------------------------


  energy-cutoff  :      280.00
  volume of cell :     2621.81
      direct lattice vectors                 reciprocal lattice vectors
     8.669999960  5.039999894  0.000000000     0.057670129  0.099206348  0.000000000
    -8.669999821  5.040000133  0.000000000    -0.057670126  0.099206350  0.000000000
     0.000000000  0.000000000 30.000000000     0.000000000  0.000000000  0.033333333

  length of vectors
    10.028484344 10.028484344 30.000000000     0.114750788  0.114750788  0.033333333


 
 k-points in units of 2pi/SCALE and weight: K-POINTS 	#supercell of CrS2 in hexagona
   0.00000000  0.00000000  0.00000000       0.016
   0.00720877  0.01240079  0.00000000       0.031
   0.01441753  0.02480159  0.00000000       0.031
   0.02162630  0.03720238  0.00000000       0.031
   0.02883506  0.04960317  0.00000000       0.016
  -0.00720877  0.01240079  0.00000000       0.031
   0.00000000  0.02480159  0.00000000       0.031
   0.00720877  0.03720238  0.00000000       0.031
   0.01441753  0.04960317  0.00000000       0.031
   0.02162630  0.06200397  0.00000000       0.031
  -0.02883506 -0.02480159  0.00000000       0.031
  -0.02162630 -0.01240079  0.00000000       0.031
  -0.01441753  0.00000000  0.00000000       0.031
  -0.01441753  0.02480159  0.00000000       0.031
  -0.00720877  0.03720238  0.00000000       0.031
   0.00000000  0.04960317  0.00000000       0.031
   0.00720877  0.06200397  0.00000000       0.031
   0.01441753  0.07440476  0.00000000       0.031
  -0.03604383 -0.01240079  0.00000000       0.031
  -0.02883506  0.00000000  0.00000000       0.031
  -0.02162630  0.01240079  0.00000000       0.031
  -0.02162630  0.03720238  0.00000000       0.031
  -0.01441753  0.04960317  0.00000000       0.031
  -0.00720877  0.06200397  0.00000000       0.031
   0.00000000  0.07440476  0.00000000       0.031
   0.00720877  0.08680556  0.00000000       0.031
  -0.04325260  0.00000000  0.00000000       0.031
  -0.03604383  0.01240079  0.00000000       0.031
  -0.02883506  0.02480159  0.00000000       0.031
  -0.02883506  0.04960317  0.00000000       0.016
  -0.02162630  0.06200397  0.00000000       0.031
  -0.01441753  0.07440476  0.00000000       0.031
  -0.00720876  0.08680556  0.00000000       0.031
   0.00000000  0.09920635  0.00000000       0.016
 
 k-points in reciprocal lattice and weights: K-POINTS 	#supercell of CrS2 in hexagona
   0.00000000  0.00000000  0.00000000       0.016
   0.12500000  0.00000000  0.00000000       0.031
   0.25000000  0.00000000  0.00000000       0.031
   0.37500000  0.00000000  0.00000000       0.031
   0.50000000  0.00000000  0.00000000       0.016
   0.00000000  0.12500000  0.00000000       0.031
   0.12500000  0.12500000  0.00000000       0.031
   0.25000000  0.12500000  0.00000000       0.031
   0.37500000  0.12500000  0.00000000       0.031
   0.50000000  0.12500000  0.00000000       0.031
  -0.37500000  0.12500000  0.00000000       0.031
  -0.25000000  0.12500000  0.00000000       0.031
  -0.12500000  0.12500000  0.00000000       0.031
   0.00000000  0.25000000  0.00000000       0.031
   0.12500000  0.25000000  0.00000000       0.031
   0.25000000  0.25000000  0.00000000       0.031
   0.37500000  0.25000000  0.00000000       0.031
   0.50000000  0.25000000  0.00000000       0.031
  -0.37500000  0.25000000  0.00000000       0.031
  -0.25000000  0.25000000  0.00000000       0.031
  -0.12500000  0.25000000  0.00000000       0.031
  -0.00000000  0.37500000  0.00000000       0.031
   0.12500000  0.37500000  0.00000000       0.031
   0.25000000  0.37500000  0.00000000       0.031
   0.37500000  0.37500000  0.00000000       0.031
   0.50000000  0.37500000  0.00000000       0.031
  -0.37500000  0.37500000  0.00000000       0.031
  -0.25000000  0.37500000  0.00000000       0.031
  -0.12500000  0.37500000  0.00000000       0.031
   0.00000000  0.50000000  0.00000000       0.016
   0.12500000  0.50000000  0.00000000       0.031
   0.25000000  0.50000000  0.00000000       0.031
   0.37500000  0.50000000  0.00000000       0.031
   0.50000000  0.50000000  0.00000000       0.016
 
 position of ions in fractional coordinates (direct lattice) 
   0.33333334  0.66666669  0.00000000
   0.00000000  0.00000000  0.00000000
   1.00000000  0.33333334  0.00000000
   0.00000000  0.66666669  0.00000000
   0.33333334  0.00000000  0.00000000
   0.66666669  0.33333334  0.00000000
   0.33333334  0.33333334  0.00000000
   0.66666669  0.00000000  0.00000000
   0.66666669  0.66666669  0.00000000
   0.11068511  0.22244981  0.95539999
   0.22244981  0.11068511  0.04460000
   0.11068511  0.55578315  0.95539999
   0.22244981  0.44401845  0.04460000
   0.11068511  0.88911647  0.95539999
   0.22244981  0.77735180  0.04460000
   0.44401845  0.22244981  0.95539999
   0.55578315  0.11068511  0.04460000
   0.44401845  0.55578315  0.95539999
   0.55578315  0.44401845  0.04460000
   0.44401845  0.88911647  0.95539999
   0.55578315  0.77735180  0.04460000
   0.77735180  0.22244981  0.95539999
   0.88911647  0.11068511  0.04460000
   0.77735180  0.55578315  0.95539999
   0.88911647  0.44401845  0.04460000
   0.77735180  0.88911647  0.95539999
   0.88911647  0.77735180  0.04460000
 
 position of ions in cartesian coordinates  (Angst):
  -2.88999998  5.04000020  0.00000000
   0.00000000  0.00000000  0.00000000
   5.77999993  6.71999999  0.00000000
  -5.78000005  3.36000019  0.00000000
   2.89000007  1.68000002  0.00000000
   2.89000012  5.04000012  0.00000000
   0.00000005  3.36000011  0.00000000
   5.78000015  3.36000003  0.00000000
   0.00000009  6.72000022  0.00000000
  -0.96899991  1.67900001 28.66199970
   0.96899995  1.67899998  1.33799996
  -3.85899993  3.35900011 28.66199970
  -1.92100007  3.35900008  1.33799996
  -6.74899970  5.03900005 28.66199970
  -4.81100010  5.03900017  1.33799996
   1.92100017  3.35900003 28.66199970
   3.85900003  3.35900000  1.33799996
  -0.96899986  5.03900012 28.66199970
   0.96900000  5.03900009  1.33799996
  -3.85899963  6.71900006 28.66199970
  -1.92100003  6.71900019  1.33799996
   4.81100024  5.03900004 28.66199970
   6.74899984  5.03899987  1.33799996
   1.92100021  6.71900014 28.66199970
   3.85899981  6.71899996  1.33799996
  -0.96899956  8.39900008 28.66199970
   0.96899979  8.39900005  1.33799996
 


--------------------------------------------------------------------------------------------------------


 k-point  1 :   0.0000 0.0000 0.0000  plane waves:   27959
 k-point  2 :   0.1250 0.0000 0.0000  plane waves:   27889
 k-point  3 :   0.2500 0.0000 0.0000  plane waves:   27875
 k-point  4 :   0.3750 0.0000 0.0000  plane waves:   27893
 k-point  5 :   0.5000 0.0000 0.0000  plane waves:   27932
 k-point  6 :   0.0000 0.1250 0.0000  plane waves:   27889
 k-point  7 :   0.1250 0.1250 0.0000  plane waves:   27906
 k-point  8 :   0.2500 0.1250 0.0000  plane waves:   27898
 k-point  9 :   0.3750 0.1250 0.0000  plane waves:   27888
 k-point 10 :   0.5000 0.1250 0.0000  plane waves:   27873
 k-point 11 :  -0.3750 0.1250 0.0000  plane waves:   27874
 k-point 12 :  -0.2500 0.1250 0.0000  plane waves:   27895
 k-point 13 :  -0.1250 0.1250 0.0000  plane waves:   27879
 k-point 14 :   0.0000 0.2500 0.0000  plane waves:   27875
 k-point 15 :   0.1250 0.2500 0.0000  plane waves:   27898
 k-point 16 :   0.2500 0.2500 0.0000  plane waves:   27920
 k-point 17 :   0.3750 0.2500 0.0000  plane waves:   27901
 k-point 18 :   0.5000 0.2500 0.0000  plane waves:   27875
 k-point 19 :  -0.3750 0.2500 0.0000  plane waves:   27894
 k-point 20 :  -0.2500 0.2500 0.0000  plane waves:   27870
 k-point 21 :  -0.1250 0.2500 0.0000  plane waves:   27895
 k-point 22 :  -0.0000 0.3750 0.0000  plane waves:   27893
 k-point 23 :   0.1250 0.3750 0.0000  plane waves:   27888
 k-point 24 :   0.2500 0.3750 0.0000  plane waves:   27901
 k-point 25 :   0.3750 0.3750 0.0000  plane waves:   27860
 k-point 26 :   0.5000 0.3750 0.0000  plane waves:   27895
 k-point 27 :  -0.3750 0.3750 0.0000  plane waves:   27858
 k-point 28 :  -0.2500 0.3750 0.0000  plane waves:   27894
 k-point 29 :  -0.1250 0.3750 0.0000  plane waves:   27874
 k-point 30 :   0.0000 0.5000 0.0000  plane waves:   27932
 k-point 31 :   0.1250 0.5000 0.0000  plane waves:   27873
 k-point 32 :   0.2500 0.5000 0.0000  plane waves:   27875
 k-point 33 :   0.3750 0.5000 0.0000  plane waves:   27895
 k-point 34 :   0.5000 0.5000 0.0000  plane waves:   27910

 maximum and minimum number of plane-waves per node :     27959    27858

 maximum number of plane-waves:     27959
 maximum index in each direction: 
   IXMAX=   14   IYMAX=   13   IZMAX=   40
   IXMIN=  -14   IYMIN=  -14   IZMIN=  -40

 WARNING: aliasing errors must be expected set NGX to  58 to avoid them
 WARNING: aliasing errors must be expected set NGY to  56 to avoid them
 WARNING: aliasing errors must be expected set NGZ to 162 to avoid them
 aliasing errors are usually negligible using standard VASP settings
 and one can safely disregard these warnings

 serial   3D FFT for wavefunctions

 total amount of memory used by VASP on root node   650782. kBytes
========================================================================

   base      :      30000. kBytes
   nonl-proj :     559647. kBytes
   fftplans  :       2414. kBytes
   grid      :      12150. kBytes
   one-center:        419. kBytes
   wavefun   :      46152. kBytes
 
     INWAV:  cpu time    0.0004: real time    0.0002
 Broyden mixing: mesh for mixing (old mesh)
   NGX = 27   NGY = 27   NGZ = 81
  (NGX  = 84   NGY  = 84   NGZ  =252)
  gives a total of  59049 points

 initial charge density was supplied:
 charge density of overlapping atoms calculated
 number of electron     159.0000000 magnetization 
 keeping initial charge density in first step


--------------------------------------------------------------------------------------------------------


 Maximum index for augmentation-charges          146 (set IRDMAX)


--------------------------------------------------------------------------------------------------------


 First call to EWALD:  gamma=   0.129
 Maximum number of real-space cells 4x 4x 2
 Maximum number of reciprocal cells 2x 2x 5

 FEWALD executed in parallel
    FEWALD:  cpu time    0.0016: real time    0.0016


----------------------------------------- Iteration    1(   1)  ---------------------------------------


    POTLOK:  cpu time    0.0369: real time    0.0371
    SETDIJ:  cpu time    0.0032: real time    0.0033
     EDDAV:  cpu time   21.6287: real time   21.6918
       DOS:  cpu time    0.0016: real time    0.0017
    --------------------------------------------
      LOOP:  cpu time   21.6742: real time   21.7409

 eigenvalue-minimisations  :  8160
 total energy-change (2. order) : 0.1126225E+04  (-0.3597729E+04)
 number of electron     159.0000000 magnetization 
 augmentation part      159.0000000 magnetization 

 Free energy of the ion-electron system (eV)
  ---------------------------------------------------
  alpha Z        PSCENC =        81.65567618
  Ewald energy   TEWEN  =     41890.23010355
  -Hartree energ DENC   =    -47722.85862462
  -exchange      EXHF   =         0.00000000
  -V(xc)+E(xc)   XCENC  =      -242.92963151
  PAW double counting   =      3467.42045192    -2871.19716117
  entropy T*S    EENTRO =        -0.53372197
  eigenvalues    EBANDS =      -237.00486121
  atomic energy  EATOM  =      6761.44252427
  Solvation  Ediel_sol  =         0.00000000
  ---------------------------------------------------
  free energy    TOTEN  =      1126.22475544 eV

  energy without entropy =     1126.75847742  energy(sigma->0) =     1126.49161643


--------------------------------------------------------------------------------------------------------




----------------------------------------- Iteration    1(   2)  ---------------------------------------


     EDDAV:  cpu time   27.5672: real time   27.6336
       DOS:  cpu time    0.0009: real time    0.0009
    --------------------------------------------
      LOOP:  cpu time   27.5691: real time   27.6436

 eigenvalue-minimisations  : 10960
 total energy-change (2. order) :-0.1126402E+04  (-0.1083837E+04)
 number of electron     159.0000000 magnetization 
 augmentation part      159.0000000 magnetization 

 Free energy of the ion-electron system (eV)
  ---------------------------------------------------
  alpha Z        PSCENC =        81.65567618
  Ewald energy   TEWEN  =     41890.23010355
  -Hartree energ DENC   =    -47722.85862462
  -exchange      EXHF   =         0.00000000
  -V(xc)+E(xc)   XCENC  =      -242.92963151
  PAW double counting   =      3467.42045192    -2871.19716117
  entropy T*S    EENTRO =        -0.17837696
  eigenvalues    EBANDS =     -1363.76185135
  atomic energy  EATOM  =      6761.44252427
  Solvation  Ediel_sol  =         0.00000000
  ---------------------------------------------------
  free energy    TOTEN  =        -0.17688969 eV

  energy without entropy =        0.00148727  energy(sigma->0) =       -0.08770121


--------------------------------------------------------------------------------------------------------




----------------------------------------- Iteration    1(   3)  ---------------------------------------


     EDDAV:  cpu time   27.4840: real time   27.5503
       DOS:  cpu time    0.0011: real time    0.0011
    --------------------------------------------
      LOOP:  cpu time   27.4860: real time   27.5594

 eigenvalue-minimisations  : 10920
 total energy-change (2. order) :-0.1993017E+03  (-0.1907629E+03)
 number of electron     159.0000000 magnetization 
 augmentation part      159.0000000 magnetization 

 Free energy of the ion-electron system (eV)
  ---------------------------------------------------
  alpha Z        PSCENC =        81.65567618
  Ewald energy   TEWEN  =     41890.23010355
  -Hartree energ DENC   =    -47722.85862462
  -exchange      EXHF   =         0.00000000
  -V(xc)+E(xc)   XCENC  =      -242.92963151
  PAW double counting   =      3467.42045192    -2871.19716117
  entropy T*S    EENTRO =        -0.26720993
  eigenvalues    EBANDS =     -1562.97476339
  atomic energy  EATOM  =      6761.44252427
  Solvation  Ediel_sol  =         0.00000000
  ---------------------------------------------------
  free energy    TOTEN  =      -199.47863470 eV

  energy without entropy =     -199.21142477  energy(sigma->0) =     -199.34502973


--------------------------------------------------------------------------------------------------------




----------------------------------------- Iteration    1(   4)  ---------------------------------------


     EDDAV:  cpu time   29.6801: real time   29.7511
       DOS:  cpu time    0.0010: real time    0.0010
    --------------------------------------------
      LOOP:  cpu time   29.6820: real time   29.7597

 eigenvalue-minimisations  : 12000
 total energy-change (2. order) :-0.9445360E+01  (-0.9130394E+01)
 number of electron     159.0000000 magnetization 
 augmentation part      159.0000000 magnetization 

 Free energy of the ion-electron system (eV)
  ---------------------------------------------------
  alpha Z        PSCENC =        81.65567618
  Ewald energy   TEWEN  =     41890.23010355
  -Hartree energ DENC   =    -47722.85862462
  -exchange      EXHF   =         0.00000000
  -V(xc)+E(xc)   XCENC  =      -242.92963151
  PAW double counting   =      3467.42045192    -2871.19716117
  entropy T*S    EENTRO =        -0.29835700
  eigenvalues    EBANDS =     -1572.38897671
  atomic energy  EATOM  =      6761.44252427
  Solvation  Ediel_sol  =         0.00000000
  ---------------------------------------------------
  free energy    TOTEN  =      -208.92399509 eV

  energy without entropy =     -208.62563809  energy(sigma->0) =     -208.77481659


--------------------------------------------------------------------------------------------------------




----------------------------------------- Iteration    1(   5)  ---------------------------------------


     EDDAV:  cpu time   28.9691: real time   29.0390
       DOS:  cpu time    0.0003: real time    0.0011
    CHARGE:  cpu time    0.4642: real time    0.4654
    MIXING:  cpu time    0.0018: real time    0.0021
    --------------------------------------------
      LOOP:  cpu time   29.4371: real time   29.5150

 eigenvalue-minimisations  : 11680
 total energy-change (2. order) :-0.3542034E+00  (-0.3531856E+00)
 number of electron     159.0000111 magnetization 
 augmentation part       -9.7953427 magnetization 

 Broyden mixing:
  rms(total) = 0.27469E+01    rms(broyden)= 0.27465E+01
  rms(prec ) = 0.29323E+01
  weight for this iteration     100.00

 Free energy of the ion-electron system (eV)
  ---------------------------------------------------
  alpha Z        PSCENC =        81.65567618
  Ewald energy   TEWEN  =     41890.23010355
  -Hartree energ DENC   =    -47722.85862462
  -exchange      EXHF   =         0.00000000
  -V(xc)+E(xc)   XCENC  =      -242.92963151
  PAW double counting   =      3467.42045192    -2871.19716117
  entropy T*S    EENTRO =        -0.29459290
  eigenvalues    EBANDS =     -1572.74694418
  atomic energy  EATOM  =      6761.44252427
  Solvation  Ediel_sol  =         0.00000000
  ---------------------------------------------------
  free energy    TOTEN  =      -209.27819845 eV

  energy without entropy =     -208.98360556  energy(sigma->0) =     -209.13090201


--------------------------------------------------------------------------------------------------------




----------------------------------------- Iteration    1(   6)  ---------------------------------------


    POTLOK:  cpu time    0.0335: real time    0.0335
    SETDIJ:  cpu time    0.0026: real time    0.0026
     EDDAV:  cpu time   30.8117: real time   30.8875
       DOS:  cpu time    0.0010: real time    0.0010
    CHARGE:  cpu time    0.4586: real time    0.4597
    MIXING:  cpu time    0.0017: real time    0.0017
    --------------------------------------------
      LOOP:  cpu time   31.3100: real time   31.3950

 eigenvalue-minimisations  : 12640
 total energy-change (2. order) :-0.2789781E+02  (-0.1078427E+02)
 number of electron     159.0000106 magnetization 
 augmentation part        7.0904562 magnetization 

 Broyden mixing:
  rms(total) = 0.59398E+01    rms(broyden)= 0.59391E+01
  rms(prec ) = 0.65215E+01
  weight for this iteration     100.00

 eigenvalues of (default mixing * dielectric matrix)
  average eigenvalue GAMMA=   0.2933
  0.2933

 Free energy of the ion-electron system (eV)
  ---------------------------------------------------
  alpha Z        PSCENC =        81.65567618
  Ewald energy   TEWEN  =     41890.23010355
  -Hartree energ DENC   =    -47701.20390672
  -exchange      EXHF   =         0.00000000
  -V(xc)+E(xc)   XCENC  =      -233.63003310
  PAW double counting   =      3676.45238290    -3082.54207484
  entropy T*S    EENTRO =        -0.27129370
  eigenvalues    EBANDS =     -1629.30939164
  atomic energy  EATOM  =      6761.44252427
  Solvation  Ediel_sol  =         0.00000000
  ---------------------------------------------------
  free energy    TOTEN  =      -237.17601309 eV

  energy without entropy =     -236.90471939  energy(sigma->0) =     -237.04036624


--------------------------------------------------------------------------------------------------------




----------------------------------------- Iteration    1(   7)  ---------------------------------------


    POTLOK:  cpu time    0.0303: real time    0.0306
    SETDIJ:  cpu time    0.0024: real time    0.0024
     EDDAV:  cpu time   32.2009: real time   32.2784
       DOS:  cpu time    0.0001: real time    0.0009
    CHARGE:  cpu time    0.4672: real time    0.4684
    MIXING:  cpu time    0.0011: real time    0.0011
    --------------------------------------------
      LOOP:  cpu time   32.7041: real time   32.7899

 eigenvalue-minimisations  : 13280
 total energy-change (2. order) : 0.4053270E+02  (-0.1777731E+02)
 number of electron     159.0000087 magnetization 
 augmentation part       -6.2241012 magnetization 

 Broyden mixing:
  rms(total) = 0.20371E+01    rms(broyden)= 0.20351E+01
  rms(prec ) = 0.22616E+01
  weight for this iteration     100.00

 eigenvalues of (default mixing * dielectric matrix)
  average eigenvalue GAMMA=   0.5398
  0.8684  0.2112

 Free energy of the ion-electron system (eV)
  ---------------------------------------------------
  alpha Z        PSCENC =        81.65567618
  Ewald energy   TEWEN  =     41890.23010355
  -Hartree energ DENC   =    -47738.74228927
  -exchange      EXHF   =         0.00000000
  -V(xc)+E(xc)   XCENC  =      -235.01330016
  PAW double counting   =      3764.26865738    -3178.31267448
  entropy T*S    EENTRO =        -0.33677640
  eigenvalues    EBANDS =     -1541.83523637
  atomic energy  EATOM  =      6761.44252427
  Solvation  Ediel_sol  =         0.00000000
  ---------------------------------------------------
  free energy    TOTEN  =      -196.64331531 eV

  energy without entropy =     -196.30653890  energy(sigma->0) =     -196.47492710


--------------------------------------------------------------------------------------------------------




----------------------------------------- Iteration    1(   8)  ---------------------------------------


    POTLOK:  cpu time    0.0314: real time    0.0317
    SETDIJ:  cpu time    0.0024: real time    0.0024
     EDDAV:  cpu time   28.8872: real time   28.9565
       DOS:  cpu time    0.0011: real time    0.0011
    CHARGE:  cpu time    0.4736: real time    0.4748
    MIXING:  cpu time    0.0011: real time    0.0011
    --------------------------------------------
      LOOP:  cpu time   29.3980: real time   29.4769

 eigenvalue-minimisations  : 11680
 total energy-change (2. order) : 0.6526727E+01  (-0.2051091E+01)
 number of electron     159.0000095 magnetization 
 augmentation part       -6.4026831 magnetization 

 Broyden mixing:
  rms(total) = 0.13758E+01    rms(broyden)= 0.13753E+01
  rms(prec ) = 0.14868E+01
  weight for this iteration     100.00

 eigenvalues of (default mixing * dielectric matrix)
  average eigenvalue GAMMA=   0.5258
  1.0473  0.2650  0.2650

 Free energy of the ion-electron system (eV)
  ---------------------------------------------------
  alpha Z        PSCENC =        81.65567618
  Ewald energy   TEWEN  =     41890.23010355
  -Hartree energ DENC   =    -47761.61495161
  -exchange      EXHF   =         0.00000000
  -V(xc)+E(xc)   XCENC  =      -235.05071362
  PAW double counting   =      3902.82190023    -3318.41712659
  entropy T*S    EENTRO =        -0.26826138
  eigenvalues    EBANDS =     -1510.91573932
  atomic energy  EATOM  =      6761.44252427
  Solvation  Ediel_sol  =         0.00000000
  ---------------------------------------------------
  free energy    TOTEN  =      -190.11658828 eV

  energy without entropy =     -189.84832690  energy(sigma->0) =     -189.98245759


--------------------------------------------------------------------------------------------------------




----------------------------------------- Iteration    1(   9)  ---------------------------------------


    POTLOK:  cpu time    0.0316: real time    0.0317
    SETDIJ:  cpu time    0.0023: real time    0.0023
     EDDAV:  cpu time   29.8541: real time   29.9256
       DOS:  cpu time    0.0010: real time    0.0010
    CHARGE:  cpu time    0.4833: real time    0.4845
    MIXING:  cpu time    0.0012: real time    0.0012
    --------------------------------------------
      LOOP:  cpu time   30.3746: real time   30.4546

 eigenvalue-minimisations  : 12120
 total energy-change (2. order) : 0.1803870E+01  (-0.3513104E+00)
 number of electron     159.0000094 magnetization 
 augmentation part       -5.7280096 magnetization 

 Broyden mixing:
  rms(total) = 0.93940E+00    rms(broyden)= 0.93897E+00
  rms(prec ) = 0.10109E+01
  weight for this iteration     100.00

 eigenvalues of (default mixing * dielectric matrix)
  average eigenvalue GAMMA=   0.6943
  1.7040  0.5732  0.2198  0.2801

 Free energy of the ion-electron system (eV)
  ---------------------------------------------------
  alpha Z        PSCENC =        81.65567618
  Ewald energy   TEWEN  =     41890.23010355
  -Hartree energ DENC   =    -47765.64863954
  -exchange      EXHF   =         0.00000000
  -V(xc)+E(xc)   XCENC  =      -234.37184916
  PAW double counting   =      3960.88204144    -3377.19212951
  entropy T*S    EENTRO =        -0.32723332
  eigenvalues    EBANDS =     -1504.98321212
  atomic energy  EATOM  =      6761.44252427
  Solvation  Ediel_sol  =         0.00000000
  ---------------------------------------------------
  free energy    TOTEN  =      -188.31271820 eV

  energy without entropy =     -187.98548488  energy(sigma->0) =     -188.14910154


--------------------------------------------------------------------------------------------------------




----------------------------------------- Iteration    1(  10)  ---------------------------------------


    POTLOK:  cpu time    0.0310: real time    0.0311
    SETDIJ:  cpu time    0.0025: real time    0.0025
     EDDAV:  cpu time   32.3811: real time   32.4589
       DOS:  cpu time    0.0011: real time    0.0011
    CHARGE:  cpu time    0.4941: real time    0.4953
    MIXING:  cpu time    0.0015: real time    0.0015
    --------------------------------------------
      LOOP:  cpu time   32.9134: real time   32.9990

 eigenvalue-minimisations  : 13360
 total energy-change (2. order) : 0.1178484E+01  (-0.1782729E+00)
 number of electron     159.0000092 magnetization 
 augmentation part       -4.4094137 magnetization 

 Broyden mixing:
  rms(total) = 0.34820E+00    rms(broyden)= 0.34787E+00
  rms(prec ) = 0.38107E+00
  weight for this iteration     100.00

 eigenvalues of (default mixing * dielectric matrix)
  average eigenvalue GAMMA=   0.6927
  1.8684  0.6124  0.5008  0.2243  0.2578

 Free energy of the ion-electron system (eV)
  ---------------------------------------------------
  alpha Z        PSCENC =        81.65567618
  Ewald energy   TEWEN  =     41890.23010355
  -Hartree energ DENC   =    -47777.85348599
  -exchange      EXHF   =         0.00000000
  -V(xc)+E(xc)   XCENC  =      -232.75508468
  PAW double counting   =      4088.70615509    -3506.65500818
  entropy T*S    EENTRO =        -0.34128506
  eigenvalues    EBANDS =     -1491.56382963
  atomic energy  EATOM  =      6761.44252427
  Solvation  Ediel_sol  =         0.00000000
  ---------------------------------------------------
  free energy    TOTEN  =      -187.13423445 eV

  energy without entropy =     -186.79294938  energy(sigma->0) =     -186.96359192


--------------------------------------------------------------------------------------------------------




----------------------------------------- Iteration    1(  11)  ---------------------------------------


    POTLOK:  cpu time    0.0328: real time    0.0329
    SETDIJ:  cpu time    0.0035: real time    0.0035
     EDDAV:  cpu time   30.9291: real time   31.0030
       DOS:  cpu time    0.0010: real time    0.0010
    CHARGE:  cpu time    0.4962: real time    0.4974
    MIXING:  cpu time    0.0012: real time    0.0012
    --------------------------------------------
      LOOP:  cpu time   31.4639: real time   31.5484

 eigenvalue-minimisations  : 12640
 total energy-change (2. order) : 0.1247916E+00  (-0.6772135E-01)
 number of electron     159.0000092 magnetization 
 augmentation part       -4.2813626 magnetization 

 Broyden mixing:
  rms(total) = 0.23437E+00    rms(broyden)= 0.23398E+00
  rms(prec ) = 0.25705E+00
  weight for this iteration     100.00

 eigenvalues of (default mixing * dielectric matrix)
  average eigenvalue GAMMA=   0.8680
  1.9177  1.9177  0.6149  0.2876  0.2219  0.2480

 Free energy of the ion-electron system (eV)
  ---------------------------------------------------
  alpha Z        PSCENC =        81.65567618
  Ewald energy   TEWEN  =     41890.23010355
  -Hartree energ DENC   =    -47783.80933612
  -exchange      EXHF   =         0.00000000
  -V(xc)+E(xc)   XCENC  =      -232.40165705
  PAW double counting   =      4126.08950462    -3544.34786239
  entropy T*S    EENTRO =        -0.34864626
  eigenvalues    EBANDS =     -1485.51974962
  atomic energy  EATOM  =      6761.44252427
  Solvation  Ediel_sol  =         0.00000000
  ---------------------------------------------------
  free energy    TOTEN  =      -187.00944281 eV

  energy without entropy =     -186.66079655  energy(sigma->0) =     -186.83511968


--------------------------------------------------------------------------------------------------------




----------------------------------------- Iteration    1(  12)  ---------------------------------------


    POTLOK:  cpu time    0.0321: real time    0.0324
    SETDIJ:  cpu time    0.0024: real time    0.0024
     EDDAV:  cpu time   31.3112: real time   31.3865
       DOS:  cpu time    0.0010: real time    0.0010
    CHARGE:  cpu time    0.4995: real time    0.5007
    MIXING:  cpu time    0.0013: real time    0.0013
    --------------------------------------------
      LOOP:  cpu time   31.8488: real time   31.9330

 eigenvalue-minimisations  : 12840
 total energy-change (2. order) :-0.5818808E-02  (-0.4447301E-01)
 number of electron     159.0000089 magnetization 
 augmentation part       -4.4705642 magnetization 

 Broyden mixing:
  rms(total) = 0.32711E+00    rms(broyden)= 0.32701E+00
  rms(prec ) = 0.36252E+00
  weight for this iteration     100.00

 eigenvalues of (default mixing * dielectric matrix)
  average eigenvalue GAMMA=   0.7968
  1.9937  1.9937  0.6170  0.2765  0.2765  0.2101  0.2101

 Free energy of the ion-electron system (eV)
  ---------------------------------------------------
  alpha Z        PSCENC =        81.65567618
  Ewald energy   TEWEN  =     41890.23010355
  -Hartree energ DENC   =    -47796.77589141
  -exchange      EXHF   =         0.00000000
  -V(xc)+E(xc)   XCENC  =      -232.07252584
  PAW double counting   =      4179.97500884    -3598.20337456
  entropy T*S    EENTRO =        -0.33402777
  eigenvalues    EBANDS =     -1472.93275487
  atomic energy  EATOM  =      6761.44252427
  Solvation  Ediel_sol  =         0.00000000
  ---------------------------------------------------
  free energy    TOTEN  =      -187.01526162 eV

  energy without entropy =     -186.68123385  energy(sigma->0) =     -186.84824773


--------------------------------------------------------------------------------------------------------




----------------------------------------- Iteration    1(  13)  ---------------------------------------


    POTLOK:  cpu time    0.0310: real time    0.0313
    SETDIJ:  cpu time    0.0025: real time    0.0025
     EDDAV:  cpu time   32.2432: real time   32.3207
       DOS:  cpu time    0.0010: real time    0.0010
    CHARGE:  cpu time    0.4984: real time    0.4996
    MIXING:  cpu time    0.0014: real time    0.0014
    --------------------------------------------
      LOOP:  cpu time   32.7788: real time   32.8657

 eigenvalue-minimisations  : 13280
 total energy-change (2. order) : 0.8540583E-01  (-0.2535921E-01)
 number of electron     159.0000089 magnetization 
 augmentation part       -4.4066373 magnetization 

 Broyden mixing:
  rms(total) = 0.19177E+00    rms(broyden)= 0.19162E+00
  rms(prec ) = 0.21254E+00
  weight for this iteration     100.00

 eigenvalues of (default mixing * dielectric matrix)
  average eigenvalue GAMMA=   0.7797
  2.2854  1.7042  0.7501  0.5899  0.2993  0.2246  0.2409  0.1431

 Free energy of the ion-electron system (eV)
  ---------------------------------------------------
  alpha Z        PSCENC =        81.65567618
  Ewald energy   TEWEN  =     41890.23010355
  -Hartree energ DENC   =    -47799.24708576
  -exchange      EXHF   =         0.00000000
  -V(xc)+E(xc)   XCENC  =      -231.98829795
  PAW double counting   =      4187.67385489    -3605.89195199
  entropy T*S    EENTRO =        -0.33642858
  eigenvalues    EBANDS =     -1470.46825039
  atomic energy  EATOM  =      6761.44252427
  Solvation  Ediel_sol  =         0.00000000
  ---------------------------------------------------
  free energy    TOTEN  =      -186.92985579 eV

  energy without entropy =     -186.59342720  energy(sigma->0) =     -186.76164149


--------------------------------------------------------------------------------------------------------




----------------------------------------- Iteration    1(  14)  ---------------------------------------


    POTLOK:  cpu time    0.0304: real time    0.0305
    SETDIJ:  cpu time    0.0023: real time    0.0024
     EDDAV:  cpu time   31.5072: real time   31.5826
       DOS:  cpu time    0.0010: real time    0.0010
    CHARGE:  cpu time    0.4971: real time    0.4983
    MIXING:  cpu time    0.0015: real time    0.0015
    --------------------------------------------
      LOOP:  cpu time   32.0405: real time   32.1251

 eigenvalue-minimisations  : 12920
 total energy-change (2. order) : 0.2969428E-01  (-0.1057065E-01)
 number of electron     159.0000089 magnetization 
 augmentation part       -4.1697132 magnetization 

 Broyden mixing:
  rms(total) = 0.89618E-01    rms(broyden)= 0.89474E-01
  rms(prec ) = 0.10116E+00
  weight for this iteration     100.00

 eigenvalues of (default mixing * dielectric matrix)
  average eigenvalue GAMMA=   0.7435
  2.2879  1.6421  0.9900  0.5986  0.3005  0.2764  0.2293  0.2293  0.1373

 Free energy of the ion-electron system (eV)
  ---------------------------------------------------
  alpha Z        PSCENC =        81.65567618
  Ewald energy   TEWEN  =     41890.23010355
  -Hartree energ DENC   =    -47802.60332369
  -exchange      EXHF   =         0.00000000
  -V(xc)+E(xc)   XCENC  =      -231.87264180
  PAW double counting   =      4192.46880582    -3610.66068382
  entropy T*S    EENTRO =        -0.34102570
  eigenvalues    EBANDS =     -1467.21959632
  atomic energy  EATOM  =      6761.44252427
  Solvation  Ediel_sol  =         0.00000000
  ---------------------------------------------------
  free energy    TOTEN  =      -186.90016150 eV

  energy without entropy =     -186.55913580  energy(sigma->0) =     -186.72964865


--------------------------------------------------------------------------------------------------------




----------------------------------------- Iteration    1(  15)  ---------------------------------------


    POTLOK:  cpu time    0.0306: real time    0.0306
    SETDIJ:  cpu time    0.0025: real time    0.0025
     EDDAV:  cpu time   30.2350: real time   30.3078
       DOS:  cpu time    0.0011: real time    0.0011
    CHARGE:  cpu time    0.4958: real time    0.4970
    MIXING:  cpu time    0.0016: real time    0.0016
    --------------------------------------------
      LOOP:  cpu time   30.7676: real time   30.8496

 eigenvalue-minimisations  : 12320
 total energy-change (2. order) : 0.6354104E-02  (-0.3706427E-02)
 number of electron     159.0000090 magnetization 
 augmentation part       -4.1168451 magnetization 

 Broyden mixing:
  rms(total) = 0.86633E-01    rms(broyden)= 0.86563E-01
  rms(prec ) = 0.96069E-01
  weight for this iteration     100.00

 eigenvalues of (default mixing * dielectric matrix)
  average eigenvalue GAMMA=   0.7016
  2.2883  1.6389  1.0933  0.5963  0.3514  0.3032  0.2279  0.2337  0.1499  0.1333

 Free energy of the ion-electron system (eV)
  ---------------------------------------------------
  alpha Z        PSCENC =        81.65567618
  Ewald energy   TEWEN  =     41890.23010355
  -Hartree energ DENC   =    -47804.92172900
  -exchange      EXHF   =         0.00000000
  -V(xc)+E(xc)   XCENC  =      -231.83640216
  PAW double counting   =      4192.80112171    -3610.96333340
  entropy T*S    EENTRO =        -0.34326452
  eigenvalues    EBANDS =     -1464.95850403
  atomic energy  EATOM  =      6761.44252427
  Solvation  Ediel_sol  =         0.00000000
  ---------------------------------------------------
  free energy    TOTEN  =      -186.89380740 eV

  energy without entropy =     -186.55054288  energy(sigma->0) =     -186.72217514


--------------------------------------------------------------------------------------------------------




----------------------------------------- Iteration    1(  16)  ---------------------------------------


    POTLOK:  cpu time    0.0299: real time    0.0300
    SETDIJ:  cpu time    0.0024: real time    0.0024
     EDDAV:  cpu time   31.9104: real time   31.9869
       DOS:  cpu time    0.0010: real time    0.0010
    CHARGE:  cpu time    0.4961: real time    0.4972
    MIXING:  cpu time    0.0015: real time    0.0016
    --------------------------------------------
      LOOP:  cpu time   32.4422: real time   32.5278

 eigenvalue-minimisations  : 13120
 total energy-change (2. order) : 0.4013589E-02  (-0.1386978E-02)
 number of electron     159.0000090 magnetization 
 augmentation part       -4.1303430 magnetization 

 Broyden mixing:
  rms(total) = 0.50323E-01    rms(broyden)= 0.50293E-01
  rms(prec ) = 0.56740E-01
  weight for this iteration     100.00

 eigenvalues of (default mixing * dielectric matrix)
  average eigenvalue GAMMA=   0.7656
  2.3703  1.9250  1.5097  0.6987  0.6200  0.3085  0.2678  0.2245  0.2401  0.1390
  0.1185

 Free energy of the ion-electron system (eV)
  ---------------------------------------------------
  alpha Z        PSCENC =        81.65567618
  Ewald energy   TEWEN  =     41890.23010355
  -Hartree energ DENC   =    -47806.23304256
  -exchange      EXHF   =         0.00000000
  -V(xc)+E(xc)   XCENC  =      -231.81934189
  PAW double counting   =      4193.10870513    -3611.25673933
  entropy T*S    EENTRO =        -0.34325938
  eigenvalues    EBANDS =     -1463.67441978
  atomic energy  EATOM  =      6761.44252427
  Solvation  Ediel_sol  =         0.00000000
  ---------------------------------------------------
  free energy    TOTEN  =      -186.88979381 eV

  energy without entropy =     -186.54653443  energy(sigma->0) =     -186.71816412


--------------------------------------------------------------------------------------------------------




----------------------------------------- Iteration    1(  17)  ---------------------------------------


    POTLOK:  cpu time    0.0299: real time    0.0303
    SETDIJ:  cpu time    0.0024: real time    0.0024
     EDDAV:  cpu time   31.2021: real time   31.2775
       DOS:  cpu time    0.0010: real time    0.0010
    CHARGE:  cpu time    0.4971: real time    0.4983
    MIXING:  cpu time    0.0017: real time    0.0017
    --------------------------------------------
      LOOP:  cpu time   31.7355: real time   31.8199

 eigenvalue-minimisations  : 12840
 total energy-change (2. order) : 0.2726067E-02  (-0.7363963E-03)
 number of electron     159.0000090 magnetization 
 augmentation part       -4.1930054 magnetization 

 Broyden mixing:
  rms(total) = 0.17620E-01    rms(broyden)= 0.17557E-01
  rms(prec ) = 0.21577E-01
  weight for this iteration     100.00

 eigenvalues of (default mixing * dielectric matrix)
  average eigenvalue GAMMA=   0.7793
  2.3452  2.3452  1.4389  0.8584  0.6035  0.4714  0.3089  0.2239  0.2558  0.2439
  0.1389  0.1178

 Free energy of the ion-electron system (eV)
  ---------------------------------------------------
  alpha Z        PSCENC =        81.65567618
  Ewald energy   TEWEN  =     41890.23010355
  -Hartree energ DENC   =    -47811.79360764
  -exchange      EXHF   =         0.00000000
  -V(xc)+E(xc)   XCENC  =      -231.74711555
  PAW double counting   =      4194.69096973    -3612.78004065
  entropy T*S    EENTRO =        -0.34133573
  eigenvalues    EBANDS =     -1458.24424189
  atomic energy  EATOM  =      6761.44252427
  Solvation  Ediel_sol  =         0.00000000
  ---------------------------------------------------
  free energy    TOTEN  =      -186.88706774 eV

  energy without entropy =     -186.54573201  energy(sigma->0) =     -186.71639988


--------------------------------------------------------------------------------------------------------




----------------------------------------- Iteration    1(  18)  ---------------------------------------


    POTLOK:  cpu time    0.0312: real time    0.0313
    SETDIJ:  cpu time    0.0025: real time    0.0025
     EDDAV:  cpu time   29.3135: real time   29.3841
       DOS:  cpu time    0.0011: real time    0.0011
    CHARGE:  cpu time    0.4955: real time    0.4967
    MIXING:  cpu time    0.0018: real time    0.0018
    --------------------------------------------
      LOOP:  cpu time   29.8466: real time   29.9261

 eigenvalue-minimisations  : 11880
 total energy-change (2. order) : 0.5421255E-03  (-0.2036084E-03)
 number of electron     159.0000090 magnetization 
 augmentation part       -4.2081397 magnetization 

 Broyden mixing:
  rms(total) = 0.17791E-01    rms(broyden)= 0.17781E-01
  rms(prec ) = 0.20645E-01
  weight for this iteration     100.00

 eigenvalues of (default mixing * dielectric matrix)
  average eigenvalue GAMMA=   0.7859
  2.3662  2.3662  1.2614  1.2614  0.6749  0.6177  0.3821  0.3066  0.2242  0.2575
  0.2422  0.1389  0.1177

 Free energy of the ion-electron system (eV)
  ---------------------------------------------------
  alpha Z        PSCENC =        81.65567618
  Ewald energy   TEWEN  =     41890.23010355
  -Hartree energ DENC   =    -47815.27972709
  -exchange      EXHF   =         0.00000000
  -V(xc)+E(xc)   XCENC  =      -231.71300189
  PAW double counting   =      4194.95918526    -3613.01465233
  entropy T*S    EENTRO =        -0.34105418
  eigenvalues    EBANDS =     -1454.82557939
  atomic energy  EATOM  =      6761.44252427
  Solvation  Ediel_sol  =         0.00000000
  ---------------------------------------------------
  free energy    TOTEN  =      -186.88652562 eV

  energy without entropy =     -186.54547144  energy(sigma->0) =     -186.71599853


--------------------------------------------------------------------------------------------------------




----------------------------------------- Iteration    1(  19)  ---------------------------------------


    POTLOK:  cpu time    0.0314: real time    0.0314
    SETDIJ:  cpu time    0.0024: real time    0.0024
     EDDAV:  cpu time   27.8867: real time   27.9534
       DOS:  cpu time    0.0010: real time    0.0010
    CHARGE:  cpu time    0.4959: real time    0.4971
    MIXING:  cpu time    0.0018: real time    0.0018
    --------------------------------------------
      LOOP:  cpu time   28.4200: real time   28.4955

 eigenvalue-minimisations  : 11200
 total energy-change (2. order) : 0.2430647E-03  (-0.7962261E-04)
 number of electron     159.0000090 magnetization 
 augmentation part       -4.1831680 magnetization 

 Broyden mixing:
  rms(total) = 0.45541E-02    rms(broyden)= 0.45372E-02
  rms(prec ) = 0.75272E-02
  weight for this iteration     100.00

 eigenvalues of (default mixing * dielectric matrix)
  average eigenvalue GAMMA=   0.8840
  2.6899  2.6899  1.5980  1.4828  0.9970  0.6281  0.6281  0.3736  0.3073  0.2242
  0.2577  0.2422  0.1389  0.1177

 Free energy of the ion-electron system (eV)
  ---------------------------------------------------
  alpha Z        PSCENC =        81.65567618
  Ewald energy   TEWEN  =     41890.23010355
  -Hartree energ DENC   =    -47817.69361926
  -exchange      EXHF   =         0.00000000
  -V(xc)+E(xc)   XCENC  =      -231.69276397
  PAW double counting   =      4194.41163041    -3612.45390898
  entropy T*S    EENTRO =        -0.34157915
  eigenvalues    EBANDS =     -1452.44434562
  atomic energy  EATOM  =      6761.44252427
  Solvation  Ediel_sol  =         0.00000000
  ---------------------------------------------------
  free energy    TOTEN  =      -186.88628255 eV

  energy without entropy =     -186.54470341  energy(sigma->0) =     -186.71549298


--------------------------------------------------------------------------------------------------------




----------------------------------------- Iteration    1(  20)  ---------------------------------------


    POTLOK:  cpu time    0.0315: real time    0.0318
    SETDIJ:  cpu time    0.0024: real time    0.0024
     EDDAV:  cpu time   23.4826: real time   23.5392
       DOS:  cpu time    0.0012: real time    0.0012
    CHARGE:  cpu time    0.4984: real time    0.4996
    MIXING:  cpu time    0.0020: real time    0.0020
    --------------------------------------------
      LOOP:  cpu time   24.0193: real time   24.0850

 eigenvalue-minimisations  :  9080
 total energy-change (2. order) :-0.8983198E-03  (-0.8513805E-04)
 number of electron     159.0000090 magnetization 
 augmentation part       -4.1872930 magnetization 

 Broyden mixing:
  rms(total) = 0.42155E-02    rms(broyden)= 0.42145E-02
  rms(prec ) = 0.56509E-02
  weight for this iteration     100.00

 eigenvalues of (default mixing * dielectric matrix)
  average eigenvalue GAMMA=   0.9205
  3.1230  2.5662  1.8792  1.5114  0.8994  0.8994  0.6333  0.6333  0.3737  0.3073
  0.2242  0.2577  0.2422  0.1389  0.1177

 Free energy of the ion-electron system (eV)
  ---------------------------------------------------
  alpha Z        PSCENC =        81.65567618
  Ewald energy   TEWEN  =     41890.23010355
  -Hartree energ DENC   =    -47824.33956726
  -exchange      EXHF   =         0.00000000
  -V(xc)+E(xc)   XCENC  =      -231.63626745
  PAW double counting   =      4193.08620799    -3611.10690552
  entropy T*S    EENTRO =        -0.34126132
  eigenvalues    EBANDS =     -1445.87769131
  atomic energy  EATOM  =      6761.44252427
  Solvation  Ediel_sol  =         0.00000000
  ---------------------------------------------------
  free energy    TOTEN  =      -186.88718087 eV

  energy without entropy =     -186.54591955  energy(sigma->0) =     -186.71655021


--------------------------------------------------------------------------------------------------------




----------------------------------------- Iteration    1(  21)  ---------------------------------------


    POTLOK:  cpu time    0.0309: real time    0.0309
    SETDIJ:  cpu time    0.0023: real time    0.0023
     EDDAV:  cpu time   21.7058: real time   21.7580
       DOS:  cpu time    0.0011: real time    0.0011
    CHARGE:  cpu time    0.4959: real time    0.4971
    MIXING:  cpu time    0.0019: real time    0.0019
    --------------------------------------------
      LOOP:  cpu time   22.2388: real time   22.2994

 eigenvalue-minimisations  :  8200
 total energy-change (2. order) :-0.8673711E-03  (-0.2207144E-04)
 number of electron     159.0000090 magnetization 
 augmentation part       -4.1803775 magnetization 

 Broyden mixing:
  rms(total) = 0.35895E-02    rms(broyden)= 0.35854E-02
  rms(prec ) = 0.45930E-02
  weight for this iteration     100.00

 eigenvalues of (default mixing * dielectric matrix)
  average eigenvalue GAMMA=   0.9533
  3.6108  2.4177  2.1717  1.5965  1.0531  1.0531  0.6359  0.6359  0.4162  0.3739
  0.3073  0.2242  0.2422  0.2577  0.1389  0.1177

 Free energy of the ion-electron system (eV)
  ---------------------------------------------------
  alpha Z        PSCENC =        81.65567618
  Ewald energy   TEWEN  =     41890.23010355
  -Hartree energ DENC   =    -47827.10645095
  -exchange      EXHF   =         0.00000000
  -V(xc)+E(xc)   XCENC  =      -231.61758158
  PAW double counting   =      4192.73104764    -3610.75164587
  entropy T*S    EENTRO =        -0.34139439
  eigenvalues    EBANDS =     -1443.13032709
  atomic energy  EATOM  =      6761.44252427
  Solvation  Ediel_sol  =         0.00000000
  ---------------------------------------------------
  free energy    TOTEN  =      -186.88804824 eV

  energy without entropy =     -186.54665385  energy(sigma->0) =     -186.71735105


--------------------------------------------------------------------------------------------------------




----------------------------------------- Iteration    1(  22)  ---------------------------------------


    POTLOK:  cpu time    0.0307: real time    0.0308
    SETDIJ:  cpu time    0.0023: real time    0.0024
     EDDAV:  cpu time   18.7016: real time   18.7463
       DOS:  cpu time    0.0011: real time    0.0011
    CHARGE:  cpu time    0.4992: real time    0.5004
    MIXING:  cpu time    0.0020: real time    0.0020
    --------------------------------------------
      LOOP:  cpu time   19.2380: real time   19.2920

 eigenvalue-minimisations  :  6720
 total energy-change (2. order) :-0.8074621E-03  (-0.1014474E-04)
 number of electron     159.0000090 magnetization 
 augmentation part       -4.1795092 magnetization 

 Broyden mixing:
  rms(total) = 0.33774E-02    rms(broyden)= 0.33760E-02
  rms(prec ) = 0.39882E-02
  weight for this iteration     100.00

 eigenvalues of (default mixing * dielectric matrix)
  average eigenvalue GAMMA=   1.0845
  4.8950  2.5294  2.5294  1.7182  1.4888  0.9900  0.9900  0.6268  0.6268  0.2242
  0.2422  0.2577  0.3073  0.3722  0.3823  0.1389  0.1177

 Free energy of the ion-electron system (eV)
  ---------------------------------------------------
  alpha Z        PSCENC =        81.65567618
  Ewald energy   TEWEN  =     41890.23010355
  -Hartree energ DENC   =    -47829.21606750
[...]
    104      -0.6191      0.00000
    105      -0.4450      0.00000
    106      -0.2949      0.00000
    107      -0.1633      0.00000
    108      -0.0132      0.00000
    109       0.0489      0.00000
    110       0.1238      0.00000
    111       0.4531      0.00000
    112       0.7160      0.00000
    113       0.8097      0.00000
    114       0.9068      0.00000
    115       1.0646      0.00000
    116       1.2124      0.00000
    117       1.2822      0.00000
    118       2.1324      0.00000
    119       2.3178      0.00000
    120       2.3807      0.00000

 k-point    34 :       0.5000    0.5000    0.0000
  band No.  band energies     occupation 
      1     -17.5049      2.00000
      2     -17.3591      2.00000
      3     -16.7589      2.00000
      4     -16.6788      2.00000
      5     -16.6721      2.00000
      6     -16.4358      2.00000
      7     -16.3301      2.00000
      8     -16.2393      2.00000
      9     -16.0444      2.00000
     10     -15.9950      2.00000
     11     -15.9366      2.00000
     12     -15.8455      2.00000
     13     -15.7222      2.00000
     14     -15.7083      2.00000
     15     -15.6545      2.00000
     16     -15.5562      2.00000
     17     -15.2894      2.00000
     18     -15.2546      2.00000
     19      -9.8371      2.00000
     20      -9.4164      2.00000
     21      -9.1696      2.00000
     22      -9.1064      2.00000
     23      -8.9541      2.00000
     24      -8.8277      2.00000
     25      -8.5374      2.00000
     26      -8.4611      2.00000
     27      -8.4187      2.00000
     28      -8.3029      2.00000
     29      -8.2777      2.00000
     30      -8.1957      2.00000
     31      -8.1468      2.00000
     32      -8.1067      2.00000
     33      -7.9655      2.00000
     34      -7.8813      2.00000
     35      -7.7769      2.00000
     36      -7.7362      2.00000
     37      -7.5233      2.00000
     38      -7.3526      2.00000
     39      -7.3104      2.00000
     40      -7.2371      2.00000
     41      -7.1265      2.00000
     42      -7.0824      2.00000
     43      -7.0550      2.00000
     44      -7.0429      2.00000
     45      -6.8169      2.00000
     46      -6.7465      2.00000
     47      -6.6172      2.00000
     48      -6.5829      2.00000
     49      -6.5607      2.00000
     50      -6.5302      2.00000
     51      -6.4531      2.00000
     52      -6.3387      2.00000
     53      -6.2595      2.00000
     54      -6.2211      2.00000
     55      -6.1680      2.00000
     56      -6.0746      2.00000
     57      -6.0442      2.00000
     58      -5.8810      2.00000
     59      -5.8395      2.00000
     60      -5.7937      2.00000
     61      -5.7036      2.00000
     62      -5.6125      2.00000
     63      -5.5327      2.00000
     64      -5.4020      2.00000
     65      -5.2781      2.00000
     66      -5.1906      2.00000
     67      -4.9556      2.00000
     68      -4.8684      2.00000
     69      -4.7926      2.00000
     70      -4.6593      2.00000
     71      -4.5140      2.00000
     72      -4.4457      2.00000
     73      -4.3566      2.00000
     74      -4.2299      2.00000
     75      -4.1564      2.00000
     76      -4.0491      2.00000
     77      -4.0241      2.00000
     78      -3.7287      1.99967
     79      -3.5523      1.98105
     80      -3.0945      0.37307
     81      -2.9872      0.09908
     82      -2.7688      0.00140
     83      -2.6633      0.00008
     84      -2.5472      0.00000
     85      -2.4514      0.00000
     86      -2.3640      0.00000
     87      -2.0540      0.00000
     88      -2.0207      0.00000
     89      -1.9806      0.00000
     90      -1.8246      0.00000
     91      -1.7005      0.00000
     92      -1.6205      0.00000
     93      -1.5101      0.00000
     94      -1.4351      0.00000
     95      -1.3300      0.00000
     96      -1.2128      0.00000
     97      -1.0684      0.00000
     98      -1.0608      0.00000
     99      -0.9733      0.00000
    100      -0.9085      0.00000
    101      -0.8555      0.00000
    102      -0.6833      0.00000
    103      -0.6456      0.00000
    104      -0.6237      0.00000
    105      -0.4083      0.00000
    106      -0.2800      0.00000
    107      -0.1650      0.00000
    108       0.0153      0.00000
    109       0.0281      0.00000
    110       0.0982      0.00000
    111       0.4355      0.00000
    112       0.7623      0.00000
    113       0.8315      0.00000
    114       0.9139      0.00000
    115       1.0639      0.00000
    116       1.1973      0.00000
    117       1.2663      0.00000
    118       2.1908      0.00000
    119       2.2565      0.00000
    120       2.4093      0.00000


--------------------------------------------------------------------------------------------------------


 soft charge-density along one line, spin component           1
         0         1         2         3         4         5         6         7         8         9
 total charge-density along one line
 
 pseudopotential strength for first ion, spin component:           1
 -7.254  -0.004   0.004  -0.001   0.000   0.684   0.000  -0.001
 -0.004  -7.179  -0.001  -0.003   0.001   0.000   0.661   0.000
  0.004  -0.001  -7.120   0.004  -0.021  -0.001   0.000   0.645
 -0.001  -0.003   0.004  -7.148   0.012   0.000   0.001  -0.001
  0.000   0.001  -0.021   0.012  -7.255  -0.000  -0.000   0.006
  0.684   0.000  -0.001   0.000  -0.000   0.330   0.000   0.000
  0.000   0.661   0.000   0.001  -0.000   0.000   0.337  -0.000
 -0.001   0.000   0.645  -0.001   0.006   0.000  -0.000   0.341
  0.000   0.001  -0.001   0.652  -0.003  -0.000  -0.000   0.000
 -0.000  -0.000   0.006  -0.003   0.684  -0.000   0.000  -0.002
  0.001   0.000  -0.021  -0.001  -0.006  -0.000  -0.000   0.005
  0.000   0.000  -0.007  -0.001  -0.002  -0.000  -0.000   0.002
 -0.006   0.001  -0.000  -0.000  -0.000  -0.001  -0.001  -0.000
 -0.000   0.000   0.005  -0.011   0.004   0.000   0.000  -0.001
  0.000  -0.000   0.001   0.009  -0.006   0.000   0.000   0.001
 -0.003  -0.002  -0.001  -0.000  -0.001   0.000   0.000   0.000
 -0.000   0.000   0.002  -0.008   0.004   0.000  -0.000  -0.001
  0.001  -0.000  -0.001   0.006  -0.004  -0.000   0.000   0.000
 total augmentation occupancy for first ion, spin component:           1
  0.821   0.147   0.010  -0.006  -0.001   0.442   0.193   0.001   0.002   0.002  -0.002  -0.000   0.010  -0.007  -0.000   0.002
  0.147   1.085  -0.002   0.001  -0.009   0.191   0.656  -0.002  -0.003  -0.007   0.008   0.000  -0.071  -0.009  -0.007  -0.003
  0.010  -0.002   0.832  -0.044  -0.037   0.001  -0.002   0.336  -0.045   0.003   0.169   0.004   0.001   0.007  -0.085   0.000
 -0.006   0.001  -0.044   1.074  -0.151   0.002  -0.003  -0.044   0.635  -0.229  -0.030  -0.005  -0.004  -0.100   0.112  -0.000
 -0.001  -0.009  -0.037  -0.151   0.803   0.002  -0.007   0.001  -0.232   0.418   0.036  -0.003   0.010   0.093   0.011   0.001
  0.442   0.191   0.001   0.002   0.002   0.354   0.197  -0.001   0.001  -0.001  -0.001  -0.000  -0.037  -0.002   0.000  -0.000
  0.193   0.656  -0.002  -0.003  -0.007   0.197   0.574  -0.001  -0.002  -0.005   0.007   0.001  -0.069  -0.002  -0.002  -0.006
  0.001  -0.002   0.336  -0.044   0.001  -0.001  -0.001   0.267  -0.030   0.009   0.046   0.010  -0.000   0.008  -0.018   0.000
  0.002  -0.003  -0.045   0.635  -0.232   0.001  -0.002  -0.030   0.579  -0.228  -0.062  -0.008  -0.003  -0.107   0.102  -0.000
  0.002  -0.007   0.003  -0.229   0.418  -0.001  -0.005   0.009  -0.228   0.374  -0.022  -0.002   0.003   0.091  -0.035   0.000
 -0.002   0.008   0.169  -0.030   0.036  -0.001   0.007   0.046  -0.062  -0.022   1.398   0.135  -0.013   0.023  -0.063  -0.000
 -0.000   0.000   0.004  -0.005  -0.003  -0.000   0.001   0.010  -0.008  -0.002   0.135   0.026   0.000   0.002  -0.011  -0.000
  0.010  -0.071   0.001  -0.004   0.010  -0.037  -0.069  -0.000  -0.003   0.003  -0.013   0.000   0.345   0.002  -0.000   0.027
 -0.007  -0.009   0.007  -0.100   0.093  -0.002  -0.002   0.008  -0.107   0.091   0.023   0.002   0.002   0.421  -0.016   0.000
 -0.000  -0.007  -0.085   0.112   0.011   0.000  -0.002  -0.018   0.102  -0.035  -0.063  -0.011  -0.000  -0.016   0.355  -0.000
  0.002  -0.003   0.000  -0.000   0.001  -0.000  -0.006   0.000  -0.000   0.000  -0.000  -0.000   0.027   0.000  -0.000   0.003
 -0.000  -0.001  -0.001   0.001   0.004  -0.000  -0.000   0.000  -0.006   0.006   0.000   0.000   0.000   0.028  -0.000   0.000
 -0.001  -0.000  -0.002   0.003   0.003  -0.000  -0.000  -0.004   0.008   0.000  -0.003  -0.001  -0.000  -0.000   0.025  -0.000


------------------------ aborting loop because EDIFF is reached ----------------------------------------


    CHARGE:  cpu time    0.4539: real time    0.4550
    FORLOC:  cpu time    0.0063: real time    0.0063
    FORNL :  cpu time    5.2489: real time    5.2614
    STRESS:  cpu time   32.1580: real time   32.2348
    FORCOR:  cpu time    0.0336: real time    0.0337
    FORHAR:  cpu time    0.0123: real time    0.0123
    MIXING:  cpu time    0.0010: real time    0.0010
    OFIELD:  cpu time    0.0000: real time    0.0000

  FORCE on cell =-STRESS in cart. coord.  units (eV):
  Direction    XX          YY          ZZ          XY          YZ          ZX
  --------------------------------------------------------------------------------------
  Alpha Z    89.20495    89.20495    89.20495
  Ewald   49154.66903 49242.28459-54132.22282    -1.29476    -1.84632   -21.42264
  Hartree 49886.59401 49941.75625-49555.88502    -0.84728    -0.27694   -13.45085
  E(xc)    -611.42410  -609.03950  -617.69698    -0.01821     0.08602     0.93959
  Local  ************************101126.04299     1.69964     2.03142    44.76790
  n-local  1216.71318  1213.28418  1248.60657     0.13933    -0.48748     3.00637
  augment  -212.20640  -213.31312  -214.60780    -0.39816    -0.36384    -0.78421
  Kinetic  2020.20074  2001.75785  2054.78081     0.72003     0.84226   -12.94925
  Fock        0.00000     0.00000     0.00000     0.00000     0.00000     0.00000
  -------------------------------------------------------------------------------------
  Total       0.30316     0.26172    -1.77729     0.00060    -0.01488     0.10692
  in kB       0.20239     0.17472    -1.18651     0.00040    -0.00994     0.07138
  external pressure =       -0.27 kB  Pullay stress =        0.00 kB


 VOLUME and BASIS-vectors are now :
 -----------------------------------------------------------------------------
  energy-cutoff  :      280.00
  volume of cell :     2399.93
      direct lattice vectors                 reciprocal lattice vectors
     8.339656894  4.802381967  0.000000000     0.059915647  0.104182480  0.000000000
    -8.334350143  4.793108932  0.000000000    -0.060031563  0.104248817  0.000000000
     0.000000000  0.000000000 30.000000000     0.000000000  0.000000000  0.033333333

  length of vectors
     9.623551822  9.614327097 30.000000000     0.120182669  0.120297981  0.033333333


 FORCES acting on ions
    electron-ion (+dipol)            ewald-force                    non-local-force                 convergence-correction
 -----------------------------------------------------------------------------------------------
   -.219E+02 -.152E+00 0.241E+02   0.233E+02 -.126E+00 -.239E+02   -.139E+01 0.284E+00 -.123E+00   -.397E-01 -.611E-02 -.658E-01
   0.224E+02 0.322E+00 -.248E+02   -.239E+02 -.269E+00 0.246E+02   0.146E+01 -.336E-02 0.163E+00   0.645E-01 -.470E-01 0.775E-01
   -.265E+02 -.199E+01 0.125E+02   0.281E+02 0.240E+01 -.123E+02   -.157E+01 -.375E+00 -.166E+00   -.567E-01 -.316E-01 -.294E-01
   -.471E+01 -.196E+02 0.148E+01   0.477E+01 0.197E+02 -.146E+01   0.429E-01 0.159E-01 -.347E-01   -.106E+00 -.719E-01 0.127E-01
   -.567E+00 0.231E+02 0.784E+00   0.625E+00 -.230E+02 -.837E+00   -.586E-02 -.130E+00 0.484E-01   -.639E-01 0.591E-01 0.723E-02
   -.740E+01 -.434E+01 0.209E+01   0.724E+01 0.420E+01 -.215E+01   0.234E+00 0.987E-01 0.563E-01   -.697E-01 0.422E-01 0.624E-02
   0.359E+02 0.549E+01 -.138E+02   -.369E+02 -.584E+01 0.135E+02   0.992E+00 0.299E+00 0.255E+00   0.678E-01 0.359E-01 0.180E-01
   -.346E+02 0.341E+01 0.123E+02   0.357E+02 -.356E+01 -.122E+02   -.111E+01 0.112E+00 -.156E+00   -.106E-01 0.478E-01 -.895E-02
   0.365E+02 -.626E+01 -.166E+02   -.374E+02 0.656E+01 0.164E+02   0.833E+00 -.295E+00 0.191E+00   0.105E+00 0.674E-02 0.143E-01
   0.981E+01 0.541E+01 0.483E+03   -.996E+01 -.554E+01 -.488E+03   0.809E-01 0.969E-01 0.479E+01   0.669E-01 0.189E-01 -.640E-01
   0.226E+02 0.103E+02 -.604E+03   -.234E+02 -.107E+02 0.607E+03   0.769E+00 0.390E+00 -.377E+01   0.410E-02 0.167E-01 0.124E-01
   -.217E+02 -.643E+01 0.592E+03   0.228E+02 0.664E+01 -.595E+03   -.934E+00 -.144E+00 0.344E+01   -.133E+00 -.565E-01 -.817E-01
   -.380E+01 -.199E+01 -.484E+03   0.281E+01 0.190E+01 0.488E+03   0.858E+00 0.140E+00 -.473E+01   0.121E+00 -.357E-01 0.124E+00
   0.683E+01 -.134E+00 0.567E+03   -.887E+01 0.121E+00 -.570E+03   0.200E+01 0.897E-01 0.306E+01   0.160E-01 -.748E-01 -.153E-01
   -.823E+01 0.160E+01 -.564E+03   0.106E+02 -.159E+01 0.567E+03   -.220E+01 0.528E-01 -.295E+01   -.168E+00 -.622E-01 0.106E+00
   0.166E+02 0.702E+01 0.629E+03   -.174E+02 -.749E+01 -.633E+03   0.817E+00 0.426E+00 0.342E+01   0.148E-02 0.463E-01 0.189E-01
   -.197E+02 0.388E+01 -.625E+03   0.209E+02 -.444E+01 0.628E+03   -.107E+01 0.526E+00 -.335E+01   -.537E-01 0.418E-01 0.126E-01
   0.201E+02 -.161E+00 0.507E+03   -.205E+02 0.996E-01 -.512E+03   0.264E+00 0.399E-01 0.503E+01   0.155E+00 0.186E-01 -.502E-01
   0.251E+02 -.515E+00 -.628E+03   -.259E+02 0.597E+00 0.631E+03   0.780E+00 -.109E+00 -.373E+01   0.478E-01 0.238E-01 -.454E-01
   -.232E+02 0.906E+01 0.604E+03   0.239E+02 -.952E+01 -.608E+03   -.673E+00 0.376E+00 0.378E+01   -.421E-01 0.842E-01 -.960E-01
   -.494E+01 0.346E+01 -.490E+03   0.424E+01 -.365E+01 0.495E+03   0.584E+00 0.903E-01 -.496E+01   0.110E+00 0.884E-01 0.891E-01
   -.266E+02 -.350E+01 0.604E+03   0.277E+02 0.366E+01 -.608E+03   -.106E+01 -.132E+00 0.336E+01   -.699E-01 -.377E-01 -.277E-01
   -.150E+02 -.200E+01 -.495E+03   0.150E+02 0.222E+01 0.500E+03   0.102E-01 -.166E+00 -.480E+01   0.203E-01 -.561E-01 0.695E-01
   0.142E+02 -.704E+01 0.627E+03   -.152E+02 0.758E+01 -.630E+03   0.978E+00 -.561E+00 0.339E+01   0.271E-01 0.231E-01 0.890E-01
   -.204E+02 -.449E+01 -.604E+03   0.220E+02 0.507E+01 0.606E+03   -.143E+01 -.596E+00 -.293E+01   -.161E+00 0.131E-01 0.917E-03
   0.777E+01 -.480E+01 0.488E+03   -.728E+01 0.504E+01 -.493E+03   -.515E+00 -.201E+00 0.505E+01   0.353E-01 -.334E-01 -.248E-01
   0.222E+02 -.964E+01 -.608E+03   -.229E+02 0.999E+01 0.612E+03   0.604E+00 -.302E+00 -.392E+01   0.671E-01 -.366E-01 -.507E-01
 -----------------------------------------------------------------------------------------------
   0.733E+00 -.388E-01 -.518E+00   -.568E-13 -.160E-13 -.227E-12   -.663E+00 0.219E-01 0.416E+00   -.656E-01 0.173E-01 0.984E-01
 
 
 POSITION                                       TOTAL-FORCE (eV/Angst)
 -----------------------------------------------------------------------------------
     -3.11100      4.78754     -0.08537        -0.013752      0.000182     -0.034304
      0.32461     -0.00617      0.08804         0.028695      0.002577      0.026833
      5.29190      6.39641     -0.05101        -0.007381      0.002806     -0.004980
     -5.58780      3.01143     -0.00307        -0.004827      0.010064     -0.000951
      2.78385      1.79498     -0.00199        -0.011310     -0.015915      0.002487
      2.73863      4.78018     -0.00741         0.004700      0.008167     -0.004360
      0.29305      3.22515      0.04771         0.001447     -0.016379      0.002117
      5.26216      3.22948     -0.04411         0.002975      0.004662     -0.010401
      0.30757      6.35856      0.05552         0.003209      0.011074     -0.003189
     -0.91469      1.56636     28.73440         0.005150     -0.011759      0.015329
      0.95250      1.59059      1.65670         0.002946     -0.007680      0.007105
     -3.71087      3.16809     28.38372         0.001017      0.002467     -0.006780
     -1.88125      3.21216      1.26784        -0.005568      0.005741     -0.021487
     -6.45179      4.79510     28.49253        -0.023428      0.002252      0.020267
     -4.66648      4.79256      1.49804         0.012840      0.000252     -0.006982
      1.87839      3.22288     28.30381        -0.001765      0.000059      0.005082
      3.67989      3.23437      1.68328         0.002618      0.002467      0.005549
     -0.95892      4.79757     28.65358        -0.001750     -0.002786      0.011307
      0.95365      4.79602      1.72193         0.005550     -0.003201      0.001566
     -3.73105      6.38716     28.34215        -0.004718      0.001115     -0.008202
     -1.86836      6.35646      1.28767        -0.007816     -0.009690     -0.012035
      4.63354      4.84100     28.35062        -0.001260     -0.002348     -0.001673
      6.50885      4.82649      1.31093         0.002642      0.000927     -0.008797
      1.87760      6.36937     28.31003        -0.003815      0.001548      0.013139
      3.74280      6.37800      1.61473         0.004696     -0.000179     -0.007554
     -0.90095      8.02406     28.71911         0.004937      0.009329      0.021755
      0.95750      7.99535      1.67063         0.003967      0.004250     -0.000839
 -----------------------------------------------------------------------------------
    total drift:                                0.005221      0.000408     -0.003786


--------------------------------------------------------------------------------------------------------



  FREE ENERGIE OF THE ION-ELECTRON SYSTEM (eV)
  ---------------------------------------------------
  free  energy   TOTEN  =      -192.46557406 eV

  energy  without entropy=     -192.34040283  energy(sigma->0) =     -192.40298845
 
 d Force = 0.9223338E-03[ 0.693E-03, 0.115E-02]  d Energy = 0.5496942E-03 0.373E-03
 d Force = 0.5252874E+00[ 0.542E+00, 0.509E+00]  d Ewald  =-0.2672964E+01 0.320E+01


--------------------------------------------------------------------------------------------------------


    POTLOK:  cpu time    0.0337: real time    0.0338


--------------------------------------------------------------------------------------------------------


 Quasi-Newton relaxation of ions (Broydens 2nd method)
  g(Force)  = 0.390E-03   g(Stress)= 0.287E-03

 retain information from N=  3 steps
 eigenvalues of (default step * inverse Hessian matrix)
  average eigenvalue of G=   3.0383
 eigenvalue spectrum of G is  4.2300  4.2300  0.6549


--------------------------------------------------------------------------------------------------------


  
 reached required accuracy - stopping structural energy minimisation
     LOOP+:  cpu time  143.7178: real time  144.0746
    4ORBIT:  cpu time    0.0000: real time    0.0000

 total amount of memory used by VASP on root node   650782. kBytes
========================================================================

   base      :      30000. kBytes
   nonl-proj :     559647. kBytes
   fftplans  :       2414. kBytes
   grid      :      12150. kBytes
   one-center:        419. kBytes
   wavefun   :      46152. kBytes
 
  
  
 General timing and accounting informations for this job:
 ========================================================
  
                  Total CPU time used (sec):     6099.398
                            User time (sec):     6077.893
                          System time (sec):       21.505
                         Elapsed time (sec):     6118.205
  
                   Maximum memory used (kb):      744456.
                   Average memory used (kb):           0.
  
                          Minor page faults:       644065
                          Major page faults:            8
                 Voluntary context switches:         5473
