<?xml version="1.0" encoding="ISO-8859-1"?>
<modeling>
 <generator>
  <i name="program" type="string">vasp </i>
  <i name="version" type="string">5.4.1  </i>
  <i name="subversion" type="string">05Feb16 (build Jul 05 2020 17:13:04) complex                          parallel </i>
  <i name="platform" type="string">IFC91_ompi </i>
  <i name="date" type="string">2024 05 11 </i>
  <i name="time" type="string">03:57:06 </i>
 </generator>
 <incar>
  <i type="int" name="ISTART">     0</i>
  <i type="string" name="PREC">normal</i>
  <i type="string" name="ALGO"> Normal</i>
  <i type="int" name="ISPIN">     1</i>
  <i type="int" name="ICHARG">     2</i>
  <i type="int" name="IBRION">     1</i>
  <i type="int" name="NSW">   100</i>
  <i type="int" name="ISIF">     3</i>
  <i type="int" name="ISYM">     0</i>
  <i name="SYMPREC">      0.00000001</i>
  <i name="POTIM">      0.50000000</i>
  <i type="logical" name="LREAL"> F  </i>
  <i type="logical" name="LPLANE"> F  </i>
  <i type="int" name="ISMEAR">     0</i>
  <i type="logical" name="LWAVE"> F  </i>
  <i type="logical" name="LCHARG"> F  </i>
  <v type="int" name="KPOINT_BSE">    -1     0     0     0</v>
 </incar>
 <kpoints>
  <generation param="Gamma">
   <v type="int" name="divisions">       8        8        1 </v>
   <v name="usershift">      0.00000000       0.00000000       0.00000000 </v>
   <v name="genvec1">      0.12500000       0.00000000       0.00000000 </v>
   <v name="genvec2">     -0.00000000       0.12500000       0.00000000 </v>
   <v name="genvec3">      0.00000000       0.00000000       1.00000000 </v>
   <v name="shift">      0.00000000       0.00000000       0.00000000 </v>
  </generation>
  <varray name="kpointlist" >
   <v>       0.00000000       0.00000000       0.00000000 </v>
   <v>       0.12500000       0.00000000       0.00000000 </v>
   <v>       0.25000000       0.00000000       0.00000000 </v>
   <v>       0.37500000       0.00000000       0.00000000 </v>
   <v>       0.50000000       0.00000000       0.00000000 </v>
   <v>       0.00000000       0.12500000       0.00000000 </v>
   <v>       0.12500000       0.12500000       0.00000000 </v>
   <v>       0.25000000       0.12500000       0.00000000 </v>
   <v>       0.37500000       0.12500000       0.00000000 </v>
   <v>       0.50000000       0.12500000       0.00000000 </v>
   <v>      -0.37500000       0.12500000       0.00000000 </v>
   <v>      -0.25000000       0.12500000       0.00000000 </v>
   <v>      -0.12500000       0.12500000       0.00000000 </v>
   <v>       0.00000000       0.25000000       0.00000000 </v>
   <v>       0.12500000       0.25000000       0.00000000 </v>
   <v>       0.25000000       0.25000000       0.00000000 </v>
   <v>       0.37500000       0.25000000       0.00000000 </v>
   <v>       0.50000000       0.25000000       0.00000000 </v>
   <v>      -0.37500000       0.25000000       0.00000000 </v>
   <v>      -0.25000000       0.25000000       0.00000000 </v>
   <v>      -0.12500000       0.25000000       0.00000000 </v>
   <v>      -0.00000000       0.37500000       0.00000000 </v>
   <v>       0.12500000       0.37500000       0.00000000 </v>
   <v>       0.25000000       0.37500000       0.00000000 </v>
   <v>       0.37500000       0.37500000       0.00000000 </v>
   <v>       0.50000000       0.37500000       0.00000000 </v>
   <v>      -0.37500000       0.37500000       0.00000000 </v>
   <v>      -0.25000000       0.37500000       0.00000000 </v>
   <v>      -0.12500000       0.37500000       0.00000000 </v>
   <v>       0.00000000       0.50000000       0.00000000 </v>
   <v>       0.12500000       0.50000000       0.00000000 </v>
   <v>       0.25000000       0.50000000       0.00000000 </v>
   <v>       0.37500000       0.50000000       0.00000000 </v>
   <v>       0.50000000       0.50000000       0.00000000 </v>
  </varray>
  <varray name="weights" >
   <v>       0.01562500 </v>
   <v>       0.03125000 </v>
   <v>       0.03125000 </v>
   <v>       0.03125000 </v>
   <v>       0.01562500 </v>
   <v>       0.03125000 </v>
   <v>       0.03125000 </v>
   <v>       0.03125000 </v>
   <v>       0.03125000 </v>
   <v>       0.03125000 </v>
   <v>       0.03125000 </v>
   <v>       0.03125000 </v>
   <v>       0.03125000 </v>
   <v>       0.03125000 </v>
   <v>       0.03125000 </v>
   <v>       0.03125000 </v>
   <v>       0.03125000 </v>
   <v>       0.03125000 </v>
   <v>       0.03125000 </v>
   <v>       0.03125000 </v>
   <v>       0.03125000 </v>
   <v>       0.03125000 </v>
   <v>       0.03125000 </v>
   <v>       0.03125000 </v>
   <v>       0.03125000 </v>
   <v>       0.03125000 </v>
   <v>       0.03125000 </v>
   <v>       0.03125000 </v>
   <v>       0.03125000 </v>
   <v>       0.01562500 </v>
   <v>       0.03125000 </v>
   <v>       0.03125000 </v>
   <v>       0.03125000 </v>
   <v>       0.01562500 </v>
  </varray>
 </kpoints>
 <parameters>
  <separator name="general" >
   <i type="string" name="SYSTEM">unknown system</i>
   <i type="logical" name="LCOMPAT"> F  </i>
  </separator>
  <separator name="electronic" >
   <i type="string" name="PREC">normal</i>
   <i name="ENMAX">    280.00000000</i>
   <i name="ENAUG">    373.43800000</i>
   <i name="EDIFF">      0.00010000</i>
   <i type="int" name="IALGO">    38</i>
   <i type="int" name="IWAVPR">    11</i>
   <i type="int" name="NBANDS">   120</i>
   <i name="NELECT">    159.00000000</i>
   <i type="int" name="TURBO">     0</i>
   <i type="int" name="IRESTART">     0</i>
   <i type="int" name="NREBOOT">     0</i>
   <i type="int" name="NMIN">     0</i>
   <i name="EREF">      0.00000000</i>
   <separator name="electronic smearing" >
    <i type="int" name="ISMEAR">     0</i>
    <i name="SIGMA">      0.20000000</i>
    <i name="KSPACING">      0.50000000</i>
    <i type="logical" name="KGAMMA"> T  </i>
   </separator>
   <separator name="electronic projectors" >
    <i type="logical" name="LREAL"> F  </i>
    <v name="ROPT">      0.00000000      0.00000000      0.00000000      0.00000000</v>
    <i type="int" name="LMAXPAW">  -100</i>
    <i type="int" name="LMAXMIX">     2</i>
    <i type="logical" name="NLSPLINE"> F  </i>
   </separator>
   <separator name="electronic startup" >
    <i type="int" name="ISTART">     0</i>
    <i type="int" name="ICHARG">     2</i>
    <i type="int" name="INIWAV">     1</i>
   </separator>
   <separator name="electronic spin" >
    <i type="int" name="ISPIN">     1</i>
    <i type="logical" name="LNONCOLLINEAR"> F  </i>
    <v name="MAGMOM">      1.00000000      1.00000000      1.00000000      1.00000000      1.00000000      1.00000000      1.00000000      1.00000000      1.00000000      1.00000000      1.00000000      1.00000000      1.00000000      1.00000000      1.00000000      1.00000000      1.00000000      1.00000000      1.00000000      1.00000000
      1.00000000      1.00000000      1.00000000      1.00000000      1.00000000      1.00000000      1.00000000</v>
    <i name="NUPDOWN">     -1.00000000</i>
    <i type="logical" name="LSORBIT"> F  </i>
    <v name="SAXIS">      0.00000000      0.00000000      1.00000000</v>
    <i type="logical" name="LSPIRAL"> F  </i>
    <v name="QSPIRAL">      0.00000000      0.00000000      0.00000000</v>
    <i type="logical" name="LZEROZ"> F  </i>
   </separator>
   <separator name="electronic exchange-correlation" >
    <i type="logical" name="LASPH"> F  </i>
    <i type="logical" name="LMETAGGA"> F  </i>
   </separator>
   <separator name="electronic convergence" >
    <i type="int" name="NELM">    60</i>
    <i type="int" name="NELMDL">    -5</i>
    <i type="int" name="NELMIN">     2</i>
    <i name="ENINI">    280.00000000</i>
    <separator name="electronic convergence detail" >
     <i type="logical" name="LDIAG"> T  </i>
     <i type="logical" name="LSUBROT"> F  </i>
     <i name="WEIMIN">      0.00100000</i>
     <i name="EBREAK">      0.00000021</i>
     <i name="DEPER">      0.30000000</i>
     <i type="int" name="NRMM">     4</i>
     <i name="TIME">      0.40000000</i>
    </separator>
   </separator>
   <separator name="electronic mixer" >
    <i name="AMIX">      0.40000000</i>
    <i name="BMIX">      1.00000000</i>
    <i name="AMIN">      0.10000000</i>
    <i name="AMIX_MAG">      1.60000000</i>
    <i name="BMIX_MAG">      1.00000000</i>
    <separator name="electronic mixer details" >
     <i type="int" name="IMIX">     4</i>
     <i type="logical" name="MIXFIRST"> F  </i>
     <i type="int" name="MAXMIX">   -45</i>
     <i name="WC">    100.00000000</i>
     <i type="int" name="INIMIX">     1</i>
     <i type="int" name="MIXPRE">     1</i>
     <i type="int" name="MREMOVE">     5</i>
    </separator>
   </separator>
   <separator name="electronic dipolcorrection" >
    <i type="logical" name="LDIPOL"> F  </i>
    <i type="logical" name="LMONO"> F  </i>
    <i type="int" name="IDIPOL">     0</i>
    <i name="EPSILON">      1.00000000</i>
    <v name="DIPOL">   -100.00000000   -100.00000000   -100.00000000</v>
    <i name="EFIELD">      0.00000000</i>
   </separator>
  </separator>
  <separator name="grids" >
   <i type="int" name="NGX">    42</i>
   <i type="int" name="NGY">    42</i>
   <i type="int" name="NGZ">   126</i>
   <i type="int" name="NGXF">    84</i>
   <i type="int" name="NGYF">    84</i>
   <i type="int" name="NGZF">   252</i>
   <i type="logical" name="ADDGRID"> F  </i>
  </separator>
  <separator name="ionic" >
   <i type="int" name="NSW">   100</i>
   <i type="int" name="IBRION">     1</i>
   <i type="int" name="ISIF">     3</i>
   <i name="PSTRESS">      0.00000000</i>
   <i name="EDIFFG">      0.00100000</i>
   <i type="int" name="NFREE">     0</i>
   <i name="POTIM">      0.50000000</i>
   <i name="SMASS">     -3.00000000</i>
   <i name="SCALEE">      1.00000000</i>
  </separator>
  <separator name="ionic md" >
   <i name="TEBEG">      0.00010000</i>
   <i name="TEEND">      0.00010000</i>
   <i type="int" name="NBLOCK">     1</i>
   <i type="int" name="KBLOCK">   100</i>
   <i type="int" name="NPACO">   256</i>
   <i name="APACO">     16.00000000</i>
  </separator>
  <separator name="symmetry" >
   <i type="int" name="ISYM">     0</i>
   <i name="SYMPREC">      0.00000001</i>
  </separator>
  <separator name="dos" >
   <i type="logical" name="LORBIT"> F  </i>
   <v name="RWIGS">     -1.00000000     -1.00000000     -1.00000000     -1.00000000</v>
   <i type="int" name="NEDOS">   301</i>
   <i name="EMIN">     10.00000000</i>
   <i name="EMAX">    -10.00000000</i>
   <i name="EFERMI">      0.00000000</i>
  </separator>
  <separator name="writing" >
   <i type="int" name="NWRITE">     2</i>
   <i type="logical" name="LWAVE"> F  </i>
   <i type="logical" name="LCHARG"> F  </i>
   <i type="logical" name="LPARD"> F  </i>
   <i type="logical" name="LVTOT"> F  </i>
   <i type="logical" name="LVHAR"> F  </i>
   <i type="logical" name="LELF"> F  </i>
   <i type="logical" name="LOPTICS"> F  </i>
   <v name="STM">      0.00000000      0.00000000      0.00000000      0.00000000      0.00000000      0.00000000      0.00000000</v>
  </separator>
  <separator name="performance" >
   <i type="int" name="NPAR">    40</i>
   <i type="int" name="NSIM">     4</i>
   <i type="int" name="NBLK">    -1</i>
   <i type="logical" name="LPLANE"> F  </i>
   <i type="logical" name="LSCALAPACK"> T  </i>
   <i type="logical" name="LSCAAWARE"> F  </i>
   <i type="logical" name="LSCALU"> F  </i>
   <i type="logical" name="LASYNC"> F  </i>
   <i type="logical" name="LORBITALREAL"> F  </i>
  </separator>
  <separator name="miscellaneous" >
   <i type="int" name="IDIOT">     3</i>
   <i type="logical" name="LMUSIC"> F  </i>
   <v name="POMASS">     50.94100000     95.94000000    183.85000000     32.06600000</v>
   <v name="DARWINR">      0.00000000      0.00000000      0.00000000      0.00000000</v>
   <v name="DARWINV">      1.00000000      1.00000000      1.00000000      1.00000000</v>
   <i type="logical" name="LCORR"> T  </i>
  </separator>
  <i type="logical" name="GGA_COMPAT"> T  </i>
  <i type="logical" name="LBERRY"> F  </i>
  <i type="int" name="ICORELEVEL">     0</i>
  <i type="logical" name="LDAU"> F  </i>
  <i type="int" name="I_CONSTRAINED_M">     0</i>
  <separator name="electronic exchange-correlation" >
   <i type="string" name="GGA">--</i>
   <i type="int" name="VOSKOWN">     0</i>
   <i type="logical" name="LHFCALC"> F  </i>
   <i type="string" name="PRECFOCK"></i>
   <i type="logical" name="LSYMGRAD"> F  </i>
   <i type="logical" name="LHFONE"> F  </i>
   <i type="logical" name="LRHFCALC"> F  </i>
   <i type="logical" name="LTHOMAS"> F  </i>
   <i type="logical" name="LMODELHF"> F  </i>
   <i name="ENCUT4O">     -1.00000000</i>
   <i type="int" name="EXXOEP">     0</i>
   <i type="int" name="FOURORBIT">     0</i>
   <i name="AEXX">      0.00000000</i>
   <i name="HFALPHA">      0.00000000</i>
   <i name="MCALPHA">      0.00000000</i>
   <i name="ALDAX">      1.00000000</i>
   <i name="AGGAX">      1.00000000</i>
   <i name="ALDAC">      1.00000000</i>
   <i name="AGGAC">      1.00000000</i>
   <i type="int" name="NKREDX">     1</i>
   <i type="int" name="NKREDY">     1</i>
   <i type="int" name="NKREDZ">     1</i>
   <i type="logical" name="SHIFTRED"> F  </i>
   <i type="logical" name="ODDONLY"> F  </i>
   <i type="logical" name="EVENONLY"> F  </i>
   <i type="int" name="LMAXFOCK">     0</i>
   <i type="int" name="NMAXFOCKAE">     0</i>
   <i type="logical" name="LFOCKAEDFT"> F  </i>
   <i name="HFSCREEN">      0.00000000</i>
   <i name="HFSCREENC">      0.00000000</i>
   <i type="int" name="NBANDSGWLOW">     0</i>
  </separator>
  <separator name="vdW DFT" >
   <i type="logical" name="LUSE_VDW"> F  </i>
   <i name="Zab_VDW">     -0.84910000</i>
   <i name="PARAM1">      0.12340000</i>
   <i name="PARAM2">      1.00000000</i>
   <i name="PARAM3">      0.00000000</i>
  </separator>
  <separator name="model GW" >
   <i type="int" name="MODEL_GW">     0</i>
   <i name="MODEL_EPS0">     58.26239943</i>
   <i name="MODEL_ALPHA">      1.00000000</i>
  </separator>
  <separator name="linear response parameters" >
   <i type="logical" name="LEPSILON"> F  </i>
   <i type="logical" name="LRPA"> F  </i>
   <i type="logical" name="LNABLA"> F  </i>
   <i type="logical" name="LVEL"> F  </i>
   <i type="int" name="KINTER">     0</i>
   <i name="CSHIFT">      0.10000000</i>
   <i name="OMEGAMAX">     -1.00000000</i>
   <i name="DEG_THRESHOLD">      0.00200000</i>
  </separator>
  <separator name="orbital magnetization" >
   <i type="logical" name="NUCIND"> F  </i>
   <v name="MAGPOS">      0.00000000      0.00000000      0.00000000</v>
   <i type="logical" name="LNICSALL"> T  </i>
   <i type="logical" name="ORBITALMAG"> F  </i>
   <i type="logical" name="LMAGBLOCH"> F  </i>
   <i type="logical" name="LCHIMAG"> F  </i>
   <i type="logical" name="LGAUGE"> T  </i>
   <i type="int" name="MAGATOM">     0</i>
   <v name="MAGDIPOL">      0.00000000      0.00000000      0.00000000</v>
   <v name="AVECCONST">      0.00000000      0.00000000      0.00000000</v>
  </separator>
  <separator name="response functions" >
   <i type="logical" name="LADDER"> F  </i>
   <i type="logical" name="LFXC"> F  </i>
   <i type="logical" name="LHARTREE"> T  </i>
   <i type="int" name="IBSE">     0</i>
   <v type="int" name="KPOINT">    -1     0     0     0</v>
   <i type="logical" name="LTCTE"> F  </i>
   <i type="logical" name="LTETE"> F  </i>
   <i type="logical" name="LTRIPLET"> F  </i>
   <i type="logical" name="LFXCEPS"> F  </i>
   <i type="logical" name="LFXHEG"> F  </i>
   <i type="int" name="NATURALO">     0</i>
   <i type="logical" name="L2ORDER"> F  </i>
   <i type="logical" name="LUSEW"> F  </i>
   <i name="ENCUTGW">     -2.00000000</i>
   <i name="ENCUTGWSOFT">     -2.00000000</i>
   <i name="ENCUTLF">     -1.00000000</i>
   <i type="int" name="LMAXMP2">    -1</i>
   <i name="SCISSOR">      0.00000000</i>
   <i type="int" name="NOMEGA">     0</i>
   <i type="int" name="NOMEGAR">     0</i>
   <i type="int" name="NBANDSGW">    -1</i>
   <i type="int" name="NBANDSO">    -1</i>
   <i type="int" name="NBANDSV">    -1</i>
   <i type="int" name="NELM">     1</i>
   <i type="int" name="NELMHF">     1</i>
   <i type="int" name="DIM">     3</i>
   <i type="int" name="ANTIRES">     0</i>
   <i name="OMEGAMAX">    -30.00000000</i>
   <i name="OMEGAMIN">    -30.00000000</i>
   <i name="OMEGATL">   -200.00000000</i>
   <i type="int" name="OMEGAGRID">     0</i>
   <i name="CSHIFT">     -0.10000000</i>
   <i type="logical" name="SELFENERGY"> F  </i>
   <i type="logical" name="LSPECTRAL"> F  </i>
   <i type="logical" name="LSPECTRALGW"> F  </i>
   <i type="logical" name="LSINGLES"> F  </i>
   <i type="logical" name="LFERMIGW"> F  </i>
   <i type="logical" name="ODDONLYGW"> F  </i>
   <i type="logical" name="EVENONLYGW"> F  </i>
   <i type="int" name="NKREDLFX">     1</i>
   <i type="int" name="NKREDLFY">     1</i>
   <i type="int" name="NKREDLFZ">     1</i>
   <i type="int" name="MAXMEM">  1800</i>
   <i type="int" name="TELESCOPE">     0</i>
   <i type="int" name="TAUPAR">     1</i>
   <i type="int" name="OMEGAPAR">    -1</i>
   <i name="LAMBDA">      1.00000000</i>
  </separator>
  <separator name="External order field" >
   <i name="OFIELD_KAPPA">      0.00000000</i>
   <v name="OFIELD_K">      0.00000000      0.00000000      0.00000000</v>
   <i name="OFIELD_Q6_NEAR">      0.00000000</i>
   <i name="OFIELD_Q6_FAR">      0.00000000</i>
   <i name="OFIELD_A">      0.00000000</i>
  </separator>
 </parameters>
 <atominfo>
  <atoms>      27 </atoms>
  <types>       4 </types>
  <array name="atoms" >
   <dimension dim="1">ion</dimension>
   <field type="string">element</field>
   <field type="int">atomtype</field>
   <set>
    <rc><c>V </c><c>   1</c></rc>
    <rc><c>V </c><c>   1</c></rc>
    <rc><c>V </c><c>   1</c></rc>
    <rc><c>Mo</c><c>   2</c></rc>
    <rc><c>Mo</c><c>   2</c></rc>
    <rc><c>Mo</c><c>   2</c></rc>
    <rc><c>W </c><c>   3</c></rc>
    <rc><c>W </c><c>   3</c></rc>
    <rc><c>W </c><c>   3</c></rc>
    <rc><c>S </c><c>   4</c></rc>
    <rc><c>S </c><c>   4</c></rc>
    <rc><c>S </c><c>   4</c></rc>
    <rc><c>S </c><c>   4</c></rc>
    <rc><c>S </c><c>   4</c></rc>
    <rc><c>S </c><c>   4</c></rc>
    <rc><c>S </c><c>   4</c></rc>
    <rc><c>S </c><c>   4</c></rc>
    <rc><c>S </c><c>   4</c></rc>
    <rc><c>S </c><c>   4</c></rc>
    <rc><c>S </c><c>   4</c></rc>
    <rc><c>S </c><c>   4</c></rc>
    <rc><c>S </c><c>   4</c></rc>
    <rc><c>S </c><c>   4</c></rc>
    <rc><c>S </c><c>   4</c></rc>
    <rc><c>S </c><c>   4</c></rc>
    <rc><c>S </c><c>   4</c></rc>
    <rc><c>S </c><c>   4</c></rc>
   </set>
  </array>
  <array name="atomtypes" >
   <dimension dim="1">type</dimension>
   <field type="int">atomspertype</field>
   <field type="string">element</field>
   <field>mass</field>
   <field>valence</field>
   <field type="string">pseudopotential</field>
   <set>
    <rc><c>   3</c><c>V </c><c>     50.94100000</c><c>      5.00000000</c><c> PAW_PBE V 08Apr2002                    </c></rc>
    <rc><c>   3</c><c>Mo</c><c>     95.94000000</c><c>      6.00000000</c><c> PAW_PBE Mo 08Apr2002                   </c></rc>
    <rc><c>   3</c><c>W </c><c>    183.85000000</c><c>      6.00000000</c><c> PAW_PBE W 08Apr2002                    </c></rc>
    <rc><c>  18</c><c>S </c><c>     32.06600000</c><c>      6.00000000</c><c>  PAW_PBE S 17Jan2003                   </c></rc>
   </set>
  </array>
 </atominfo>
 <structure name="initialpos" >
  <crystal>
   <varray name="basis" >
    <v>       8.66999996       5.03999989       0.00000000 </v>
    <v>      -8.66999982       5.04000013       0.00000000 </v>
    <v>       0.00000000       0.00000000      30.00000000 </v>
   </varray>
   <i name="volume">   2621.80797419 </i>
   <varray name="rec_basis" >
    <v>       0.05767013       0.09920635       0.00000000 </v>
    <v>      -0.05767013       0.09920635       0.00000000 </v>
    <v>       0.00000000       0.00000000       0.03333333 </v>
   </varray>
  </crystal>
  <varray name="positions" >
   <v>       0.33333334       0.66666669       0.00000000 </v>
   <v>       0.00000000       0.00000000       0.00000000 </v>
   <v>       1.00000000       0.33333334       0.00000000 </v>
   <v>       0.00000000       0.66666669       0.00000000 </v>
   <v>       0.33333334       0.00000000       0.00000000 </v>
   <v>       0.66666669       0.33333334       0.00000000 </v>
   <v>       0.33333334       0.33333334       0.00000000 </v>
   <v>       0.66666669       0.00000000       0.00000000 </v>
   <v>       0.66666669       0.66666669       0.00000000 </v>
   <v>       0.11068511       0.22244981       0.95539999 </v>
   <v>       0.22244981       0.11068511       0.04460000 </v>
   <v>       0.11068511       0.55578315       0.95539999 </v>
   <v>       0.22244981       0.44401845       0.04460000 </v>
   <v>       0.11068511       0.88911647       0.95539999 </v>
   <v>       0.22244981       0.77735180       0.04460000 </v>
   <v>       0.44401845       0.22244981       0.95539999 </v>
   <v>       0.55578315       0.11068511       0.04460000 </v>
   <v>       0.44401845       0.55578315       0.95539999 </v>
   <v>       0.55578315       0.44401845       0.04460000 </v>
   <v>       0.44401845       0.88911647       0.95539999 </v>
   <v>       0.55578315       0.77735180       0.04460000 </v>
   <v>       0.77735180       0.22244981       0.95539999 </v>
   <v>       0.88911647       0.11068511       0.04460000 </v>
   <v>       0.77735180       0.55578315       0.95539999 </v>
   <v>       0.88911647       0.44401845       0.04460000 </v>
   <v>       0.77735180       0.88911647       0.95539999 </v>
   <v>       0.88911647       0.77735180       0.04460000 </v>
  </varray>
 </structure>
 <calculation>
  <scstep>
   <time name="dav">   21.63   21.69</time>
   <time name="total">   21.67   21.74</time>
   <energy>
    <i name="alphaZ">     81.65567618 </i>
    <i name="ewald">  41890.23010355 </i>
    <i name="hartreedc"> -47722.85862462 </i>
    <i name="XCdc">   -242.92963151 </i>
    <i name="pawpsdc">   3467.42045192 </i>
    <i name="pawaedc">  -2871.19716117 </i>
    <i name="eentropy">     -0.53372197 </i>
    <i name="bandstr">   -237.00486121 </i>
    <i name="atom">   6761.44252427 </i>
    <i name="e_fr_energy">   1126.22475544 </i>
    <i name="e_wo_entrp">   1126.75847742 </i>
    <i name="e_0_energy">   1126.49161643 </i>
   </energy>
  </scstep>
  <scstep>
   <time name="dav">   27.57   27.63</time>
   <time name="total">   27.57   27.64</time>
   <energy>
    <i name="e_fr_energy">     -0.17688969 </i>
    <i name="e_wo_entrp">      0.00148727 </i>
    <i name="e_0_energy">     -0.08770121 </i>
   </energy>
  </scstep>
  <scstep>
   <time name="dav">   27.48   27.55</time>
   <time name="total">   27.49   27.56</time>
   <energy>
    <i name="e_fr_energy">   -199.47863470 </i>
    <i name="e_wo_entrp">   -199.21142477 </i>
    <i name="e_0_energy">   -199.34502973 </i>
   </energy>
  </scstep>
  <scstep>
   <time name="dav">   29.68   29.75</time>
   <time name="total">   29.68   29.76</time>
   <energy>
    <i name="e_fr_energy">   -208.92399509 </i>
    <i name="e_wo_entrp">   -208.62563809 </i>
    <i name="e_0_energy">   -208.77481659 </i>
   </energy>
  </scstep>
  <scstep>
   <time name="dav">   28.97   29.04</time>
   <time name="total">   29.44   29.51</time>
   <energy>
    <i name="e_fr_energy">   -209.27819845 </i>
    <i name="e_wo_entrp">   -208.98360556 </i>
    <i name="e_0_energy">   -209.13090201 </i>
   </energy>
  </scstep>
  <scstep>
   <time name="dav">   30.81   30.89</time>
   <time name="total">   31.31   31.40</time>
   <energy>
    <i name="e_fr_energy">   -237.17601309 </i>
    <i name="e_wo_entrp">   -236.90471939 </i>
    <i name="e_0_energy">   -237.04036624 </i>
   </energy>
  </scstep>
  <scstep>
   <time name="dav">   32.20   32.28</time>
   <time name="total">   32.70   32.79</time>
   <energy>
    <i name="e_fr_energy">   -196.64331531 </i>
    <i name="e_wo_entrp">   -196.30653890 </i>
    <i name="e_0_energy">   -196.47492710 </i>
   </energy>
  </scstep>
  <scstep>
   <time name="dav">   28.89   28.96</time>
   <time name="total">   29.40   29.48</time>
   <energy>
    <i name="e_fr_energy">   -190.11658828 </i>
    <i name="e_wo_entrp">   -189.84832690 </i>
    <i name="e_0_energy">   -189.98245759 </i>
   </energy>
  </scstep>
  <scstep>
   <time name="dav">   29.85   29.93</time>
   <time name="total">   30.37   30.45</time>
   <energy>
    <i name="e_fr_energy">   -188.31271820 </i>
    <i name="e_wo_entrp">   -187.98548488 </i>
    <i name="e_0_energy">   -188.14910154 </i>
   </energy>
  </scstep>
  <scstep>
   <time name="dav">   32.38   32.46</time>
   <time name="total">   32.91   33.00</time>
   <energy>
    <i name="e_fr_energy">   -187.13423445 </i>
    <i name="e_wo_entrp">   -186.79294938 </i>
    <i name="e_0_energy">   -186.96359192 </i>
   </energy>
  </scstep>
  <scstep>
   <time name="dav">   30.93   31.00</time>
   <time name="total">   31.46   31.55</time>
   <energy>
    <i name="e_fr_energy">   -187.00944281 </i>
    <i name="e_wo_entrp">   -186.66079655 </i>
    <i name="e_0_energy">   -186.83511968 </i>
   </energy>
  </scstep>
  <scstep>
   <time name="dav">   31.31   31.39</time>
   <time name="total">   31.85   31.93</time>
   <energy>
    <i name="e_fr_energy">   -187.01526162 </i>
    <i name="e_wo_entrp">   -186.68123385 </i>
    <i name="e_0_energy">   -186.84824773 </i>
   </energy>
  </scstep>
  <scstep>
   <time name="dav">   32.24   32.32</time>
   <time name="total">   32.78   32.87</time>
   <energy>
    <i name="e_fr_energy">   -186.92985579 </i>
    <i name="e_wo_entrp">   -186.59342720 </i>
    <i name="e_0_energy">   -186.76164149 </i>
   </energy>
  </scstep>
  <scstep>
   <time name="dav">   31.51   31.58</time>
   <time name="total">   32.04   32.13</time>
   <energy>
    <i name="e_fr_energy">   -186.90016150 </i>
    <i name="e_wo_entrp">   -186.55913580 </i>
    <i name="e_0_energy">   -186.72964865 </i>
   </energy>
  </scstep>
  <scstep>
   <time name="dav">   30.23   30.31</time>
   <time name="total">   30.77   30.85</time>
   <energy>
    <i name="e_fr_energy">   -186.89380740 </i>
    <i name="e_wo_entrp">   -186.55054288 </i>
    <i name="e_0_energy">   -186.72217514 </i>
   </energy>
  </scstep>
  <scstep>
   <time name="dav">   31.91   31.99</time>
   <time name="total">   32.44   32.53</time>
   <energy>
    <i name="e_fr_energy">   -186.88979381 </i>
    <i name="e_wo_entrp">   -186.54653443 </i>
    <i name="e_0_energy">   -186.71816412 </i>
   </energy>
  </scstep>
  <scstep>
   <time name="dav">   31.20   31.28</time>
   <time name="total">   31.74   31.82</time>
   <energy>
    <i name="e_fr_energy">   -186.88706774 </i>
    <i name="e_wo_entrp">   -186.54573201 </i>
    <i name="e_0_energy">   -186.71639988 </i>
   </energy>
  </scstep>
  <scstep>
   <time name="dav">   29.31   29.38</time>
   <time name="total">   29.85   29.93</time>
   <energy>
    <i name="e_fr_energy">   -186.88652562 </i>
    <i name="e_wo_entrp">   -186.54547144 </i>
    <i name="e_0_energy">   -186.71599853 </i>
   </energy>
  </scstep>
  <scstep>
   <time name="dav">   27.89   27.95</time>
   <time name="total">   28.42   28.50</time>
   <energy>
    <i name="e_fr_energy">   -186.88628255 </i>
    <i name="e_wo_entrp">   -186.54470341 </i>
    <i name="e_0_energy">   -186.71549298 </i>
   </energy>
  </scstep>
  <scstep>
   <time name="dav">   23.48   23.54</time>
   <time name="total">   24.02   24.09</time>
   <energy>
    <i name="e_fr_energy">   -186.88718087 </i>
    <i name="e_wo_entrp">   -186.54591955 </i>
    <i name="e_0_energy">   -186.71655021 </i>
   </energy>
  </scstep>
  <scstep>
   <time name="dav">   21.71   21.76</time>
   <time name="total">   22.24   22.30</time>
   <energy>
    <i name="e_fr_energy">   -186.88804824 </i>
    <i name="e_wo_entrp">   -186.54665385 </i>
    <i name="e_0_energy">   -186.71735105 </i>
   </energy>
  </scstep>
  <scstep>
   <time name="dav">   18.70   18.75</time>
   <time name="total">   19.24   19.29</time>
   <energy>
    <i name="e_fr_energy">   -186.88885571 </i>
    <i name="e_wo_entrp">   -186.54750340 </i>
    <i name="e_0_energy">   -186.71817955 </i>
   </energy>
  </scstep>
  <scstep>
   <time name="dav">   20.34   20.39</time>
   <time name="total">   20.88   20.93</time>
   <energy>
    <i name="e_fr_energy">   -186.89001464 </i>
    <i name="e_wo_entrp">   -186.54878358 </i>
    <i name="e_0_energy">   -186.71939911 </i>
   </energy>
  </scstep>
  <scstep>
   <time name="dav">   18.70   18.75</time>
   <time name="total">   19.24   19.29</time>
   <energy>
    <i name="e_fr_energy">   -186.89059110 </i>
    <i name="e_wo_entrp">   -186.54928806 </i>
    <i name="e_0_energy">   -186.71993958 </i>
   </energy>
  </scstep>
  <scstep>
   <time name="dav">   16.40   16.44</time>
   <time name="total">   16.93   16.98</time>
   <energy>
    <i name="e_fr_energy">   -186.89096142 </i>
    <i name="e_wo_entrp">   -186.54964108 </i>
    <i name="e_0_energy">   -186.72030125 </i>
   </energy>
  </scstep>
  <scstep>
   <time name="dav">   18.93   18.98</time>
   <time name="total">   19.47   19.52</time>
   <energy>
    <i name="e_fr_energy">   -186.89119650 </i>
    <i name="e_wo_entrp">   -186.54989865 </i>
    <i name="e_0_energy">   -186.72054757 </i>
   </energy>
  </scstep>
  <scstep>
   <time name="dav">   19.78   19.82</time>
   <time name="total">   19.81   19.87</time>
   <energy>
    <i name="alphaZ">     81.65567618 </i>
    <i name="ewald">  41890.23010355 </i>
    <i name="hartreedc"> -47833.12809868 </i>
    <i name="XCdc">   -231.59832661 </i>
    <i name="pawpsdc">   4192.16282640 </i>
    <i name="pawaedc">  -3610.18692950 </i>
    <i name="eentropy">     -0.34130119 </i>
    <i name="bandstr">  -1437.12776001 </i>
    <i name="atom">   6761.44252427 </i>
    <i name="e_fr_energy">   -186.89128558 </i>
    <i name="e_wo_entrp">   -186.54998439 </i>
    <i name="e_0_energy">   -186.72063498 </i>
   </energy>
  </scstep>
  <structure>
   <crystal>
    <varray name="basis" >
     <v>       8.66999996       5.03999989       0.00000000 </v>
     <v>      -8.66999982       5.04000013       0.00000000 </v>
     <v>       0.00000000       0.00000000      30.00000000 </v>
    </varray>
    <i name="volume">   2621.80797419 </i>
    <varray name="rec_basis" >
     <v>       0.05767013       0.09920635       0.00000000 </v>
     <v>      -0.05767013       0.09920635       0.00000000 </v>
     <v>       0.00000000       0.00000000       0.03333333 </v>
    </varray>
   </crystal>
   <varray name="positions" >
    <v>       0.33333334       0.66666669       0.00000000 </v>
    <v>       0.00000000       0.00000000       0.00000000 </v>
    <v>       1.00000000       0.33333334       0.00000000 </v>
    <v>       0.00000000       0.66666669       0.00000000 </v>
    <v>       0.33333334       0.00000000       0.00000000 </v>
    <v>       0.66666669       0.33333334       0.00000000 </v>
    <v>       0.33333334       0.33333334       0.00000000 </v>
    <v>       0.66666669       0.00000000       0.00000000 </v>
    <v>       0.66666669       0.66666669       0.00000000 </v>
    <v>       0.11068511       0.22244981       0.95539999 </v>
    <v>       0.22244981       0.11068511       0.04460000 </v>
    <v>       0.11068511       0.55578315       0.95539999 </v>
    <v>       0.22244981       0.44401845       0.04460000 </v>
    <v>       0.11068511       0.88911647       0.95539999 </v>
    <v>       0.22244981       0.77735180       0.04460000 </v>
    <v>       0.44401845       0.22244981       0.95539999 </v>
    <v>       0.55578315       0.11068511       0.04460000 </v>
    <v>       0.44401845       0.55578315       0.95539999 </v>
    <v>       0.55578315       0.44401845       0.04460000 </v>
    <v>       0.44401845       0.88911647       0.95539999 </v>
    <v>       0.55578315       0.77735180       0.04460000 </v>
    <v>       0.77735180       0.22244981       0.95539999 </v>
    <v>       0.88911647       0.11068511       0.04460000 </v>
    <v>       0.77735180       0.55578315       0.95539999 </v>
    <v>       0.88911647       0.44401845       0.04460000 </v>
    <v>       0.77735180       0.88911647       0.95539999 </v>
    <v>       0.88911647       0.77735180       0.04460000 </v>
   </varray>
  </structure>
  <varray name="forces" >
   <v>      -0.43088949      -0.06510253      -0.08876452 </v>
   <v>       0.35966091       0.04278445       0.08133531 </v>
   <v>      -0.35504944       0.02647754       0.00710164 </v>
   <v>       0.04752135       0.00828533      -0.02074480 </v>
   <v>       0.01074557      -0.01879568      -0.11582792 </v>
   <v>      -0.01359397       0.00240141       0.02129717 </v>
   <v>       0.40406532      -0.08523776      -0.00019036 </v>
   <v>      -0.50841906       0.07830259       0.03569323 </v>
   <v>       0.55021287      -0.00477566       0.12184291 </v>
   <v>      -0.23585583      -0.51859890      -1.39297687 </v>
   <v>      -0.64584744      -0.57133055       2.16965707 </v>
   <v>       0.90978648       0.01631257      -1.48623836 </v>
   <v>      -0.74687489       0.00252579       1.43282082 </v>
   <v>      -0.72967731       0.01517485      -2.10483639 </v>
   <v>       0.73472360      -0.00707553       2.10792717 </v>
   <v>      -0.03387520      -0.00398219      -2.91242482 </v>
   <v>       0.04424099       0.02323958       2.89245628 </v>
   <v>      -0.63952421      -0.00146489      -2.10789797 </v>
   <v>      -0.27821183       0.02567945       2.93582547 </v>
   <v>       0.61715291      -0.57533818      -2.19973918 </v>
   <v>      -0.45219343      -0.56607433       2.11326341 </v>
   <v>       0.61012552       0.54598799      -2.17397401 </v>
   <v>       0.25742545       0.51250472       1.41053255 </v>
   <v>      -0.02448667      -0.00932627      -2.91019512 </v>
   <v>       0.73982296      -0.00394163       2.10644316 </v>
   <v>       0.45738374       0.57169796      -2.11723781 </v>
   <v>      -0.64836889       0.55966988       2.19485195 </v>
  </varray>
  <varray name="stress" >
   <v>       7.48476574      -0.00408623      -1.57211678 </v>
   <v>      -0.00408613       4.27104461      -0.05335048 </v>
   <v>      -1.57211678      -0.05335036      30.28638492 </v>
  </varray>
  <energy>
   <i name="e_fr_energy">   -186.89128558 </i>
   <i name="e_wo_entrp">   -186.72063498 </i>
   <i name="e_0_energy">     -0.34130119 </i>
  </energy>
  <time name="totalsc">  777.49  779.58</time>
 </calculation>
 <calculation>
  <scstep>
   <time name="dav">   21.65   21.70</time>
   <time name="total">   22.19   22.25</time>
   <energy>
    <i name="alphaZ">     78.92138731 </i>
    <i name="ewald">  39380.44205849 </i>
    <i name="hartreedc"> -45338.04054641 </i>
    <i name="XCdc">   -239.05070024 </i>
    <i name="pawpsdc">   4192.14598097 </i>
    <i name="pawaedc">  -3610.17017913 </i>
    <i name="eentropy">     -0.27577840 </i>
    <i name="bandstr">  -1412.94891098 </i>
    <i name="atom">   6761.44252427 </i>
    <i name="e_fr_energy">   -187.53416413 </i>
    <i name="e_wo_entrp">   -187.25838573 </i>
    <i name="e_0_energy">   -187.39627493 </i>
   </energy>
  </scstep>
  <scstep>
   <time name="dav">   30.21   30.28</time>
   <time name="total">   30.75   30.84</time>
   <energy>
    <i name="e_fr_energy">   -189.60389078 </i>
    <i name="e_wo_entrp">   -189.26666520 </i>
    <i name="e_0_energy">   -189.43527799 </i>
   </energy>
  </scstep>
  <scstep>
   <time name="dav">   30.29   30.37</time>
   <time name="total">   30.84   30.93</time>
   <energy>
    <i name="e_fr_energy">   -189.34613695 </i>
    <i name="e_wo_entrp">   -189.07736326 </i>
    <i name="e_0_energy">   -189.21175011 </i>
   </energy>
  </scstep>
  <scstep>
   <time name="dav">   30.53   30.60</time>
   <time name="total">   31.08   31.15</time>
   <energy>
    <i name="e_fr_energy">   -188.78897528 </i>
    <i name="e_wo_entrp">   -188.51125993 </i>
    <i name="e_0_energy">   -188.65011760 </i>
   </energy>
  </scstep>
  <scstep>
   <time name="dav">   29.46   29.53</time>
   <time name="total">   30.00   30.08</time>
   <energy>
    <i name="e_fr_energy">   -188.90142666 </i>
    <i name="e_wo_entrp">   -188.61311510 </i>
    <i name="e_0_energy">   -188.75727088 </i>
   </energy>
  </scstep>
  <scstep>
   <time name="dav">   30.73   30.80</time>
   <time name="total">   31.27   31.36</time>
   <energy>
    <i name="e_fr_energy">   -188.75122875 </i>
    <i name="e_wo_entrp">   -188.47489279 </i>
    <i name="e_0_energy">   -188.61306077 </i>
   </energy>
  </scstep>
  <scstep>
   <time name="dav">   29.23   29.30</time>
   <time name="total">   29.78   29.85</time>
   <energy>
    <i name="e_fr_energy">   -188.74030423 </i>
    <i name="e_wo_entrp">   -188.46112528 </i>
    <i name="e_0_energy">   -188.60071475 </i>
   </energy>
  </scstep>
  <scstep>
   <time name="dav">   32.89   32.96</time>
   <time name="total">   33.43   33.52</time>
   <energy>
    <i name="e_fr_energy">   -188.71179639 </i>
    <i name="e_wo_entrp">   -188.43349497 </i>
    <i name="e_0_energy">   -188.57264568 </i>
   </energy>
  </scstep>
  <scstep>
   <time name="dav">   27.04   27.10</time>
   <time name="total">   27.58   27.66</time>
   <energy>
    <i name="e_fr_energy">   -188.70286856 </i>
    <i name="e_wo_entrp">   -188.42617134 </i>
    <i name="e_0_energy">   -188.56451995 </i>
   </energy>
  </scstep>
  <scstep>
   <time name="dav">   29.34   29.41</time>
   <time name="total">   29.89   29.97</time>
   <energy>
    <i name="e_fr_energy">   -188.70278189 </i>
    <i name="e_wo_entrp">   -188.42595223 </i>
    <i name="e_0_energy">   -188.56436706 </i>
   </energy>
  </scstep>
  <scstep>
   <time name="dav">   28.64   28.71</time>
   <time name="total">   29.19   29.27</time>
   <energy>
    <i name="e_fr_energy">   -188.70224185 </i>
    <i name="e_wo_entrp">   -188.42584833 </i>
    <i name="e_0_energy">   -188.56404509 </i>
   </energy>
  </scstep>
  <scstep>
   <time name="dav">   28.25   28.32</time>
   <time name="total">   28.79   28.87</time>
   <energy>
    <i name="e_fr_energy">   -188.70238390 </i>
    <i name="e_wo_entrp">   -188.42599262 </i>
    <i name="e_0_energy">   -188.56418826 </i>
   </energy>
  </scstep>
  <scstep>
   <time name="dav">   21.36   21.41</time>
   <time name="total">   21.39   21.45</time>
   <energy>
    <i name="alphaZ">     78.92138731 </i>
    <i name="ewald">  39380.44205849 </i>
    <i name="hartreedc"> -45348.73669741 </i>
    <i name="XCdc">   -237.96840055 </i>
    <i name="pawpsdc">   3950.66726623 </i>
    <i name="pawaedc">  -3365.18578042 </i>
    <i name="eentropy">     -0.27644665 </i>
    <i name="bandstr">  -1408.00820110 </i>
    <i name="atom">   6761.44252427 </i>
    <i name="e_fr_energy">   -188.70228984 </i>
    <i name="e_wo_entrp">   -188.42584319 </i>
    <i name="e_0_energy">   -188.56406651 </i>
   </energy>
  </scstep>
  <structure>
   <crystal>
    <varray name="basis" >
     <v>       8.85967806       5.10283567       0.00000000 </v>
     <v>      -8.85979835       5.10304309       0.00000000 </v>
     <v>       0.00000000       0.00000000      30.00000000 </v>
    </varray>
    <i name="volume">   2712.64241841 </i>
    <varray name="rec_basis" >
     <v>       0.05643622       0.09798341       0.00000000 </v>
     <v>      -0.05643393       0.09798208       0.00000000 </v>
     <v>       0.00000000       0.00000000       0.03333333 </v>
    </varray>
   </crystal>
   <varray name="positions" >
    <v>       0.33182296       0.66755391      -0.00014274 </v>
    <v>       0.00120540      -0.00079587       0.00013079 </v>
    <v>       0.99913892       0.33444787       0.00001142 </v>
    <v>       0.00017187       0.66657413      -0.00003336 </v>
    <v>       0.33327328      -0.00011985      -0.00018626 </v>
    <v>       0.66664036       0.33338266       0.00003425 </v>
    <v>       0.33404957       0.33180122      -0.00000031 </v>
    <v>       0.66562694       0.00178926       0.00005740 </v>
    <v>       0.66817461       0.66511305       0.00019593 </v>
    <v>       0.10754692       0.22062400       0.95315996 </v>
    <v>       0.21791858       0.10974759       0.04808900 </v>
    <v>       0.11329435       0.55333005       0.95300999 </v>
    <v>       0.22038397       0.44610847       0.04690410 </v>
    <v>       0.10872766       0.89121917       0.95201523 </v>
    <v>       0.22446006       0.77527381       0.04798973 </v>
    <v>       0.44390515       0.22252500       0.95071655 </v>
    <v>       0.55601746       0.11067325       0.04925132 </v>
    <v>       0.44223218       0.55755540       0.95201030 </v>
    <v>       0.55513202       0.44491538       0.04932107 </v>
    <v>       0.44298192       0.88464589       0.95186261 </v>
    <v>       0.55181586       0.77590065       0.04799831 </v>
    <v>       0.78166235       0.22336543       0.95190405 </v>
    <v>       0.89228550       0.11242175       0.04686826 </v>
    <v>       0.77723904       0.55580664       0.95072014 </v>
    <v>       0.89115591       0.44194128       0.04798735 </v>
    <v>       0.78136044       0.89058008       0.95199528 </v>
    <v>       0.88999117       0.78183423       0.04812951 </v>
   </varray>
  </structure>
  <varray name="forces" >
   <v>      -0.40475696      -0.00353889       0.05264669 </v>
   <v>       0.32500020       0.00152597      -0.06862614 </v>
   <v>      -0.30069555      -0.00383555       0.08602067 </v>
   <v>      -0.13528602      -0.07832385       0.00409295 </v>
   <v>       0.05670853       0.15414448      -0.04011368 </v>
   <v>      -0.19624973      -0.07786558       0.01219983 </v>
   <v>       0.52997624       0.09616607      -0.10316248 </v>
   <v>      -0.56271310       0.00990549       0.08694168 </v>
   <v>       0.62268150      -0.08886022      -0.06977573 </v>
   <v>       0.06238083       0.07663732       0.23370898 </v>
   <v>      -0.07512743       0.03747396       0.06169023 </v>
   <v>       0.03420297      -0.00190375      -0.01817678 </v>
   <v>       0.11173703      -0.00758751      -0.26929631 </v>
   <v>      -0.06131654       0.00264747      -0.07797077 </v>
   <v>       0.05411571      -0.00387280       0.04608855 </v>
   <v>      -0.13959501      -0.00291593      -0.16436003 </v>
   <v>       0.13359899      -0.00222661       0.13357353 </v>
   <v>       0.10027458      -0.00239140       0.21614618 </v>
   <v>      -0.08593069       0.00503591       0.15703011 </v>
   <v>       0.06897208       0.04294170      -0.10144633 </v>
   <v>       0.05857839       0.06251279      -0.25947131 </v>
   <v>       0.07513995      -0.04887445      -0.05582628 </v>
   <v>      -0.07060482      -0.07513076      -0.20018987 </v>
   <v>      -0.13956405      -0.00347829      -0.13227008 </v>
   <v>       0.07290363       0.01075246       0.07077520 </v>
   <v>      -0.06049411      -0.06212637       0.29872930 </v>
   <v>      -0.07393665      -0.03681165       0.10104190 </v>
  </varray>
  <varray name="stress" >
   <v>     -19.94354315      -0.00512899       0.17052125 </v>
   <v>      -0.00512904     -19.43136794      -0.00940219 </v>
   <v>       0.17052125      -0.00940221      -1.75456462 </v>
  </varray>
  <energy>
   <i name="e_fr_energy">   -188.70228984 </i>
   <i name="e_wo_entrp">   -188.56406651 </i>
   <i name="e_0_energy">     -0.27644665 </i>
  </energy>
  <time name="totalsc">  417.88  418.99</time>
 </calculation>
 <calculation>
  <scstep>
   <time name="dav">   23.59   23.65</time>
   <time name="total">   24.13   24.19</time>
   <energy>
    <i name="alphaZ">     82.35390548 </i>
    <i name="ewald">  41308.34772919 </i>
    <i name="hartreedc"> -47307.09804308 </i>
    <i name="XCdc">   -233.83773035 </i>
    <i name="pawpsdc">   3949.53689367 </i>
    <i name="pawaedc">  -3364.04481649 </i>
    <i name="eentropy">     -0.23218404 </i>
    <i name="bandstr">  -1387.10100176 </i>
    <i name="atom">   6761.44252427 </i>
    <i name="e_fr_energy">   -190.63272311 </i>
    <i name="e_wo_entrp">   -190.40053906 </i>
    <i name="e_0_energy">   -190.51663108 </i>
   </energy>
  </scstep>
  <scstep>
   <time name="dav">   27.81   27.87</time>
   <time name="total">   28.33   28.41</time>
   <energy>
    <i name="e_fr_energy">   -190.58337298 </i>
    <i name="e_wo_entrp">   -190.35503827 </i>
    <i name="e_0_energy">   -190.46920562 </i>
   </energy>
  </scstep>
  <scstep>
   <time name="dav">   30.18   30.26</time>
   <time name="total">   30.71   30.79</time>
   <energy>
    <i name="e_fr_energy">   -190.11559715 </i>
    <i name="e_wo_entrp">   -189.86664003 </i>
    <i name="e_0_energy">   -189.99111859 </i>
   </energy>
  </scstep>
  <scstep>
   <time name="dav">   30.75   30.83</time>
   <time name="total">   31.29   31.37</time>
   <energy>
    <i name="e_fr_energy">   -189.90216049 </i>
    <i name="e_wo_entrp">   -189.67392536 </i>
    <i name="e_0_energy">   -189.78804293 </i>
   </energy>
  </scstep>
  <scstep>
   <time name="dav">   30.09   30.16</time>
   <time name="total">   30.62   30.70</time>
   <energy>
    <i name="e_fr_energy">   -189.85897930 </i>
    <i name="e_wo_entrp">   -189.62420314 </i>
    <i name="e_0_energy">   -189.74159122 </i>
   </energy>
  </scstep>
  <scstep>
   <time name="dav">   30.96   31.04</time>
   <time name="total">   31.50   31.58</time>
   <energy>
    <i name="e_fr_energy">   -189.80419036 </i>
    <i name="e_wo_entrp">   -189.57022091 </i>
    <i name="e_0_energy">   -189.68720563 </i>
   </energy>
  </scstep>
  <scstep>
   <time name="dav">   28.45   28.52</time>
   <time name="total">   28.98   29.06</time>
   <energy>
    <i name="e_fr_energy">   -189.79734475 </i>
    <i name="e_wo_entrp">   -189.56476566 </i>
    <i name="e_0_energy">   -189.68105521 </i>
   </energy>
  </scstep>
  <scstep>
   <time name="dav">   30.36   30.43</time>
   <time name="total">   30.89   30.97</time>
   <energy>
    <i name="e_fr_energy">   -189.79805315 </i>
    <i name="e_wo_entrp">   -189.56532647 </i>
    <i name="e_0_energy">   -189.68168981 </i>
   </energy>
  </scstep>
  <scstep>
   <time name="dav">   27.07   27.14</time>
   <time name="total">   27.60   27.67</time>
   <energy>
    <i name="e_fr_energy">   -189.79735543 </i>
    <i name="e_wo_entrp">   -189.56452413 </i>
    <i name="e_0_energy">   -189.68093978 </i>
   </energy>
  </scstep>
  <scstep>
   <time name="dav">   24.99   25.05</time>
   <time name="total">   25.53   25.60</time>
   <energy>
    <i name="e_fr_energy">   -189.79765969 </i>
    <i name="e_wo_entrp">   -189.56482904 </i>
    <i name="e_0_energy">   -189.68124436 </i>
   </energy>
  </scstep>
  <scstep>
   <time name="dav">   23.91   23.97</time>
   <time name="total">   24.44   24.51</time>
   <energy>
    <i name="e_fr_energy">   -189.79737291 </i>
    <i name="e_wo_entrp">   -189.56442715 </i>
    <i name="e_0_energy">   -189.68090003 </i>
   </energy>
  </scstep>
  <scstep>
   <time name="dav">   19.95   20.00</time>
   <time name="total">   19.98   20.04</time>
   <energy>
    <i name="alphaZ">     82.35390548 </i>
    <i name="ewald">  41308.34772919 </i>
    <i name="hartreedc"> -47280.59559363 </i>
    <i name="XCdc">   -235.23188897 </i>
    <i name="pawpsdc">   4039.19598145 </i>
    <i name="pawaedc">  -3454.91047702 </i>
    <i name="eentropy">     -0.23292043 </i>
    <i name="bandstr">  -1410.16666022 </i>
    <i name="atom">   6761.44252427 </i>
    <i name="e_fr_energy">   -189.79739988 </i>
    <i name="e_wo_entrp">   -189.56447945 </i>
    <i name="e_0_energy">   -189.68093967 </i>
   </energy>
  </scstep>
  <structure>
   <crystal>
    <varray name="basis" >
     <v>       8.67062199       4.99671011       0.00000000 </v>
     <v>      -8.67079571       4.99701044       0.00000000 </v>
     <v>       0.00000000       0.00000000      30.00000000 </v>
    </varray>
    <i name="volume">   2599.57923894 </i>
    <varray name="rec_basis" >
     <v>       0.05766715       0.10006384       0.00000000 </v>
     <v>      -0.05766368       0.10006183       0.00000000 </v>
     <v>       0.00000000       0.00000000       0.03333333 </v>
    </varray>
   </crystal>
   <varray name="positions" >
    <v>       0.33142734       0.66793769      -0.00011280 </v>
    <v>       0.00152087      -0.00110622       0.00009177 </v>
    <v>       0.99884299       0.33473096       0.00006034 </v>
    <v>      -0.00008932       0.66657345      -0.00003103 </v>
    <v>       0.33358556       0.00008322      -0.00020907 </v>
    <v>       0.66632124       0.33344144       0.00004119 </v>
    <v>       0.33472060       0.33145172      -0.00005897 </v>
    <v>       0.66510170       0.00234759       0.00010684 </v>
    <v>       0.66862560       0.66436500       0.00015625 </v>
    <v>       0.10773509       0.22069204       0.95329287 </v>
    <v>       0.21790889       0.10988256       0.04812408 </v>
    <v>       0.11332410       0.55329394       0.95299965 </v>
    <v>       0.22047887       0.44598821       0.04675096 </v>
    <v>       0.10867305       0.89128263       0.95197089 </v>
    <v>       0.22450569       0.77521524       0.04801594 </v>
    <v>       0.44376587       0.22265452       0.95062309 </v>
    <v>       0.55614237       0.11054090       0.04932728 </v>
    <v>       0.44232473       0.55745486       0.95213322 </v>
    <v>       0.55505771       0.44500654       0.04941037 </v>
    <v>       0.44312011       0.88465127       0.95180492 </v>
    <v>       0.55197676       0.77594875       0.04785076 </v>
    <v>       0.78165300       0.22321139       0.95187230 </v>
    <v>       0.89209193       0.11236414       0.04675442 </v>
    <v>       0.77709885       0.55593520       0.95064492 </v>
    <v>       0.89124407       0.44188907       0.04802759 </v>
    <v>       0.78119835       0.89053448       0.95216517 </v>
    <v>       0.88985844       0.78184388       0.04818698 </v>
   </varray>
  </structure>
  <varray name="forces" >
   <v>      -0.40975708       0.04008925       0.07424672 </v>
   <v>       0.34391989      -0.02090369      -0.08315670 </v>
   <v>      -0.30061340      -0.02764099       0.08474733 </v>
   <v>      -0.19698384      -0.10304644       0.01329255 </v>
   <v>       0.07514555       0.20245778      -0.01072978 </v>
   <v>      -0.25986347      -0.10509930       0.00682613 </v>
   <v>       0.57433824       0.16076091      -0.08908196 </v>
   <v>      -0.57597444      -0.02239707       0.06901081 </v>
   <v>       0.65287278      -0.12589021      -0.08870796 </v>
   <v>      -0.02084127      -0.04933326      -0.21013105 </v>
   <v>      -0.05906237      -0.08932706       0.56812751 </v>
   <v>       0.09913060      -0.00510239      -0.47647313 </v>
   <v>      -0.02081028      -0.00615946       0.16560133 </v>
   <v>      -0.12207941       0.00007229      -0.56485252 </v>
   <v>       0.11236916      -0.00486323       0.52268428 </v>
   <v>      -0.04020471      -0.00175536      -0.73919529 </v>
   <v>       0.02877299      -0.00377216       0.70126837 </v>
   <v>      -0.04453773       0.00157647      -0.26961716 </v>
   <v>      -0.00863660      -0.00339865       0.74666019 </v>
   <v>       0.06445942      -0.08686701      -0.62286215 </v>
   <v>       0.00136385      -0.05663537       0.20918420 </v>
   <v>       0.06194903       0.08682190      -0.56463073 </v>
   <v>       0.01072066       0.05673480       0.24692399 </v>
   <v>      -0.03407750       0.00028148      -0.70053855 </v>
   <v>       0.13431529       0.01357469       0.55592936 </v>
   <v>      -0.00762961       0.05085501      -0.16817744 </v>
   <v>      -0.05828577       0.09896707       0.62365165 </v>
  </varray>
  <varray name="stress" >
   <v>     -10.17493373       0.01234808       0.17093375 </v>
   <v>       0.01234804      -9.76082265       0.00276389 </v>
   <v>       0.17093351       0.00276400       6.51845943 </v>
  </varray>
  <energy>
   <i name="e_fr_energy">   -189.79739988 </i>
   <i name="e_wo_entrp">   -189.68093967 </i>
   <i name="e_0_energy">     -0.23292043 </i>
  </energy>
  <time name="totalsc">  375.76  376.76</time>
 </calculation>
 <calculation>
  <scstep>
   <time name="dav">   21.65   21.70</time>
   <time name="total">   22.17   22.22</time>
   <energy>
    <i name="alphaZ">     85.82304183 </i>
    <i name="ewald">  42834.47853314 </i>
    <i name="hartreedc"> -48851.13554170 </i>
    <i name="XCdc">   -232.95764955 </i>
    <i name="pawpsdc">   4039.30117655 </i>
    <i name="pawaedc">  -3455.01357294 </i>
    <i name="eentropy">     -0.19156695 </i>
    <i name="bandstr">  -1373.11879911 </i>
    <i name="atom">   6761.44252427 </i>
    <i name="e_fr_energy">   -191.37185446 </i>
    <i name="e_wo_entrp">   -191.18028751 </i>
    <i name="e_0_energy">   -191.27607098 </i>
   </energy>
  </scstep>
  <scstep>
   <time name="dav">   32.38   32.46</time>
   <time name="total">   32.90   32.98</time>
   <energy>
    <i name="e_fr_energy">   -191.18848779 </i>
    <i name="e_wo_entrp">   -190.99899463 </i>
    <i name="e_0_energy">   -191.09374121 </i>
   </energy>
  </scstep>
  <scstep>
   <time name="dav">   29.86   29.93</time>
   <time name="total">   30.37   30.45</time>
   <energy>
    <i name="e_fr_energy">   -191.34502145 </i>
    <i name="e_wo_entrp">   -191.12106677 </i>
    <i name="e_0_energy">   -191.23304411 </i>
   </energy>
  </scstep>
  <scstep>
   <time name="dav">   30.37   30.44</time>
   <time name="total">   30.88   30.97</time>
   <energy>
    <i name="e_fr_energy">   -190.94341290 </i>
    <i name="e_wo_entrp">   -190.75259196 </i>
    <i name="e_0_energy">   -190.84800243 </i>
   </energy>
  </scstep>
  <scstep>
   <time name="dav">   30.06   30.14</time>
   <time name="total">   30.58   30.66</time>
   <energy>
    <i name="e_fr_energy">   -190.90092293 </i>
    <i name="e_wo_entrp">   -190.70636952 </i>
    <i name="e_0_energy">   -190.80364623 </i>
   </energy>
  </scstep>
  <scstep>
   <time name="dav">   30.12   30.19</time>
   <time name="total">   30.64   30.72</time>
   <energy>
    <i name="e_fr_energy">   -190.81464326 </i>
    <i name="e_wo_entrp">   -190.61650237 </i>
    <i name="e_0_energy">   -190.71557282 </i>
   </energy>
  </scstep>
  <scstep>
   <time name="dav">   30.61   30.68</time>
   <time name="total">   31.12   31.21</time>
   <energy>
    <i name="e_fr_energy">   -190.80285086 </i>
    <i name="e_wo_entrp">   -190.60876120 </i>
    <i name="e_0_energy">   -190.70580603 </i>
   </energy>
  </scstep>
  <scstep>
   <time name="dav">   26.11   26.17</time>
   <time name="total">   26.63   26.70</time>
   <energy>
    <i name="e_fr_energy">   -190.79947296 </i>
    <i name="e_wo_entrp">   -190.60420224 </i>
    <i name="e_0_energy">   -190.70183760 </i>
   </energy>
  </scstep>
  <scstep>
   <time name="dav">   29.75   29.82</time>
   <time name="total">   30.27   30.35</time>
   <energy>
    <i name="e_fr_energy">   -190.80017418 </i>
    <i name="e_wo_entrp">   -190.60466455 </i>
    <i name="e_0_energy">   -190.70241936 </i>
   </energy>
  </scstep>
  <scstep>
   <time name="dav">   27.91   27.98</time>
   <time name="total">   28.43   28.50</time>
   <energy>
    <i name="e_fr_energy">   -190.79970652 </i>
    <i name="e_wo_entrp">   -190.60414931 </i>
    <i name="e_0_energy">   -190.70192792 </i>
   </energy>
  </scstep>
  <scstep>
   <time name="dav">   25.47   25.53</time>
   <time name="total">   25.99   26.06</time>
   <energy>
    <i name="e_fr_energy">   -190.79958593 </i>
    <i name="e_wo_entrp">   -190.60411841 </i>
    <i name="e_0_energy">   -190.70185217 </i>
   </energy>
  </scstep>
  <scstep>
   <time name="dav">   20.00   20.05</time>
   <time name="total">   20.04   20.09</time>
   <energy>
    <i name="alphaZ">     85.82304183 </i>
    <i name="ewald">  42834.47853314 </i>
    <i name="hartreedc"> -48822.57148481 </i>
    <i name="XCdc">   -234.28581596 </i>
    <i name="pawpsdc">   4064.10033840 </i>
    <i name="pawaedc">  -3479.98363582 </i>
    <i name="eentropy">     -0.19550841 </i>
    <i name="bandstr">  -1399.60757109 </i>
    <i name="atom">   6761.44252427 </i>
    <i name="e_fr_energy">   -190.79957846 </i>
    <i name="e_wo_entrp">   -190.60407006 </i>
    <i name="e_0_energy">   -190.70182426 </i>
   </energy>
  </scstep>
  <structure>
   <crystal>
    <varray name="basis" >
     <v>       8.48818850       4.89863296       0.00000000 </v>
     <v>      -8.48762485       4.89765420       0.00000000 </v>
     <v>       0.00000000       0.00000000      30.00000000 </v>
    </varray>
    <i name="volume">   2494.49912725 </i>
    <varray name="rec_basis" >
     <v>       0.05890145       0.10207610       0.00000000 </v>
     <v>      -0.05891323       0.10208288       0.00000000 </v>
     <v>       0.00000000       0.00000000       0.03333333 </v>
    </varray>
   </crystal>
   <varray name="positions" >
    <v>       0.33029932       0.66978495       0.00005918 </v>
    <v>       0.00260384      -0.00256262      -0.00009269 </v>
    <v>       0.99752452       0.33558455       0.00023473 </v>
    <v>      -0.00159669       0.66666611       0.00000427 </v>
    <v>       0.33527254       0.00117439      -0.00020645 </v>
    <v>       0.66456483       0.33374492       0.00005078 </v>
    <v>       0.33802745       0.33048132      -0.00023152 </v>
    <v>       0.66278097       0.00422690       0.00023457 </v>
    <v>       0.67014666       0.66108191      -0.00004342 </v>
    <v>       0.10691850       0.22026424       0.95248266 </v>
    <v>       0.21684353       0.10919803       0.04972842 </v>
    <v>       0.11373526       0.55280295       0.95162577 </v>
    <v>       0.22017895       0.44621800       0.04746141 </v>
    <v>       0.10813905       0.89180470       0.95038985 </v>
    <v>       0.22496212       0.77469295       0.04950097 </v>
    <v>       0.44375471       0.22264944       0.94860674 </v>
    <v>       0.55606885       0.11055946       0.05125907 </v>
    <v>       0.44197633       0.55784273       0.95116442 </v>
    <v>       0.55509485       0.44488488       0.05145467 </v>
    <v>       0.44247955       0.88355785       0.95007459 </v>
    <v>       0.55124880       0.77537469       0.04867998 </v>
    <v>       0.78273930       0.22388777       0.95027320 </v>
    <v>       0.89293028       0.11289226       0.04764357 </v>
    <v>       0.77713777       0.55591848       0.94871416 </v>
    <v>       0.89190936       0.44140801       0.04958869 </v>
    <v>       0.78184589       0.89108585       0.95142233 </v>
    <v>       0.89062792       0.78298973       0.04991995 </v>
   </varray>
  </structure>
  <varray name="forces" >
   <v>      -0.47876284       0.07191574       0.07107346 </v>
   <v>       0.36428659      -0.01477438      -0.07784789 </v>
   <v>      -0.28065950      -0.04955385       0.04729533 </v>
   <v>      -0.23553851      -0.11209421       0.01470269 </v>
   <v>       0.09947362       0.23960449       0.02605307 </v>
   <v>      -0.31401500      -0.13346395      -0.01325987 </v>
   <v>       0.59075897       0.18282066      -0.01334754 </v>
   <v>      -0.64712402      -0.01440568      -0.00521538 </v>
   <v>       0.73528717      -0.17171798      -0.03164247 </v>
   <v>       0.02489162       0.02091491      -0.08861363 </v>
   <v>       0.01927861      -0.00941944       0.37488018 </v>
   <v>      -0.00933965      -0.01182854      -0.37537095 </v>
   <v>       0.05082277      -0.00122355       0.05584174 </v>
   <v>       0.01867566       0.01313452      -0.39710646 </v>
   <v>      -0.02856929      -0.01202883       0.36524677 </v>
   <v>       0.07002290      -0.00815879      -0.59983886 </v>
   <v>      -0.07703086       0.01679585       0.54586181 </v>
   <v>       0.01667271       0.00044431      -0.11760605 </v>
   <v>       0.04047110      -0.00086974       0.59140896 </v>
   <v>      -0.01779568      -0.03822582      -0.48555649 </v>
   <v>       0.04491077       0.00319083       0.02422222 </v>
   <v>      -0.03403725       0.03155669      -0.37718303 </v>
   <v>      -0.01617488       0.00427533       0.14664732 </v>
   <v>       0.10027757      -0.00686062      -0.56672190 </v>
   <v>      -0.00445196      -0.00283080       0.39269501 </v>
   <v>      -0.03385642      -0.02259772       0.02130996 </v>
   <v>       0.00152583       0.02540056       0.47207200 </v>
  </varray>
  <varray name="stress" >
   <v>      -5.63195691       0.00709451      -0.12068863 </v>
   <v>       0.00709460      -5.91105430       0.04470158 </v>
   <v>      -0.12068871       0.04470150       4.52456307 </v>
  </varray>
  <energy>
   <i name="e_fr_energy">   -190.79957846 </i>
   <i name="e_wo_entrp">   -190.70182426 </i>
   <i name="e_0_energy">     -0.19550841 </i>
  </energy>
  <time name="totalsc">  381.68  382.69</time>
 </calculation>
 <calculation>
  <scstep>
   <time name="dav">   21.70   21.76</time>
   <time name="total">   22.21   22.27</time>
   <energy>
    <i name="alphaZ">     90.15973521 </i>
    <i name="ewald">  44668.86208658 </i>
    <i name="hartreedc"> -50711.66187028 </i>
    <i name="XCdc">   -231.80718589 </i>
    <i name="pawpsdc">   4064.05432587 </i>
    <i name="pawaedc">  -3479.93346868 </i>
    <i name="eentropy">     -0.16501487 </i>
    <i name="bandstr">  -1353.19237160 </i>
    <i name="atom">   6761.44252427 </i>
    <i name="e_fr_energy">   -192.24123938 </i>
    <i name="e_wo_entrp">   -192.07622451 </i>
    <i name="e_0_energy">   -192.15873194 </i>
   </energy>
  </scstep>
  <scstep>
   <time name="dav">   27.50   27.57</time>
   <time name="total">   28.00   28.08</time>
   <energy>
    <i name="e_fr_energy">   -191.97120970 </i>
    <i name="e_wo_entrp">   -191.79496466 </i>
    <i name="e_0_energy">   -191.88308718 </i>
   </energy>
  </scstep>
  <scstep>
   <time name="dav">   29.93   30.00</time>
   <time name="total">   30.44   30.64</time>
   <energy>
    <i name="e_fr_energy">   -192.04498913 </i>
    <i name="e_wo_entrp">   -191.86294599 </i>
    <i name="e_0_energy">   -191.95396756 </i>
   </energy>
  </scstep>
  <scstep>
   <time name="dav">   29.42   29.49</time>
   <time name="total">   29.93   30.01</time>
   <energy>
    <i name="e_fr_energy">   -191.85009133 </i>
    <i name="e_wo_entrp">   -191.67208031 </i>
    <i name="e_0_energy">   -191.76108582 </i>
   </energy>
  </scstep>
  <scstep>
   <time name="dav">   30.19   30.27</time>
   <time name="total">   30.70   30.78</time>
   <energy>
    <i name="e_fr_energy">   -191.59768490 </i>
    <i name="e_wo_entrp">   -191.42778856 </i>
    <i name="e_0_energy">   -191.51273673 </i>
   </energy>
  </scstep>
  <scstep>
   <time name="dav">   30.69   30.77</time>
   <time name="total">   31.20   31.29</time>
   <energy>
    <i name="e_fr_energy">   -191.58512373 </i>
    <i name="e_wo_entrp">   -191.40258942 </i>
    <i name="e_0_energy">   -191.49385658 </i>
   </energy>
  </scstep>
  <scstep>
   <time name="dav">   30.18   30.25</time>
   <time name="total">   30.68   30.76</time>
   <energy>
    <i name="e_fr_energy">   -191.56745178 </i>
    <i name="e_wo_entrp">   -191.40024733 </i>
    <i name="e_0_energy">   -191.48384955 </i>
   </energy>
  </scstep>
  <scstep>
   <time name="dav">   29.06   29.13</time>
   <time name="total">   29.57   29.65</time>
   <energy>
    <i name="e_fr_energy">   -191.56085377 </i>
    <i name="e_wo_entrp">   -191.38900956 </i>
    <i name="e_0_energy">   -191.47493167 </i>
   </energy>
  </scstep>
  <scstep>
   <time name="dav">   29.08   29.15</time>
   <time name="total">   29.59   29.66</time>
   <energy>
    <i name="e_fr_energy">   -191.55969534 </i>
    <i name="e_wo_entrp">   -191.38741497 </i>
    <i name="e_0_energy">   -191.47355516 </i>
   </energy>
  </scstep>
  <scstep>
   <time name="dav">   28.42   28.49</time>
   <time name="total">   28.93   29.00</time>
   <energy>
    <i name="e_fr_energy">   -191.55973331 </i>
    <i name="e_wo_entrp">   -191.38728210 </i>
    <i name="e_0_energy">   -191.47350770 </i>
   </energy>
  </scstep>
  <scstep>
   <time name="dav">   26.97   27.03</time>
   <time name="total">   27.00   27.08</time>
   <energy>
    <i name="alphaZ">     90.15973521 </i>
    <i name="ewald">  44668.86208658 </i>
    <i name="hartreedc"> -50677.45289220 </i>
    <i name="XCdc">   -233.32448163 </i>
    <i name="pawpsdc">   4087.69245622 </i>
    <i name="pawaedc">  -3503.67444781 </i>
    <i name="eentropy">     -0.17264741 </i>
    <i name="bandstr">  -1385.09201666 </i>
    <i name="atom">   6761.44252427 </i>
    <i name="e_fr_energy">   -191.55968342 </i>
    <i name="e_wo_entrp">   -191.38703601 </i>
    <i name="e_0_energy">   -191.47335972 </i>
   </energy>
  </scstep>
  <structure>
   <crystal>
    <varray name="basis" >
     <v>       8.28837464       4.77637452       0.00000000 </v>
     <v>      -8.28700027       4.77399161       0.00000000 </v>
     <v>       0.00000000       0.00000000      30.00000000 </v>
    </varray>
    <i name="volume">   2374.51343932 </i>
    <varray name="rec_basis" >
     <v>       0.06031541       0.10469935       0.00000000 </v>
     <v>      -0.06034551       0.10471671       0.00000000 </v>
     <v>       0.00000000       0.00000000       0.03333333 </v>
    </varray>
   </crystal>
   <varray name="positions" >
    <v>       0.32796232       0.67399654       0.00036042 </v>
    <v>       0.00489873      -0.00535877      -0.00041495 </v>
    <v>       0.99492557       0.33692727       0.00043868 </v>
    <v>      -0.00470359       0.66696218       0.00006999 </v>
    <v>       0.33893433       0.00343855      -0.00009536 </v>
    <v>       0.66069008       0.33434207       0.00000402 </v>
    <v>       0.34454064       0.32866377      -0.00030984 </v>
    <v>       0.65804815       0.00840751       0.00023556 </v>
    <v>       0.67313377       0.65389554      -0.00021518 </v>
    <v>       0.10670380       0.22005522       0.95165145 </v>
    <v>       0.21633499       0.10851566       0.05178039 </v>
    <v>       0.11373474       0.55252221       0.94966519 </v>
    <v>       0.22023455       0.44612484       0.04814935 </v>
    <v>       0.10817058       0.89203332       0.94828232 </v>
    <v>       0.22485181       0.77453091       0.05146830 </v>
    <v>       0.44421368       0.22202080       0.94563439 </v>
    <v>       0.55562848       0.11132987       0.05402097 </v>
    <v>       0.44182139       0.55803408       0.95016384 </v>
    <v>       0.55541650       0.44448710       0.05441615 </v>
    <v>       0.44152452       0.88271168       0.94760274 </v>
    <v>       0.55103922       0.77480480       0.04931465 </v>
    <v>       0.78341806       0.22490365       0.94821295 </v>
    <v>       0.89347639       0.11335260       0.04869481 </v>
    <v>       0.77781858       0.55511613       0.94588097 </v>
    <v>       0.89210626       0.44121155       0.05167493 </v>
    <v>       0.78188014       0.89137280       0.95096580 </v>
    <v>       0.89141078       0.78381257       0.05234737 </v>
   </varray>
  </structure>
  <varray name="forces" >
   <v>      -0.60577401       0.04538234      -0.03938815 </v>
   <v>       0.44335327       0.04346010      -0.00253884 </v>
   <v>      -0.34240932      -0.06666771       0.02919131 </v>
   <v>      -0.08285225      -0.10404199      -0.05278896 </v>
   <v>       0.05129469       0.16266959      -0.00950950 </v>
   <v>      -0.07497071      -0.07330596      -0.07548176 </v>
   <v>       0.46475608       0.09694319       0.02908617 </v>
   <v>      -0.59457466       0.02745090      -0.05437297 </v>
   <v>       0.52907102      -0.10923758       0.09899053 </v>
   <v>       0.10848349       0.12342695       0.15600899 </v>
   <v>       0.07896625       0.06523286       0.11962281 </v>
   <v>      -0.09757887       0.00488204      -0.07669845 </v>
   <v>       0.14687728       0.03728515      -0.21182928 </v>
   <v>       0.14980208       0.03627518      -0.08525410 </v>
   <v>      -0.19849950      -0.01406512       0.13009526 </v>
   <v>       0.12107031      -0.02940073      -0.27772971 </v>
   <v>      -0.16638690       0.06327813       0.28322407 </v>
   <v>       0.11492411       0.02936611       0.19742934 </v>
   <v>       0.07232378       0.00077020       0.32612663 </v>
   <v>      -0.09454195       0.01262462      -0.19794337 </v>
   <v>       0.14955912       0.09981774      -0.32849665 </v>
   <v>      -0.13612796      -0.02703705      -0.13172112 </v>
   <v>      -0.05106342      -0.10912228      -0.13757899 </v>
   <v>       0.21898996      -0.04167831      -0.29972754 </v>
   <v>      -0.14502200      -0.02815635       0.09685166 </v>
   <v>      -0.09435176      -0.17985869       0.34204453 </v>
   <v>       0.03468186      -0.06629331       0.17238808 </v>
  </varray>
  <varray name="stress" >
   <v>       0.21270441       0.07492021      -0.44194133 </v>
   <v>       0.07492018      -0.20941655       0.12985390 </v>
   <v>      -0.44194126       0.12985403      -0.16305892 </v>
  </varray>
  <energy>
   <i name="e_fr_energy">   -191.55968342 </i>
   <i name="e_wo_entrp">   -191.47335972 </i>
   <i name="e_0_energy">     -0.17264741 </i>
  </energy>
  <time name="totalsc">  359.87  360.93</time>
 </calculation>
 <calculation>
  <scstep>
   <time name="dav">   21.64   21.69</time>
   <time name="total">   22.14   22.20</time>
   <energy>
    <i name="alphaZ">     90.12924804 </i>
    <i name="ewald">  44636.21893779 </i>
    <i name="hartreedc"> -50645.16504614 </i>
    <i name="XCdc">   -233.42899619 </i>
    <i name="pawpsdc">   4088.04884062 </i>
    <i name="pawaedc">  -3504.02746945 </i>
    <i name="eentropy">     -0.16649134 </i>
    <i name="bandstr">  -1384.72872040 </i>
    <i name="atom">   6761.44252427 </i>
    <i name="e_fr_energy">   -191.67717279 </i>
    <i name="e_wo_entrp">   -191.51068146 </i>
    <i name="e_0_energy">   -191.59392712 </i>
   </energy>
  </scstep>
  <scstep>
   <time name="dav">   31.31   31.38</time>
   <time name="total">   31.81   31.90</time>
   <energy>
    <i name="e_fr_energy">   -191.74034474 </i>
    <i name="e_wo_entrp">   -191.55421528 </i>
    <i name="e_0_energy">   -191.64728001 </i>
   </energy>
  </scstep>
  <scstep>
   <time name="dav">   30.43   30.50</time>
   <time name="total">   30.93   31.01</time>
   <energy>
    <i name="e_fr_energy">   -191.69481847 </i>
    <i name="e_wo_entrp">   -191.52780414 </i>
    <i name="e_0_energy">   -191.61131130 </i>
   </energy>
  </scstep>
  <scstep>
   <time name="dav">   28.82   28.88</time>
   <time name="total">   29.32   29.40</time>
   <energy>
    <i name="e_fr_energy">   -191.69491642 </i>
    <i name="e_wo_entrp">   -191.52511116 </i>
    <i name="e_0_energy">   -191.61001379 </i>
   </energy>
  </scstep>
  <scstep>
   <time name="dav">   28.85   28.92</time>
   <time name="total">   29.36   29.44</time>
   <energy>
    <i name="e_fr_energy">   -191.69160544 </i>
    <i name="e_wo_entrp">   -191.52195257 </i>
    <i name="e_0_energy">   -191.60677901 </i>
   </energy>
  </scstep>
  <scstep>
   <time name="dav">   28.18   28.24</time>
   <time name="total">   28.68   28.76</time>
   <energy>
    <i name="e_fr_energy">   -191.69148046 </i>
    <i name="e_wo_entrp">   -191.52130230 </i>
    <i name="e_0_energy">   -191.60639138 </i>
   </energy>
  </scstep>
  <scstep>
   <time name="dav">   28.76   28.83</time>
   <time name="total">   29.27   29.34</time>
   <energy>
    <i name="e_fr_energy">   -191.69103524 </i>
    <i name="e_wo_entrp">   -191.52153854 </i>
    <i name="e_0_energy">   -191.60628689 </i>
   </energy>
  </scstep>
  <scstep>
   <time name="dav">   23.46   23.52</time>
   <time name="total">   23.96   24.03</time>
   <energy>
    <i name="e_fr_energy">   -191.69076200 </i>
    <i name="e_wo_entrp">   -191.52096328 </i>
    <i name="e_0_energy">   -191.60586264 </i>
   </energy>
  </scstep>
  <scstep>
   <time name="dav">   17.64   17.69</time>
   <time name="total">   17.68   17.73</time>
   <energy>
    <i name="alphaZ">     90.12924804 </i>
    <i name="ewald">  44636.21893779 </i>
    <i name="hartreedc"> -50646.46111632 </i>
    <i name="XCdc">   -233.39304547 </i>
    <i name="pawpsdc">   4086.32606472 </i>
    <i name="pawaedc">  -3502.26452524 </i>
    <i name="eentropy">     -0.16955349 </i>
    <i name="bandstr">  -1383.51930241 </i>
    <i name="atom">   6761.44252427 </i>
    <i name="e_fr_energy">   -191.69076811 </i>
    <i name="e_wo_entrp">   -191.52121462 </i>
    <i name="e_0_energy">   -191.60599136 </i>
   </energy>
  </scstep>
  <structure>
   <crystal>
    <varray name="basis" >
     <v>       8.29518122       4.77620277       0.00000000 </v>
     <v>      -8.29196030       4.77061762       0.00000000 </v>
     <v>       0.00000000       0.00000000      30.00000000 </v>
    </varray>
    <i name="volume">   2375.31664343 </i>
    <varray name="rec_basis" >
     <v>       0.06025240       0.10472659       0.00000000 </v>
     <v>      -0.06032294       0.10476727       0.00000000 </v>
     <v>       0.00000000       0.00000000       0.03333333 </v>
    </varray>
   </crystal>
   <varray name="positions" >
    <v>       0.32648450       0.67590217       0.00029468 </v>
    <v>       0.00635312      -0.00637634      -0.00041512 </v>
    <v>       0.99364863       0.33755917       0.00048223 </v>
    <v>      -0.00541868       0.66667984      -0.00001407 </v>
    <v>       0.33984366       0.00407140      -0.00011170 </v>
    <v>       0.66015824       0.33418592      -0.00011451 </v>
    <v>       0.34627047       0.32783743      -0.00026287 </v>
    <v>       0.65654244       0.01019398       0.00014964 </v>
    <v>       0.67406845       0.65192662      -0.00005674 </v>
    <v>       0.10763220       0.22036164       0.95191083 </v>
    <v>       0.21689343       0.10862466       0.05194088 </v>
    <v>       0.11347886       0.55282979       0.94957059 </v>
    <v>       0.22083990       0.44588914       0.04780371 </v>
    <v>       0.10877935       0.89178116       0.94817641 </v>
    <v>       0.22421519       0.77503146       0.05164664 </v>
    <v>       0.44440768       0.22153710       0.94523544 </v>
    <v>       0.55547305       0.11210922       0.05443099 </v>
    <v>       0.44229872       0.55784688       0.95049092 </v>
    <v>       0.55562258       0.44428986       0.05489137 </v>
    <v>       0.44133120       0.88305787       0.94732345 </v>
    <v>       0.55196719       0.77488121       0.04878509 </v>
    <v>       0.78288370       0.22514349       0.94803347 </v>
    <v>       0.89277914       0.11295017       0.04846203 </v>
    <v>       0.77822864       0.55429391       0.94544566 </v>
    <v>       0.89154868       0.44148986       0.05179940 </v>
    <v>       0.78071542       0.89074531       0.95151468 </v>
    <v>       0.89116870       0.78337153       0.05258680 </v>
   </varray>
  </structure>
  <varray name="forces" >
   <v>      -0.60202955       0.02734349      -0.00583968 </v>
   <v>       0.47081648       0.06780306      -0.00519252 </v>
   <v>      -0.39189297      -0.07178219       0.06404487 </v>
   <v>      -0.06231916      -0.12396992      -0.03029147 </v>
   <v>       0.01409115       0.16598545       0.02850414 </v>
   <v>      -0.04332731      -0.05511468      -0.03112070 </v>
   <v>       0.48135602       0.06753865       0.02124337 </v>
   <v>      -0.58892675       0.02245439      -0.00874385 </v>
   <v>       0.55815807      -0.08364958       0.03245165 </v>
   <v>       0.08460155       0.08359879       0.21160415 </v>
   <v>       0.05552724       0.02672147       0.12884812 </v>
   <v>      -0.05404876       0.00513789      -0.09154140 </v>
   <v>       0.09871623       0.04126271      -0.27618658 </v>
   <v>       0.11046321       0.02308726      -0.08410484 </v>
   <v>      -0.15852648      -0.00670227       0.09511591 </v>
   <v>       0.09820645      -0.02396318      -0.23367334 </v>
   <v>      -0.13518014       0.03509252       0.22015280 </v>
   <v>       0.07347196       0.03335043       0.24654690 </v>
   <v>       0.08286669      -0.01250370       0.25770811 </v>
   <v>      -0.08289791       0.00771215      -0.19843871 </v>
   <v>       0.09947482       0.06197365      -0.36297252 </v>
   <v>      -0.07785365      -0.00102860      -0.17018338 </v>
   <v>      -0.04036238      -0.09339602      -0.20571753 </v>
   <v>       0.14286004      -0.02708367      -0.21347119 </v>
   <v>      -0.09966575      -0.01377867       0.08108165 </v>
   <v>      -0.08284455      -0.12344051       0.38039683 </v>
   <v>       0.04926544      -0.03264894       0.14977923 </v>
  </varray>
  <varray name="stress" >
   <v>       0.08459065      -0.00783416      -0.31471473 </v>
   <v>      -0.00783414      -0.13572420       0.03063427 </v>
   <v>      -0.31471465       0.03063430      -0.82704061 </v>
  </varray>
  <energy>
   <i name="e_fr_energy">   -191.69076811 </i>
   <i name="e_wo_entrp">   -191.60599136 </i>
   <i name="e_0_energy">     -0.16955349 </i>
  </energy>
  <time name="totalsc">  285.08  285.83</time>
 </calculation>
 <calculation>
  <scstep>
   <time name="dav">   21.66   21.71</time>
   <time name="total">   22.17   22.22</time>
   <energy>
    <i name="alphaZ">     90.12486377 </i>
    <i name="ewald">  44629.79382964 </i>
    <i name="hartreedc"> -50639.96741678 </i>
    <i name="XCdc">   -233.42421976 </i>
    <i name="pawpsdc">   4086.29706091 </i>
    <i name="pawaedc">  -3502.23531435 </i>
    <i name="eentropy">     -0.16290788 </i>
    <i name="bandstr">  -1383.68649730 </i>
    <i name="atom">   6761.44252427 </i>
    <i name="e_fr_energy">   -191.81807749 </i>
    <i name="e_wo_entrp">   -191.65516961 </i>
    <i name="e_0_energy">   -191.73662355 </i>
   </energy>
  </scstep>
  <scstep>
   <time name="dav">   30.52   30.60</time>
   <time name="total">   31.03   31.11</time>
   <energy>
    <i name="e_fr_energy">   -191.86220830 </i>
    <i name="e_wo_entrp">   -191.68691951 </i>
    <i name="e_0_energy">   -191.77456391 </i>
   </energy>
  </scstep>
  <scstep>
   <time name="dav">   30.58   30.65</time>
   <time name="total">   31.08   31.16</time>
   <energy>
    <i name="e_fr_energy">   -191.83925570 </i>
    <i name="e_wo_entrp">   -191.67794559 </i>
    <i name="e_0_energy">   -191.75860065 </i>
   </energy>
  </scstep>
  <scstep>
   <time name="dav">   29.06   29.13</time>
   <time name="total">   29.56   29.64</time>
   <energy>
    <i name="e_fr_energy">   -191.83557431 </i>
    <i name="e_wo_entrp">   -191.67086857 </i>
    <i name="e_0_energy">   -191.75322144 </i>
   </energy>
  </scstep>
  <scstep>
   <time name="dav">   28.94   29.01</time>
   <time name="total">   29.44   29.52</time>
   <energy>
    <i name="e_fr_energy">   -191.83468732 </i>
    <i name="e_wo_entrp">   -191.67034091 </i>
    <i name="e_0_energy">   -191.75251411 </i>
   </energy>
  </scstep>
  <scstep>
   <time name="dav">   28.88   28.95</time>
   <time name="total">   29.38   29.46</time>
   <energy>
    <i name="e_fr_energy">   -191.83392782 </i>
    <i name="e_wo_entrp">   -191.66929844 </i>
    <i name="e_0_energy">   -191.75161313 </i>
   </energy>
  </scstep>
  <scstep>
   <time name="dav">   26.06   26.12</time>
   <time name="total">   26.56   26.63</time>
   <energy>
    <i name="e_fr_energy">   -191.83306165 </i>
    <i name="e_wo_entrp">   -191.66857495 </i>
    <i name="e_0_energy">   -191.75081830 </i>
   </energy>
  </scstep>
  <scstep>
   <time name="dav">   22.48   22.54</time>
   <time name="total">   22.52   22.58</time>
   <energy>
    <i name="alphaZ">     90.12486377 </i>
    <i name="ewald">  44629.79382964 </i>
    <i name="hartreedc"> -50640.50659124 </i>
    <i name="XCdc">   -233.40094236 </i>
[...]
      <set comment="kpoint 31">
       <r>  -17.5112    1.0000 </r>
       <r>  -17.3047    1.0000 </r>
       <r>  -16.9276    1.0000 </r>
       <r>  -16.6906    1.0000 </r>
       <r>  -16.5007    1.0000 </r>
       <r>  -16.4697    1.0000 </r>
       <r>  -16.3367    1.0000 </r>
       <r>  -16.1829    1.0000 </r>
       <r>  -16.1444    1.0000 </r>
       <r>  -16.0605    1.0000 </r>
       <r>  -15.8774    1.0000 </r>
       <r>  -15.8260    1.0000 </r>
       <r>  -15.7778    1.0000 </r>
       <r>  -15.6780    1.0000 </r>
       <r>  -15.5712    1.0000 </r>
       <r>  -15.4753    1.0000 </r>
       <r>  -15.3623    1.0000 </r>
       <r>  -15.2832    1.0000 </r>
       <r>   -9.7887    1.0000 </r>
       <r>   -9.4691    1.0000 </r>
       <r>   -9.3826    1.0000 </r>
       <r>   -8.9409    1.0000 </r>
       <r>   -8.8187    1.0000 </r>
       <r>   -8.7351    1.0000 </r>
       <r>   -8.6230    1.0000 </r>
       <r>   -8.5626    1.0000 </r>
       <r>   -8.4297    1.0000 </r>
       <r>   -8.3196    1.0000 </r>
       <r>   -8.2582    1.0000 </r>
       <r>   -8.1711    1.0000 </r>
       <r>   -8.1150    1.0000 </r>
       <r>   -8.0550    1.0000 </r>
       <r>   -7.9594    1.0000 </r>
       <r>   -7.8953    1.0000 </r>
       <r>   -7.8349    1.0000 </r>
       <r>   -7.7798    1.0000 </r>
       <r>   -7.6189    1.0000 </r>
       <r>   -7.4635    1.0000 </r>
       <r>   -7.3731    1.0000 </r>
       <r>   -7.3139    1.0000 </r>
       <r>   -7.1389    1.0000 </r>
       <r>   -7.0731    1.0000 </r>
       <r>   -6.9629    1.0000 </r>
       <r>   -6.8803    1.0000 </r>
       <r>   -6.8361    1.0000 </r>
       <r>   -6.7668    1.0000 </r>
       <r>   -6.6959    1.0000 </r>
       <r>   -6.5645    1.0000 </r>
       <r>   -6.5162    1.0000 </r>
       <r>   -6.5013    1.0000 </r>
       <r>   -6.4130    1.0000 </r>
       <r>   -6.3364    1.0000 </r>
       <r>   -6.2626    1.0000 </r>
       <r>   -6.2242    1.0000 </r>
       <r>   -6.0770    1.0000 </r>
       <r>   -6.0148    1.0000 </r>
       <r>   -5.9877    1.0000 </r>
       <r>   -5.9572    1.0000 </r>
       <r>   -5.8653    1.0000 </r>
       <r>   -5.6911    1.0000 </r>
       <r>   -5.6414    1.0000 </r>
       <r>   -5.5607    1.0000 </r>
       <r>   -5.5149    1.0000 </r>
       <r>   -5.3963    1.0000 </r>
       <r>   -5.2723    1.0000 </r>
       <r>   -5.2091    1.0000 </r>
       <r>   -4.9545    1.0000 </r>
       <r>   -4.8729    1.0000 </r>
       <r>   -4.8002    1.0000 </r>
       <r>   -4.7164    1.0000 </r>
       <r>   -4.5491    1.0000 </r>
       <r>   -4.4646    1.0000 </r>
       <r>   -4.3850    1.0000 </r>
       <r>   -4.2751    1.0000 </r>
       <r>   -4.1481    1.0000 </r>
       <r>   -4.1086    1.0000 </r>
       <r>   -3.8468    1.0000 </r>
       <r>   -3.7162    0.9998 </r>
       <r>   -3.5859    0.9951 </r>
       <r>   -3.1496    0.3082 </r>
       <r>   -2.9621    0.0339 </r>
       <r>   -2.8514    0.0045 </r>
       <r>   -2.7181    0.0002 </r>
       <r>   -2.6014    0.0000 </r>
       <r>   -2.5301    0.0000 </r>
       <r>   -2.3526    0.0000 </r>
       <r>   -2.1744    0.0000 </r>
       <r>   -2.0955    0.0000 </r>
       <r>   -2.0218    0.0000 </r>
       <r>   -1.9280    0.0000 </r>
       <r>   -1.7067    0.0000 </r>
       <r>   -1.5004    0.0000 </r>
       <r>   -1.3509    0.0000 </r>
       <r>   -1.3250    0.0000 </r>
       <r>   -1.2494    0.0000 </r>
       <r>   -1.1803    0.0000 </r>
       <r>   -1.0790    0.0000 </r>
       <r>   -0.9702    0.0000 </r>
       <r>   -0.8897    0.0000 </r>
       <r>   -0.8551    0.0000 </r>
       <r>   -0.7790    0.0000 </r>
       <r>   -0.7504    0.0000 </r>
       <r>   -0.6759    0.0000 </r>
       <r>   -0.6223    0.0000 </r>
       <r>   -0.4955    0.0000 </r>
       <r>   -0.3962    0.0000 </r>
       <r>   -0.3218    0.0000 </r>
       <r>   -0.0560    0.0000 </r>
       <r>   -0.0171    0.0000 </r>
       <r>    0.2464    0.0000 </r>
       <r>    0.4600    0.0000 </r>
       <r>    0.5821    0.0000 </r>
       <r>    0.8902    0.0000 </r>
       <r>    0.9461    0.0000 </r>
       <r>    1.0556    0.0000 </r>
       <r>    1.2001    0.0000 </r>
       <r>    1.5231    0.0000 </r>
       <r>    2.1481    0.0000 </r>
       <r>    2.3084    0.0000 </r>
       <r>    2.4150    0.0000 </r>
      </set>
      <set comment="kpoint 32">
       <r>  -17.5360    1.0000 </r>
       <r>  -17.2266    1.0000 </r>
       <r>  -17.0299    1.0000 </r>
       <r>  -16.6998    1.0000 </r>
       <r>  -16.4579    1.0000 </r>
       <r>  -16.3712    1.0000 </r>
       <r>  -16.3231    1.0000 </r>
       <r>  -16.2449    1.0000 </r>
       <r>  -16.1246    1.0000 </r>
       <r>  -16.0410    1.0000 </r>
       <r>  -15.9442    1.0000 </r>
       <r>  -15.8553    1.0000 </r>
       <r>  -15.7744    1.0000 </r>
       <r>  -15.6767    1.0000 </r>
       <r>  -15.5685    1.0000 </r>
       <r>  -15.5154    1.0000 </r>
       <r>  -15.3493    1.0000 </r>
       <r>  -15.2432    1.0000 </r>
       <r>   -9.7473    1.0000 </r>
       <r>   -9.5774    1.0000 </r>
       <r>   -9.3980    1.0000 </r>
       <r>   -8.9731    1.0000 </r>
       <r>   -8.7377    1.0000 </r>
       <r>   -8.6269    1.0000 </r>
       <r>   -8.5311    1.0000 </r>
       <r>   -8.4563    1.0000 </r>
       <r>   -8.4101    1.0000 </r>
       <r>   -8.3775    1.0000 </r>
       <r>   -8.3025    1.0000 </r>
       <r>   -8.2433    1.0000 </r>
       <r>   -8.1324    1.0000 </r>
       <r>   -8.1012    1.0000 </r>
       <r>   -8.0472    1.0000 </r>
       <r>   -7.9180    1.0000 </r>
       <r>   -7.7964    1.0000 </r>
       <r>   -7.7744    1.0000 </r>
       <r>   -7.6255    1.0000 </r>
       <r>   -7.4322    1.0000 </r>
       <r>   -7.3484    1.0000 </r>
       <r>   -7.2420    1.0000 </r>
       <r>   -7.1976    1.0000 </r>
       <r>   -7.1401    1.0000 </r>
       <r>   -7.0261    1.0000 </r>
       <r>   -6.8792    1.0000 </r>
       <r>   -6.8394    1.0000 </r>
       <r>   -6.7190    1.0000 </r>
       <r>   -6.6548    1.0000 </r>
       <r>   -6.5932    1.0000 </r>
       <r>   -6.5181    1.0000 </r>
       <r>   -6.4563    1.0000 </r>
       <r>   -6.3995    1.0000 </r>
       <r>   -6.3576    1.0000 </r>
       <r>   -6.2578    1.0000 </r>
       <r>   -6.2255    1.0000 </r>
       <r>   -6.1291    1.0000 </r>
       <r>   -6.0229    1.0000 </r>
       <r>   -5.9588    1.0000 </r>
       <r>   -5.8839    1.0000 </r>
       <r>   -5.8423    1.0000 </r>
       <r>   -5.7017    1.0000 </r>
       <r>   -5.6182    1.0000 </r>
       <r>   -5.5790    1.0000 </r>
       <r>   -5.4939    1.0000 </r>
       <r>   -5.4054    1.0000 </r>
       <r>   -5.3730    1.0000 </r>
       <r>   -5.1877    1.0000 </r>
       <r>   -5.1384    1.0000 </r>
       <r>   -4.8575    1.0000 </r>
       <r>   -4.7588    1.0000 </r>
       <r>   -4.6617    1.0000 </r>
       <r>   -4.5085    1.0000 </r>
       <r>   -4.4739    1.0000 </r>
       <r>   -4.3955    1.0000 </r>
       <r>   -4.2630    1.0000 </r>
       <r>   -4.1910    1.0000 </r>
       <r>   -4.0933    1.0000 </r>
       <r>   -3.9381    1.0000 </r>
       <r>   -3.6726    0.9993 </r>
       <r>   -3.5357    0.9871 </r>
       <r>   -3.1563    0.3251 </r>
       <r>   -2.9016    0.0121 </r>
       <r>   -2.8285    0.0028 </r>
       <r>   -2.7204    0.0002 </r>
       <r>   -2.5669    0.0000 </r>
       <r>   -2.5044    0.0000 </r>
       <r>   -2.3659    0.0000 </r>
       <r>   -2.1187    0.0000 </r>
       <r>   -2.0660    0.0000 </r>
       <r>   -2.0081    0.0000 </r>
       <r>   -1.9421    0.0000 </r>
       <r>   -1.6943    0.0000 </r>
       <r>   -1.5225    0.0000 </r>
       <r>   -1.4180    0.0000 </r>
       <r>   -1.3967    0.0000 </r>
       <r>   -1.2779    0.0000 </r>
       <r>   -1.1789    0.0000 </r>
       <r>   -1.0777    0.0000 </r>
       <r>   -0.9815    0.0000 </r>
       <r>   -0.9528    0.0000 </r>
       <r>   -0.8649    0.0000 </r>
       <r>   -0.7922    0.0000 </r>
       <r>   -0.7328    0.0000 </r>
       <r>   -0.6483    0.0000 </r>
       <r>   -0.6301    0.0000 </r>
       <r>   -0.4929    0.0000 </r>
       <r>   -0.3414    0.0000 </r>
       <r>   -0.2212    0.0000 </r>
       <r>   -0.0300    0.0000 </r>
       <r>    0.0417    0.0000 </r>
       <r>    0.1873    0.0000 </r>
       <r>    0.4854    0.0000 </r>
       <r>    0.5965    0.0000 </r>
       <r>    0.8317    0.0000 </r>
       <r>    0.9183    0.0000 </r>
       <r>    1.0638    0.0000 </r>
       <r>    1.1864    0.0000 </r>
       <r>    1.3973    0.0000 </r>
       <r>    2.1099    0.0000 </r>
       <r>    2.2806    0.0000 </r>
       <r>    2.5760    0.0000 </r>
      </set>
      <set comment="kpoint 33">
       <r>  -17.5251    1.0000 </r>
       <r>  -17.3023    1.0000 </r>
       <r>  -16.9077    1.0000 </r>
       <r>  -16.7063    1.0000 </r>
       <r>  -16.4924    1.0000 </r>
       <r>  -16.4343    1.0000 </r>
       <r>  -16.3334    1.0000 </r>
       <r>  -16.2400    1.0000 </r>
       <r>  -16.0670    1.0000 </r>
       <r>  -15.9971    1.0000 </r>
       <r>  -15.9573    1.0000 </r>
       <r>  -15.8621    1.0000 </r>
       <r>  -15.7733    1.0000 </r>
       <r>  -15.6755    1.0000 </r>
       <r>  -15.6010    1.0000 </r>
       <r>  -15.5538    1.0000 </r>
       <r>  -15.3163    1.0000 </r>
       <r>  -15.2393    1.0000 </r>
       <r>   -9.8036    1.0000 </r>
       <r>   -9.5087    1.0000 </r>
       <r>   -9.2825    1.0000 </r>
       <r>   -9.0117    1.0000 </r>
       <r>   -8.9089    1.0000 </r>
       <r>   -8.6838    1.0000 </r>
       <r>   -8.5391    1.0000 </r>
       <r>   -8.4562    1.0000 </r>
       <r>   -8.4033    1.0000 </r>
       <r>   -8.3186    1.0000 </r>
       <r>   -8.2916    1.0000 </r>
       <r>   -8.2130    1.0000 </r>
       <r>   -8.1517    1.0000 </r>
       <r>   -8.1063    1.0000 </r>
       <r>   -8.0365    1.0000 </r>
       <r>   -7.8803    1.0000 </r>
       <r>   -7.7663    1.0000 </r>
       <r>   -7.7099    1.0000 </r>
       <r>   -7.6276    1.0000 </r>
       <r>   -7.3933    1.0000 </r>
       <r>   -7.3584    1.0000 </r>
       <r>   -7.2194    1.0000 </r>
       <r>   -7.1694    1.0000 </r>
       <r>   -7.1123    1.0000 </r>
       <r>   -7.0701    1.0000 </r>
       <r>   -6.8617    1.0000 </r>
       <r>   -6.8435    1.0000 </r>
       <r>   -6.7763    1.0000 </r>
       <r>   -6.6284    1.0000 </r>
       <r>   -6.5986    1.0000 </r>
       <r>   -6.5329    1.0000 </r>
       <r>   -6.4862    1.0000 </r>
       <r>   -6.4101    1.0000 </r>
       <r>   -6.3728    1.0000 </r>
       <r>   -6.2554    1.0000 </r>
       <r>   -6.2065    1.0000 </r>
       <r>   -6.1205    1.0000 </r>
       <r>   -6.0594    1.0000 </r>
       <r>   -6.0123    1.0000 </r>
       <r>   -5.9284    1.0000 </r>
       <r>   -5.8665    1.0000 </r>
       <r>   -5.7665    1.0000 </r>
       <r>   -5.6573    1.0000 </r>
       <r>   -5.5688    1.0000 </r>
       <r>   -5.4926    1.0000 </r>
       <r>   -5.4236    1.0000 </r>
       <r>   -5.3034    1.0000 </r>
       <r>   -5.2034    1.0000 </r>
       <r>   -5.0705    1.0000 </r>
       <r>   -4.8329    1.0000 </r>
       <r>   -4.8114    1.0000 </r>
       <r>   -4.5917    1.0000 </r>
       <r>   -4.5564    1.0000 </r>
       <r>   -4.4617    1.0000 </r>
       <r>   -4.3481    1.0000 </r>
       <r>   -4.2455    1.0000 </r>
       <r>   -4.1536    1.0000 </r>
       <r>   -4.0926    1.0000 </r>
       <r>   -4.0138    1.0000 </r>
       <r>   -3.6923    0.9996 </r>
       <r>   -3.5423    0.9886 </r>
       <r>   -3.1030    0.2031 </r>
       <r>   -2.9575    0.0315 </r>
       <r>   -2.7945    0.0013 </r>
       <r>   -2.6780    0.0001 </r>
       <r>   -2.5516    0.0000 </r>
       <r>   -2.4615    0.0000 </r>
       <r>   -2.3715    0.0000 </r>
       <r>   -2.0743    0.0000 </r>
       <r>   -2.0302    0.0000 </r>
       <r>   -1.9990    0.0000 </r>
       <r>   -1.8757    0.0000 </r>
       <r>   -1.6936    0.0000 </r>
       <r>   -1.5712    0.0000 </r>
       <r>   -1.4955    0.0000 </r>
       <r>   -1.4275    0.0000 </r>
       <r>   -1.3150    0.0000 </r>
       <r>   -1.1923    0.0000 </r>
       <r>   -1.0711    0.0000 </r>
       <r>   -1.0438    0.0000 </r>
       <r>   -0.9671    0.0000 </r>
       <r>   -0.8934    0.0000 </r>
       <r>   -0.8352    0.0000 </r>
       <r>   -0.6982    0.0000 </r>
       <r>   -0.6460    0.0000 </r>
       <r>   -0.6191    0.0000 </r>
       <r>   -0.4450    0.0000 </r>
       <r>   -0.2949    0.0000 </r>
       <r>   -0.1633    0.0000 </r>
       <r>   -0.0132    0.0000 </r>
       <r>    0.0489    0.0000 </r>
       <r>    0.1238    0.0000 </r>
       <r>    0.4531    0.0000 </r>
       <r>    0.7160    0.0000 </r>
       <r>    0.8097    0.0000 </r>
       <r>    0.9068    0.0000 </r>
       <r>    1.0646    0.0000 </r>
       <r>    1.2124    0.0000 </r>
       <r>    1.2822    0.0000 </r>
       <r>    2.1324    0.0000 </r>
       <r>    2.3178    0.0000 </r>
       <r>    2.3807    0.0000 </r>
      </set>
      <set comment="kpoint 34">
       <r>  -17.5049    1.0000 </r>
       <r>  -17.3591    1.0000 </r>
       <r>  -16.7589    1.0000 </r>
       <r>  -16.6788    1.0000 </r>
       <r>  -16.6721    1.0000 </r>
       <r>  -16.4358    1.0000 </r>
       <r>  -16.3301    1.0000 </r>
       <r>  -16.2393    1.0000 </r>
       <r>  -16.0444    1.0000 </r>
       <r>  -15.9950    1.0000 </r>
       <r>  -15.9366    1.0000 </r>
       <r>  -15.8455    1.0000 </r>
       <r>  -15.7222    1.0000 </r>
       <r>  -15.7083    1.0000 </r>
       <r>  -15.6545    1.0000 </r>
       <r>  -15.5562    1.0000 </r>
       <r>  -15.2894    1.0000 </r>
       <r>  -15.2546    1.0000 </r>
       <r>   -9.8371    1.0000 </r>
       <r>   -9.4164    1.0000 </r>
       <r>   -9.1696    1.0000 </r>
       <r>   -9.1064    1.0000 </r>
       <r>   -8.9541    1.0000 </r>
       <r>   -8.8277    1.0000 </r>
       <r>   -8.5374    1.0000 </r>
       <r>   -8.4611    1.0000 </r>
       <r>   -8.4187    1.0000 </r>
       <r>   -8.3029    1.0000 </r>
       <r>   -8.2777    1.0000 </r>
       <r>   -8.1957    1.0000 </r>
       <r>   -8.1468    1.0000 </r>
       <r>   -8.1067    1.0000 </r>
       <r>   -7.9655    1.0000 </r>
       <r>   -7.8813    1.0000 </r>
       <r>   -7.7769    1.0000 </r>
       <r>   -7.7362    1.0000 </r>
       <r>   -7.5233    1.0000 </r>
       <r>   -7.3526    1.0000 </r>
       <r>   -7.3104    1.0000 </r>
       <r>   -7.2371    1.0000 </r>
       <r>   -7.1265    1.0000 </r>
       <r>   -7.0824    1.0000 </r>
       <r>   -7.0550    1.0000 </r>
       <r>   -7.0429    1.0000 </r>
       <r>   -6.8169    1.0000 </r>
       <r>   -6.7465    1.0000 </r>
       <r>   -6.6172    1.0000 </r>
       <r>   -6.5829    1.0000 </r>
       <r>   -6.5607    1.0000 </r>
       <r>   -6.5302    1.0000 </r>
       <r>   -6.4531    1.0000 </r>
       <r>   -6.3387    1.0000 </r>
       <r>   -6.2595    1.0000 </r>
       <r>   -6.2211    1.0000 </r>
       <r>   -6.1680    1.0000 </r>
       <r>   -6.0746    1.0000 </r>
       <r>   -6.0442    1.0000 </r>
       <r>   -5.8810    1.0000 </r>
       <r>   -5.8395    1.0000 </r>
       <r>   -5.7937    1.0000 </r>
       <r>   -5.7036    1.0000 </r>
       <r>   -5.6125    1.0000 </r>
       <r>   -5.5327    1.0000 </r>
       <r>   -5.4020    1.0000 </r>
       <r>   -5.2781    1.0000 </r>
       <r>   -5.1906    1.0000 </r>
       <r>   -4.9556    1.0000 </r>
       <r>   -4.8684    1.0000 </r>
       <r>   -4.7926    1.0000 </r>
       <r>   -4.6593    1.0000 </r>
       <r>   -4.5140    1.0000 </r>
       <r>   -4.4457    1.0000 </r>
       <r>   -4.3566    1.0000 </r>
       <r>   -4.2299    1.0000 </r>
       <r>   -4.1564    1.0000 </r>
       <r>   -4.0491    1.0000 </r>
       <r>   -4.0241    1.0000 </r>
       <r>   -3.7287    0.9998 </r>
       <r>   -3.5523    0.9905 </r>
       <r>   -3.0945    0.1865 </r>
       <r>   -2.9872    0.0495 </r>
       <r>   -2.7688    0.0007 </r>
       <r>   -2.6633    0.0000 </r>
       <r>   -2.5472    0.0000 </r>
       <r>   -2.4514    0.0000 </r>
       <r>   -2.3640    0.0000 </r>
       <r>   -2.0540    0.0000 </r>
       <r>   -2.0207    0.0000 </r>
       <r>   -1.9806    0.0000 </r>
       <r>   -1.8246    0.0000 </r>
       <r>   -1.7005    0.0000 </r>
       <r>   -1.6205    0.0000 </r>
       <r>   -1.5101    0.0000 </r>
       <r>   -1.4351    0.0000 </r>
       <r>   -1.3300    0.0000 </r>
       <r>   -1.2128    0.0000 </r>
       <r>   -1.0684    0.0000 </r>
       <r>   -1.0608    0.0000 </r>
       <r>   -0.9733    0.0000 </r>
       <r>   -0.9085    0.0000 </r>
       <r>   -0.8555    0.0000 </r>
       <r>   -0.6833    0.0000 </r>
       <r>   -0.6456    0.0000 </r>
       <r>   -0.6237    0.0000 </r>
       <r>   -0.4083    0.0000 </r>
       <r>   -0.2800    0.0000 </r>
       <r>   -0.1650    0.0000 </r>
       <r>    0.0153    0.0000 </r>
       <r>    0.0281    0.0000 </r>
       <r>    0.0982    0.0000 </r>
       <r>    0.4355    0.0000 </r>
       <r>    0.7623    0.0000 </r>
       <r>    0.8315    0.0000 </r>
       <r>    0.9139    0.0000 </r>
       <r>    1.0639    0.0000 </r>
       <r>    1.1973    0.0000 </r>
       <r>    1.2663    0.0000 </r>
       <r>    2.1908    0.0000 </r>
       <r>    2.2565    0.0000 </r>
       <r>    2.4093    0.0000 </r>
      </set>
     </set>
    </set>
   </array>
  </eigenvalues>
  <separator name="orbital magnetization" >
   <v name="MAGDIPOLOUT">      0.00000000      0.00000000      0.00000000</v>
  </separator>
 </calculation>
 <structure name="finalpos" >
  <crystal>
   <varray name="basis" >
    <v>       8.33965689       4.80238197       0.00000000 </v>
    <v>      -8.33435014       4.79310893       0.00000000 </v>
    <v>       0.00000000       0.00000000      30.00000000 </v>
   </varray>
   <i name="volume">   2399.92850325 </i>
   <varray name="rec_basis" >
    <v>       0.05991565       0.10418248       0.00000000 </v>
    <v>      -0.06003156       0.10424882       0.00000000 </v>
    <v>       0.00000000       0.00000000       0.03333333 </v>
   </varray>
  </crystal>
  <varray name="positions" >
   <v>       0.31237988       0.68585352      -0.00284573 </v>
   <v>       0.01880607      -0.02013023       0.00293469 </v>
   <v>       0.98346071       0.34913695      -0.00170034 </v>
   <v>      -0.02105881       0.64938243      -0.00010241 </v>
   <v>       0.35380214       0.02000604      -0.00006631 </v>
   <v>       0.66209760       0.33392317      -0.00024714 </v>
   <v>       0.35356264       0.31862598       0.00159022 </v>
   <v>       0.65174095       0.02077390      -0.00147034 </v>
   <v>       0.68087885       0.64440790       0.00185057 </v>
   <v>       0.10838308       0.21820171       0.95781321 </v>
   <v>       0.22278063       0.10863668       0.05522332 </v>
   <v>       0.10772054       0.55303878       0.94612414 </v>
   <v>       0.22193426       0.44779828       0.04226129 </v>
   <v>       0.11300251       0.88719503       0.94975107 </v>
   <v>       0.21970512       0.77975434       0.04993459 </v>
   <v>       0.44831266       0.22321853       0.94346040 </v>
   <v>       0.55744780       0.11627023       0.05610938 </v>
   <v>       0.44236789       0.55770636       0.95511948 </v>
   <v>       0.55679935       0.44272991       0.05739760 </v>
   <v>       0.44188221       0.88983466       0.94473838 </v>
   <v>       0.55028779       0.77481416       0.04292241 </v>
   <v>       0.78196908       0.22650971       0.94502058 </v>
   <v>       0.89281807       0.11241940       0.04369772 </v>
   <v>       0.77607416       0.55128407       0.94366753 </v>
   <v>       0.88872813       0.44021295       0.05382419 </v>
   <v>       0.78198598       0.89058414       0.95730377 </v>
   <v>       0.89034518       0.77602584       0.05568763 </v>
  </varray>
 </structure>
</modeling>
