   27   27  100    1
  0.9710400E+02  0.1002848E-08  0.1002848E-08  0.3000000E-08  0.5000000E-15
  1.000000000000000E-004
  CAR 
 unknown system                          
    159     34    120
 
  0.0000000E+00  0.0000000E+00  0.0000000E+00  0.1562500E-01
    1      -17.797482   1.000000
    2      -16.671472   1.000000
    3      -16.632552   1.000000
    4      -16.589108   1.000000
    5      -16.511435   1.000000
    6      -16.430360   1.000000
    7      -16.349192   1.000000
    8      -16.294984   1.000000
    9      -16.161881   1.000000
   10      -16.125896   1.000000
   11      -16.022606   1.000000
   12      -16.001800   1.000000
   13      -15.913354   1.000000
   14      -15.815938   1.000000
   15      -15.520948   1.000000
   16      -15.477448   1.000000
   17      -15.392846   1.000000
   18      -15.296487   1.000000
   19       -9.284710   1.000000
   20       -8.908848   1.000000
   21       -8.868467   1.000000
   22       -8.825410   1.000000
   23       -8.766047   1.000000
   24       -8.671866   1.000000
   25       -8.661530   1.000000
   26       -8.526356   1.000000
   27       -8.484265   1.000000
   28       -8.400287   1.000000
   29       -8.396638   1.000000
   30       -8.342305   1.000000
   31       -8.324105   1.000000
   32       -8.292964   1.000000
   33       -8.275440   1.000000
   34       -8.090307   1.000000
   35       -7.776969   1.000000
   36       -7.747364   1.000000
   37       -7.721507   1.000000
   38       -7.589405   1.000000
   39       -7.506252   1.000000
   40       -7.376910   1.000000
   41       -7.312670   1.000000
   42       -7.155272   1.000000
   43       -7.129668   1.000000
   44       -6.891863   1.000000
   45       -6.836887   1.000000
   46       -6.710061   1.000000
   47       -6.657717   1.000000
   48       -6.620055   1.000000
   49       -6.593471   1.000000
   50       -6.483518   1.000000
   51       -6.472366   1.000000
   52       -6.441684   1.000000
   53       -6.312983   1.000000
   54       -6.309875   1.000000
   55       -6.256347   1.000000
   56       -6.038108   1.000000
   57       -5.973683   1.000000
   58       -5.951562   1.000000
   59       -5.685979   1.000000
   60       -5.649431   1.000000
   61       -5.570808   1.000000
   62       -5.353924   1.000000
   63       -5.250380   1.000000
   64       -5.245387   1.000000
   65       -4.984866   1.000000
   66       -4.932601   1.000000
   67       -4.917618   1.000000
   68       -4.841023   1.000000
   69       -4.808029   1.000000
   70       -4.765802   1.000000
   71       -4.611332   1.000000
   72       -4.597818   1.000000
   73       -4.434787   1.000000
   74       -4.329853   1.000000
   75       -4.210725   1.000000
   76       -4.030719   1.000000
   77       -3.775629   0.999640
   78       -3.518281   0.940878
   79       -3.507693   0.931534
   80       -3.393105   0.750816
   81       -3.310653   0.537460
   82       -2.829586   0.000470
   83       -2.662619   0.000004
   84       -2.601725   0.000000
   85       -2.578493   0.000000
   86       -2.493487   0.000000
   87       -2.389333   0.000000
   88       -2.315336   0.000000
   89       -2.174858   0.000000
   90       -2.138770   0.000000
   91       -1.740078   0.000000
   92       -1.605432   0.000000
   93       -1.401321   0.000000
   94       -1.371489   0.000000
   95       -1.299836   0.000000
   96       -1.165822   0.000000
   97       -0.998891   0.000000
   98       -0.984112   0.000000
   99       -0.664421   0.000000
  100       -0.638441   0.000000
  101       -0.551849   0.000000
  102       -0.531774   0.000000
  103       -0.451378   0.000000
  104       -0.308843   0.000000
  105       -0.136970   0.000000
  106       -0.103808   0.000000
  107        0.038735   0.000000
  108        0.045575   0.000000
  109        0.146175   0.000000
  110        0.225771   0.000000
  111        0.278555   0.000000
  112        0.531538   0.000000
  113        0.655478   0.000000
  114        0.842962   0.000000
  115        0.958188   0.000000
  116        1.010469   0.000000
  117        1.023925   0.000000
  118        1.648231   0.000000
  119        1.835515   0.000000
  120        2.158520   0.000000
 
  0.1250000E+00  0.2775558E-16  0.0000000E+00  0.3125000E-01
    1      -17.773241   1.000000
    2      -16.760225   1.000000
    3      -16.625868   1.000000
    4      -16.616235   1.000000
    5      -16.560304   1.000000
    6      -16.435040   1.000000
    7      -16.301426   1.000000
    8      -16.252378   1.000000
    9      -16.158117   1.000000
   10      -16.132454   1.000000
   11      -16.056665   1.000000
   12      -15.900075   1.000000
   13      -15.891050   1.000000
   14      -15.802848   1.000000
   15      -15.542388   1.000000
   16      -15.489248   1.000000
   17      -15.394386   1.000000
   18      -15.301702   1.000000
   19       -9.291681   1.000000
   20       -9.097174   1.000000
   21       -8.961001   1.000000
   22       -8.913022   1.000000
   23       -8.799765   1.000000
   24       -8.751243   1.000000
   25       -8.652040   1.000000
   26       -8.515386   1.000000
   27       -8.470279   1.000000
   28       -8.437120   1.000000
   29       -8.374037   1.000000
   30       -8.291721   1.000000
   31       -8.209570   1.000000
   32       -8.188344   1.000000
   33       -8.098308   1.000000
   34       -7.935337   1.000000
   35       -7.821847   1.000000
   36       -7.730135   1.000000
   37       -7.619083   1.000000
   38       -7.607160   1.000000
   39       -7.548747   1.000000
   40       -7.338524   1.000000
   41       -7.304094   1.000000
   42       -7.163060   1.000000
   43       -7.159384   1.000000
   44       -6.923255   1.000000
   45       -6.847157   1.000000
   46       -6.762084   1.000000
   47       -6.756999   1.000000
   48       -6.564423   1.000000
   49       -6.547384   1.000000
   50       -6.502072   1.000000
   51       -6.414303   1.000000
   52       -6.408463   1.000000
   53       -6.373283   1.000000
   54       -6.299859   1.000000
   55       -6.234821   1.000000
   56       -6.077174   1.000000
   57       -5.984100   1.000000
   58       -5.904800   1.000000
   59       -5.672194   1.000000
   60       -5.622672   1.000000
   61       -5.532966   1.000000
   62       -5.375934   1.000000
   63       -5.320568   1.000000
   64       -5.293629   1.000000
   65       -5.137990   1.000000
   66       -5.072621   1.000000
   67       -4.918652   1.000000
   68       -4.805642   1.000000
   69       -4.799886   1.000000
   70       -4.665175   1.000000
   71       -4.650762   1.000000
   72       -4.527231   1.000000
   73       -4.380550   1.000000
   74       -4.319010   1.000000
   75       -4.165914   1.000000
   76       -3.897167   0.999989
   77       -3.851911   0.999956
   78       -3.660435   0.994876
   79       -3.627984   0.990304
   80       -3.313756   0.546165
   81       -3.202405   0.250985
   82       -2.835299   0.000543
   83       -2.698993   0.000012
   84       -2.609481   0.000001
   85       -2.570784   0.000000
   86       -2.450421   0.000000
   87       -2.384192   0.000000
   88       -2.280384   0.000000
   89       -2.173351   0.000000
   90       -2.146678   0.000000
   91       -1.737557   0.000000
   92       -1.562238   0.000000
   93       -1.441768   0.000000
   94       -1.347058   0.000000
   95       -1.269741   0.000000
   96       -1.164274   0.000000
   97       -1.004878   0.000000
   98       -0.970957   0.000000
   99       -0.740161   0.000000
  100       -0.704156   0.000000
  101       -0.636389   0.000000
  102       -0.584117   0.000000
  103       -0.455605   0.000000
  104       -0.343836   0.000000
  105       -0.230502   0.000000
  106       -0.170485   0.000000
  107       -0.024589   0.000000
  108        0.074961   0.000000
  109        0.175904   0.000000
  110        0.206887   0.000000
  111        0.369432   0.000000
  112        0.557242   0.000000
  113        0.704462   0.000000
  114        0.863318   0.000000
  115        0.962234   0.000000
  116        0.981855   0.000000
  117        1.055655   0.000000
  118        1.691199   0.000000
  119        1.873092   0.000000
  120        2.193593   0.000000
 
  0.2500000E+00  0.5551115E-16  0.0000000E+00  0.3125000E-01
    1      -17.702700   1.000000
    2      -16.948503   1.000000
    3      -16.665604   1.000000
    4      -16.659688   1.000000
    5      -16.589490   1.000000
    6      -16.408643   1.000000
    7      -16.275333   1.000000
    8      -16.177386   1.000000
    9      -16.170433   1.000000
   10      -16.127483   1.000000
   11      -16.016384   1.000000
   12      -15.869995   1.000000
   13      -15.803358   1.000000
   14      -15.719350   1.000000
   15      -15.594876   1.000000
   16      -15.515058   1.000000
   17      -15.402908   1.000000
   18      -15.316814   1.000000
   19       -9.496209   1.000000
   20       -9.161970   1.000000
   21       -9.110768   1.000000
   22       -9.083458   1.000000
   23       -8.853678   1.000000
   24       -8.828899   1.000000
   25       -8.640511   1.000000
   26       -8.477730   1.000000
   27       -8.437257   1.000000
   28       -8.416608   1.000000
   29       -8.336726   1.000000
   30       -8.245171   1.000000
   31       -8.083000   1.000000
   32       -7.998667   1.000000
   33       -7.961607   1.000000
   34       -7.878417   1.000000
   35       -7.758873   1.000000
   36       -7.686834   1.000000
   37       -7.604842   1.000000
   38       -7.531764   1.000000
   39       -7.413125   1.000000
   40       -7.333869   1.000000
   41       -7.273286   1.000000
   42       -7.175858   1.000000
   43       -7.109756   1.000000
   44       -6.903676   1.000000
   45       -6.875555   1.000000
   46       -6.830924   1.000000
   47       -6.781478   1.000000
   48       -6.601088   1.000000
   49       -6.572103   1.000000
   50       -6.546407   1.000000
   51       -6.439680   1.000000
   52       -6.353583   1.000000
   53       -6.258403   1.000000
   54       -6.217681   1.000000
   55       -6.155709   1.000000
   56       -6.151530   1.000000
   57       -6.002157   1.000000
   58       -5.844973   1.000000
   59       -5.723709   1.000000
   60       -5.692612   1.000000
   61       -5.601282   1.000000
   62       -5.485513   1.000000
   63       -5.468414   1.000000
   64       -5.324437   1.000000
   65       -5.285460   1.000000
   66       -5.182302   1.000000
   67       -4.909536   1.000000
   68       -4.796532   1.000000
   69       -4.766947   1.000000
   70       -4.725199   1.000000
   71       -4.532207   1.000000
   72       -4.392959   1.000000
   73       -4.342370   1.000000
   74       -4.225046   1.000000
   75       -4.173285   1.000000
   76       -4.002521   1.000000
   77       -3.877505   0.999980
   78       -3.693860   0.997474
   79       -3.639903   0.992286
   80       -3.279086   0.448609
   81       -3.093200   0.074427
   82       -2.831318   0.000491
   83       -2.761042   0.000075
   84       -2.617552   0.000001
   85       -2.530831   0.000000
   86       -2.466476   0.000000
   87       -2.311320   0.000000
   88       -2.226761   0.000000
   89       -2.165998   0.000000
   90       -2.110717   0.000000
   91       -1.735301   0.000000
   92       -1.516501   0.000000
   93       -1.463078   0.000000
   94       -1.294368   0.000000
   95       -1.244947   0.000000
   96       -1.173707   0.000000
   97       -1.074887   0.000000
   98       -0.940774   0.000000
   99       -0.892298   0.000000
  100       -0.848123   0.000000
  101       -0.758340   0.000000
  102       -0.639838   0.000000
  103       -0.536232   0.000000
  104       -0.503951   0.000000
  105       -0.296241   0.000000
  106       -0.236889   0.000000
  107       -0.108171   0.000000
  108        0.037404   0.000000
  109        0.171497   0.000000
  110        0.208604   0.000000
  111        0.346278   0.000000
  112        0.628704   0.000000
  113        0.754786   0.000000
  114        0.942869   0.000000
  115        0.954603   0.000000
  116        1.049366   0.000000
  117        1.143777   0.000000
  118        1.812121   0.000000
  119        1.981632   0.000000
  120        2.297821   0.000000
 
  0.3750000E+00  0.0000000E+00  0.0000000E+00  0.3125000E-01
    1      -17.596661   1.000000
    2      -17.147174   1.000000
    3      -16.703960   1.000000
    4      -16.701931   1.000000
    5      -16.573840   1.000000
    6      -16.410579   1.000000
    7      -16.250236   1.000000
    8      -16.195610   1.000000
    9      -16.172652   1.000000
   10      -16.038958   1.000000
   11      -15.947345   1.000000
   12      -15.855327   1.000000
   13      -15.783623   1.000000
   14      -15.651583   1.000000
   15      -15.641579   1.000000
   16      -15.506590   1.000000
   17      -15.416954   1.000000
   18      -15.338961   1.000000
   19       -9.712540   1.000000
   20       -9.266911   1.000000
   21       -9.207757   1.000000
   22       -9.053125   1.000000
   23       -8.933041   1.000000
   24       -8.833452   1.000000
   25       -8.615009   1.000000
   26       -8.452983   1.000000
   27       -8.402762   1.000000
   28       -8.384683   1.000000
   29       -8.296745   1.000000
   30       -8.226710   1.000000
   31       -8.083500   1.000000
   32       -7.981261   1.000000
   33       -7.891802   1.000000
   34       -7.805200   1.000000
   35       -7.795981   1.000000
   36       -7.670018   1.000000
   37       -7.586978   1.000000
   38       -7.481848   1.000000
   39       -7.363039   1.000000
   40       -7.300224   1.000000
   41       -7.143856   1.000000
   42       -7.092253   1.000000
   43       -6.977678   1.000000
   44       -6.916552   1.000000
   45       -6.887673   1.000000
   46       -6.757803   1.000000
   47       -6.684563   1.000000
   48       -6.636916   1.000000
   49       -6.562689   1.000000
   50       -6.556864   1.000000
   51       -6.363133   1.000000
   52       -6.354153   1.000000
   53       -6.248479   1.000000
   54       -6.211599   1.000000
   55       -6.057672   1.000000
   56       -6.027093   1.000000
   57       -6.013752   1.000000
   58       -5.976557   1.000000
   59       -5.912359   1.000000
   60       -5.836102   1.000000
   61       -5.718818   1.000000
   62       -5.701471   1.000000
   63       -5.477820   1.000000
   64       -5.460336   1.000000
   65       -5.259741   1.000000
   66       -5.121887   1.000000
   67       -4.879151   1.000000
   68       -4.816001   1.000000
   69       -4.761930   1.000000
   70       -4.754002   1.000000
   71       -4.652194   1.000000
   72       -4.388393   1.000000
   73       -4.291514   1.000000
   74       -4.175474   1.000000
   75       -4.140218   1.000000
   76       -4.028045   1.000000
   77       -3.923580   0.999995
   78       -3.576395   0.975759
   79       -3.550587   0.963323
   80       -3.303546   0.517460
   81       -3.056615   0.044351
   82       -2.814113   0.000317
   83       -2.803271   0.000238
   84       -2.613060   0.000001
   85       -2.492879   0.000000
   86       -2.487006   0.000000
   87       -2.248967   0.000000
   88       -2.203445   0.000000
   89       -2.143173   0.000000
   90       -2.023650   0.000000
   91       -1.734627   0.000000
   92       -1.542196   0.000000
   93       -1.406131   0.000000
   94       -1.304324   0.000000
   95       -1.264672   0.000000
   96       -1.232117   0.000000
   97       -1.186996   0.000000
   98       -1.003903   0.000000
   99       -0.947298   0.000000
  100       -0.888691   0.000000
  101       -0.801606   0.000000
  102       -0.713012   0.000000
  103       -0.648468   0.000000
  104       -0.508883   0.000000
  105       -0.391536   0.000000
  106       -0.321002   0.000000
  107       -0.160274   0.000000
  108       -0.042811   0.000000
  109        0.151234   0.000000
  110        0.173057   0.000000
  111        0.299118   0.000000
  112        0.664922   0.000000
  113        0.766305   0.000000
  114        0.928888   0.000000
  115        1.060845   0.000000
  116        1.158867   0.000000
  117        1.250037   0.000000
  118        1.995286   0.000000
  119        2.152538   0.000000
  120        2.468493   0.000000
 
  0.5000000E+00  0.1110223E-15  0.0000000E+00  0.1562500E-01
    1      -17.518569   1.000000
    2      -17.258737   1.000000
    3      -16.718843   1.000000
    4      -16.715550   1.000000
    5      -16.564622   1.000000
    6      -16.417639   1.000000
    7      -16.230636   1.000000
    8      -16.213643   1.000000
    9      -16.176311   1.000000
   10      -15.979463   1.000000
   11      -15.910877   1.000000
   12      -15.867530   1.000000
   13      -15.780485   1.000000
   14      -15.674025   1.000000
   15      -15.642199   1.000000
   16      -15.473012   1.000000
   17      -15.424360   1.000000
   18      -15.354235   1.000000
   19       -9.791935   1.000000
   20       -9.309428   1.000000
   21       -9.250893   1.000000
   22       -9.020418   1.000000
   23       -8.962147   1.000000
   24       -8.809219   1.000000
   25       -8.593286   1.000000
   26       -8.490863   1.000000
   27       -8.432861   1.000000
   28       -8.352507   1.000000
   29       -8.279871   1.000000
   30       -8.192820   1.000000
   31       -8.050314   1.000000
   32       -7.957042   1.000000
   33       -7.871016   1.000000
   34       -7.833705   1.000000
   35       -7.820892   1.000000
   36       -7.681013   1.000000
   37       -7.661311   1.000000
   38       -7.425890   1.000000
   39       -7.404422   1.000000
   40       -7.284035   1.000000
   41       -6.997804   1.000000
   42       -6.946969   1.000000
   43       -6.941865   1.000000
   44       -6.891314   1.000000
   45       -6.877018   1.000000
   46       -6.748900   1.000000
   47       -6.642403   1.000000
   48       -6.624207   1.000000
   49       -6.612880   1.000000
   50       -6.523506   1.000000
   51       -6.418808   1.000000
   52       -6.342436   1.000000
   53       -6.193120   1.000000
   54       -6.184191   1.000000
   55       -6.148672   1.000000
   56       -6.045668   1.000000
   57       -5.999457   1.000000
   58       -5.960015   1.000000
   59       -5.936960   1.000000
   60       -5.864356   1.000000
   61       -5.833191   1.000000
   62       -5.664573   1.000000
   63       -5.504094   1.000000
   64       -5.456201   1.000000
   65       -5.372035   1.000000
   66       -5.116234   1.000000
   67       -4.953713   1.000000
   68       -4.866174   1.000000
   69       -4.800640   1.000000
   70       -4.749201   1.000000
   71       -4.603450   1.000000
   72       -4.367859   1.000000
   73       -4.255471   1.000000
   74       -4.169448   1.000000
   75       -4.155739   1.000000
   76       -4.038826   1.000000
   77       -3.888552   0.999985
   78       -3.522579   0.944372
   79       -3.494591   0.918442
   80       -3.335892   0.607382
   81       -3.060134   0.046732
   82       -2.822783   0.000396
   83       -2.794521   0.000189
   84       -2.610016   0.000001
   85       -2.499551   0.000000
   86       -2.469219   0.000000
   87       -2.229725   0.000000
   88       -2.192015   0.000000
   89       -2.123982   0.000000
   90       -1.987001   0.000000
   91       -1.732206   0.000000
   92       -1.532427   0.000000
   93       -1.406900   0.000000
   94       -1.367091   0.000000
   95       -1.282363   0.000000
   96       -1.272374   0.000000
   97       -1.194919   0.000000
   98       -1.054004   0.000000
   99       -0.963038   0.000000
  100       -0.876281   0.000000
  101       -0.798289   0.000000
  102       -0.732730   0.000000
  103       -0.673453   0.000000
  104       -0.508820   0.000000
  105       -0.438550   0.000000
  106       -0.367793   0.000000
  107       -0.175919   0.000000
  108       -0.084307   0.000000
  109        0.127305   0.000000
  110        0.167895   0.000000
  111        0.281183   0.000000
  112        0.674273   0.000000
  113        0.772580   0.000000
  114        0.926546   0.000000
  115        1.096811   0.000000
  116        1.204496   0.000000
  117        1.295022   0.000000
  118        2.202998   0.000000
  119        2.262250   0.000000
  120        2.357280   0.000000
 
  0.0000000E+00  0.1250000E+00  0.0000000E+00  0.3125000E-01
    1      -17.772091   1.000000
    2      -16.767962   1.000000
    3      -16.668524   1.000000
    4      -16.622868   1.000000
    5      -16.476402   1.000000
    6      -16.395795   1.000000
    7      -16.341824   1.000000
    8      -16.305180   1.000000
    9      -16.187173   1.000000
   10      -16.067279   1.000000
   11      -16.010625   1.000000
   12      -15.970026   1.000000
   13      -15.892696   1.000000
   14      -15.792748   1.000000
   15      -15.537285   1.000000
   16      -15.479290   1.000000
   17      -15.406794   1.000000
   18      -15.299357   1.000000
   19       -9.271117   1.000000
   20       -9.140183   1.000000
   21       -8.968602   1.000000
   22       -8.898482   1.000000
   23       -8.787673   1.000000
   24       -8.690403   1.000000
   25       -8.608892   1.000000
   26       -8.568776   1.000000
   27       -8.481454   1.000000
   28       -8.447474   1.000000
   29       -8.364172   1.000000
   30       -8.346695   1.000000
   31       -8.275612   1.000000
   32       -8.098268   1.000000
   33       -8.070646   1.000000
   34       -7.964720   1.000000
   35       -7.842054   1.000000
   36       -7.716149   1.000000
   37       -7.677586   1.000000
   38       -7.580500   1.000000
   39       -7.487230   1.000000
   40       -7.381368   1.000000
   41       -7.302530   1.000000
   42       -7.182235   1.000000
   43       -7.098688   1.000000
   44       -6.927260   1.000000
   45       -6.905455   1.000000
   46       -6.783620   1.000000
   47       -6.690346   1.000000
   48       -6.572364   1.000000
   49       -6.541754   1.000000
   50       -6.515702   1.000000
   51       -6.432588   1.000000
   52       -6.400231   1.000000
   53       -6.358062   1.000000
   54       -6.317064   1.000000
   55       -6.271793   1.000000
   56       -6.053242   1.000000
   57       -5.978971   1.000000
   58       -5.893636   1.000000
   59       -5.686614   1.000000
   60       -5.584681   1.000000
   61       -5.527235   1.000000
   62       -5.357955   1.000000
   63       -5.305284   1.000000
   64       -5.267600   1.000000
   65       -5.125989   1.000000
   66       -5.067970   1.000000
   67       -5.008341   1.000000
   68       -4.928909   1.000000
   69       -4.813864   1.000000
   70       -4.622264   1.000000
   71       -4.603364   1.000000
   72       -4.458817   1.000000
   73       -4.437829   1.000000
   74       -4.217821   1.000000
   75       -4.168304   1.000000
   76       -3.960794   0.999999
   77       -3.842357   0.999942
   78       -3.661101   0.994945
   79       -3.624730   0.989691
   80       -3.324936   0.577314
   81       -3.211814   0.272635
   82       -2.820817   0.000376
   83       -2.707544   0.000015
   84       -2.620335   0.000001
   85       -2.540604   0.000000
   86       -2.441442   0.000000
   87       -2.390732   0.000000
   88       -2.310909   0.000000
   89       -2.173614   0.000000
   90       -2.122457   0.000000
   91       -1.748425   0.000000
   92       -1.576624   0.000000
   93       -1.446575   0.000000
   94       -1.338055   0.000000
   95       -1.285781   0.000000
   96       -1.150089   0.000000
   97       -1.016114   0.000000
   98       -0.961052   0.000000
   99       -0.703411   0.000000
  100       -0.696395   0.000000
  101       -0.609361   0.000000
  102       -0.585467   0.000000
  103       -0.472309   0.000000
  104       -0.342522   0.000000
  105       -0.234058   0.000000
  106       -0.164368   0.000000
  107       -0.076490   0.000000
  108        0.099702   0.000000
  109        0.213055   0.000000
  110        0.242844   0.000000
  111        0.308718   0.000000
  112        0.409550   0.000000
  113        0.796915   0.000000
  114        0.843918   0.000000
  115        0.947521   0.000000
  116        1.032488   0.000000
  117        1.066837   0.000000
  118        1.691791   0.000000
  119        1.875050   0.000000
  120        2.193560   0.000000
 
  0.1250000E+00  0.1250000E+00  0.0000000E+00  0.3125000E-01
    1      -17.724242   1.000000
    2      -16.874927   1.000000
    3      -16.774502   1.000000
    4      -16.600658   1.000000
    5      -16.493365   1.000000
    6      -16.397175   1.000000
    7      -16.309690   1.000000
    8      -16.260661   1.000000
    9      -16.175582   1.000000
   10      -16.094219   1.000000
   11      -16.007596   1.000000
   12      -15.899457   1.000000
   13      -15.808260   1.000000
   14      -15.759458   1.000000
   15      -15.571402   1.000000
   16      -15.502490   1.000000
   17      -15.411694   1.000000
   18      -15.307611   1.000000
   19       -9.367345   1.000000
   20       -9.275394   1.000000
   21       -9.122897   1.000000
   22       -8.970667   1.000000
   23       -8.836935   1.000000
   24       -8.740794   1.000000
   25       -8.600672   1.000000
   26       -8.508129   1.000000
   27       -8.473902   1.000000
   28       -8.398159   1.000000
   29       -8.353307   1.000000
   30       -8.283328   1.000000
   31       -8.155494   1.000000
   32       -8.072820   1.000000
   33       -7.977704   1.000000
   34       -7.904039   1.000000
   35       -7.741391   1.000000
   36       -7.711153   1.000000
   37       -7.596453   1.000000
   38       -7.512592   1.000000
   39       -7.414087   1.000000
   40       -7.326609   1.000000
   41       -7.287810   1.000000
   42       -7.242697   1.000000
   43       -7.128578   1.000000
   44       -6.954788   1.000000
   45       -6.889060   1.000000
   46       -6.816734   1.000000
   47       -6.760237   1.000000
   48       -6.593965   1.000000
   49       -6.550051   1.000000
   50       -6.524360   1.000000
   51       -6.428469   1.000000
   52       -6.362324   1.000000
   53       -6.320582   1.000000
   54       -6.261466   1.000000
   55       -6.195113   1.000000
   56       -6.108360   1.000000
   57       -5.987737   1.000000
   58       -5.851124   1.000000
   59       -5.695139   1.000000
   60       -5.610190   1.000000
   61       -5.557649   1.000000
   62       -5.480211   1.000000
   63       -5.408945   1.000000
   64       -5.311863   1.000000
   65       -5.190264   1.000000
   66       -5.138794   1.000000
   67       -5.071427   1.000000
   68       -4.921114   1.000000
   69       -4.744891   1.000000
   70       -4.629887   1.000000
   71       -4.561710   1.000000
   72       -4.403385   1.000000
   73       -4.291677   1.000000
   74       -4.228894   1.000000
   75       -4.150389   1.000000
   76       -4.028960   1.000000
   77       -3.841072   0.999940
   78       -3.761112   0.999480
   79       -3.623137   0.989378
   80       -3.258398   0.391480
   81       -3.152390   0.152669
   82       -2.826405   0.000434
   83       -2.740140   0.000041
   84       -2.622454   0.000001
   85       -2.559376   0.000000
   86       -2.427499   0.000000
   87       -2.339618   0.000000
   88       -2.249433   0.000000
   89       -2.156498   0.000000
   90       -2.131951   0.000000
   91       -1.745277   0.000000
   92       -1.513030   0.000000
   93       -1.487476   0.000000
   94       -1.311915   0.000000
   95       -1.254112   0.000000
   96       -1.148682   0.000000
   97       -1.034093   0.000000
   98       -0.948012   0.000000
   99       -0.856407   0.000000
  100       -0.803956   0.000000
  101       -0.713003   0.000000
  102       -0.606648   0.000000
  103       -0.541607   0.000000
  104       -0.400038   0.000000
  105       -0.311705   0.000000
  106       -0.227526   0.000000
  107       -0.106449   0.000000
  108        0.049707   0.000000
  109        0.138881   0.000000
  110        0.239645   0.000000
  111        0.346944   0.000000
  112        0.530687   0.000000
  113        0.828946   0.000000
  114        0.897980   0.000000
  115        0.955381   0.000000
  116        1.075145   0.000000
  117        1.088461   0.000000
  118        1.773913   0.000000
  119        1.947677   0.000000
  120        2.263265   0.000000
 
  0.2500000E+00  0.1250000E+00  0.0000000E+00  0.3125000E-01
    1      -17.633806   1.000000
    2      -17.044336   1.000000
    3      -16.877357   1.000000
    4      -16.580074   1.000000
    5      -16.504321   1.000000
    6      -16.395136   1.000000
    7      -16.270117   1.000000
    8      -16.238079   1.000000
    9      -16.141987   1.000000
   10      -16.091754   1.000000
   11      -15.980838   1.000000
   12      -15.863811   1.000000
   13      -15.774198   1.000000
   14      -15.670657   1.000000
   15      -15.612529   1.000000
   16      -15.519722   1.000000
   17      -15.422120   1.000000
   18      -15.321781   1.000000
   19       -9.598919   1.000000
   20       -9.409244   1.000000
   21       -9.171734   1.000000
   22       -9.031434   1.000000
   23       -8.878519   1.000000
   24       -8.716986   1.000000
   25       -8.596562   1.000000
   26       -8.448571   1.000000
   27       -8.411608   1.000000
   28       -8.372826   1.000000
   29       -8.326553   1.000000
   30       -8.233113   1.000000
   31       -8.124591   1.000000
   32       -8.032838   1.000000
   33       -7.973801   1.000000
   34       -7.909636   1.000000
   35       -7.789209   1.000000
   36       -7.611731   1.000000
   37       -7.509549   1.000000
   38       -7.462536   1.000000
   39       -7.363034   1.000000
   40       -7.306139   1.000000
   41       -7.226271   1.000000
   42       -7.121939   1.000000
   43       -7.032768   1.000000
   44       -6.958655   1.000000
   45       -6.846210   1.000000
   46       -6.806620   1.000000
   47       -6.731061   1.000000