<?xml version="1.0" encoding="ISO-8859-1"?>
<modeling>
 <generator>
  <i name="program" type="string">vasp </i>
  <i name="version" type="string">5.4.1  </i>
  <i name="subversion" type="string">05Feb16 (build Jul 05 2020 17:13:04) complex                          parallel </i>
  <i name="platform" type="string">IFC91_ompi </i>
  <i name="date" type="string">2024 05 05 </i>
  <i name="time" type="string">09:28:49 </i>
 </generator>
 <incar>
  <i type="int" name="ISTART">     0</i>
  <i type="string" name="PREC">normal</i>
  <i type="string" name="ALGO"> Normal</i>
  <i type="int" name="ISPIN">     1</i>
  <i type="int" name="ICHARG">     2</i>
  <i type="int" name="IBRION">     1</i>
  <i type="int" name="NSW">   100</i>
  <i type="int" name="ISIF">     3</i>
  <i type="int" name="ISYM">     0</i>
  <i name="SYMPREC">      0.00000001</i>
  <i name="POTIM">      0.50000000</i>
  <i type="logical" name="LREAL"> F  </i>
  <i type="logical" name="LPLANE"> F  </i>
  <i type="int" name="ISMEAR">     0</i>
  <i type="logical" name="LWAVE"> F  </i>
  <i type="logical" name="LCHARG"> F  </i>
  <v type="int" name="KPOINT_BSE">    -1     0     0     0</v>
 </incar>
 <kpoints>
  <generation param="Gamma">
   <v type="int" name="divisions">       8        8        1 </v>
   <v name="usershift">      0.00000000       0.00000000       0.00000000 </v>
   <v name="genvec1">      0.12500000       0.00000000       0.00000000 </v>
   <v name="genvec2">     -0.00000000       0.12500000       0.00000000 </v>
   <v name="genvec3">      0.00000000       0.00000000       1.00000000 </v>
   <v name="shift">      0.00000000       0.00000000       0.00000000 </v>
  </generation>
  <varray name="kpointlist" >
   <v>       0.00000000       0.00000000       0.00000000 </v>
   <v>       0.12500000       0.00000000       0.00000000 </v>
   <v>       0.25000000       0.00000000       0.00000000 </v>
   <v>       0.37500000       0.00000000       0.00000000 </v>
   <v>       0.50000000       0.00000000       0.00000000 </v>
   <v>       0.00000000       0.12500000       0.00000000 </v>
   <v>       0.12500000       0.12500000       0.00000000 </v>
   <v>       0.25000000       0.12500000       0.00000000 </v>
   <v>       0.37500000       0.12500000       0.00000000 </v>
   <v>       0.50000000       0.12500000       0.00000000 </v>
   <v>      -0.37500000       0.12500000       0.00000000 </v>
   <v>      -0.25000000       0.12500000       0.00000000 </v>
   <v>      -0.12500000       0.12500000       0.00000000 </v>
   <v>       0.00000000       0.25000000       0.00000000 </v>
   <v>       0.12500000       0.25000000       0.00000000 </v>
   <v>       0.25000000       0.25000000       0.00000000 </v>
   <v>       0.37500000       0.25000000       0.00000000 </v>
   <v>       0.50000000       0.25000000       0.00000000 </v>
   <v>      -0.37500000       0.25000000       0.00000000 </v>
   <v>      -0.25000000       0.25000000       0.00000000 </v>
   <v>      -0.12500000       0.25000000       0.00000000 </v>
   <v>      -0.00000000       0.37500000       0.00000000 </v>
   <v>       0.12500000       0.37500000       0.00000000 </v>
   <v>       0.25000000       0.37500000       0.00000000 </v>
   <v>       0.37500000       0.37500000       0.00000000 </v>
   <v>       0.50000000       0.37500000       0.00000000 </v>
   <v>      -0.37500000       0.37500000       0.00000000 </v>
   <v>      -0.25000000       0.37500000       0.00000000 </v>
   <v>      -0.12500000       0.37500000       0.00000000 </v>
   <v>       0.00000000       0.50000000       0.00000000 </v>
   <v>       0.12500000       0.50000000       0.00000000 </v>
   <v>       0.25000000       0.50000000       0.00000000 </v>
   <v>       0.37500000       0.50000000       0.00000000 </v>
   <v>       0.50000000       0.50000000       0.00000000 </v>
  </varray>
  <varray name="weights" >
   <v>       0.01562500 </v>
   <v>       0.03125000 </v>
   <v>       0.03125000 </v>
   <v>       0.03125000 </v>
   <v>       0.01562500 </v>
   <v>       0.03125000 </v>
   <v>       0.03125000 </v>
   <v>       0.03125000 </v>
   <v>       0.03125000 </v>
   <v>       0.03125000 </v>
   <v>       0.03125000 </v>
   <v>       0.03125000 </v>
   <v>       0.03125000 </v>
   <v>       0.03125000 </v>
   <v>       0.03125000 </v>
   <v>       0.03125000 </v>
   <v>       0.03125000 </v>
   <v>       0.03125000 </v>
   <v>       0.03125000 </v>
   <v>       0.03125000 </v>
   <v>       0.03125000 </v>
   <v>       0.03125000 </v>
   <v>       0.03125000 </v>
   <v>       0.03125000 </v>
   <v>       0.03125000 </v>
   <v>       0.03125000 </v>
   <v>       0.03125000 </v>
   <v>       0.03125000 </v>
   <v>       0.03125000 </v>
   <v>       0.01562500 </v>
   <v>       0.03125000 </v>
   <v>       0.03125000 </v>
   <v>       0.03125000 </v>
   <v>       0.01562500 </v>
  </varray>
 </kpoints>
 <parameters>
  <separator name="general" >
   <i type="string" name="SYSTEM">unknown system</i>
   <i type="logical" name="LCOMPAT"> F  </i>
  </separator>
  <separator name="electronic" >
   <i type="string" name="PREC">normal</i>
   <i name="ENMAX">    280.00000000</i>
   <i name="ENAUG">    373.43800000</i>
   <i name="EDIFF">      0.00010000</i>
   <i type="int" name="IALGO">    38</i>
   <i type="int" name="IWAVPR">    11</i>
   <i type="int" name="NBANDS">   120</i>
   <i name="NELECT">    159.00000000</i>
   <i type="int" name="TURBO">     0</i>
   <i type="int" name="IRESTART">     0</i>
   <i type="int" name="NREBOOT">     0</i>
   <i type="int" name="NMIN">     0</i>
   <i name="EREF">      0.00000000</i>
   <separator name="electronic smearing" >
    <i type="int" name="ISMEAR">     0</i>
    <i name="SIGMA">      0.20000000</i>
    <i name="KSPACING">      0.50000000</i>
    <i type="logical" name="KGAMMA"> T  </i>
   </separator>
   <separator name="electronic projectors" >
    <i type="logical" name="LREAL"> F  </i>
    <v name="ROPT">      0.00000000      0.00000000      0.00000000      0.00000000</v>
    <i type="int" name="LMAXPAW">  -100</i>
    <i type="int" name="LMAXMIX">     2</i>
    <i type="logical" name="NLSPLINE"> F  </i>
   </separator>
   <separator name="electronic startup" >
    <i type="int" name="ISTART">     0</i>
    <i type="int" name="ICHARG">     2</i>
    <i type="int" name="INIWAV">     1</i>
   </separator>
   <separator name="electronic spin" >
    <i type="int" name="ISPIN">     1</i>
    <i type="logical" name="LNONCOLLINEAR"> F  </i>
    <v name="MAGMOM">      1.00000000      1.00000000      1.00000000      1.00000000      1.00000000      1.00000000      1.00000000      1.00000000      1.00000000      1.00000000      1.00000000      1.00000000      1.00000000      1.00000000      1.00000000      1.00000000      1.00000000      1.00000000      1.00000000      1.00000000
      1.00000000      1.00000000      1.00000000      1.00000000      1.00000000      1.00000000      1.00000000</v>
    <i name="NUPDOWN">     -1.00000000</i>
    <i type="logical" name="LSORBIT"> F  </i>
    <v name="SAXIS">      0.00000000      0.00000000      1.00000000</v>
    <i type="logical" name="LSPIRAL"> F  </i>
    <v name="QSPIRAL">      0.00000000      0.00000000      0.00000000</v>
    <i type="logical" name="LZEROZ"> F  </i>
   </separator>
   <separator name="electronic exchange-correlation" >
    <i type="logical" name="LASPH"> F  </i>
    <i type="logical" name="LMETAGGA"> F  </i>
   </separator>
   <separator name="electronic convergence" >
    <i type="int" name="NELM">    60</i>
    <i type="int" name="NELMDL">    -5</i>
    <i type="int" name="NELMIN">     2</i>
    <i name="ENINI">    280.00000000</i>
    <separator name="electronic convergence detail" >
     <i type="logical" name="LDIAG"> T  </i>
     <i type="logical" name="LSUBROT"> F  </i>
     <i name="WEIMIN">      0.00100000</i>
     <i name="EBREAK">      0.00000021</i>
     <i name="DEPER">      0.30000000</i>
     <i type="int" name="NRMM">     4</i>
     <i name="TIME">      0.40000000</i>
    </separator>
   </separator>
   <separator name="electronic mixer" >
    <i name="AMIX">      0.40000000</i>
    <i name="BMIX">      1.00000000</i>
    <i name="AMIN">      0.10000000</i>
    <i name="AMIX_MAG">      1.60000000</i>
    <i name="BMIX_MAG">      1.00000000</i>
    <separator name="electronic mixer details" >
     <i type="int" name="IMIX">     4</i>
     <i type="logical" name="MIXFIRST"> F  </i>
     <i type="int" name="MAXMIX">   -45</i>
     <i name="WC">    100.00000000</i>
     <i type="int" name="INIMIX">     1</i>
     <i type="int" name="MIXPRE">     1</i>
     <i type="int" name="MREMOVE">     5</i>
    </separator>
   </separator>
   <separator name="electronic dipolcorrection" >
    <i type="logical" name="LDIPOL"> F  </i>
    <i type="logical" name="LMONO"> F  </i>
    <i type="int" name="IDIPOL">     0</i>
    <i name="EPSILON">      1.00000000</i>
    <v name="DIPOL">   -100.00000000   -100.00000000   -100.00000000</v>
    <i name="EFIELD">      0.00000000</i>
   </separator>
  </separator>
  <separator name="grids" >
   <i type="int" name="NGX">    42</i>
   <i type="int" name="NGY">    42</i>
   <i type="int" name="NGZ">   126</i>
   <i type="int" name="NGXF">    84</i>
   <i type="int" name="NGYF">    84</i>
   <i type="int" name="NGZF">   252</i>
   <i type="logical" name="ADDGRID"> F  </i>
  </separator>
  <separator name="ionic" >
   <i type="int" name="NSW">   100</i>
   <i type="int" name="IBRION">     1</i>
   <i type="int" name="ISIF">     3</i>
   <i name="PSTRESS">      0.00000000</i>
   <i name="EDIFFG">      0.00100000</i>
   <i type="int" name="NFREE">     0</i>
   <i name="POTIM">      0.50000000</i>
   <i name="SMASS">     -3.00000000</i>
   <i name="SCALEE">      1.00000000</i>
  </separator>
  <separator name="ionic md" >
   <i name="TEBEG">      0.00010000</i>
   <i name="TEEND">      0.00010000</i>
   <i type="int" name="NBLOCK">     1</i>
   <i type="int" name="KBLOCK">   100</i>
   <i type="int" name="NPACO">   256</i>
   <i name="APACO">     16.00000000</i>
  </separator>
  <separator name="symmetry" >
   <i type="int" name="ISYM">     0</i>
   <i name="SYMPREC">      0.00000001</i>
  </separator>
  <separator name="dos" >
   <i type="logical" name="LORBIT"> F  </i>
   <v name="RWIGS">     -1.00000000     -1.00000000     -1.00000000     -1.00000000</v>
   <i type="int" name="NEDOS">   301</i>
   <i name="EMIN">     10.00000000</i>
   <i name="EMAX">    -10.00000000</i>
   <i name="EFERMI">      0.00000000</i>
  </separator>
  <separator name="writing" >
   <i type="int" name="NWRITE">     2</i>
   <i type="logical" name="LWAVE"> F  </i>
   <i type="logical" name="LCHARG"> F  </i>
   <i type="logical" name="LPARD"> F  </i>
   <i type="logical" name="LVTOT"> F  </i>
   <i type="logical" name="LVHAR"> F  </i>
   <i type="logical" name="LELF"> F  </i>
   <i type="logical" name="LOPTICS"> F  </i>
   <v name="STM">      0.00000000      0.00000000      0.00000000      0.00000000      0.00000000      0.00000000      0.00000000</v>
  </separator>
  <separator name="performance" >
   <i type="int" name="NPAR">    40</i>
   <i type="int" name="NSIM">     4</i>
   <i type="int" name="NBLK">    -1</i>
   <i type="logical" name="LPLANE"> F  </i>
   <i type="logical" name="LSCALAPACK"> T  </i>
   <i type="logical" name="LSCAAWARE"> F  </i>
   <i type="logical" name="LSCALU"> F  </i>
   <i type="logical" name="LASYNC"> F  </i>
   <i type="logical" name="LORBITALREAL"> F  </i>
  </separator>
  <separator name="miscellaneous" >
   <i type="int" name="IDIOT">     3</i>
   <i type="logical" name="LMUSIC"> F  </i>
   <v name="POMASS">     50.94100000     95.94000000    183.85000000     32.06600000</v>
   <v name="DARWINR">      0.00000000      0.00000000      0.00000000      0.00000000</v>
   <v name="DARWINV">      1.00000000      1.00000000      1.00000000      1.00000000</v>
   <i type="logical" name="LCORR"> T  </i>
  </separator>
  <i type="logical" name="GGA_COMPAT"> T  </i>
  <i type="logical" name="LBERRY"> F  </i>
  <i type="int" name="ICORELEVEL">     0</i>
  <i type="logical" name="LDAU"> F  </i>
  <i type="int" name="I_CONSTRAINED_M">     0</i>
  <separator name="electronic exchange-correlation" >
   <i type="string" name="GGA">--</i>
   <i type="int" name="VOSKOWN">     0</i>
   <i type="logical" name="LHFCALC"> F  </i>
   <i type="string" name="PRECFOCK"></i>
   <i type="logical" name="LSYMGRAD"> F  </i>
   <i type="logical" name="LHFONE"> F  </i>
   <i type="logical" name="LRHFCALC"> F  </i>
   <i type="logical" name="LTHOMAS"> F  </i>
   <i type="logical" name="LMODELHF"> F  </i>
   <i name="ENCUT4O">     -1.00000000</i>
   <i type="int" name="EXXOEP">     0</i>
   <i type="int" name="FOURORBIT">     0</i>
   <i name="AEXX">      0.00000000</i>
   <i name="HFALPHA">      0.00000000</i>
   <i name="MCALPHA">      0.00000000</i>
   <i name="ALDAX">      1.00000000</i>
   <i name="AGGAX">      1.00000000</i>
   <i name="ALDAC">      1.00000000</i>
   <i name="AGGAC">      1.00000000</i>
   <i type="int" name="NKREDX">     1</i>
   <i type="int" name="NKREDY">     1</i>
   <i type="int" name="NKREDZ">     1</i>
   <i type="logical" name="SHIFTRED"> F  </i>
   <i type="logical" name="ODDONLY"> F  </i>
   <i type="logical" name="EVENONLY"> F  </i>
   <i type="int" name="LMAXFOCK">     0</i>
   <i type="int" name="NMAXFOCKAE">     0</i>
   <i type="logical" name="LFOCKAEDFT"> F  </i>
   <i name="HFSCREEN">      0.00000000</i>
   <i name="HFSCREENC">      0.00000000</i>
   <i type="int" name="NBANDSGWLOW">     0</i>
  </separator>
  <separator name="vdW DFT" >
   <i type="logical" name="LUSE_VDW"> F  </i>
   <i name="Zab_VDW">     -0.84910000</i>
   <i name="PARAM1">      0.12340000</i>
   <i name="PARAM2">      1.00000000</i>
   <i name="PARAM3">      0.00000000</i>
  </separator>
  <separator name="model GW" >
   <i type="int" name="MODEL_GW">     0</i>
   <i name="MODEL_EPS0">     58.26239943</i>
   <i name="MODEL_ALPHA">      1.00000000</i>
  </separator>
  <separator name="linear response parameters" >
   <i type="logical" name="LEPSILON"> F  </i>
   <i type="logical" name="LRPA"> F  </i>
   <i type="logical" name="LNABLA"> F  </i>
   <i type="logical" name="LVEL"> F  </i>
   <i type="int" name="KINTER">     0</i>
   <i name="CSHIFT">      0.10000000</i>
   <i name="OMEGAMAX">     -1.00000000</i>
   <i name="DEG_THRESHOLD">      0.00200000</i>
  </separator>
  <separator name="orbital magnetization" >
   <i type="logical" name="NUCIND"> F  </i>
   <v name="MAGPOS">      0.00000000      0.00000000      0.00000000</v>
   <i type="logical" name="LNICSALL"> T  </i>
   <i type="logical" name="ORBITALMAG"> F  </i>
   <i type="logical" name="LMAGBLOCH"> F  </i>
   <i type="logical" name="LCHIMAG"> F  </i>
   <i type="logical" name="LGAUGE"> T  </i>
   <i type="int" name="MAGATOM">     0</i>
   <v name="MAGDIPOL">      0.00000000      0.00000000      0.00000000</v>
   <v name="AVECCONST">      0.00000000      0.00000000      0.00000000</v>
  </separator>
  <separator name="response functions" >
   <i type="logical" name="LADDER"> F  </i>
   <i type="logical" name="LFXC"> F  </i>
   <i type="logical" name="LHARTREE"> T  </i>
   <i type="int" name="IBSE">     0</i>
   <v type="int" name="KPOINT">    -1     0     0     0</v>
   <i type="logical" name="LTCTE"> F  </i>
   <i type="logical" name="LTETE"> F  </i>
   <i type="logical" name="LTRIPLET"> F  </i>
   <i type="logical" name="LFXCEPS"> F  </i>
   <i type="logical" name="LFXHEG"> F  </i>
   <i type="int" name="NATURALO">     0</i>
   <i type="logical" name="L2ORDER"> F  </i>
   <i type="logical" name="LUSEW"> F  </i>
   <i name="ENCUTGW">     -2.00000000</i>
   <i name="ENCUTGWSOFT">     -2.00000000</i>
   <i name="ENCUTLF">     -1.00000000</i>
   <i type="int" name="LMAXMP2">    -1</i>
   <i name="SCISSOR">      0.00000000</i>
   <i type="int" name="NOMEGA">     0</i>
   <i type="int" name="NOMEGAR">     0</i>
   <i type="int" name="NBANDSGW">    -1</i>
   <i type="int" name="NBANDSO">    -1</i>
   <i type="int" name="NBANDSV">    -1</i>
   <i type="int" name="NELM">     1</i>
   <i type="int" name="NELMHF">     1</i>
   <i type="int" name="DIM">     3</i>
   <i type="int" name="ANTIRES">     0</i>
   <i name="OMEGAMAX">    -30.00000000</i>
   <i name="OMEGAMIN">    -30.00000000</i>
   <i name="OMEGATL">   -200.00000000</i>
   <i type="int" name="OMEGAGRID">     0</i>
   <i name="CSHIFT">     -0.10000000</i>
   <i type="logical" name="SELFENERGY"> F  </i>
   <i type="logical" name="LSPECTRAL"> F  </i>
   <i type="logical" name="LSPECTRALGW"> F  </i>
   <i type="logical" name="LSINGLES"> F  </i>
   <i type="logical" name="LFERMIGW"> F  </i>
   <i type="logical" name="ODDONLYGW"> F  </i>
   <i type="logical" name="EVENONLYGW"> F  </i>
   <i type="int" name="NKREDLFX">     1</i>
   <i type="int" name="NKREDLFY">     1</i>
   <i type="int" name="NKREDLFZ">     1</i>
   <i type="int" name="MAXMEM">  1800</i>
   <i type="int" name="TELESCOPE">     0</i>
   <i type="int" name="TAUPAR">     1</i>
   <i type="int" name="OMEGAPAR">    -1</i>
   <i name="LAMBDA">      1.00000000</i>
  </separator>
  <separator name="External order field" >
   <i name="OFIELD_KAPPA">      0.00000000</i>
   <v name="OFIELD_K">      0.00000000      0.00000000      0.00000000</v>
   <i name="OFIELD_Q6_NEAR">      0.00000000</i>
   <i name="OFIELD_Q6_FAR">      0.00000000</i>
   <i name="OFIELD_A">      0.00000000</i>
  </separator>
 </parameters>
 <atominfo>
  <atoms>      27 </atoms>
  <types>       4 </types>
  <array name="atoms" >
   <dimension dim="1">ion</dimension>
   <field type="string">element</field>
   <field type="int">atomtype</field>
   <set>
    <rc><c>V </c><c>   1</c></rc>
    <rc><c>V </c><c>   1</c></rc>
    <rc><c>V </c><c>   1</c></rc>
    <rc><c>Mo</c><c>   2</c></rc>
    <rc><c>Mo</c><c>   2</c></rc>
    <rc><c>Mo</c><c>   2</c></rc>
    <rc><c>W </c><c>   3</c></rc>
    <rc><c>W </c><c>   3</c></rc>
    <rc><c>W </c><c>   3</c></rc>
    <rc><c>S </c><c>   4</c></rc>
    <rc><c>S </c><c>   4</c></rc>
    <rc><c>S </c><c>   4</c></rc>
    <rc><c>S </c><c>   4</c></rc>
    <rc><c>S </c><c>   4</c></rc>
    <rc><c>S </c><c>   4</c></rc>
    <rc><c>S </c><c>   4</c></rc>
    <rc><c>S </c><c>   4</c></rc>
    <rc><c>S </c><c>   4</c></rc>
    <rc><c>S </c><c>   4</c></rc>
    <rc><c>S </c><c>   4</c></rc>
    <rc><c>S </c><c>   4</c></rc>
    <rc><c>S </c><c>   4</c></rc>
    <rc><c>S </c><c>   4</c></rc>
    <rc><c>S </c><c>   4</c></rc>
    <rc><c>S </c><c>   4</c></rc>
    <rc><c>S </c><c>   4</c></rc>
    <rc><c>S </c><c>   4</c></rc>
   </set>
  </array>
  <array name="atomtypes" >
   <dimension dim="1">type</dimension>
   <field type="int">atomspertype</field>
   <field type="string">element</field>
   <field>mass</field>
   <field>valence</field>
   <field type="string">pseudopotential</field>
   <set>
    <rc><c>   3</c><c>V </c><c>     50.94100000</c><c>      5.00000000</c><c> PAW_PBE V 08Apr2002                    </c></rc>
    <rc><c>   3</c><c>Mo</c><c>     95.94000000</c><c>      6.00000000</c><c> PAW_PBE Mo 08Apr2002                   </c></rc>
    <rc><c>   3</c><c>W </c><c>    183.85000000</c><c>      6.00000000</c><c> PAW_PBE W 08Apr2002                    </c></rc>
    <rc><c>  18</c><c>S </c><c>     32.06600000</c><c>      6.00000000</c><c>  PAW_PBE S 17Jan2003                   </c></rc>
   </set>
  </array>
 </atominfo>
 <structure name="initialpos" >
  <crystal>
   <varray name="basis" >
    <v>       8.66999996       5.03999989       0.00000000 </v>
    <v>      -8.66999982       5.04000013       0.00000000 </v>
    <v>       0.00000000       0.00000000      30.00000000 </v>
   </varray>
   <i name="volume">   2621.80797419 </i>
   <varray name="rec_basis" >
    <v>       0.05767013       0.09920635       0.00000000 </v>
    <v>      -0.05767013       0.09920635       0.00000000 </v>
    <v>       0.00000000       0.00000000       0.03333333 </v>
   </varray>
  </crystal>
  <varray name="positions" >
   <v>       0.66666669       0.33333334       0.00000000 </v>
   <v>       1.00000000       0.33333334       0.00000000 </v>
   <v>       0.66666669       0.00000000       0.00000000 </v>
   <v>       0.66666669       0.66666669       0.00000000 </v>
   <v>       0.00000000       0.66666669       0.00000000 </v>
   <v>       0.00000000       0.00000000       0.00000000 </v>
   <v>       0.33333334       0.00000000       0.00000000 </v>
   <v>       0.33333334       0.33333334       0.00000000 </v>
   <v>       0.33333334       0.66666669       0.00000000 </v>
   <v>       0.11068511       0.22244981       0.95539999 </v>
   <v>       0.22244981       0.11068511       0.04460000 </v>
   <v>       0.11068511       0.55578315       0.95539999 </v>
   <v>       0.22244981       0.44401845       0.04460000 </v>
   <v>       0.11068511       0.88911647       0.95539999 </v>
   <v>       0.22244981       0.77735180       0.04460000 </v>
   <v>       0.44401845       0.22244981       0.95539999 </v>
   <v>       0.55578315       0.11068511       0.04460000 </v>
   <v>       0.44401845       0.55578315       0.95539999 </v>
   <v>       0.55578315       0.44401845       0.04460000 </v>
   <v>       0.44401845       0.88911647       0.95539999 </v>
   <v>       0.55578315       0.77735180       0.04460000 </v>
   <v>       0.77735180       0.22244981       0.95539999 </v>
   <v>       0.88911647       0.11068511       0.04460000 </v>
   <v>       0.77735180       0.55578315       0.95539999 </v>
   <v>       0.88911647       0.44401845       0.04460000 </v>
   <v>       0.77735180       0.88911647       0.95539999 </v>
   <v>       0.88911647       0.77735180       0.04460000 </v>
  </varray>
 </structure>
 <calculation>
  <scstep>
   <time name="dav">   21.79   21.84</time>
   <time name="total">   21.83   21.90</time>
   <energy>
    <i name="alphaZ">     81.65567618 </i>
    <i name="ewald">  41891.17178115 </i>
    <i name="hartreedc"> -47723.81755331 </i>
    <i name="XCdc">   -242.92457061 </i>
    <i name="pawpsdc">   3467.42045192 </i>
    <i name="pawaedc">  -2871.19716117 </i>
    <i name="eentropy">     -0.53580126 </i>
    <i name="bandstr">   -239.19117104 </i>
    <i name="atom">   6761.44252427 </i>
    <i name="e_fr_energy">   1124.02417613 </i>
    <i name="e_wo_entrp">   1124.55997739 </i>
    <i name="e_0_energy">   1124.29207676 </i>
   </energy>
  </scstep>
  <scstep>
   <time name="dav">   28.07   28.14</time>
   <time name="total">   28.07   28.15</time>
   <energy>
    <i name="e_fr_energy">      1.63992766 </i>
    <i name="e_wo_entrp">      1.84168789 </i>
    <i name="e_0_energy">      1.74080777 </i>
   </energy>
  </scstep>
  <scstep>
   <time name="dav">   27.54   27.61</time>
   <time name="total">   27.54   27.62</time>
   <energy>
    <i name="e_fr_energy">   -199.48584801 </i>
    <i name="e_wo_entrp">   -199.20912766 </i>
    <i name="e_0_energy">   -199.34748784 </i>
   </energy>
  </scstep>
  <scstep>
   <time name="dav">   30.01   30.08</time>
   <time name="total">   30.01   30.09</time>
   <energy>
    <i name="e_fr_energy">   -208.93931197 </i>
    <i name="e_wo_entrp">   -208.63470179 </i>
    <i name="e_0_energy">   -208.78700688 </i>
   </energy>
  </scstep>
  <scstep>
   <time name="dav">   28.22   28.29</time>
   <time name="total">   28.69   28.77</time>
   <energy>
    <i name="e_fr_energy">   -209.27209774 </i>
    <i name="e_wo_entrp">   -208.97087567 </i>
    <i name="e_0_energy">   -209.12148671 </i>
   </energy>
  </scstep>
  <scstep>
   <time name="dav">   30.34   30.41</time>
   <time name="total">   30.84   30.92</time>
   <energy>
    <i name="e_fr_energy">   -237.52128884 </i>
    <i name="e_wo_entrp">   -237.26915978 </i>
    <i name="e_0_energy">   -237.39522431 </i>
   </energy>
  </scstep>
  <scstep>
   <time name="dav">   32.71   32.79</time>
   <time name="total">   33.22   33.31</time>
   <energy>
    <i name="e_fr_energy">   -196.66708318 </i>
    <i name="e_wo_entrp">   -196.31651437 </i>
    <i name="e_0_energy">   -196.49179878 </i>
   </energy>
  </scstep>
  <scstep>
   <time name="dav">   29.43   29.50</time>
   <time name="total">   29.94   30.02</time>
   <energy>
    <i name="e_fr_energy">   -189.67733576 </i>
    <i name="e_wo_entrp">   -189.36882928 </i>
    <i name="e_0_energy">   -189.52308252 </i>
   </energy>
  </scstep>
  <scstep>
   <time name="dav">   31.74   31.81</time>
   <time name="total">   32.26   32.34</time>
   <energy>
    <i name="e_fr_energy">   -188.19130524 </i>
    <i name="e_wo_entrp">   -187.85423106 </i>
    <i name="e_0_energy">   -188.02276815 </i>
   </energy>
  </scstep>
  <scstep>
   <time name="dav">   32.50   32.57</time>
   <time name="total">   33.03   33.12</time>
   <energy>
    <i name="e_fr_energy">   -186.92796601 </i>
    <i name="e_wo_entrp">   -186.57625720 </i>
    <i name="e_0_energy">   -186.75211160 </i>
   </energy>
  </scstep>
  <scstep>
   <time name="dav">   32.88   32.96</time>
   <time name="total">   33.42   33.51</time>
   <energy>
    <i name="e_fr_energy">   -187.01748146 </i>
    <i name="e_wo_entrp">   -186.67685317 </i>
    <i name="e_0_energy">   -186.84716732 </i>
   </energy>
  </scstep>
  <scstep>
   <time name="dav">   31.22   31.29</time>
   <time name="total">   31.75   31.84</time>
   <energy>
    <i name="e_fr_energy">   -186.95423712 </i>
    <i name="e_wo_entrp">   -186.61925345 </i>
    <i name="e_0_energy">   -186.78674529 </i>
   </energy>
  </scstep>
  <scstep>
   <time name="dav">   32.32   32.40</time>
   <time name="total">   32.86   32.95</time>
   <energy>
    <i name="e_fr_energy">   -186.85682254 </i>
    <i name="e_wo_entrp">   -186.52098536 </i>
    <i name="e_0_energy">   -186.68890395 </i>
   </energy>
  </scstep>
  <scstep>
   <time name="dav">   31.58   31.65</time>
   <time name="total">   32.11   32.20</time>
   <energy>
    <i name="e_fr_energy">   -186.82215544 </i>
    <i name="e_wo_entrp">   -186.47792978 </i>
    <i name="e_0_energy">   -186.65004261 </i>
   </energy>
  </scstep>
  <scstep>
   <time name="dav">   29.16   29.23</time>
   <time name="total">   29.70   29.78</time>
   <energy>
    <i name="e_fr_energy">   -186.81750942 </i>
    <i name="e_wo_entrp">   -186.47353955 </i>
    <i name="e_0_energy">   -186.64552449 </i>
   </energy>
  </scstep>
  <scstep>
   <time name="dav">   31.62   31.70</time>
   <time name="total">   32.16   32.24</time>
   <energy>
    <i name="e_fr_energy">   -186.81886477 </i>
    <i name="e_wo_entrp">   -186.47597959 </i>
    <i name="e_0_energy">   -186.64742218 </i>
   </energy>
  </scstep>
  <scstep>
   <time name="dav">   31.16   31.23</time>
   <time name="total">   31.70   31.79</time>
   <energy>
    <i name="e_fr_energy">   -186.81530956 </i>
    <i name="e_wo_entrp">   -186.47293181 </i>
    <i name="e_0_energy">   -186.64412068 </i>
   </energy>
  </scstep>
  <scstep>
   <time name="dav">   28.74   28.81</time>
   <time name="total">   29.28   29.37</time>
   <energy>
    <i name="e_fr_energy">   -186.81507262 </i>
    <i name="e_wo_entrp">   -186.47220855 </i>
    <i name="e_0_energy">   -186.64364058 </i>
   </energy>
  </scstep>
  <scstep>
   <time name="dav">   25.13   25.19</time>
   <time name="total">   25.16   25.23</time>
   <energy>
    <i name="alphaZ">     81.65567618 </i>
    <i name="ewald">  41891.17178115 </i>
    <i name="hartreedc"> -47818.60555451 </i>
    <i name="XCdc">   -231.69937267 </i>
    <i name="pawpsdc">   4194.27896209 </i>
    <i name="pawaedc">  -3612.29211227 </i>
    <i name="eentropy">     -0.34283112 </i>
    <i name="bandstr">  -1452.42416678 </i>
    <i name="atom">   6761.44252427 </i>
    <i name="e_fr_energy">   -186.81509366 </i>
    <i name="e_wo_entrp">   -186.47226254 </i>
    <i name="e_0_energy">   -186.64367810 </i>
   </energy>
  </scstep>
  <structure>
   <crystal>
    <varray name="basis" >
     <v>       8.66999996       5.03999989       0.00000000 </v>
     <v>      -8.66999982       5.04000013       0.00000000 </v>
     <v>       0.00000000       0.00000000      30.00000000 </v>
    </varray>
    <i name="volume">   2621.80797419 </i>
    <varray name="rec_basis" >
     <v>       0.05767013       0.09920635       0.00000000 </v>
     <v>      -0.05767013       0.09920635       0.00000000 </v>
     <v>       0.00000000       0.00000000       0.03333333 </v>
    </varray>
   </crystal>
   <varray name="positions" >
    <v>       0.66666669       0.33333334       0.00000000 </v>
    <v>       1.00000000       0.33333334       0.00000000 </v>
    <v>       0.66666669       0.00000000       0.00000000 </v>
    <v>       0.66666669       0.66666669       0.00000000 </v>
    <v>       0.00000000       0.66666669       0.00000000 </v>
    <v>       0.00000000       0.00000000       0.00000000 </v>
    <v>       0.33333334       0.00000000       0.00000000 </v>
    <v>       0.33333334       0.33333334       0.00000000 </v>
    <v>       0.33333334       0.66666669       0.00000000 </v>
    <v>       0.11068511       0.22244981       0.95539999 </v>
    <v>       0.22244981       0.11068511       0.04460000 </v>
    <v>       0.11068511       0.55578315       0.95539999 </v>
    <v>       0.22244981       0.44401845       0.04460000 </v>
    <v>       0.11068511       0.88911647       0.95539999 </v>
    <v>       0.22244981       0.77735180       0.04460000 </v>
    <v>       0.44401845       0.22244981       0.95539999 </v>
    <v>       0.55578315       0.11068511       0.04460000 </v>
    <v>       0.44401845       0.55578315       0.95539999 </v>
    <v>       0.55578315       0.44401845       0.04460000 </v>
    <v>       0.44401845       0.88911647       0.95539999 </v>
    <v>       0.55578315       0.77735180       0.04460000 </v>
    <v>       0.77735180       0.22244981       0.95539999 </v>
    <v>       0.88911647       0.11068511       0.04460000 </v>
    <v>       0.77735180       0.55578315       0.95539999 </v>
    <v>       0.88911647       0.44401845       0.04460000 </v>
    <v>       0.77735180       0.88911647       0.95539999 </v>
    <v>       0.88911647       0.77735180       0.04460000 </v>
   </varray>
  </structure>
  <varray name="forces" >
   <v>      -0.03867721       0.34995932       0.00957129 </v>
   <v>      -0.08351122      -0.14411293      -0.02060024 </v>
   <v>       0.34046869       0.14103452       0.01529863 </v>
   <v>       0.25987315       0.43058399       0.07665935 </v>
   <v>      -0.50381844      -0.03430417      -0.10619468 </v>
   <v>       0.21591561      -0.43251188      -0.09519412 </v>
   <v>      -0.21141735      -0.36315283      -0.04546326 </v>
   <v>       0.00229659      -0.01789897       0.09692960 </v>
   <v>      -0.00893876      -0.00554850       0.09600098 </v>
   <v>      -0.65362971       0.13686007      -2.07859847 </v>
   <v>      -0.07938101       0.16511318       2.88244269 </v>
   <v>       0.60225339      -0.54701586      -2.11497651 </v>
   <v>      -0.45536204      -0.54832296       2.19896259 </v>
   <v>       0.20392496       0.16100304      -2.96132735 </v>
   <v>      -0.01564791       0.13388311       2.88251814 </v>
   <v>       0.48166493       0.56034097      -2.16686417 </v>
   <v>       0.24002570       0.52541403       1.36356666 </v>
   <v>       0.06489242      -0.11736652      -2.84594680 </v>
   <v>       0.64241163      -0.14898694       2.11228223 </v>
   <v>       0.45000656       0.57772718      -2.16451596 </v>
   <v>      -0.60517538       0.52956500       2.15208326 </v>
   <v>       0.07195787       0.01085386      -0.77797020 </v>
   <v>      -0.91278690      -0.00383224       1.44231215 </v>
   <v>       0.54868650      -0.68320917      -2.16147071 </v>
   <v>       0.32968305      -0.68115595       1.40237421 </v>
   <v>      -0.74725327       0.02993930      -2.12191675 </v>
   <v>      -0.13846186      -0.02485862       2.93003745 </v>
  </varray>
  <varray name="stress" >
   <v>       7.53436571      -0.14874443      -1.64577788 </v>
   <v>      -0.14874443       4.42259910      -0.14836235 </v>
   <v>      -1.64577767      -0.14836231      31.13765894 </v>
  </varray>
  <energy>
   <i name="e_fr_energy">   -186.81509366 </i>
   <i name="e_wo_entrp">   -186.64367810 </i>
   <i name="e_0_energy">     -0.34283112 </i>
  </energy>
  <time name="totalsc">  615.01  616.66</time>
 </calculation>
 <calculation>
  <scstep>
   <time name="dav">   21.74   21.79</time>
   <time name="total">   22.28   22.34</time>
   <energy>
    <i name="alphaZ">     78.87568224 </i>
    <i name="ewald">  39354.65479586 </i>
    <i name="hartreedc"> -45302.44253578 </i>
    <i name="XCdc">   -239.17354649 </i>
    <i name="pawpsdc">   4193.09827919 </i>
    <i name="pawaedc">  -3611.09303934 </i>
    <i name="eentropy">     -0.28232240 </i>
    <i name="bandstr">  -1422.56143622 </i>
    <i name="atom">   6761.44252427 </i>
    <i name="e_fr_energy">   -187.48159866 </i>
    <i name="e_wo_entrp">   -187.19927626 </i>
    <i name="e_0_energy">   -187.34043746 </i>
   </energy>
  </scstep>
  <scstep>
   <time name="dav">   29.71   29.78</time>
   <time name="total">   30.25   30.33</time>
   <energy>
    <i name="e_fr_energy">   -189.42221161 </i>
    <i name="e_wo_entrp">   -189.09858614 </i>
    <i name="e_0_energy">   -189.26039887 </i>
   </energy>
  </scstep>
  <scstep>
   <time name="dav">   30.47   30.54</time>
   <time name="total">   31.02   31.11</time>
   <energy>
    <i name="e_fr_energy">   -189.31602431 </i>
    <i name="e_wo_entrp">   -189.04983264 </i>
    <i name="e_0_energy">   -189.18292848 </i>
   </energy>
  </scstep>
  <scstep>
   <time name="dav">   30.73   30.80</time>
   <time name="total">   31.27   31.36</time>
   <energy>
    <i name="e_fr_energy">   -188.72556913 </i>
    <i name="e_wo_entrp">   -188.44264292 </i>
    <i name="e_0_energy">   -188.58410602 </i>
   </energy>
  </scstep>
  <scstep>
   <time name="dav">   30.63   30.70</time>
   <time name="total">   31.17   31.26</time>
   <energy>
    <i name="e_fr_energy">   -188.75120202 </i>
    <i name="e_wo_entrp">   -188.46641177 </i>
    <i name="e_0_energy">   -188.60880690 </i>
   </energy>
  </scstep>
  <scstep>
   <time name="dav">   30.22   30.29</time>
   <time name="total">   30.76   30.85</time>
   <energy>
    <i name="e_fr_energy">   -188.72567653 </i>
    <i name="e_wo_entrp">   -188.44385875 </i>
    <i name="e_0_energy">   -188.58476764 </i>
   </energy>
  </scstep>
  <scstep>
   <time name="dav">   30.85   30.92</time>
   <time name="total">   31.39   31.48</time>
   <energy>
    <i name="e_fr_energy">   -188.66183182 </i>
    <i name="e_wo_entrp">   -188.37967273 </i>
    <i name="e_0_energy">   -188.52075227 </i>
   </energy>
  </scstep>
  <scstep>
   <time name="dav">   25.45   25.52</time>
   <time name="total">   26.00   26.07</time>
   <energy>
    <i name="e_fr_energy">   -188.64006696 </i>
    <i name="e_wo_entrp">   -188.35951528 </i>
    <i name="e_0_energy">   -188.49979112 </i>
   </energy>
  </scstep>
  <scstep>
   <time name="dav">   28.91   28.98</time>
   <time name="total">   29.46   29.54</time>
   <energy>
    <i name="e_fr_energy">   -188.63883926 </i>
    <i name="e_wo_entrp">   -188.35852853 </i>
    <i name="e_0_energy">   -188.49868390 </i>
   </energy>
  </scstep>
  <scstep>
   <time name="dav">   31.61   31.69</time>
   <time name="total">   32.16   32.25</time>
   <energy>
    <i name="e_fr_energy">   -188.63874465 </i>
    <i name="e_wo_entrp">   -188.35872291 </i>
    <i name="e_0_energy">   -188.49873378 </i>
   </energy>
  </scstep>
  <scstep>
   <time name="dav">   28.41   28.48</time>
   <time name="total">   28.96   29.04</time>
   <energy>
    <i name="e_fr_energy">   -188.63786530 </i>
    <i name="e_wo_entrp">   -188.35826126 </i>
    <i name="e_0_energy">   -188.49806328 </i>
   </energy>
  </scstep>
  <scstep>
   <time name="dav">   28.06   28.12</time>
   <time name="total">   28.61   28.68</time>
   <energy>
    <i name="e_fr_energy">   -188.63813835 </i>
    <i name="e_wo_entrp">   -188.35845885 </i>
    <i name="e_0_energy">   -188.49829860 </i>
   </energy>
  </scstep>
  <scstep>
   <time name="dav">   18.92   18.97</time>
   <time name="total">   18.96   19.01</time>
   <energy>
    <i name="alphaZ">     78.87568224 </i>
    <i name="ewald">  39354.65479586 </i>
    <i name="hartreedc"> -45319.74055386 </i>
    <i name="XCdc">   -238.02867177 </i>
    <i name="pawpsdc">   3949.47486012 </i>
    <i name="pawaedc">  -3363.96494747 </i>
    <i name="eentropy">     -0.27966682 </i>
    <i name="bandstr">  -1411.07215966 </i>
    <i name="atom">   6761.44252427 </i>
    <i name="e_fr_energy">   -188.63813709 </i>
    <i name="e_wo_entrp">   -188.35847027 </i>
    <i name="e_0_energy">   -188.49830368 </i>
   </energy>
  </scstep>
  <structure>
   <crystal>
    <varray name="basis" >
     <v>       8.85880369       5.10140195       0.00000000 </v>
     <v>      -8.86318743       5.10894351       0.00000000 </v>
     <v>       0.00000000       0.00000000      30.00000000 </v>
    </varray>
    <i name="volume">   2714.21427803 </i>
    <varray name="rec_basis" >
     <v>       0.05646876       0.09796412       0.00000000 </v>
     <v>      -0.05638540       0.09791567       0.00000000 </v>
     <v>       0.00000000       0.00000000       0.03333333 </v>
    </varray>
   </crystal>
   <varray name="positions" >
    <v>       0.66823398       0.33511585       0.00001539 </v>
    <v>       0.99907794       0.33287596      -0.00003313 </v>
    <v>       0.66828891      -0.00027225       0.00002460 </v>
    <v>       0.66945046       0.66800444       0.00012328 </v>
    <v>      -0.00156588       0.66790421      -0.00017077 </v>
    <v>      -0.00146928      -0.00267070      -0.00015308 </v>
    <v>       0.33100711      -0.00114984      -0.00007311 </v>
    <v>       0.33325407       0.33324129       0.00015587 </v>
    <v>       0.33328192       0.66666500       0.00015438 </v>
    <v>       0.10952162       0.22492332       0.95205742 </v>
    <v>       0.22301919       0.11169619       0.04923522 </v>
    <v>       0.10974267       0.55148958       0.95199892 </v>
    <v>       0.21855866       0.44266108       0.04813613 </v>
    <v>       0.11202302       0.88931967       0.95063791 </v>
    <v>       0.22304704       0.77803609       0.04923534 </v>
    <v>       0.44804030       0.22379152       0.95191548 </v>
    <v>       0.55896556       0.11253194       0.04679273 </v>
    <v>       0.44363728       0.55504090       0.95082346 </v>
    <v>       0.55685740       0.44151811       0.04799674 </v>
    <v>       0.44803543       0.89062947       0.95191926 </v>
    <v>       0.55663394       0.78156998       0.04806074 </v>
    <v>       0.77760394       0.22230156       0.95414895 </v>
    <v>       0.88655861       0.11320629       0.04691936 </v>
    <v>       0.77560851       0.55098680       0.95192415 </v>
    <v>       0.88677370       0.43984123       0.04685514 </v>
    <v>       0.77541611       0.89133873       0.95198776 </v>
    <v>       0.88861227       0.77761805       0.04931176 </v>
   </varray>
  </structure>
  <varray name="forces" >
   <v>      -0.10071850       0.27011737       0.08694791 </v>
   <v>      -0.00798074      -0.01198758      -0.05798682 </v>
   <v>       0.27866928       0.04307125       0.09141647 </v>
   <v>       0.23797745       0.40829369       0.01420983 </v>
   <v>      -0.61907713       0.25044053      -0.02649757 </v>
   <v>       0.52651221      -0.41026449      -0.03126824 </v>
   <v>      -0.28559309      -0.49597922       0.05781739 </v>
   <v>      -0.05033954       0.03286899      -0.06716179 </v>
   <v>       0.05852414      -0.02646755      -0.06655584 </v>
   <v>       0.03201141       0.09779479       0.11719253 </v>
   <v>       0.06240099       0.09490655      -0.00681418 </v>
   <v>       0.06565597       0.05889828       0.13446983 </v>
   <v>       0.05211730       0.05646276      -0.01846834 </v>
   <v>       0.04434458       0.09215770      -0.32162462 </v>
   <v>       0.06606770       0.08634605      -0.01262807 </v>
   <v>      -0.04512180      -0.06948257       0.16183887 </v>
   <v>      -0.06086049      -0.07131873      -0.32338880 </v>
   <v>      -0.06470162      -0.09165040       0.15112865 </v>
   <v>      -0.01729047      -0.09723427       0.00054317 </v>
   <v>      -0.06482159      -0.05705121       0.16068475 </v>
   <v>      -0.06914827      -0.04999585      -0.01415563 </v>
   <v>       0.01814801       0.00621416       0.14253524 </v>
   <v>      -0.04077491      -0.00902947      -0.10685711 </v>
   <v>       0.03290809      -0.06019824      -0.15189035 </v>
   <v>      -0.00265020      -0.05178591      -0.09501601 </v>
   <v>      -0.05182353       0.00977306      -0.16732245 </v>
   <v>       0.00556475      -0.00489969       0.34885120 </v>
  </varray>
  <varray name="stress" >
   <v>     -20.02695725       0.00594278       0.03137559 </v>
   <v>       0.00594270     -19.57034854      -0.01719194 </v>
   <v>       0.03137578      -0.01719185      -1.74630313 </v>
  </varray>
  <energy>
   <i name="e_fr_energy">   -188.63813709 </i>
   <i name="e_wo_entrp">   -188.49830368 </i>
   <i name="e_0_energy">     -0.27966682 </i>
  </energy>
  <time name="totalsc">  414.37  415.47</time>
 </calculation>
 <calculation>
  <scstep>
   <time name="dav">   23.75   23.80</time>
   <time name="total">   24.28   24.34</time>
   <energy>
    <i name="alphaZ">     82.33089424 </i>
    <i name="ewald">  41296.10578023 </i>
    <i name="hartreedc"> -47292.29012865 </i>
    <i name="XCdc">   -233.86285504 </i>
    <i name="pawpsdc">   3948.69337936 </i>
    <i name="pawaedc">  -3363.17649647 </i>
    <i name="eentropy">     -0.23555722 </i>
    <i name="bandstr">  -1389.60409649 </i>
    <i name="atom">   6761.44252427 </i>
    <i name="e_fr_energy">   -190.59655576 </i>
    <i name="e_wo_entrp">   -190.36099855 </i>
    <i name="e_0_energy">   -190.47877716 </i>
   </energy>
  </scstep>
  <scstep>
   <time name="dav">   30.43   30.50</time>
   <time name="total">   30.95   31.04</time>
   <energy>
    <i name="e_fr_energy">   -190.52453423 </i>
    <i name="e_wo_entrp">   -190.29959598 </i>
    <i name="e_0_energy">   -190.41206510 </i>
   </energy>
  </scstep>
  <scstep>
   <time name="dav">   30.11   30.19</time>
   <time name="total">   30.64   30.73</time>
   <energy>
    <i name="e_fr_energy">   -190.07180148 </i>
    <i name="e_wo_entrp">   -189.82123908 </i>
    <i name="e_0_energy">   -189.94652028 </i>
   </energy>
  </scstep>
  <scstep>
   <time name="dav">   32.00   32.08</time>
   <time name="total">   32.54   32.62</time>
   <energy>
    <i name="e_fr_energy">   -189.85578066 </i>
    <i name="e_wo_entrp">   -189.62634663 </i>
    <i name="e_0_energy">   -189.74106364 </i>
   </energy>
  </scstep>
  <scstep>
   <time name="dav">   30.08   30.16</time>
   <time name="total">   30.62   30.70</time>
   <energy>
    <i name="e_fr_energy">   -189.76519839 </i>
    <i name="e_wo_entrp">   -189.52866309 </i>
    <i name="e_0_energy">   -189.64693074 </i>
   </energy>
  </scstep>
  <scstep>
   <time name="dav">   28.96   29.03</time>
   <time name="total">   29.50   29.58</time>
   <energy>
    <i name="e_fr_energy">   -189.75390454 </i>
    <i name="e_wo_entrp">   -189.51701602 </i>
    <i name="e_0_energy">   -189.63546028 </i>
   </energy>
  </scstep>
  <scstep>
   <time name="dav">   28.23   28.30</time>
   <time name="total">   28.76   28.84</time>
   <energy>
    <i name="e_fr_energy">   -189.75030928 </i>
    <i name="e_wo_entrp">   -189.51352106 </i>
    <i name="e_0_energy">   -189.63191517 </i>
   </energy>
  </scstep>
  <scstep>
   <time name="dav">   29.02   29.08</time>
   <time name="total">   29.55   29.63</time>
   <energy>
    <i name="e_fr_energy">   -189.74980289 </i>
    <i name="e_wo_entrp">   -189.51312442 </i>
    <i name="e_0_energy">   -189.63146365 </i>
   </energy>
  </scstep>
  <scstep>
   <time name="dav">   29.18   29.25</time>
   <time name="total">   29.71   29.79</time>
   <energy>
    <i name="e_fr_energy">   -189.75023477 </i>
    <i name="e_wo_entrp">   -189.51363123 </i>
    <i name="e_0_energy">   -189.63193300 </i>
   </energy>
  </scstep>
  <scstep>
   <time name="dav">   26.00   26.06</time>
   <time name="total">   26.53   26.60</time>
   <energy>
    <i name="e_fr_energy">   -189.75040954 </i>
    <i name="e_wo_entrp">   -189.51367208 </i>
    <i name="e_0_energy">   -189.63204081 </i>
   </energy>
  </scstep>
  <scstep>
   <time name="dav">   23.04   23.10</time>
   <time name="total">   23.57   23.64</time>
   <energy>
    <i name="e_fr_energy">   -189.74992780 </i>
    <i name="e_wo_entrp">   -189.51309726 </i>
    <i name="e_0_energy">   -189.63151253 </i>
   </energy>
  </scstep>
  <scstep>
   <time name="dav">   17.30   17.34</time>
   <time name="total">   17.33   17.38</time>
   <energy>
    <i name="alphaZ">     82.33089424 </i>
    <i name="ewald">  41296.10578023 </i>
    <i name="hartreedc"> -47267.39087855 </i>
    <i name="XCdc">   -235.25751851 </i>
    <i name="pawpsdc">   4038.78051327 </i>
    <i name="pawaedc">  -3454.48111025 </i>
    <i name="eentropy">     -0.23681901 </i>
    <i name="bandstr">  -1411.04336026 </i>
    <i name="atom">   6761.44252427 </i>
    <i name="e_fr_energy">   -189.74997455 </i>
    <i name="e_wo_entrp">   -189.51315555 </i>
    <i name="e_0_energy">   -189.63156505 </i>
   </energy>
  </scstep>
  <structure>
   <crystal>
    <varray name="basis" >
     <v>       8.66878714       4.99451256       0.00000000 </v>
     <v>      -8.67301184       5.00178320       0.00000000 </v>
     <v>       0.00000000       0.00000000      30.00000000 </v>
    </varray>
    <i name="volume">   2600.30581367 </i>
    <varray name="rec_basis" >
     <v>       0.05770610       0.10006144       0.00000000 </v>
     <v>      -0.05762221       0.10001270       0.00000000 </v>
     <v>       0.00000000       0.00000000       0.03333333 </v>
    </varray>
   </crystal>
   <varray name="positions" >
    <v>       0.66858866       0.33566436       0.00006487 </v>
    <v>       0.99905019       0.33286361      -0.00006613 </v>
    <v>       0.66862961      -0.00046851       0.00007663 </v>
    <v>       0.67036277       0.66845790       0.00013136 </v>
    <v>      -0.00174386       0.66891883      -0.00018585 </v>
    <v>      -0.00164786      -0.00386339      -0.00017088 </v>
    <v>       0.32990223      -0.00170404      -0.00004021 </v>
    <v>       0.33326051       0.33334470       0.00011765 </v>
    <v>       0.33329407       0.66656442       0.00011650 </v>
    <v>       0.10971604       0.22505599       0.95212411 </v>
    <v>       0.22323808       0.11179477       0.04923134 </v>
    <v>       0.10990448       0.55152484       0.95207545 </v>
    <v>       0.21870334       0.44270530       0.04812561 </v>
    <v>       0.11221991       0.88943104       0.95045488 </v>
    <v>       0.22325515       0.77811684       0.04922816 </v>
    <v>       0.44788059       0.22371880       0.95200758 </v>
    <v>       0.55878761       0.11247130       0.04660870 </v>
    <v>       0.44342162       0.55494997       0.95090946 </v>
    <v>       0.55667810       0.44137221       0.04799704 </v>
    <v>       0.44787752       0.89059649       0.95201070 </v>
    <v>       0.55648366       0.78155297       0.04805268 </v>
    <v>       0.77763183       0.22229448       0.95423006 </v>
    <v>       0.88650419       0.11323045       0.04685855 </v>
    <v>       0.77553955       0.55085448       0.95183771 </v>
    <v>       0.88668453       0.43975721       0.04680107 </v>
    <v>       0.77538249       0.89140496       0.95189254 </v>
    <v>       0.88860944       0.77760450       0.04951029 </v>
   </varray>
  </structure>
  <varray name="forces" >
   <v>      -0.15785688       0.23741491       0.08966121 </v>
   <v>       0.03924253       0.06623691      -0.04881634 </v>
   <v>       0.27994666      -0.02211516       0.09340930 </v>
   <v>       0.21778675       0.37435864      -0.00441970 </v>
   <v>      -0.64820827       0.34690907      -0.00434335 </v>
   <v>       0.62630392      -0.38873163      -0.00884143 </v>
   <v>      -0.31643636      -0.54886536       0.06891676 </v>
   <v>      -0.07467008       0.04543740      -0.08498754 </v>
   <v>       0.08421512      -0.04211807      -0.08502334 </v>
   <v>      -0.07461512       0.00239282      -0.36474243 </v>
   <v>       0.00672925       0.01463783       0.55297866 </v>
   <v>       0.03622249      -0.07998224      -0.34774170 </v>
   <v>      -0.03163621      -0.08312611       0.51190843 </v>
   <v>      -0.00078298       0.01250036      -0.92563535 </v>
   <v>       0.02184876      -0.00032407       0.54753665 </v>
   <v>       0.04505615       0.05626155      -0.34121306 </v>
   <v>       0.01227285       0.05222668       0.10902190 </v>
   <v>      -0.01271566      -0.00319297      -0.39681204 </v>
   <v>       0.09160995      -0.01188027       0.50193779 </v>
   <v>       0.00240118       0.08309191      -0.34054058 </v>
   <v>      -0.05247574       0.08836327       0.48687401 </v>
   <v>       0.01527463      -0.00120975      -0.27485168 </v>
   <v>      -0.09014242      -0.00268963       0.32860264 </v>
   <v>       0.06932670      -0.11869784      -0.65426089 </v>
   <v>       0.02639465      -0.08731477       0.34172590 </v>
   <v>      -0.12140970       0.01007607      -0.66618477 </v>
   <v>       0.00631782       0.00034046       0.91584096 </v>
  </varray>
  <varray name="stress" >
   <v>     -10.21694368       0.03493238       0.03309669 </v>
   <v>       0.03493235      -9.82878887       0.01234363 </v>
   <v>       0.03309657       0.01234374       6.49400003 </v>
  </varray>
  <energy>
   <i name="e_fr_energy">   -189.74997455 </i>
   <i name="e_wo_entrp">   -189.63156505 </i>
   <i name="e_0_energy">     -0.23681901 </i>
  </energy>
  <time name="totalsc">  375.93  376.92</time>
 </calculation>
 <calculation>
  <scstep>
   <time name="dav">   21.68   21.73</time>
   <time name="total">   22.20   22.25</time>
   <energy>
    <i name="alphaZ">     85.81981231 </i>
    <i name="ewald">  42834.33698261 </i>
    <i name="hartreedc"> -48850.25413388 </i>
    <i name="XCdc">   -232.95670803 </i>
    <i name="pawpsdc">   4038.71603832 </i>
    <i name="pawaedc">  -3454.41254012 </i>
    <i name="eentropy">     -0.20272971 </i>
    <i name="bandstr">  -1373.83858290 </i>
    <i name="atom">   6761.44252427 </i>
    <i name="e_fr_energy">   -191.34933711 </i>
    <i name="e_wo_entrp">   -191.14660741 </i>
    <i name="e_0_energy">   -191.24797226 </i>
   </energy>
  </scstep>
  <scstep>
   <time name="dav">   31.76   31.83</time>
   <time name="total">   32.27   32.36</time>
   <energy>
    <i name="e_fr_energy">   -191.15317061 </i>
    <i name="e_wo_entrp">   -190.95788888 </i>
    <i name="e_0_energy">   -191.05552975 </i>
   </energy>
  </scstep>
  <scstep>
   <time name="dav">   30.30   30.37</time>
   <time name="total">   30.81   30.89</time>
   <energy>
    <i name="e_fr_energy">   -191.29898858 </i>
    <i name="e_wo_entrp">   -191.07351549 </i>
    <i name="e_0_energy">   -191.18625203 </i>
   </energy>
  </scstep>
  <scstep>
   <time name="dav">   31.75   31.83</time>
   <time name="total">   32.27   32.36</time>
   <energy>
    <i name="e_fr_energy">   -190.89958934 </i>
    <i name="e_wo_entrp">   -190.70087050 </i>
    <i name="e_0_energy">   -190.80022992 </i>
   </energy>
  </scstep>
  <scstep>
   <time name="dav">   29.79   29.86</time>
   <time name="total">   30.31   30.39</time>
   <energy>
    <i name="e_fr_energy">   -190.78056432 </i>
    <i name="e_wo_entrp">   -190.57672897 </i>
    <i name="e_0_energy">   -190.67864665 </i>
   </energy>
  </scstep>
  <scstep>
   <time name="dav">   27.03   27.09</time>
   <time name="total">   27.55   27.62</time>
   <energy>
    <i name="e_fr_energy">   -190.76459316 </i>
    <i name="e_wo_entrp">   -190.55716551 </i>
    <i name="e_0_energy">   -190.66087933 </i>
   </energy>
  </scstep>
  <scstep>
   <time name="dav">   29.57   29.65</time>
   <time name="total">   30.10   30.18</time>
   <energy>
    <i name="e_fr_energy">   -190.76974402 </i>
    <i name="e_wo_entrp">   -190.56212730 </i>
    <i name="e_0_energy">   -190.66593566 </i>
   </energy>
  </scstep>
  <scstep>
   <time name="dav">   29.12   29.19</time>
   <time name="total">   29.64   29.72</time>
   <energy>
    <i name="e_fr_energy">   -190.76154250 </i>
    <i name="e_wo_entrp">   -190.55483654 </i>
    <i name="e_0_energy">   -190.65818952 </i>
   </energy>
  </scstep>
  <scstep>
   <time name="dav">   28.98   29.05</time>
   <time name="total">   29.50   29.58</time>
   <energy>
    <i name="e_fr_energy">   -190.76193756 </i>
    <i name="e_wo_entrp">   -190.55515643 </i>
    <i name="e_0_energy">   -190.65854699 </i>
   </energy>
  </scstep>
  <scstep>
   <time name="dav">   29.64   29.71</time>
   <time name="total">   30.16   30.24</time>
   <energy>
    <i name="e_fr_energy">   -190.76208217 </i>
    <i name="e_wo_entrp">   -190.55535142 </i>
    <i name="e_0_energy">   -190.65871680 </i>
   </energy>
  </scstep>
  <scstep>
   <time name="dav">   26.01   26.08</time>
   <time name="total">   26.55   26.61</time>
   <energy>
    <i name="e_fr_energy">   -190.76163546 </i>
    <i name="e_wo_entrp">   -190.55485857 </i>
    <i name="e_0_energy">   -190.65824702 </i>
   </energy>
  </scstep>
  <scstep>
   <time name="dav">   17.81   17.86</time>
   <time name="total">   17.85   18.12</time>
   <energy>
    <i name="alphaZ">     85.81981231 </i>
    <i name="ewald">  42834.33698261 </i>
    <i name="hartreedc"> -48822.06579998 </i>
    <i name="XCdc">   -234.28604077 </i>
    <i name="pawpsdc">   4064.29022816 </i>
    <i name="pawaedc">  -3480.18072309 </i>
    <i name="eentropy">     -0.20688880 </i>
    <i name="bandstr">  -1399.91172841 </i>
    <i name="atom">   6761.44252427 </i>
    <i name="e_fr_energy">   -190.76163369 </i>
    <i name="e_wo_entrp">   -190.55474489 </i>
    <i name="e_0_energy">   -190.65818929 </i>
   </energy>
  </scstep>
  <structure>
   <crystal>
    <varray name="basis" >
     <v>       8.48605794       4.89664672       0.00000000 </v>
     <v>      -8.48845623       4.90075944       0.00000000 </v>
     <v>       0.00000000       0.00000000      30.00000000 </v>
    </varray>
    <i name="volume">   2494.59299855 </i>
    <varray name="rec_basis" >
     <v>       0.05893658       0.10208226       0.00000000 </v>
     <v>      -0.05888712       0.10205342       0.00000000 </v>
     <v>       0.00000000       0.00000000       0.03333333 </v>
    </varray>
   </crystal>
   <varray name="positions" >
    <v>       0.66934325       0.33772233       0.00025281 </v>
    <v>       0.99986893       0.33326348      -0.00015946 </v>
    <v>       0.66934330      -0.00178133       0.00027172 </v>
    <v>       0.67338384       0.66996177       0.00010648 </v>
    <v>      -0.00171534       0.67371364      -0.00017614 </v>
    <v>      -0.00162388      -0.00864942      -0.00017025 </v>
    <v>       0.32514215      -0.00408754       0.00011186 </v>
    <v>       0.33327173       0.33396490      -0.00007337 </v>
    <v>       0.33333247       0.66592096      -0.00007513 </v>
    <v>       0.10907203       0.22525606       0.95096202 </v>
    <v>       0.22307538       0.11174263       0.05084892 </v>
    <v>       0.10914739       0.55059053       0.95094832 </v>
    <v>       0.21760173       0.44207213       0.04963332 </v>
    <v>       0.11203324       0.88937909       0.94802838 </v>
    <v>       0.22305382       0.77788413       0.05083478 </v>
    <v>       0.44883716       0.22409169       0.95087638 </v>
    <v>       0.55957051       0.11295617       0.04719950 </v>
    <v>       0.44364946       0.55512101       0.94962524 </v>
    <v>       0.55730241       0.44102317       0.04945963 </v>
    <v>       0.44885094       0.89135999       0.95088243 </v>
    <v>       0.55721497       0.78261540       0.04948377 </v>
    <v>       0.77765695       0.22221744       0.95330859 </v>
    <v>       0.88610652       0.11362529       0.04790658 </v>
    <v>       0.77495310       0.54966338       0.95005891 </v>
    <v>       0.88618602       0.43898524       0.04787735 </v>
    <v>       0.77490789       0.89200658       0.95009201 </v>
    <v>       0.88864850       0.77759574       0.05188525 </v>
   </varray>
  </structure>
  <varray name="forces" >
   <v>      -0.16506983       0.21488294       0.06031476 </v>
   <v>       0.07377468       0.12459174      -0.00660977 </v>
   <v>       0.26901576      -0.03926100       0.06159845 </v>
   <v>       0.17093744       0.29905275      -0.03968720 </v>
   <v>      -0.62448653       0.40790243       0.02264393 </v>
   <v>       0.66822873      -0.33857229       0.02782531 </v>
   <v>      -0.34614344      -0.60127936       0.03022677 </v>
   <v>      -0.13194218       0.09473622      -0.05958679 </v>
   <v>       0.15340066      -0.06542712      -0.06047186 </v>
   <v>       0.01867531      -0.09745760      -0.21266835 </v>
   <v>      -0.05639064      -0.05146758       0.35774053 </v>
   <v>      -0.08982682      -0.04140224      -0.20372878 </v>
   <v>      -0.03051022      -0.05142308       0.37548276 </v>
   <v>      -0.01940163      -0.03739553      -0.79277320 </v>
   <v>      -0.01868951      -0.07403025       0.35450811 </v>
   <v>       0.05700960      -0.00439940      -0.17443903 </v>
   <v>      -0.03699738      -0.04421800       0.01970793 </v>
   <v>       0.05135067       0.08778269      -0.26972658 </v>
   <v>       0.00396392       0.03900375       0.35135095 </v>
   <v>      -0.03231775       0.04764614      -0.17272980 </v>
   <v>       0.02489231       0.03369126       0.34635274 </v>
   <v>       0.00978488      -0.00272079      -0.25357352 </v>
   <v>       0.06393421      -0.00583959       0.22504812 </v>
   <v>       0.03002539       0.02448454      -0.45672205 </v>
   <v>      -0.05060465       0.05445820       0.23106759 </v>
   <v>       0.01704015       0.03625118      -0.46177861 </v>
   <v>      -0.00965314      -0.00959001       0.70062756 </v>
  </varray>
  <varray name="stress" >
   <v>      -5.65271938      -0.12545285      -0.14546082 </v>
   <v>      -0.12545282      -5.82683849      -0.11935509 </v>
   <v>      -0.14546102      -0.11935485       4.53096427 </v>
  </varray>
  <energy>
   <i name="e_fr_energy">   -190.76163369 </i>
   <i name="e_wo_entrp">   -190.65818929 </i>
   <i name="e_0_energy">     -0.20688880 </i>
  </energy>
  <time name="totalsc">  381.08  382.30</time>
 </calculation>
 <calculation>
  <scstep>
   <time name="dav">   21.71   21.76</time>
   <time name="total">   22.22   22.27</time>
   <energy>
    <i name="alphaZ">     90.10574661 </i>
    <i name="ewald">  44642.88585298 </i>
    <i name="hartreedc"> -50684.77290136 </i>
    <i name="XCdc">   -231.85394104 </i>
    <i name="pawpsdc">   4064.25328719 </i>
    <i name="pawaedc">  -3480.14003890 </i>
    <i name="eentropy">     -0.19531551 </i>
    <i name="bandstr">  -1353.83709950 </i>
    <i name="atom">   6761.44252427 </i>
    <i name="e_fr_energy">   -192.11188526 </i>
    <i name="e_wo_entrp">   -191.91656975 </i>
    <i name="e_0_energy">   -192.01422751 </i>
   </energy>
  </scstep>
  <scstep>
   <time name="dav">   28.17   28.24</time>
   <time name="total">   28.68   28.75</time>
   <energy>
    <i name="e_fr_energy">   -191.84058218 </i>
    <i name="e_wo_entrp">   -191.64384939 </i>
    <i name="e_0_energy">   -191.74221578 </i>
   </energy>
  </scstep>
  <scstep>
   <time name="dav">   29.69   29.76</time>
   <time name="total">   30.20   30.28</time>
   <energy>
    <i name="e_fr_energy">   -191.97029005 </i>
    <i name="e_wo_entrp">   -191.75884958 </i>
    <i name="e_0_energy">   -191.86456982 </i>
   </energy>
  </scstep>
  <scstep>
   <time name="dav">   27.87   27.93</time>
   <time name="total">   28.38   28.45</time>
   <energy>
    <i name="e_fr_energy">   -191.77345407 </i>
    <i name="e_wo_entrp">   -191.57387702 </i>
    <i name="e_0_energy">   -191.67366555 </i>
   </energy>
  </scstep>
  <scstep>
   <time name="dav">   30.46   30.54</time>
   <time name="total">   30.97   31.05</time>
   <energy>
    <i name="e_fr_energy">   -191.57810362 </i>
    <i name="e_wo_entrp">   -191.39200707 </i>
    <i name="e_0_energy">   -191.48505535 </i>
   </energy>
  </scstep>
  <scstep>
   <time name="dav">   30.60   30.67</time>
   <time name="total">   31.10   31.19</time>
   <energy>
    <i name="e_fr_energy">   -191.44032092 </i>
    <i name="e_wo_entrp">   -191.23702529 </i>
    <i name="e_0_energy">   -191.33867311 </i>
   </energy>
  </scstep>
  <scstep>
   <time name="dav">   30.18   30.25</time>
   <time name="total">   30.69   30.77</time>
   <energy>
    <i name="e_fr_energy">   -191.42371838 </i>
    <i name="e_wo_entrp">   -191.22105532 </i>
    <i name="e_0_energy">   -191.32238685 </i>
   </energy>
  </scstep>
  <scstep>
   <time name="dav">   26.92   26.98</time>
   <time name="total">   27.43   27.50</time>
   <energy>
    <i name="e_fr_energy">   -191.41909173 </i>
    <i name="e_wo_entrp">   -191.21680975 </i>
    <i name="e_0_energy">   -191.31795074 </i>
   </energy>
  </scstep>
  <scstep>
   <time name="dav">   31.11   31.18</time>
   <time name="total">   31.62   31.70</time>
   <energy>
    <i name="e_fr_energy">   -191.42108978 </i>
    <i name="e_wo_entrp">   -191.21859496 </i>
    <i name="e_0_energy">   -191.31984237 </i>
   </energy>
  </scstep>
  <scstep>
   <time name="dav">   28.79   28.86</time>
   <time name="total">   29.30   29.38</time>
   <energy>
    <i name="e_fr_energy">   -191.41932410 </i>
    <i name="e_wo_entrp">   -191.21665079 </i>
    <i name="e_0_energy">   -191.31798744 </i>
   </energy>
  </scstep>
  <scstep>
   <time name="dav">   26.64   26.71</time>
   <time name="total">   27.15   27.22</time>
   <energy>
    <i name="e_fr_energy">   -191.41913227 </i>
    <i name="e_wo_entrp">   -191.21619142 </i>
    <i name="e_0_energy">   -191.31766185 </i>
   </energy>
  </scstep>
  <scstep>
   <time name="dav">   18.90   18.94</time>
   <time name="total">   18.93   18.99</time>
   <energy>
    <i name="alphaZ">     90.10574661 </i>
    <i name="ewald">  44642.88585298 </i>
    <i name="hartreedc"> -50651.99411350 </i>
    <i name="XCdc">   -233.34538132 </i>
    <i name="pawpsdc">   4087.72018999 </i>
    <i name="pawaedc">  -3503.73570399 </i>
    <i name="eentropy">     -0.20300624 </i>
    <i name="bandstr">  -1384.29522976 </i>
    <i name="atom">   6761.44252427 </i>
    <i name="e_fr_energy">   -191.41912097 </i>
    <i name="e_wo_entrp">   -191.21611474 </i>
    <i name="e_0_energy">   -191.31761785 </i>
   </energy>
  </scstep>
  <structure>
   <crystal>
    <varray name="basis" >
     <v>       8.28220197       4.77109074       0.00000000 </v>
     <v>      -8.29098740       4.78626571       0.00000000 </v>
     <v>       0.00000000       0.00000000      30.00000000 </v>
    </varray>
    <i name="volume">   2375.93617500 </i>
    <varray name="rec_basis" >
     <v>       0.06043427       0.10468700       0.00000000 </v>
     <v>      -0.06024266       0.10457607       0.00000000 </v>
     <v>       0.00000000       0.00000000       0.03333333 </v>
    </varray>
   </crystal>
   <varray name="positions" >
    <v>       0.67064294       0.34148182       0.00050687 </v>
    <v>       1.00204608       0.33432932      -0.00019850 </v>
    <v>       0.67059853      -0.00428502       0.00053140 </v>
    <v>       0.67820676       0.67238790      -0.00004840 </v>
    <v>      -0.00104500       0.68318917      -0.00008046 </v>
    <v>      -0.00095665      -0.01749858      -0.00005900 </v>
    <v>       0.31542156      -0.00895705       0.00026074 </v>
    <v>       0.33346487       0.33596083      -0.00033678 </v>
    <v>       0.33358169       0.66408716      -0.00034218 </v>
    <v>       0.10766901       0.22410743       0.94959605 </v>
    <v>       0.22191844       0.11142929       0.05287904 </v>
    <v>       0.10764894       0.55019955       0.94962128 </v>
    <v>       0.21619900       0.44136265       0.05167490 </v>
    <v>       0.11125360       0.88897842       0.94428398 </v>
    <v>       0.22187911       0.77703506       0.05285144 </v>
    <v>       0.44975877       0.22395614       0.94963274 </v>
    <v>       0.55944138       0.11301588       0.04773025 </v>
    <v>       0.44518415       0.55589545       0.94798637 </v>
    <v>       0.55820883       0.44136431       0.05138665 </v>
    <v>       0.44978426       0.89246273       0.94964667 </v>
    <v>       0.55821898       0.78336383       0.05138566 </v>
    <v>       0.77767456       0.22209820       0.95191063 </v>
    <v>       0.88628106       0.11335560       0.04925224 </v>
    <v>       0.77515847       0.54926291       0.94769382 </v>
    <v>       0.88628110       0.43954730       0.04925147 </v>
    <v>       0.77518143       0.89252231       0.94770686 </v>
    <v>       0.88851261       0.77756186       0.05527617 </v>
   </varray>
  </structure>
  <varray name="forces" >
   <v>      -0.10212092       0.22815624      -0.00867247 </v>
   <v>       0.04846961       0.08169388      -0.02232547 </v>
   <v>       0.24776159       0.02544684      -0.01617301 </v>
   <v>      -0.02348387      -0.03759126       0.03118860 </v>
   <v>      -0.06794832       0.05041537       0.02063415 </v>
   <v>       0.08334009      -0.03017532       0.01180495 </v>
   <v>      -0.18511795      -0.31390779      -0.08753604 </v>
   <v>      -0.20715797       0.19952299      -0.00392789 </v>
   <v>       0.28003394      -0.07878275      -0.00248075 </v>
   <v>       0.14013036      -0.17065684       0.09059036 </v>
   <v>      -0.09465935      -0.08914084       0.04513817 </v>
   <v>      -0.21648067       0.03773068       0.08721781 </v>
   <v>       0.01049772       0.02265617       0.12973432 </v>
   <v>      -0.02396758      -0.04218634      -0.35461536 </v>
   <v>      -0.03056978      -0.12610978       0.04335462 </v>
   <v>       0.01998803      -0.09627199       0.10260177 </v>
   <v>      -0.12533413      -0.21592604      -0.20063944 </v>
   <v>       0.08503001       0.14273318      -0.13359712 </v>
   <v>      -0.09457867       0.05389238       0.05919540 </v>
   <v>      -0.09120697      -0.03372689       0.10190319 </v>
   <v>       0.09117888      -0.05520514       0.06723950 </v>
   <v>       0.00064732       0.00561794      -0.00214522 </v>
   <v>       0.25723751       0.01486890      -0.01460771 </v>
   <v>      -0.00448493       0.16702286      -0.08601776 </v>
   <v>      -0.11597870       0.23009247      -0.02053371 </v>
   <v>       0.14708819       0.07965779      -0.08267973 </v>
   <v>      -0.02831345      -0.04982669       0.24534886 </v>
  </varray>
  <varray name="stress" >
   <v>       0.47293371      -0.27515461      -0.19901413 </v>
   <v>      -0.27515450       0.20231577      -0.32490932 </v>
   <v>      -0.19901435      -0.32490948      -0.41747332 </v>
  </varray>
  <energy>
   <i name="e_fr_energy">   -191.41912097 </i>
   <i name="e_wo_entrp">   -191.31761785 </i>
   <i name="e_0_energy">     -0.20300624 </i>
  </energy>
  <time name="totalsc">  378.39  379.40</time>
 </calculation>
 <calculation>
  <scstep>
   <time name="dav">   21.72   21.77</time>
   <time name="total">   22.23   22.29</time>
   <energy>
    <i name="alphaZ">     89.87431436 </i>
    <i name="ewald">  44519.51988199 </i>
    <i name="hartreedc"> -50527.02690923 </i>
    <i name="XCdc">   -233.58221084 </i>
    <i name="pawpsdc">   4087.50723096 </i>
    <i name="pawaedc">  -3503.51568411 </i>
    <i name="eentropy">     -0.20556493 </i>
    <i name="bandstr">  -1385.47381461 </i>
    <i name="atom">   6761.44252427 </i>
    <i name="e_fr_energy">   -191.46023212 </i>
    <i name="e_wo_entrp">   -191.25466719 </i>
    <i name="e_0_energy">   -191.35744966 </i>
   </energy>
  </scstep>
  <scstep>
   <time name="dav">   32.36   32.44</time>
   <time name="total">   32.87   32.96</time>
   <energy>
    <i name="e_fr_energy">   -191.49597096 </i>
    <i name="e_wo_entrp">   -191.28229061 </i>
    <i name="e_0_energy">   -191.38913079 </i>
   </energy>
  </scstep>
  <scstep>
   <time name="dav">   30.73   30.80</time>
   <time name="total">   31.24   31.32</time>
   <energy>
    <i name="e_fr_energy">   -191.46876035 </i>
    <i name="e_wo_entrp">   -191.26310659 </i>
    <i name="e_0_energy">   -191.36593347 </i>
   </energy>
  </scstep>
  <scstep>
   <time name="dav">   28.85   28.92</time>
   <time name="total">   29.36   29.44</time>
   <energy>
    <i name="e_fr_energy">   -191.47003093 </i>
    <i name="e_wo_entrp">   -191.26411720 </i>
    <i name="e_0_energy">   -191.36707406 </i>
   </energy>
  </scstep>
  <scstep>
   <time name="dav">   26.29   26.35</time>
   <time name="total">   26.80   26.87</time>
   <energy>
    <i name="e_fr_energy">   -191.46682636 </i>
    <i name="e_wo_entrp">   -191.25942144 </i>
    <i name="e_0_energy">   -191.36312390 </i>
   </energy>
  </scstep>
  <scstep>
   <time name="dav">   27.95   28.01</time>
   <time name="total">   28.46   28.53</time>
   <energy>
    <i name="e_fr_energy">   -191.46637572 </i>
    <i name="e_wo_entrp">   -191.25995646 </i>
    <i name="e_0_energy">   -191.36316609 </i>
   </energy>
  </scstep>
  <scstep>
   <time name="dav">   24.15   24.21</time>
   <time name="total">   24.66   24.73</time>
   <energy>
    <i name="e_fr_energy">   -191.46622897 </i>
    <i name="e_wo_entrp">   -191.25976859 </i>
    <i name="e_0_energy">   -191.36299878 </i>
   </energy>
  </scstep>
  <scstep>
   <time name="dav">   18.96   19.01</time>
   <time name="total">   19.00   19.05</time>
   <energy>
    <i name="alphaZ">     89.87431436 </i>
    <i name="ewald">  44519.51988199 </i>
    <i name="hartreedc"> -50529.69214631 </i>
    <i name="XCdc">   -233.48855576 </i>
    <i name="pawpsdc">   4082.47303608 </i>
    <i name="pawaedc">  -3498.41746543 </i>
    <i name="eentropy">     -0.20651416 </i>
    <i name="bandstr">  -1382.97128946 </i>
    <i name="atom">   6761.44252427 </i>
    <i name="e_fr_energy">   -191.46621442 </i>
    <i name="e_wo_entrp">   -191.25970027 </i>
    <i name="e_0_energy">   -191.36295734 </i>
   </energy>
  </scstep>
  <structure>
   <crystal>
    <varray name="basis" >
     <v>       8.29237457       4.77008308       0.00000000 </v>
     <v>      -8.30761025       4.79643326       0.00000000 </v>
     <v>       0.00000000       0.00000000      30.00000000 </v>
    </varray>
    <i name="volume">   2382.05436626 </i>
    <varray name="rec_basis" >
     <v>       0.06040710       0.10462746       0.00000000 </v>
     <v>      -0.06007524       0.10443558       0.00000000 </v>
     <v>       0.00000000       0.00000000       0.03333333 </v>
    </varray>
   </crystal>
   <varray name="positions" >
    <v>       0.67141458       0.34273477       0.00048535 </v>
    <v>       1.00249896       0.33455118      -0.00023100 </v>
    <v>       0.67136813      -0.00476349       0.00049827 </v>
    <v>       0.67781045       0.67219670       0.00000392 </v>
    <v>      -0.00101463       0.68331558      -0.00005217 </v>
    <v>      -0.00089388      -0.01759233      -0.00004454 </v>
    <v>       0.31371486      -0.00979416       0.00012212 </v>
    <v>       0.33384180       0.33742315      -0.00033389 </v>
    <v>       0.33397093       0.66299697      -0.00033697 </v>
    <v>       0.10729138       0.22293897       0.94978824 </v>
    <v>       0.22127008       0.11127559       0.05287074 </v>
    <v>       0.10728670       0.55099908       0.94980703 </v>
    <v>       0.21639263       0.44147076       0.05179633 </v>
    <v>       0.11101426       0.88885721       0.94387470 </v>
    <v>       0.22123162       0.77654514       0.05284086 </v>
    <v>       0.44931212       0.22343860       0.94983999 </v>
    <v>       0.55805229       0.11232006       0.04739826 </v>
    <v>       0.44605096       0.55631753       0.94784673 </v>
    <v>       0.55816821       0.44187362       0.05140467 </v>
    <v>       0.44932925       0.89251151       0.94985260 </v>
    <v>       0.55816606       0.78281451       0.05141684 </v>
    <v>       0.77770304       0.22212739       0.95195980 </v>
    <v>       0.88706130       0.11272177       0.04917790 </v>
    <v>       0.77594497       0.55009634       0.94764917 </v>
    <v>       0.88706293       0.44095792       0.04916711 </v>
    <v>       0.77596609       0.89247764       0.94766793 </v>
    <v>       0.88819936       0.77740247       0.05552992 </v>
   </varray>
  </structure>
  <varray name="forces" >
   <v>      -0.08085188       0.26206655       0.00386637 </v>
   <v>       0.03061758       0.05201528      -0.04338741 </v>
   <v>       0.26653223       0.06115757       0.00381102 </v>
   <v>      -0.02018064      -0.03345970       0.03731465 </v>
   <v>      -0.23204847       0.10652152       0.01934001 </v>
   <v>       0.21052740      -0.14469260       0.02341146 </v>
   <v>      -0.20771807      -0.35332547       0.00475443 </v>
   <v>      -0.20956522       0.23159057      -0.00927920 </v>
   <v>       0.31170105      -0.06494488      -0.00859529 </v>
   <v>       0.07392913      -0.08222230       0.08802418 </v>
   <v>      -0.05654354      -0.02785566      -0.02445272 </v>
   <v>      -0.10606145       0.02386294       0.08874978 </v>
   <v>       0.00661459       0.01463980       0.11917203 </v>
   <v>      -0.03817646      -0.07172738      -0.22477598 </v>
   <v>       0.00304293      -0.06091422      -0.02623948 </v>
   <v>      -0.00937150      -0.05837517       0.11649921 </v>
   <v>      -0.07835563      -0.13379514      -0.24580877 </v>
   <v>       0.04680929       0.07719559      -0.14732153 </v>
   <v>      -0.05163137       0.02918943       0.05573351 </v>
   <v>      -0.04406437      -0.04021964       0.11650028 </v>
   <v>       0.04813413      -0.02881307       0.05824099 </v>
   <v>       0.00414255       0.00883252       0.04262138 </v>
   <v>       0.14234687       0.01615414      -0.00894189 </v>
   <v>      -0.01635299       0.08451095      -0.07253863 </v>
   <v>      -0.05788221       0.13210069      -0.00866482 </v>
   <v>       0.08226909       0.02760275      -0.07374928 </v>
   <v>      -0.01786304      -0.02709506       0.11571568 </v>
  </varray>
  <varray name="stress" >
   <v>      -0.37272404       0.04126159      -0.05384771 </v>
   <v>       0.04126156      -0.33335605      -0.05017856 </v>
   <v>      -0.05384761      -0.05017843      -1.15491655 </v>
  </varray>
  <energy>
   <i name="e_fr_energy">   -191.46621442 </i>
   <i name="e_wo_entrp">   -191.36295734 </i>
   <i name="e_0_energy">     -0.20651416 </i>
  </energy>
  <time name="totalsc">  256.61  257.29</time>
 </calculation>
 <calculation>
  <scstep>
   <time name="dav">   21.70   21.76</time>
   <time name="total">   22.22   22.27</time>
   <energy>
    <i name="alphaZ">     90.13287304 </i>
    <i name="ewald">  44631.99744511 </i>
    <i name="hartreedc"> -50645.10621116 </i>
    <i name="XCdc">   -233.33253244 </i>
    <i name="pawpsdc">   4082.24363731 </i>
    <i name="pawaedc">  -3498.18550346 </i>
    <i name="eentropy">     -0.20807595 </i>
    <i name="bandstr">  -1380.50330232 </i>
    <i name="atom">   6761.44252427 </i>
    <i name="e_fr_energy">   -191.51914562 </i>
    <i name="e_wo_entrp">   -191.31106966 </i>
    <i name="e_0_energy">   -191.41510764 </i>
   </energy>
  </scstep>
  <scstep>
   <time name="dav">   32.91   32.99</time>
   <time name="total">   33.42   33.51</time>
   <energy>
    <i name="e_fr_energy">   -191.54086763 </i>
    <i name="e_wo_entrp">   -191.32480000 </i>
    <i name="e_0_energy">   -191.43283382 </i>
   </energy>
  </scstep>
  <scstep>
   <time name="dav">   30.20   30.28</time>
   <time name="total">   30.71   30.79</time>
   <energy>
    <i name="e_fr_energy">   -191.52904759 </i>
    <i name="e_wo_entrp">   -191.32211440 </i>
    <i name="e_0_energy">   -191.42558099 </i>
   </energy>
  </scstep>
  <scstep>
   <time name="dav">   29.11   29.18</time>
   <time name="total">   29.62   29.70</time>
   <energy>
    <i name="e_fr_energy">   -191.52664666 </i>
    <i name="e_wo_entrp">   -191.31868905 </i>
    <i name="e_0_energy">   -191.42266785 </i>
   </energy>
  </scstep>
  <scstep>
   <time name="dav">   27.35   27.42</time>
   <time name="total">   27.86   27.94</time>
   <energy>
    <i name="e_fr_energy">   -191.52407286 </i>
    <i name="e_wo_entrp">   -191.31388011 </i>
    <i name="e_0_energy">   -191.41897648 </i>
   </energy>
  </scstep>
  <scstep>
   <time name="dav">   26.41   26.47</time>
   <time name="total">   26.92   26.99</time>
   <energy>
    <i name="e_fr_energy">   -191.52305817 </i>
    <i name="e_wo_entrp">   -191.31386351 </i>
    <i name="e_0_energy">   -191.41846084 </i>
   </energy>
  </scstep>
  <scstep>
   <time name="dav">   29.51   29.58</time>
   <time name="total">   30.02   30.10</time>
   <energy>
    <i name="e_fr_energy">   -191.52300768 </i>
    <i name="e_wo_entrp">   -191.31330181 </i>
    <i name="e_0_energy">   -191.41815474 </i>
   </energy>
  </scstep>
  <scstep>
   <time name="dav">   22.69   22.75</time>
   <time name="total">   23.20   23.26</time>
   <energy>
    <i name="e_fr_energy">   -191.52278680 </i>
    <i name="e_wo_entrp">   -191.31309305 </i>
    <i name="e_0_energy">   -191.41793993 </i>
   </energy>
  </scstep>
  <scstep>
   <time name="dav">   17.18   17.22</time>
   <time name="total">   17.22   17.27</time>
   <energy>
    <i name="alphaZ">     90.13287304 </i>
    <i name="ewald">  44631.99744511 </i>
    <i name="hartreedc"> -50643.56112176 </i>
    <i name="XCdc">   -233.39926191 </i>
    <i name="pawpsdc">   4084.95907863 </i>
    <i name="pawaedc">  -3500.93662342 </i>
    <i name="eentropy">     -0.20954810 </i>
    <i name="bandstr">  -1381.94810388 </i>
    <i name="atom">   6761.44252427 </i>
    <i name="e_fr_energy">   -191.52273802 </i>
    <i name="e_wo_entrp">   -191.31318992 </i>
    <i name="e_0_energy">   -191.41796397 </i>
   </energy>
  </scstep>
  <structure>
   <crystal>
    <varray name="basis" >
     <v>       8.28053868       4.76373366       0.00000000 </v>
     <v>      -8.29528793       4.78924092       0.00000000 </v>
     <v>       0.00000000       0.00000000      30.00000000 </v>
    </varray>
    <i name="volume">   2375.22111211 </i>
    <varray name="rec_basis" >
     <v>       0.06049004       0.10477283       0.00000000 </v>
     <v>      -0.06016788       0.10458654       0.00000000 </v>
     <v>       0.00000000       0.00000000       0.03333333 </v>
    </varray>
   </crystal>
   <varray name="positions" >
    <v>       0.67264280       0.34458072       0.00050071 </v>
    <v>       1.00298340       0.33478946      -0.00030758 </v>
    <v>       0.67259262      -0.00537933       0.00051300 </v>
    <v>       0.67773542       0.67216404       0.00006381 </v>
    <v>      -0.00112812       0.68495520      -0.00001407 </v>
    <v>      -0.00098279      -0.01933815      -0.00000007 </v>
    <v>       0.31073912      -0.01126440       0.00012755 </v>
    <v>       0.33445394       0.33944048      -0.00036021 </v>
    <v>       0.33460928       0.66157472      -0.00036214 </v>
    <v>       0.10699498       0.22216810       0.94988094 </v>
    <v>       0.22086112       0.11127555       0.05292470 </v>
    <v>       0.10699856       0.55146736       0.94990214 </v>
    <v>       0.21643256       0.44149903       0.05209796 </v>
    <v>       0.11047075       0.88857060       0.94330986 </v>
    <v>       0.22082887       0.77614930       0.05289114 </v>
[...]
      <set comment="kpoint 31">
       <r>  -17.4837    1.0000 </r>
       <r>  -17.2931    1.0000 </r>
       <r>  -16.8864    1.0000 </r>
       <r>  -16.5488    1.0000 </r>
       <r>  -16.4921    1.0000 </r>
       <r>  -16.4496    1.0000 </r>
       <r>  -16.2417    1.0000 </r>
       <r>  -16.1783    1.0000 </r>
       <r>  -16.1223    1.0000 </r>
       <r>  -16.0683    1.0000 </r>
       <r>  -15.9910    1.0000 </r>
       <r>  -15.8801    1.0000 </r>
       <r>  -15.7373    1.0000 </r>
       <r>  -15.6552    1.0000 </r>
       <r>  -15.6221    1.0000 </r>
       <r>  -15.5189    1.0000 </r>
       <r>  -15.4142    1.0000 </r>
       <r>  -15.3394    1.0000 </r>
       <r>   -9.7457    1.0000 </r>
       <r>   -9.3929    1.0000 </r>
       <r>   -9.3469    1.0000 </r>
       <r>   -8.9260    1.0000 </r>
       <r>   -8.8073    1.0000 </r>
       <r>   -8.7568    1.0000 </r>
       <r>   -8.5966    1.0000 </r>
       <r>   -8.4902    1.0000 </r>
       <r>   -8.4144    1.0000 </r>
       <r>   -8.3570    1.0000 </r>
       <r>   -8.2754    1.0000 </r>
       <r>   -8.1911    1.0000 </r>
       <r>   -8.0964    1.0000 </r>
       <r>   -8.0736    1.0000 </r>
       <r>   -7.9875    1.0000 </r>
       <r>   -7.9121    1.0000 </r>
       <r>   -7.7875    1.0000 </r>
       <r>   -7.6557    1.0000 </r>
       <r>   -7.5338    1.0000 </r>
       <r>   -7.4453    1.0000 </r>
       <r>   -7.3375    1.0000 </r>
       <r>   -7.1878    1.0000 </r>
       <r>   -7.1492    1.0000 </r>
       <r>   -7.0466    1.0000 </r>
       <r>   -7.0005    1.0000 </r>
       <r>   -6.9231    1.0000 </r>
       <r>   -6.8721    1.0000 </r>
       <r>   -6.8222    1.0000 </r>
       <r>   -6.6894    1.0000 </r>
       <r>   -6.6226    1.0000 </r>
       <r>   -6.5330    1.0000 </r>
       <r>   -6.5121    1.0000 </r>
       <r>   -6.4213    1.0000 </r>
       <r>   -6.3534    1.0000 </r>
       <r>   -6.2314    1.0000 </r>
       <r>   -6.1386    1.0000 </r>
       <r>   -6.0981    1.0000 </r>
       <r>   -6.0481    1.0000 </r>
       <r>   -5.9990    1.0000 </r>
       <r>   -5.9177    1.0000 </r>
       <r>   -5.8600    1.0000 </r>
       <r>   -5.7977    1.0000 </r>
       <r>   -5.7122    1.0000 </r>
       <r>   -5.6373    1.0000 </r>
       <r>   -5.5278    1.0000 </r>
       <r>   -5.4543    1.0000 </r>
       <r>   -5.3685    1.0000 </r>
       <r>   -5.1576    1.0000 </r>
       <r>   -5.0822    1.0000 </r>
       <r>   -4.9185    1.0000 </r>
       <r>   -4.8636    1.0000 </r>
       <r>   -4.6925    1.0000 </r>
       <r>   -4.5401    1.0000 </r>
       <r>   -4.4148    1.0000 </r>
       <r>   -4.2764    1.0000 </r>
       <r>   -4.2105    1.0000 </r>
       <r>   -4.1109    1.0000 </r>
       <r>   -3.9450    1.0000 </r>
       <r>   -3.7530    0.9994 </r>
       <r>   -3.6478    0.9934 </r>
       <r>   -3.5211    0.9432 </r>
       <r>   -3.2829    0.4594 </r>
       <r>   -3.0385    0.0336 </r>
       <r>   -2.8799    0.0016 </r>
       <r>   -2.7787    0.0001 </r>
       <r>   -2.6279    0.0000 </r>
       <r>   -2.5505    0.0000 </r>
       <r>   -2.3564    0.0000 </r>
       <r>   -2.3029    0.0000 </r>
       <r>   -2.1980    0.0000 </r>
       <r>   -2.0900    0.0000 </r>
       <r>   -2.0122    0.0000 </r>
       <r>   -1.7845    0.0000 </r>
       <r>   -1.5286    0.0000 </r>
       <r>   -1.4572    0.0000 </r>
       <r>   -1.3786    0.0000 </r>
       <r>   -1.2485    0.0000 </r>
       <r>   -1.1610    0.0000 </r>
       <r>   -1.0872    0.0000 </r>
       <r>   -1.0304    0.0000 </r>
       <r>   -0.9621    0.0000 </r>
       <r>   -0.8918    0.0000 </r>
       <r>   -0.8231    0.0000 </r>
       <r>   -0.7441    0.0000 </r>
       <r>   -0.6427    0.0000 </r>
       <r>   -0.5344    0.0000 </r>
       <r>   -0.4440    0.0000 </r>
       <r>   -0.3848    0.0000 </r>
       <r>   -0.2406    0.0000 </r>
       <r>   -0.1699    0.0000 </r>
       <r>    0.0281    0.0000 </r>
       <r>    0.2837    0.0000 </r>
       <r>    0.4050    0.0000 </r>
       <r>    0.5648    0.0000 </r>
       <r>    0.7704    0.0000 </r>
       <r>    0.8142    0.0000 </r>
       <r>    1.0869    0.0000 </r>
       <r>    1.1931    0.0000 </r>
       <r>    1.4439    0.0000 </r>
       <r>    2.1338    0.0000 </r>
       <r>    2.2900    0.0000 </r>
       <r>    2.3945    0.0000 </r>
      </set>
      <set comment="kpoint 32">
       <r>  -17.5037    1.0000 </r>
       <r>  -17.2217    1.0000 </r>
       <r>  -16.9904    1.0000 </r>
       <r>  -16.5364    1.0000 </r>
       <r>  -16.4790    1.0000 </r>
       <r>  -16.3895    1.0000 </r>
       <r>  -16.2049    1.0000 </r>
       <r>  -16.1780    1.0000 </r>
       <r>  -16.1263    1.0000 </r>
       <r>  -16.0481    1.0000 </r>
       <r>  -16.0362    1.0000 </r>
       <r>  -15.9555    1.0000 </r>
       <r>  -15.7383    1.0000 </r>
       <r>  -15.6421    1.0000 </r>
       <r>  -15.6141    1.0000 </r>
       <r>  -15.5147    1.0000 </r>
       <r>  -15.4082    1.0000 </r>
       <r>  -15.3350    1.0000 </r>
       <r>   -9.6923    1.0000 </r>
       <r>   -9.4909    1.0000 </r>
       <r>   -9.4120    1.0000 </r>
       <r>   -8.9088    1.0000 </r>
       <r>   -8.7128    1.0000 </r>
       <r>   -8.5970    1.0000 </r>
       <r>   -8.5588    1.0000 </r>
       <r>   -8.4554    1.0000 </r>
       <r>   -8.4434    1.0000 </r>
       <r>   -8.3859    1.0000 </r>
       <r>   -8.2837    1.0000 </r>
       <r>   -8.2295    1.0000 </r>
       <r>   -8.1449    1.0000 </r>
       <r>   -8.1114    1.0000 </r>
       <r>   -8.0282    1.0000 </r>
       <r>   -7.9973    1.0000 </r>
       <r>   -7.8149    1.0000 </r>
       <r>   -7.6158    1.0000 </r>
       <r>   -7.5002    1.0000 </r>
       <r>   -7.3713    1.0000 </r>
       <r>   -7.3522    1.0000 </r>
       <r>   -7.2125    1.0000 </r>
       <r>   -7.1429    1.0000 </r>
       <r>   -7.0569    1.0000 </r>
       <r>   -7.0351    1.0000 </r>
       <r>   -6.9350    1.0000 </r>
       <r>   -6.8908    1.0000 </r>
       <r>   -6.7717    1.0000 </r>
       <r>   -6.6826    1.0000 </r>
       <r>   -6.6286    1.0000 </r>
       <r>   -6.5666    1.0000 </r>
       <r>   -6.4927    1.0000 </r>
       <r>   -6.4876    1.0000 </r>
       <r>   -6.3406    1.0000 </r>
       <r>   -6.2486    1.0000 </r>
       <r>   -6.1524    1.0000 </r>
       <r>   -6.0919    1.0000 </r>
       <r>   -6.0514    1.0000 </r>
       <r>   -5.9746    1.0000 </r>
       <r>   -5.8831    1.0000 </r>
       <r>   -5.8025    1.0000 </r>
       <r>   -5.6950    1.0000 </r>
       <r>   -5.6872    1.0000 </r>
       <r>   -5.6008    1.0000 </r>
       <r>   -5.4778    1.0000 </r>
       <r>   -5.4454    1.0000 </r>
       <r>   -5.3937    1.0000 </r>
       <r>   -5.2985    1.0000 </r>
       <r>   -5.0845    1.0000 </r>
       <r>   -4.9841    1.0000 </r>
       <r>   -4.8953    1.0000 </r>
       <r>   -4.6840    1.0000 </r>
       <r>   -4.5231    1.0000 </r>
       <r>   -4.4488    1.0000 </r>
       <r>   -4.2661    1.0000 </r>
       <r>   -4.2275    1.0000 </r>
       <r>   -4.1078    1.0000 </r>
       <r>   -3.9229    1.0000 </r>
       <r>   -3.7356    0.9990 </r>
       <r>   -3.6342    0.9914 </r>
       <r>   -3.5486    0.9622 </r>
       <r>   -3.2328    0.3239 </r>
       <r>   -3.0641    0.0496 </r>
       <r>   -2.8663    0.0012 </r>
       <r>   -2.7641    0.0001 </r>
       <r>   -2.6518    0.0000 </r>
       <r>   -2.5005    0.0000 </r>
       <r>   -2.3875    0.0000 </r>
       <r>   -2.3295    0.0000 </r>
       <r>   -2.1953    0.0000 </r>
       <r>   -2.0849    0.0000 </r>
       <r>   -2.0264    0.0000 </r>
       <r>   -1.7830    0.0000 </r>
       <r>   -1.5250    0.0000 </r>
       <r>   -1.4469    0.0000 </r>
       <r>   -1.3714    0.0000 </r>
       <r>   -1.2736    0.0000 </r>
       <r>   -1.1799    0.0000 </r>
       <r>   -1.0867    0.0000 </r>
       <r>   -0.9991    0.0000 </r>
       <r>   -0.9691    0.0000 </r>
       <r>   -0.9021    0.0000 </r>
       <r>   -0.8220    0.0000 </r>
       <r>   -0.7144    0.0000 </r>
       <r>   -0.6312    0.0000 </r>
       <r>   -0.5632    0.0000 </r>
       <r>   -0.4757    0.0000 </r>
       <r>   -0.3591    0.0000 </r>
       <r>   -0.2306    0.0000 </r>
       <r>   -0.1553    0.0000 </r>
       <r>    0.1043    0.0000 </r>
       <r>    0.2293    0.0000 </r>
       <r>    0.4325    0.0000 </r>
       <r>    0.5618    0.0000 </r>
       <r>    0.7525    0.0000 </r>
       <r>    0.7731    0.0000 </r>
       <r>    1.0752    0.0000 </r>
       <r>    1.1699    0.0000 </r>
       <r>    1.4492    0.0000 </r>
       <r>    2.1015    0.0000 </r>
       <r>    2.2587    0.0000 </r>
       <r>    2.5685    0.0000 </r>
      </set>
      <set comment="kpoint 33">
       <r>  -17.4860    1.0000 </r>
       <r>  -17.2901    1.0000 </r>
       <r>  -16.8870    1.0000 </r>
       <r>  -16.5542    1.0000 </r>
       <r>  -16.4844    1.0000 </r>
       <r>  -16.4521    1.0000 </r>
       <r>  -16.2396    1.0000 </r>
       <r>  -16.1723    1.0000 </r>
       <r>  -16.1263    1.0000 </r>
       <r>  -16.0688    1.0000 </r>
       <r>  -15.9908    1.0000 </r>
       <r>  -15.8838    1.0000 </r>
       <r>  -15.7380    1.0000 </r>
       <r>  -15.6588    1.0000 </r>
       <r>  -15.6177    1.0000 </r>
       <r>  -15.5184    1.0000 </r>
       <r>  -15.4162    1.0000 </r>
       <r>  -15.3381    1.0000 </r>
       <r>   -9.7436    1.0000 </r>
       <r>   -9.3933    1.0000 </r>
       <r>   -9.3462    1.0000 </r>
       <r>   -8.9335    1.0000 </r>
       <r>   -8.8019    1.0000 </r>
       <r>   -8.7628    1.0000 </r>
       <r>   -8.5879    1.0000 </r>
       <r>   -8.4794    1.0000 </r>
       <r>   -8.4174    1.0000 </r>
       <r>   -8.3581    1.0000 </r>
       <r>   -8.2703    1.0000 </r>
       <r>   -8.1955    1.0000 </r>
       <r>   -8.1001    1.0000 </r>
       <r>   -8.0784    1.0000 </r>
       <r>   -7.9908    1.0000 </r>
       <r>   -7.9170    1.0000 </r>
       <r>   -7.7825    1.0000 </r>
       <r>   -7.6667    1.0000 </r>
       <r>   -7.5328    1.0000 </r>
       <r>   -7.4330    1.0000 </r>
       <r>   -7.3272    1.0000 </r>
       <r>   -7.1839    1.0000 </r>
       <r>   -7.1500    1.0000 </r>
       <r>   -7.0477    1.0000 </r>
       <r>   -7.0001    1.0000 </r>
       <r>   -6.9271    1.0000 </r>
       <r>   -6.8720    1.0000 </r>
       <r>   -6.8200    1.0000 </r>
       <r>   -6.6943    1.0000 </r>
       <r>   -6.6340    1.0000 </r>
       <r>   -6.5276    1.0000 </r>
       <r>   -6.5107    1.0000 </r>
       <r>   -6.4219    1.0000 </r>
       <r>   -6.3533    1.0000 </r>
       <r>   -6.2316    1.0000 </r>
       <r>   -6.1420    1.0000 </r>
       <r>   -6.1023    1.0000 </r>
       <r>   -6.0494    1.0000 </r>
       <r>   -5.9938    1.0000 </r>
       <r>   -5.9271    1.0000 </r>
       <r>   -5.8637    1.0000 </r>
       <r>   -5.8016    1.0000 </r>
       <r>   -5.7190    1.0000 </r>
       <r>   -5.6313    1.0000 </r>
       <r>   -5.5216    1.0000 </r>
       <r>   -5.4499    1.0000 </r>
       <r>   -5.3606    1.0000 </r>
       <r>   -5.1600    1.0000 </r>
       <r>   -5.0823    1.0000 </r>
       <r>   -4.9223    1.0000 </r>
       <r>   -4.8645    1.0000 </r>
       <r>   -4.6860    1.0000 </r>
       <r>   -4.5285    1.0000 </r>
       <r>   -4.4124    1.0000 </r>
       <r>   -4.2854    1.0000 </r>
       <r>   -4.2120    1.0000 </r>
       <r>   -4.1129    1.0000 </r>
       <r>   -3.9445    1.0000 </r>
       <r>   -3.7460    0.9992 </r>
       <r>   -3.6426    0.9927 </r>
       <r>   -3.5528    0.9646 </r>
       <r>   -3.2809    0.4538 </r>
       <r>   -3.0422    0.0356 </r>
       <r>   -2.8697    0.0012 </r>
       <r>   -2.7760    0.0001 </r>
       <r>   -2.6087    0.0000 </r>
       <r>   -2.5388    0.0000 </r>
       <r>   -2.3501    0.0000 </r>
       <r>   -2.3112    0.0000 </r>
       <r>   -2.2027    0.0000 </r>
       <r>   -2.0963    0.0000 </r>
       <r>   -2.0073    0.0000 </r>
       <r>   -1.7810    0.0000 </r>
       <r>   -1.5324    0.0000 </r>
       <r>   -1.4811    0.0000 </r>
       <r>   -1.3755    0.0000 </r>
       <r>   -1.2341    0.0000 </r>
       <r>   -1.1634    0.0000 </r>
       <r>   -1.1016    0.0000 </r>
       <r>   -1.0271    0.0000 </r>
       <r>   -0.9645    0.0000 </r>
       <r>   -0.8961    0.0000 </r>
       <r>   -0.8238    0.0000 </r>
       <r>   -0.7408    0.0000 </r>
       <r>   -0.6436    0.0000 </r>
       <r>   -0.5332    0.0000 </r>
       <r>   -0.4356    0.0000 </r>
       <r>   -0.3839    0.0000 </r>
       <r>   -0.2434    0.0000 </r>
       <r>   -0.1597    0.0000 </r>
       <r>    0.0175    0.0000 </r>
       <r>    0.2930    0.0000 </r>
       <r>    0.4191    0.0000 </r>
       <r>    0.5637    0.0000 </r>
       <r>    0.7670    0.0000 </r>
       <r>    0.8111    0.0000 </r>
       <r>    1.0747    0.0000 </r>
       <r>    1.1936    0.0000 </r>
       <r>    1.4427    0.0000 </r>
       <r>    2.1328    0.0000 </r>
       <r>    2.2906    0.0000 </r>
       <r>    2.3932    0.0000 </r>
      </set>
      <set comment="kpoint 34">
       <r>  -17.4567    1.0000 </r>
       <r>  -17.3527    1.0000 </r>
       <r>  -16.7352    1.0000 </r>
       <r>  -16.6624    1.0000 </r>
       <r>  -16.4995    1.0000 </r>
       <r>  -16.4804    1.0000 </r>
       <r>  -16.2494    1.0000 </r>
       <r>  -16.1658    1.0000 </r>
       <r>  -16.1309    1.0000 </r>
       <r>  -16.0799    1.0000 </r>
       <r>  -15.9768    1.0000 </r>
       <r>  -15.7882    1.0000 </r>
       <r>  -15.7316    1.0000 </r>
       <r>  -15.7005    1.0000 </r>
       <r>  -15.6270    1.0000 </r>
       <r>  -15.5209    1.0000 </r>
       <r>  -15.4243    1.0000 </r>
       <r>  -15.3408    1.0000 </r>
       <r>   -9.7772    1.0000 </r>
       <r>   -9.2874    1.0000 </r>
       <r>   -9.2443    1.0000 </r>
       <r>   -9.0266    1.0000 </r>
       <r>   -8.9279    1.0000 </r>
       <r>   -8.8230    1.0000 </r>
       <r>   -8.6160    1.0000 </r>
       <r>   -8.4676    1.0000 </r>
       <r>   -8.4349    1.0000 </r>
       <r>   -8.3518    1.0000 </r>
       <r>   -8.2811    1.0000 </r>
       <r>   -8.1692    1.0000 </r>
       <r>   -8.0630    1.0000 </r>
       <r>   -8.0373    1.0000 </r>
       <r>   -7.9807    1.0000 </r>
       <r>   -7.8254    1.0000 </r>
       <r>   -7.7305    1.0000 </r>
       <r>   -7.6603    1.0000 </r>
       <r>   -7.5588    1.0000 </r>
       <r>   -7.5191    1.0000 </r>
       <r>   -7.3046    1.0000 </r>
       <r>   -7.2325    1.0000 </r>
       <r>   -7.1770    1.0000 </r>
       <r>   -7.0058    1.0000 </r>
       <r>   -6.9734    1.0000 </r>
       <r>   -6.9430    1.0000 </r>
       <r>   -6.8844    1.0000 </r>
       <r>   -6.7400    1.0000 </r>
       <r>   -6.6952    1.0000 </r>
       <r>   -6.6524    1.0000 </r>
       <r>   -6.5231    1.0000 </r>
       <r>   -6.4327    1.0000 </r>
       <r>   -6.3949    1.0000 </r>
       <r>   -6.3447    1.0000 </r>
       <r>   -6.2823    1.0000 </r>
       <r>   -6.1922    1.0000 </r>
       <r>   -6.1600    1.0000 </r>
       <r>   -6.0607    1.0000 </r>
       <r>   -6.0068    1.0000 </r>
       <r>   -5.9737    1.0000 </r>
       <r>   -5.8462    1.0000 </r>
       <r>   -5.8045    1.0000 </r>
       <r>   -5.7802    1.0000 </r>
       <r>   -5.5525    1.0000 </r>
       <r>   -5.5398    1.0000 </r>
       <r>   -5.5227    1.0000 </r>
       <r>   -5.4489    1.0000 </r>
       <r>   -5.0629    1.0000 </r>
       <r>   -4.9786    1.0000 </r>
       <r>   -4.8712    1.0000 </r>
       <r>   -4.8412    1.0000 </r>
       <r>   -4.7612    1.0000 </r>
       <r>   -4.4920    1.0000 </r>
       <r>   -4.3744    1.0000 </r>
       <r>   -4.3053    1.0000 </r>
       <r>   -4.1924    1.0000 </r>
       <r>   -4.1233    1.0000 </r>
       <r>   -3.9733    1.0000 </r>
       <r>   -3.7670    0.9996 </r>
       <r>   -3.6493    0.9936 </r>
       <r>   -3.5415    0.9579 </r>
       <r>   -3.3243    0.5755 </r>
       <r>   -3.0281    0.0285 </r>
       <r>   -2.8756    0.0014 </r>
       <r>   -2.7787    0.0001 </r>
       <r>   -2.5842    0.0000 </r>
       <r>   -2.5664    0.0000 </r>
       <r>   -2.3351    0.0000 </r>
       <r>   -2.2602    0.0000 </r>
       <r>   -2.2309    0.0000 </r>
       <r>   -2.0978    0.0000 </r>
       <r>   -1.9966    0.0000 </r>
       <r>   -1.7804    0.0000 </r>
       <r>   -1.5303    0.0000 </r>
       <r>   -1.5100    0.0000 </r>
       <r>   -1.3750    0.0000 </r>
       <r>   -1.2025    0.0000 </r>
       <r>   -1.1469    0.0000 </r>
       <r>   -1.1173    0.0000 </r>
       <r>   -1.0621    0.0000 </r>
       <r>   -0.9600    0.0000 </r>
       <r>   -0.8808    0.0000 </r>
       <r>   -0.8318    0.0000 </r>
       <r>   -0.7163    0.0000 </r>
       <r>   -0.6851    0.0000 </r>
       <r>   -0.5488    0.0000 </r>
       <r>   -0.4214    0.0000 </r>
       <r>   -0.3389    0.0000 </r>
       <r>   -0.2563    0.0000 </r>
       <r>   -0.1778    0.0000 </r>
       <r>   -0.0508    0.0000 </r>
       <r>    0.3422    0.0000 </r>
       <r>    0.3939    0.0000 </r>
       <r>    0.5635    0.0000 </r>
       <r>    0.7734    0.0000 </r>
       <r>    0.8591    0.0000 </r>
       <r>    1.0778    0.0000 </r>
       <r>    1.2171    0.0000 </r>
       <r>    1.4348    0.0000 </r>
       <r>    2.2179    0.0000 </r>
       <r>    2.2419    0.0000 </r>
       <r>    2.3713    0.0000 </r>
      </set>
     </set>
    </set>
   </array>
  </eigenvalues>
  <separator name="orbital magnetization" >
   <v name="MAGDIPOLOUT">      0.00000000      0.00000000      0.00000000</v>
  </separator>
 </calculation>
 <structure name="finalpos" >
  <crystal>
   <varray name="basis" >
    <v>       8.35397611       4.80692578       0.00000000 </v>
    <v>      -8.36589337       4.82752813       0.00000000 </v>
    <v>       0.00000000       0.00000000      30.00000000 </v>
   </varray>
   <i name="volume">   2416.29849482 </i>
   <varray name="rec_basis" >
    <v>       0.05993707       0.10386829       0.00000000 </v>
    <v>      -0.05968127       0.10372033       0.00000000 </v>
    <v>       0.00000000       0.00000000       0.03333333 </v>
   </varray>
  </crystal>
  <varray name="positions" >
   <v>       0.69652138       0.35757174       0.00053052 </v>
   <v>       1.01420979       0.34019614      -0.00016892 </v>
   <v>       0.69717916       0.00624911       0.00044876 </v>
   <v>       0.68867198       0.67808058       0.00049388 </v>
   <v>      -0.01143846       0.68248313       0.00048222 </v>
   <v>      -0.00896816      -0.02507893       0.00052728 </v>
   <v>       0.29880519      -0.01755223      -0.00065329 </v>
   <v>       0.31894911       0.34694033      -0.00110147 </v>
   <v>       0.32248026       0.63890111      -0.00097641 </v>
   <v>       0.10311254       0.21843182       0.94961357 </v>
   <v>       0.22037664       0.11295860       0.05155121 </v>
   <v>       0.10363494       0.55213964       0.95023227 </v>
   <v>       0.21403834       0.44020219       0.05536902 </v>
   <v>       0.10217192       0.88419756       0.94288403 </v>
   <v>       0.21906378       0.77300402       0.05138559 </v>
   <v>       0.44727640       0.22437786       0.95428668 </v>
   <v>       0.55581356       0.11102230       0.04210545 </v>
   <v>       0.45018584       0.55782435       0.94681430 </v>
   <v>       0.55581670       0.44144138       0.04867741 </v>
   <v>       0.44773871       0.88927597       0.95423834 </v>
   <v>       0.55598939       0.78140368       0.04901569 </v>
   <v>       0.78158971       0.22411541       0.95236319 </v>
   <v>       0.89299543       0.11335325       0.05090727 </v>
   <v>       0.77602085       0.55304592       0.94624779 </v>
   <v>       0.89266136       0.44637783       0.05076803 </v>
   <v>       0.77686699       0.89006277       0.94625132 </v>
   <v>       0.88645111       0.77718892       0.05770617 </v>
  </varray>
 </structure>
</modeling>
