   27   27  100    1
  0.9710400E+02  0.1002848E-08  0.1002848E-08  0.3000000E-08  0.5000000E-15
  1.000000000000000E-004
  CAR 
 unknown system                          
    159     34    120
 
  0.0000000E+00  0.0000000E+00  0.0000000E+00  0.1562500E-01
    1      -17.799735   1.000000
    2      -16.702833   1.000000
    3      -16.644830   1.000000
    4      -16.608009   1.000000
    5      -16.504792   1.000000
    6      -16.440511   1.000000
    7      -16.405464   1.000000
    8      -16.276999   1.000000
    9      -16.158807   1.000000
   10      -16.132185   1.000000
   11      -16.039027   1.000000
   12      -15.899508   1.000000
   13      -15.877480   1.000000
   14      -15.679230   1.000000
   15      -15.582776   1.000000
   16      -15.524655   1.000000
   17      -15.418635   1.000000
   18      -15.331606   1.000000
   19       -9.391977   1.000000
   20       -9.045681   1.000000
   21       -8.939423   1.000000
   22       -8.872367   1.000000
   23       -8.722261   1.000000
   24       -8.668806   1.000000
   25       -8.608811   1.000000
   26       -8.529336   1.000000
   27       -8.465173   1.000000
   28       -8.436238   1.000000
   29       -8.419425   1.000000
   30       -8.333724   1.000000
   31       -8.262053   1.000000
   32       -8.151551   1.000000
   33       -8.070035   1.000000
   34       -8.014951   1.000000
   35       -7.887991   1.000000
   36       -7.728597   1.000000
   37       -7.712898   1.000000
   38       -7.543152   1.000000
   39       -7.476217   1.000000
   40       -7.450438   1.000000
   41       -7.399852   1.000000
   42       -7.162959   1.000000
   43       -7.117362   1.000000
   44       -6.962993   1.000000
   45       -6.847005   1.000000
   46       -6.793189   1.000000
   47       -6.735499   1.000000
   48       -6.702098   1.000000
   49       -6.631422   1.000000
   50       -6.463640   1.000000
   51       -6.417690   1.000000
   52       -6.404645   1.000000
   53       -6.249285   1.000000
   54       -6.198449   1.000000
   55       -6.196232   1.000000
   56       -6.083685   1.000000
   57       -5.971512   1.000000
   58       -5.911640   1.000000
   59       -5.753196   1.000000
   60       -5.567089   1.000000
   61       -5.463146   1.000000
   62       -5.432355   1.000000
   63       -5.215170   1.000000
   64       -5.153051   1.000000
   65       -5.087294   1.000000
   66       -5.046064   1.000000
   67       -4.906206   1.000000
   68       -4.850626   1.000000
   69       -4.819288   1.000000
   70       -4.796054   1.000000
   71       -4.653634   1.000000
   72       -4.545870   1.000000
   73       -4.514300   1.000000
   74       -4.491846   1.000000
   75       -4.188907   1.000000
   76       -4.056425   0.999999
   77       -3.825424   0.999138
   78       -3.722825   0.991994
   79       -3.639946   0.965817
   80       -3.399383   0.548371
   81       -3.238765   0.155246
   82       -2.738740   0.000003
   83       -2.650538   0.000000
   84       -2.579673   0.000000
   85       -2.561504   0.000000
   86       -2.516647   0.000000
   87       -2.365631   0.000000
   88       -2.296548   0.000000
   89       -2.268790   0.000000
   90       -2.163718   0.000000
   91       -1.732521   0.000000
   92       -1.672054   0.000000
   93       -1.567896   0.000000
   94       -1.309220   0.000000
   95       -1.181510   0.000000
   96       -1.043682   0.000000
   97       -0.946525   0.000000
   98       -0.868630   0.000000
   99       -0.740439   0.000000
  100       -0.654013   0.000000
  101       -0.586664   0.000000
  102       -0.552621   0.000000
  103       -0.504561   0.000000
  104       -0.477572   0.000000
  105       -0.234453   0.000000
  106       -0.069655   0.000000
  107       -0.037509   0.000000
  108        0.010830   0.000000
  109        0.137106   0.000000
  110        0.379249   0.000000
  111        0.415696   0.000000
  112        0.429504   0.000000
  113        0.537504   0.000000
  114        0.705269   0.000000
  115        0.767270   0.000000
  116        0.994904   0.000000
  117        1.192358   0.000000
  118        1.637774   0.000000
  119        1.832941   0.000000
  120        2.143791   0.000000
 
  0.1250000E+00  0.2775558E-16  0.0000000E+00  0.3125000E-01
    1      -17.775401   1.000000
    2      -16.795344   1.000000
    3      -16.700954   1.000000
    4      -16.586371   1.000000
    5      -16.514552   1.000000
    6      -16.452709   1.000000
    7      -16.340783   1.000000
    8      -16.274271   1.000000
    9      -16.165575   1.000000
   10      -16.066317   1.000000
   11      -16.034676   1.000000
   12      -15.882441   1.000000
   13      -15.856677   1.000000
   14      -15.691337   1.000000
   15      -15.583575   1.000000
   16      -15.537646   1.000000
   17      -15.420273   1.000000
   18      -15.338056   1.000000
   19       -9.396260   1.000000
   20       -9.154058   1.000000
   21       -9.013064   1.000000
   22       -8.965214   1.000000
   23       -8.741553   1.000000
   24       -8.716631   1.000000
   25       -8.624142   1.000000
   26       -8.520029   1.000000
   27       -8.486920   1.000000
   28       -8.430776   1.000000
   29       -8.343505   1.000000
   30       -8.243275   1.000000
   31       -8.196395   1.000000
   32       -8.117100   1.000000
   33       -8.010782   1.000000
   34       -7.936363   1.000000
   35       -7.808103   1.000000
   36       -7.710398   1.000000
   37       -7.661500   1.000000
   38       -7.570660   1.000000
   39       -7.519329   1.000000
   40       -7.477473   1.000000
   41       -7.352862   1.000000
   42       -7.171187   1.000000
   43       -7.105672   1.000000
   44       -7.016800   1.000000
   45       -6.909540   1.000000
   46       -6.807555   1.000000
   47       -6.750829   1.000000
   48       -6.621127   1.000000
   49       -6.532671   1.000000
   50       -6.475027   1.000000
   51       -6.432473   1.000000
   52       -6.374481   1.000000
   53       -6.296714   1.000000
   54       -6.230419   1.000000
   55       -6.182396   1.000000
   56       -6.107983   1.000000
   57       -5.944038   1.000000
   58       -5.918545   1.000000
   59       -5.748927   1.000000
   60       -5.590446   1.000000
   61       -5.514833   1.000000
   62       -5.416812   1.000000
   63       -5.306471   1.000000
   64       -5.283741   1.000000
   65       -5.112077   1.000000
   66       -4.981370   1.000000
   67       -4.935614   1.000000
   68       -4.846824   1.000000
   69       -4.785625   1.000000
   70       -4.730783   1.000000
   71       -4.607830   1.000000
   72       -4.575929   1.000000
   73       -4.466955   1.000000
   74       -4.424482   1.000000
   75       -4.148614   1.000000
   76       -4.113335   1.000000
   77       -3.879874   0.999784
   78       -3.781663   0.997634
   79       -3.660835   0.975598
   80       -3.363208   0.446604
   81       -3.231032   0.142564
   82       -2.718612   0.000001
   83       -2.644084   0.000000
   84       -2.583082   0.000000
   85       -2.539854   0.000000
   86       -2.486064   0.000000
   87       -2.341876   0.000000
   88       -2.305876   0.000000
   89       -2.236578   0.000000
   90       -2.137505   0.000000
   91       -1.747130   0.000000
   92       -1.662641   0.000000
   93       -1.549282   0.000000
   94       -1.316803   0.000000
   95       -1.180967   0.000000
   96       -1.043006   0.000000
   97       -0.955326   0.000000
   98       -0.882184   0.000000
   99       -0.811506   0.000000
  100       -0.728928   0.000000
  101       -0.647158   0.000000
  102       -0.601116   0.000000
  103       -0.544902   0.000000
  104       -0.464117   0.000000
  105       -0.256935   0.000000
  106       -0.144210   0.000000
  107       -0.018121   0.000000
  108        0.010398   0.000000
  109        0.108161   0.000000
  110        0.349334   0.000000
  111        0.404298   0.000000
  112        0.481197   0.000000
  113        0.553950   0.000000
  114        0.716118   0.000000
  115        0.852133   0.000000
  116        0.997485   0.000000
  117        1.181234   0.000000
  118        1.679318   0.000000
  119        1.873132   0.000000
  120        2.178349   0.000000
 
  0.2500000E+00  0.5551115E-16  0.0000000E+00  0.3125000E-01
    1      -17.703798   1.000000
    2      -17.001147   1.000000
    3      -16.705468   1.000000
    4      -16.627905   1.000000
    5      -16.577676   1.000000
    6      -16.397880   1.000000
    7      -16.299456   1.000000
    8      -16.221773   1.000000
    9      -16.144761   1.000000
   10      -16.058928   1.000000
   11      -15.950082   1.000000
   12      -15.853396   1.000000
   13      -15.806894   1.000000
   14      -15.706608   1.000000
   15      -15.601803   1.000000
   16      -15.551243   1.000000
   17      -15.427003   1.000000
   18      -15.356558   1.000000
   19       -9.503652   1.000000
   20       -9.280428   1.000000
   21       -9.168370   1.000000
   22       -9.016315   1.000000
   23       -8.855725   1.000000
   24       -8.759778   1.000000
   25       -8.603671   1.000000
   26       -8.509728   1.000000
   27       -8.442143   1.000000
   28       -8.388061   1.000000
   29       -8.308086   1.000000
   30       -8.193553   1.000000
   31       -8.128047   1.000000
   32       -8.054047   1.000000
   33       -7.876978   1.000000
   34       -7.814557   1.000000
   35       -7.777634   1.000000
   36       -7.679428   1.000000
   37       -7.595723   1.000000
   38       -7.556480   1.000000
   39       -7.462024   1.000000
   40       -7.411382   1.000000
   41       -7.305026   1.000000
   42       -7.188074   1.000000
   43       -7.121604   1.000000
   44       -7.023279   1.000000
   45       -6.913592   1.000000
   46       -6.811534   1.000000
   47       -6.760675   1.000000
   48       -6.588898   1.000000
   49       -6.524782   1.000000
   50       -6.449125   1.000000
   51       -6.400384   1.000000
   52       -6.322762   1.000000
   53       -6.309790   1.000000
   54       -6.247435   1.000000
   55       -6.179913   1.000000
   56       -6.110365   1.000000
   57       -5.973481   1.000000
   58       -5.905512   1.000000
   59       -5.770532   1.000000
   60       -5.691789   1.000000
   61       -5.618250   1.000000
   62       -5.521784   1.000000
   63       -5.456279   1.000000
   64       -5.399249   1.000000
   65       -5.243162   1.000000
   66       -4.901745   1.000000
   67       -4.855912   1.000000
   68       -4.803766   1.000000
   69       -4.703378   1.000000
   70       -4.694396   1.000000
   71       -4.618832   1.000000
   72       -4.482526   1.000000
   73       -4.403309   1.000000
   74       -4.334081   1.000000
   75       -4.303992   1.000000
   76       -4.059113   0.999999
   77       -4.016941   0.999996
   78       -3.834783   0.999314
   79       -3.674882   0.980756
   80       -3.333675   0.365771
   81       -3.209192   0.110607
   82       -2.700833   0.000001
   83       -2.621833   0.000000
   84       -2.573307   0.000000
   85       -2.471193   0.000000
   86       -2.424364   0.000000
   87       -2.322933   0.000000
   88       -2.269668   0.000000
   89       -2.169773   0.000000
   90       -2.068342   0.000000
   91       -1.749323   0.000000
   92       -1.644261   0.000000
   93       -1.522157   0.000000
   94       -1.344743   0.000000
   95       -1.192609   0.000000
   96       -1.077942   0.000000
   97       -1.030940   0.000000
   98       -0.958967   0.000000
   99       -0.907425   0.000000
  100       -0.868667   0.000000
  101       -0.742550   0.000000
  102       -0.650067   0.000000
  103       -0.596547   0.000000
  104       -0.495362   0.000000
  105       -0.394565   0.000000
  106       -0.205879   0.000000
  107       -0.052211   0.000000
  108       -0.020893   0.000000
  109        0.076210   0.000000
  110        0.289697   0.000000
  111        0.390141   0.000000
  112        0.526398   0.000000
  113        0.573572   0.000000
  114        0.804624   0.000000
  115        0.964907   0.000000
  116        1.022573   0.000000
  117        1.197698   0.000000
  118        1.797184   0.000000
  119        1.987495   0.000000
  120        2.280793   0.000000
 
  0.3750000E+00  0.0000000E+00  0.0000000E+00  0.3125000E-01
    1      -17.591179   1.000000
    2      -17.206322   1.000000
    3      -16.722186   1.000000
    4      -16.648892   1.000000
    5      -16.613814   1.000000
    6      -16.392238   1.000000
    7      -16.268818   1.000000
    8      -16.194866   1.000000
    9      -16.086530   1.000000
   10      -16.013609   1.000000
   11      -15.911940   1.000000
   12      -15.863339   1.000000
   13      -15.790343   1.000000
   14      -15.680374   1.000000
   15      -15.618603   1.000000
   16      -15.546288   1.000000
   17      -15.436905   1.000000
   18      -15.381078   1.000000
   19       -9.673964   1.000000
   20       -9.332393   1.000000
   21       -9.248311   1.000000
   22       -9.014847   1.000000
   23       -8.946733   1.000000
   24       -8.815108   1.000000
   25       -8.531499   1.000000
   26       -8.458912   1.000000
   27       -8.405103   1.000000
   28       -8.337194   1.000000
   29       -8.299075   1.000000
   30       -8.215999   1.000000
   31       -8.130763   1.000000
   32       -8.023261   1.000000
   33       -7.902450   1.000000
   34       -7.826303   1.000000
   35       -7.750992   1.000000
   36       -7.698582   1.000000
   37       -7.568205   1.000000
   38       -7.452085   1.000000
   39       -7.383456   1.000000
   40       -7.268414   1.000000
   41       -7.209094   1.000000
   42       -7.152419   1.000000
   43       -7.061562   1.000000
   44       -6.966499   1.000000
   45       -6.881786   1.000000
   46       -6.776382   1.000000
   47       -6.738324   1.000000
   48       -6.624992   1.000000
   49       -6.536986   1.000000
   50       -6.443337   1.000000
   51       -6.404514   1.000000
   52       -6.336963   1.000000
   53       -6.313786   1.000000
   54       -6.211687   1.000000
   55       -6.117135   1.000000
   56       -6.018583   1.000000
   57       -5.972460   1.000000
   58       -5.950467   1.000000
   59       -5.910236   1.000000
   60       -5.792950   1.000000
   61       -5.760133   1.000000
   62       -5.642863   1.000000
   63       -5.577005   1.000000
   64       -5.488362   1.000000
   65       -5.196870   1.000000
   66       -4.921049   1.000000
   67       -4.839315   1.000000
   68       -4.788097   1.000000
   69       -4.745581   1.000000
   70       -4.647180   1.000000
   71       -4.587669   1.000000
   72       -4.485006   1.000000
   73       -4.375880   1.000000
   74       -4.312880   1.000000
   75       -4.271526   1.000000
   76       -4.165267   1.000000
   77       -3.969599   0.999984
   78       -3.839754   0.999393
   79       -3.657287   0.974125
   80       -3.351699   0.414640
   81       -3.181082   0.077502
   82       -2.698056   0.000001
   83       -2.613289   0.000000
   84       -2.541054   0.000000
   85       -2.406484   0.000000
   86       -2.370257   0.000000
   87       -2.288817   0.000000
   88       -2.212037   0.000000
   89       -2.097463   0.000000
   90       -1.994539   0.000000
   91       -1.702660   0.000000
   92       -1.622890   0.000000
   93       -1.517507   0.000000
   94       -1.390710   0.000000
   95       -1.272401   0.000000
   96       -1.190007   0.000000
   97       -1.155661   0.000000
   98       -1.032744   0.000000
   99       -0.986696   0.000000
  100       -0.880777   0.000000
  101       -0.785549   0.000000
  102       -0.712654   0.000000
  103       -0.611292   0.000000
  104       -0.582811   0.000000
  105       -0.470616   0.000000
  106       -0.243883   0.000000
  107       -0.124928   0.000000
  108       -0.088313   0.000000
  109        0.035811   0.000000
  110        0.240542   0.000000
  111        0.390358   0.000000
  112        0.525220   0.000000
  113        0.609926   0.000000
  114        0.875441   0.000000
  115        1.008275   0.000000
  116        1.075418   0.000000
  117        1.264978   0.000000
  118        1.975696   0.000000
  119        2.162944   0.000000
  120        2.426632   0.000000
 
  0.5000000E+00  0.1110223E-15  0.0000000E+00  0.1562500E-01
    1      -17.490614   1.000000
    2      -17.339464   1.000000
    3      -16.731810   1.000000
    4      -16.655795   1.000000
    5      -16.621804   1.000000
    6      -16.395816   1.000000
    7      -16.256261   1.000000
    8      -16.197835   1.000000
    9      -16.026036   1.000000
   10      -15.993602   1.000000
   11      -15.924537   1.000000
   12      -15.857518   1.000000
   13      -15.809224   1.000000
   14      -15.679548   1.000000
   15      -15.596253   1.000000
   16      -15.544711   1.000000
   17      -15.441866   1.000000
   18      -15.394121   1.000000
   19       -9.740840   1.000000
   20       -9.364108   1.000000
   21       -9.265843   1.000000
   22       -8.997233   1.000000
   23       -8.975034   1.000000
   24       -8.835875   1.000000
   25       -8.527300   1.000000
   26       -8.437593   1.000000
   27       -8.385805   1.000000
   28       -8.309674   1.000000
   29       -8.258484   1.000000
   30       -8.217620   1.000000
   31       -8.116496   1.000000
   32       -8.052249   1.000000
   33       -7.944838   1.000000
   34       -7.873092   1.000000
   35       -7.799960   1.000000
   36       -7.710714   1.000000
   37       -7.500705   1.000000
   38       -7.432387   1.000000
   39       -7.316491   1.000000
   40       -7.209498   1.000000
   41       -7.142122   1.000000
   42       -7.106814   1.000000
   43       -7.036139   1.000000
   44       -6.943525   1.000000
   45       -6.900157   1.000000
   46       -6.765495   1.000000
   47       -6.661752   1.000000
   48       -6.625198   1.000000
   49       -6.527492   1.000000
   50       -6.485137   1.000000
   51       -6.431033   1.000000
   52       -6.300196   1.000000
   53       -6.259131   1.000000
   54       -6.232077   1.000000
   55       -6.140869   1.000000
   56       -6.135026   1.000000
   57       -6.034284   1.000000
   58       -5.907092   1.000000
   59       -5.860045   1.000000
   60       -5.820393   1.000000
   61       -5.759984   1.000000
   62       -5.686769   1.000000
   63       -5.582359   1.000000
   64       -5.522826   1.000000
   65       -5.198156   1.000000
   66       -5.115846   1.000000
   67       -4.815999   1.000000
   68       -4.780183   1.000000
   69       -4.731420   1.000000
   70       -4.643125   1.000000
   71       -4.562877   1.000000
   72       -4.458453   1.000000
   73       -4.361412   1.000000
   74       -4.297193   1.000000
   75       -4.255528   1.000000
   76       -4.219004   1.000000
   77       -3.936664   0.999956
   78       -3.837474   0.999358
   79       -3.633808   0.962395
   80       -3.372750   0.473382
   81       -3.168754   0.065619
   82       -2.698414   0.000001
   83       -2.608865   0.000000
   84       -2.529493   0.000000
   85       -2.384620   0.000000
   86       -2.352269   0.000000
   87       -2.254481   0.000000
   88       -2.187764   0.000000
   89       -2.064989   0.000000
   90       -1.962971   0.000000
   91       -1.648963   0.000000
   92       -1.611134   0.000000
   93       -1.539249   0.000000
   94       -1.411462   0.000000
   95       -1.347326   0.000000
   96       -1.241497   0.000000
   97       -1.203662   0.000000
   98       -1.061228   0.000000
   99       -1.029151   0.000000
  100       -0.859812   0.000000
  101       -0.786239   0.000000
  102       -0.742469   0.000000
  103       -0.658633   0.000000
  104       -0.591193   0.000000
  105       -0.482428   0.000000
  106       -0.259014   0.000000
  107       -0.168758   0.000000
  108       -0.114610   0.000000
  109        0.015315   0.000000
  110        0.223183   0.000000
  111        0.388224   0.000000
  112        0.525590   0.000000
  113        0.623259   0.000000
  114        0.895741   0.000000
  115        1.020034   0.000000
  116        1.100412   0.000000
  117        1.298954   0.000000
  118        2.178590   0.000000
  119        2.227856   0.000000
  120        2.373310   0.000000
 
  0.0000000E+00  0.1250000E+00  0.0000000E+00  0.3125000E-01
    1      -17.775332   1.000000
    2      -16.755791   1.000000
    3      -16.699659   1.000000
    4      -16.644896   1.000000
    5      -16.526423   1.000000
    6      -16.410697   1.000000
    7      -16.373174   1.000000
    8      -16.264824   1.000000
    9      -16.165341   1.000000
   10      -16.099875   1.000000
   11      -15.998449   1.000000
   12      -15.897599   1.000000
   13      -15.831435   1.000000
   14      -15.689027   1.000000
   15      -15.594472   1.000000
   16      -15.514431   1.000000
   17      -15.421575   1.000000
   18      -15.352669   1.000000
   19       -9.390645   1.000000
   20       -9.126928   1.000000
   21       -9.067836   1.000000
   22       -8.959698   1.000000
   23       -8.767227   1.000000
   24       -8.659168   1.000000
   25       -8.645884   1.000000
   26       -8.555412   1.000000
   27       -8.477738   1.000000
   28       -8.441944   1.000000
   29       -8.329465   1.000000
   30       -8.278276   1.000000
   31       -8.193033   1.000000
   32       -8.071651   1.000000
   33       -8.026738   1.000000
   34       -7.907412   1.000000
   35       -7.777606   1.000000
   36       -7.767121   1.000000
   37       -7.658386   1.000000
   38       -7.575585   1.000000
   39       -7.489170   1.000000
   40       -7.420439   1.000000
   41       -7.354145   1.000000
   42       -7.172395   1.000000
   43       -7.126547   1.000000
   44       -6.982847   1.000000
   45       -6.949293   1.000000
   46       -6.872514   1.000000
   47       -6.723930   1.000000
   48       -6.654048   1.000000
   49       -6.589512   1.000000
   50       -6.479699   1.000000
   51       -6.430650   1.000000
   52       -6.335682   1.000000
   53       -6.278409   1.000000
   54       -6.200047   1.000000
   55       -6.172040   1.000000
   56       -6.092306   1.000000
   57       -5.941699   1.000000
   58       -5.891570   1.000000
   59       -5.737509   1.000000
   60       -5.576262   1.000000
   61       -5.517523   1.000000
   62       -5.421149   1.000000
   63       -5.312304   1.000000
   64       -5.201377   1.000000
   65       -5.104734   1.000000
   66       -5.058636   1.000000
   67       -4.997558   1.000000
   68       -4.910581   1.000000
   69       -4.806439   1.000000
   70       -4.717390   1.000000
   71       -4.639573   1.000000
   72       -4.548685   1.000000
   73       -4.493397   1.000000
   74       -4.373666   1.000000
   75       -4.099614   1.000000
   76       -4.042908   0.999999
   77       -3.890062   0.999835
   78       -3.783059   0.997705
   79       -3.647064   0.969460
   80       -3.499262   0.796107
   81       -3.109134   0.026753
   82       -2.769671   0.000007
   83       -2.684934   0.000000
   84       -2.581527   0.000000
   85       -2.567173   0.000000
   86       -2.475275   0.000000
   87       -2.377295   0.000000
   88       -2.260006   0.000000
   89       -2.240430   0.000000
   90       -2.147169   0.000000
   91       -1.751972   0.000000
   92       -1.631342   0.000000
   93       -1.550787   0.000000
   94       -1.313454   0.000000
   95       -1.177855   0.000000
   96       -1.053523   0.000000
   97       -0.945832   0.000000
   98       -0.892294   0.000000
   99       -0.805507   0.000000
  100       -0.698212   0.000000
  101       -0.631370   0.000000
  102       -0.579504   0.000000
  103       -0.544615   0.000000
  104       -0.417525   0.000000
  105       -0.265594   0.000000
  106       -0.156053   0.000000
  107       -0.092192   0.000000
  108       -0.000567   0.000000
  109        0.080741   0.000000
  110        0.357291   0.000000
  111        0.372092   0.000000
  112        0.494153   0.000000
  113        0.595102   0.000000
  114        0.676226   0.000000
  115        0.858357   0.000000
  116        1.017250   0.000000
  117        1.212895   0.000000
  118        1.682780   0.000000
  119        1.869942   0.000000
  120        2.178923   0.000000
 
  0.1250000E+00  0.1250000E+00  0.0000000E+00  0.3125000E-01
    1      -17.727039   1.000000
    2      -16.910767   1.000000
    3      -16.743942   1.000000
    4      -16.678244   1.000000
    5      -16.471844   1.000000
    6      -16.395085   1.000000
    7      -16.343613   1.000000
    8      -16.247147   1.000000
    9      -16.193122   1.000000
   10      -16.023235   1.000000
   11      -15.975158   1.000000
   12      -15.872921   1.000000
   13      -15.779624   1.000000
   14      -15.713223   1.000000
   15      -15.600128   1.000000
   16      -15.536551   1.000000
   17      -15.415456   1.000000
   18      -15.370609   1.000000
   19       -9.429650   1.000000
   20       -9.289550   1.000000
   21       -9.183689   1.000000
   22       -9.015281   1.000000
   23       -8.785670   1.000000
   24       -8.726080   1.000000
   25       -8.613824   1.000000
   26       -8.534921   1.000000
   27       -8.445253   1.000000
   28       -8.411818   1.000000
   29       -8.294597   1.000000
   30       -8.224678   1.000000
   31       -8.119932   1.000000
   32       -8.055192   1.000000
   33       -7.951536   1.000000
   34       -7.867011   1.000000
   35       -7.784697   1.000000
   36       -7.682329   1.000000
   37       -7.600111   1.000000
   38       -7.538334   1.000000
   39       -7.459430   1.000000
   40       -7.396838   1.000000
   41       -7.304332   1.000000
   42       -7.204675   1.000000
   43       -7.104119   1.000000
   44       -7.054242   1.000000
   45       -6.957638   1.000000
   46       -6.831217   1.000000
   47       -6.750905   1.000000
   48       -6.620696   1.000000
   49       -6.541914   1.000000
   50       -6.463158   1.000000
   51       -6.380272   1.000000
   52       -6.328948   1.000000
   53       -6.292082   1.000000
   54       -6.245416   1.000000
   55       -6.165080   1.000000
   56       -6.087370   1.000000
   57       -5.961943   1.000000
   58       -5.892749   1.000000
   59       -5.734620   1.000000
   60       -5.661728   1.000000
   61       -5.618704   1.000000
   62       -5.475273   1.000000
   63       -5.376986   1.000000
   64       -5.289523   1.000000
   65       -5.230513   1.000000
   66       -5.048283   1.000000
   67       -4.942032   1.000000
   68       -4.840964   1.000000
   69       -4.774310   1.000000
   70       -4.714060   1.000000
   71       -4.558739   1.000000
   72       -4.472333   1.000000
   73       -4.424977   1.000000
   74       -4.345075   1.000000
   75       -4.219004   1.000000
   76       -4.063019   0.999999
   77       -3.985883   0.999990
   78       -3.829443   0.999218
   79       -3.640221   0.965964
   80       -3.400852   0.552483
   81       -3.147466   0.048480
   82       -2.752824   0.000004
   83       -2.636800   0.000000
   84       -2.603817   0.000000
   85       -2.531358   0.000000
   86       -2.438077   0.000000
   87       -2.350865   0.000000
   88       -2.248246   0.000000
   89       -2.181010   0.000000
   90       -2.090399   0.000000
   91       -1.751277   0.000000
   92       -1.634917   0.000000
   93       -1.515119   0.000000
   94       -1.347432   0.000000
   95       -1.186731   0.000000
   96       -1.081012   0.000000
   97       -0.990981   0.000000
   98       -0.917485   0.000000
   99       -0.896002   0.000000
  100       -0.820023   0.000000
  101       -0.689311   0.000000
  102       -0.619564   0.000000
  103       -0.543696   0.000000
  104       -0.480043   0.000000
  105       -0.331141   0.000000
  106       -0.202286   0.000000
  107       -0.105743   0.000000
  108       -0.005235   0.000000
  109        0.071460   0.000000
  110        0.353774   0.000000
  111        0.381813   0.000000
  112        0.442153   0.000000
  113        0.605831   0.000000
  114        0.765813   0.000000
  115        0.930030   0.000000
  116        1.045642   0.000000
  117        1.180922   0.000000
  118        1.762183   0.000000
  119        1.946469   0.000000
  120        2.247385   0.000000
 
  0.2500000E+00  0.1250000E+00  0.0000000E+00  0.3125000E-01
    1      -17.634369   1.000000
    2      -17.101267   1.000000
    3      -16.834519   1.000000
    4      -16.663617   1.000000
    5      -16.465661   1.000000
    6      -16.377347   1.000000
    7      -16.291378   1.000000
    8      -16.214397   1.000000
    9      -16.182590   1.000000
   10      -16.001007   1.000000
   11      -15.911488   1.000000
   12      -15.863676   1.000000
   13      -15.764991   1.000000
   14      -15.688321   1.000000
   15      -15.614029   1.000000
   16      -15.561954   1.000000
   17      -15.413931   1.000000
   18      -15.388006   1.000000
   19       -9.587891   1.000000
   20       -9.411279   1.000000
   21       -9.243286   1.000000
   22       -9.076228   1.000000
   23       -8.809206   1.000000
   24       -8.740477   1.000000
   25       -8.547399   1.000000
   26       -8.484964   1.000000
   27       -8.391389   1.000000
   28       -8.352359   1.000000
   29       -8.332346   1.000000
   30       -8.184982   1.000000
   31       -8.123168   1.000000
   32       -8.071861   1.000000
   33       -7.956307   1.000000
   34       -7.851764   1.000000
   35       -7.775338   1.000000
   36       -7.637675   1.000000
   37       -7.548330   1.000000
   38       -7.505711   1.000000
   39       -7.388318   1.000000
   40       -7.280812   1.000000
   41       -7.207868   1.000000
   42       -7.171321   1.000000
   43       -7.120884   1.000000
   44       -7.007020   1.000000
   45       -6.908491   1.000000
   46       -6.769825   1.000000
   47       -6.732268   1.000000