       N       E                     dE             d eps       ncg     rms          rms(c)
DAV:   1     0.112467363516E+04    0.11247E+04   -0.35864E+04  8160   0.577E+02
DAV:   2    -0.263178304770E+01   -0.11273E+04   -0.10855E+04 11080   0.173E+02
DAV:   3    -0.199937946453E+03   -0.19731E+03   -0.18934E+03 10960   0.820E+01
DAV:   4    -0.209014708408E+03   -0.90768E+01   -0.88002E+01 12160   0.258E+01
DAV:   5    -0.209312191704E+03   -0.29748E+00   -0.29664E+00 11400   0.351E+00    0.275E+01
DAV:   6    -0.237227808172E+03   -0.27916E+02   -0.10615E+02 12760   0.605E+01    0.595E+01
DAV:   7    -0.196468238807E+03    0.40760E+02   -0.17595E+02 13320   0.152E+02    0.200E+01
DAV:   8    -0.189435324585E+03    0.70329E+01   -0.17561E+01 11800   0.127E+01    0.125E+01
DAV:   9    -0.188231776305E+03    0.12035E+01   -0.36059E+00 12480   0.614E+00    0.929E+00
DAV:  10    -0.187080800936E+03    0.11510E+01   -0.19963E+00 13360   0.735E+00    0.317E+00
DAV:  11    -0.187030475744E+03    0.50325E-01   -0.72160E-01 13520   0.317E+00    0.340E+00
DAV:  12    -0.187177304540E+03   -0.14683E+00   -0.11537E+00 12600   0.555E+00    0.488E+00
DAV:  13    -0.186930532672E+03    0.24677E+00   -0.49601E-01 13200   0.361E+00    0.217E+00
DAV:  14    -0.186882020123E+03    0.48513E-01   -0.11326E-01 13400   0.165E+00    0.754E-01
DAV:  15    -0.186883451872E+03   -0.14317E-02   -0.40314E-02 12640   0.114E+00    0.114E+00
DAV:  16    -0.186875170559E+03    0.82813E-02   -0.19570E-02 13240   0.790E-01    0.566E-01
DAV:  17    -0.186871794493E+03    0.33761E-02   -0.96915E-03 12800   0.517E-01    0.217E-01
DAV:  18    -0.186871611739E+03    0.18275E-03   -0.20758E-03 12200   0.149E-01    0.153E-01
DAV:  19    -0.186871264245E+03    0.34749E-03   -0.89534E-04 11320   0.103E-01    0.508E-02
DAV:  20    -0.186872023938E+03   -0.75969E-03   -0.73399E-04  9160   0.620E-02    0.532E-02
DAV:  21    -0.186872640957E+03   -0.61702E-03   -0.20847E-04  8240   0.450E-02    0.328E-02
DAV:  22    -0.186873748520E+03   -0.11076E-02   -0.18170E-04  7600   0.425E-02    0.337E-02
DAV:  23    -0.186874970707E+03   -0.12222E-02   -0.13139E-04  7440   0.413E-02    0.120E-02
DAV:  24    -0.186875554923E+03   -0.58422E-03   -0.25118E-05  6880   0.133E-02    0.803E-03
DAV:  25    -0.186875932395E+03   -0.37747E-03   -0.15647E-05  5440   0.120E-02    0.490E-03
DAV:  26    -0.186876153650E+03   -0.22126E-03   -0.84344E-06  6880   0.717E-03    0.207E-03
DAV:  27    -0.186876255151E+03   -0.10150E-03   -0.37983E-06  7040   0.414E-03    0.129E-03
DAV:  28    -0.186876305741E+03   -0.50590E-04   -0.20979E-06  7280   0.306E-03
   1 F= -.18687631E+03 E0= -.18670455E+03  d E =-.186876E+03
       N       E                     dE             d eps       ncg     rms          rms(c)
DAV:   1    -0.187498007706E+03   -0.62175E+00   -0.26980E+02  8160   0.349E+01    0.463E+00
DAV:   2    -0.189499124367E+03   -0.20011E+01   -0.20236E+01 12240   0.156E+01    0.990E+00
DAV:   3    -0.189331855777E+03    0.16727E+00   -0.49124E+00 12440   0.126E+01    0.623E+00
DAV:   4    -0.188767194650E+03    0.56466E+00   -0.54860E-01 11880   0.432E+00    0.202E+00
DAV:   5    -0.188894105015E+03   -0.12691E+00   -0.49191E-01 12400   0.389E+00    0.538E+00
DAV:   6    -0.188746491304E+03    0.14761E+00   -0.73422E-01 12720   0.429E+00    0.236E+00
DAV:   7    -0.188706800239E+03    0.39691E-01   -0.21044E-01 11720   0.219E+00    0.194E+00
DAV:   8    -0.188694426450E+03    0.12374E-01   -0.11790E-01 12880   0.210E+00    0.172E+00
DAV:   9    -0.188668653856E+03    0.25773E-01   -0.47219E-02 11920   0.114E+00    0.480E-01
DAV:  10    -0.188667281047E+03    0.13728E-02   -0.60120E-03 11320   0.263E-01    0.271E-01
DAV:  11    -0.188666538642E+03    0.74240E-03   -0.29562E-03 13200   0.230E-01    0.131E-01
DAV:  12    -0.188666587473E+03   -0.48831E-04   -0.98873E-04 12080   0.950E-02
   2 F= -.18866659E+03 E0= -.18852683E+03  d E =-.179028E+01
       N       E                     dE             d eps       ncg     rms          rms(c)
DAV:   1    -0.190581877215E+03   -0.19153E+01   -0.30767E+01  9200   0.141E+01    0.445E+00
DAV:   2    -0.190566023532E+03    0.15854E-01   -0.28041E+00 11000   0.966E+00    0.739E+00
DAV:   3    -0.190056655157E+03    0.50937E+00   -0.13010E+00 12320   0.865E+00    0.414E+00
DAV:   4    -0.189852170514E+03    0.20448E+00   -0.68336E-01 12680   0.411E+00    0.247E+00
DAV:   5    -0.189786888985E+03    0.65282E-01   -0.30889E-01 11120   0.235E+00    0.196E+00
DAV:   6    -0.189756506008E+03    0.30383E-01   -0.10371E-01 12640   0.192E+00    0.850E-01
DAV:   7    -0.189748935515E+03    0.75705E-02   -0.15031E-02 12560   0.592E-01    0.193E-01
DAV:   8    -0.189749043189E+03   -0.10767E-03   -0.27194E-03 11240   0.198E-01    0.182E-01
DAV:   9    -0.189749321220E+03   -0.27803E-03   -0.14281E-03 10920   0.263E-01    0.228E-01
DAV:  10    -0.189749235358E+03    0.85862E-04   -0.10740E-03 10200   0.202E-01    0.106E-01
DAV:  11    -0.189749057101E+03    0.17826E-03   -0.38164E-04  7760   0.745E-02    0.290E-02
DAV:  12    -0.189749068177E+03   -0.11076E-04   -0.74712E-05  7720   0.301E-02
   3 F= -.18974907E+03 E0= -.18963166E+03  d E =-.108248E+01
       N       E                     dE             d eps       ncg     rms          rms(c)
DAV:   1    -0.191289823636E+03   -0.15408E+01   -0.70382E+01  8160   0.192E+01    0.460E+00
DAV:   2    -0.191181725301E+03    0.10810E+00   -0.53587E+00 13400   0.838E+00    0.521E+00
DAV:   3    -0.191222757978E+03   -0.41033E-01   -0.15642E+00 11800   0.919E+00    0.678E+00
DAV:   4    -0.190900653472E+03    0.32210E+00   -0.15341E+00 12520   0.778E+00    0.406E+00
DAV:   5    -0.190889137955E+03    0.11516E-01   -0.85278E-01 11200   0.584E+00    0.359E+00
DAV:   6    -0.190707684980E+03    0.18145E+00   -0.20553E-01 11080   0.297E+00    0.605E-01
DAV:   7    -0.190706019346E+03    0.16656E-02   -0.37040E-02 11400   0.701E-01    0.454E-01
DAV:   8    -0.190702937701E+03    0.30816E-02   -0.77163E-03 10400   0.408E-01    0.246E-01
DAV:   9    -0.190702877103E+03    0.60598E-04   -0.20300E-03 12480   0.313E-01    0.200E-01
DAV:  10    -0.190702914270E+03   -0.37167E-04   -0.12190E-03 11520   0.189E-01    0.101E-01
DAV:  11    -0.190702813326E+03    0.10094E-03   -0.56391E-04  9760   0.875E-02    0.445E-02
DAV:  12    -0.190702821266E+03   -0.79407E-05   -0.13706E-04  7680   0.438E-02
   4 F= -.19070282E+03 E0= -.19060428E+03  d E =-.953753E+00
       N       E                     dE             d eps       ncg     rms          rms(c)
DAV:   1    -0.192116996674E+03   -0.14142E+01   -0.15224E+02  8160   0.277E+01    0.585E+00
DAV:   2    -0.191965976115E+03    0.15102E+00   -0.99806E+00 12200   0.958E+00    0.556E+00
DAV:   3    -0.192425333931E+03   -0.45936E+00   -0.33901E+00 12240   0.127E+01    0.945E+00
DAV:   4    -0.191546214343E+03    0.87912E+00   -0.21993E+00 12320   0.106E+01    0.307E+00
DAV:   5    -0.191522270217E+03    0.23944E-01   -0.56369E-01 11800   0.505E+00    0.428E+00
DAV:   6    -0.191374652060E+03    0.14762E+00   -0.62276E-01 12200   0.527E+00    0.160E+00
DAV:   7    -0.191350155260E+03    0.24497E-01   -0.72820E-02 11920   0.147E+00    0.716E-01
DAV:   8    -0.191348551915E+03    0.16033E-02   -0.26179E-02 12120   0.115E+00    0.770E-01
DAV:   9    -0.191342652032E+03    0.58999E-02   -0.10276E-02 11480   0.760E-01    0.231E-01
DAV:  10    -0.191342793539E+03   -0.14151E-03   -0.28599E-03 11840   0.225E-01    0.116E-01
DAV:  11    -0.191342663237E+03    0.13030E-03   -0.87002E-04 10720   0.109E-01    0.653E-02
DAV:  12    -0.191342624564E+03    0.38673E-04   -0.14337E-04  7120   0.481E-02
   5 F= -.19134262E+03 E0= -.19124939E+03  d E =-.639803E+00
       N       E                     dE             d eps       ncg     rms          rms(c)
DAV:   1    -0.191395391628E+03   -0.52728E-01   -0.47849E+00  8160   0.464E+00    0.636E-01
DAV:   2    -0.191454536836E+03   -0.59145E-01   -0.24794E-01 12360   0.259E+00    0.229E+00
DAV:   3    -0.191406434155E+03    0.48103E-01   -0.11954E-01 12000   0.231E+00    0.565E-01
DAV:   4    -0.191406702581E+03   -0.26843E-03   -0.16319E-02 11400   0.863E-01    0.608E-01
DAV:   5    -0.191402888134E+03    0.38144E-02   -0.75801E-03 11440   0.642E-01    0.196E-01
DAV:   6    -0.191402903505E+03   -0.15371E-04   -0.23757E-03 11320   0.299E-01    0.226E-01
DAV:   7    -0.191402926281E+03   -0.22776E-04   -0.26187E-03 11680   0.386E-01    0.221E-01
DAV:   8    -0.191402366254E+03    0.56003E-03   -0.94826E-04  9880   0.210E-01    0.318E-02
DAV:   9    -0.191402378857E+03   -0.12603E-04   -0.90938E-05  6080   0.381E-02
   6 F= -.19140238E+03 E0= -.19130680E+03  d E =-.597543E-01
       N       E                     dE             d eps       ncg     rms          rms(c)
DAV:   1    -0.191465923695E+03   -0.63557E-01   -0.83578E+00  8160   0.611E+00    0.833E-01
DAV:   2    -0.191575579843E+03   -0.10966E+00   -0.39266E-01 13120   0.356E+00    0.335E+00
DAV:   3    -0.191479804499E+03    0.95775E-01   -0.25626E-01 12080   0.322E+00    0.770E-01
DAV:   4    -0.191479018176E+03    0.78632E-03   -0.28483E-02 11640   0.115E+00    0.763E-01
DAV:   5    -0.191473098364E+03    0.59198E-02   -0.12574E-02 11680   0.791E-01    0.266E-01
DAV:   6    -0.191473340466E+03   -0.24210E-03   -0.48463E-03 11440   0.463E-01    0.352E-01
DAV:   7    -0.191472636181E+03    0.70428E-03   -0.43711E-03 11400   0.497E-01    0.214E-01
DAV:   8    -0.191472056169E+03    0.58001E-03   -0.10987E-03  9960   0.206E-01    0.383E-02
DAV:   9    -0.191472051118E+03    0.50511E-05   -0.12857E-04  6720   0.456E-02
   7 F= -.19147205E+03 E0= -.19137445E+03  d E =-.696723E-01
       N       E                     dE             d eps       ncg     rms          rms(c)
DAV:   1    -0.191516517814E+03   -0.44462E-01   -0.39745E+00  8160   0.425E+00    0.590E-01
DAV:   2    -0.191567954547E+03   -0.51437E-01   -0.19388E-01 12680   0.251E+00    0.227E+00
DAV:   3    -0.191522777500E+03    0.45177E-01   -0.11124E-01 12080   0.217E+00    0.516E-01
DAV:   4    -0.191523269339E+03   -0.49184E-03   -0.14583E-02 11480   0.827E-01    0.581E-01
DAV:   5    -0.191519860248E+03    0.34091E-02   -0.73986E-03 11480   0.603E-01    0.206E-01
DAV:   6    -0.191520041878E+03   -0.18163E-03   -0.28386E-03 11280   0.364E-01    0.268E-01
DAV:   7    -0.191519558963E+03    0.48291E-03   -0.23733E-03 11440   0.365E-01    0.144E-01
DAV:   8    -0.191519274757E+03    0.28421E-03   -0.53716E-04  8760   0.142E-01    0.297E-02
DAV:   9    -0.191519269413E+03    0.53439E-05   -0.82280E-05  6960   0.373E-02
   8 F= -.19151927E+03 E0= -.19142146E+03  d E =-.472183E-01
       N       E                     dE             d eps       ncg     rms          rms(c)
DAV:   1    -0.191568560857E+03   -0.49286E-01   -0.50524E+00  8160   0.479E+00    0.586E-01
DAV:   2    -0.191611687694E+03   -0.43127E-01   -0.19656E-01 13120   0.223E+00    0.202E+00
DAV:   3    -0.191576935830E+03    0.34752E-01   -0.96387E-02 12200   0.201E+00    0.536E-01
DAV:   4    -0.191577810808E+03   -0.87498E-03   -0.15097E-02 11440   0.830E-01    0.629E-01
DAV:   5    -0.191573763992E+03    0.40468E-02   -0.84971E-03 11200   0.666E-01    0.221E-01
DAV:   6    -0.191573824213E+03   -0.60221E-04   -0.27821E-03 11440   0.349E-01    0.248E-01
DAV:   7    -0.191573610760E+03    0.21345E-03   -0.25300E-03 11160   0.392E-01    0.188E-01
DAV:   8    -0.191573123199E+03    0.48756E-03   -0.77217E-04  9480   0.194E-01    0.297E-02
DAV:   9    -0.191573124123E+03   -0.92413E-06   -0.85186E-05  6800   0.369E-02
   9 F= -.19157312E+03 E0= -.19147690E+03  d E =-.538547E-01
       N       E                     dE             d eps       ncg     rms          rms(c)
DAV:   1    -0.191578351811E+03   -0.52286E-02   -0.46229E-02  8160   0.462E-01    0.587E-02
DAV:   2    -0.191578711190E+03   -0.35938E-03   -0.19729E-03 13040   0.215E-01    0.171E-01
DAV:   3    -0.191578429119E+03    0.28207E-03   -0.69200E-04  8720   0.183E-01    0.543E-02
DAV:   4    -0.191578439335E+03   -0.10216E-04   -0.13488E-04  5640   0.833E-02
  10 F= -.19157844E+03 E0= -.19148246E+03  d E =-.531521E-02
       N       E                     dE             d eps       ncg     rms          rms(c)
DAV:   1    -0.191544588247E+03    0.33841E-01   -0.20962E+00  8160   0.311E+00    0.450E-01
DAV:   2    -0.191562834808E+03   -0.18247E-01   -0.10232E-01 12520   0.173E+00    0.118E+00
DAV:   3    -0.191546642275E+03    0.16193E-01   -0.28360E-02 11840   0.133E+00    0.293E-01
DAV:   4    -0.191547150070E+03   -0.50780E-03   -0.63689E-03 11240   0.548E-01    0.430E-01
DAV:   5    -0.191545478431E+03    0.16716E-02   -0.49619E-03 11280   0.510E-01    0.206E-01
DAV:   6    -0.191545573201E+03   -0.94771E-04   -0.25906E-03 11360   0.310E-01    0.243E-01
DAV:   7    -0.191545107065E+03    0.46614E-03   -0.16545E-03  9760   0.291E-01    0.110E-01
DAV:   8    -0.191544976558E+03    0.13051E-03   -0.28959E-04  7240   0.107E-01    0.265E-02
DAV:   9    -0.191544971475E+03    0.50831E-05   -0.49852E-05  6800   0.291E-02
  11 F= -.19154497E+03 E0= -.19144821E+03  d E =0.334679E-01
       N       E                     dE             d eps       ncg     rms          rms(c)
DAV:   1    -0.191526268393E+03    0.18708E-01   -0.73261E-01  8160   0.182E+00    0.202E-01
DAV:   2    -0.191529288432E+03   -0.30200E-02   -0.23365E-02 13040   0.622E-01    0.416E-01
DAV:   3    -0.191527550984E+03    0.17374E-02   -0.53862E-03 12360   0.554E-01    0.199E-01
DAV:   4    -0.191527335195E+03    0.21579E-03   -0.13278E-03  9840   0.244E-01    0.153E-01
DAV:   5    -0.191527141586E+03    0.19361E-03   -0.75280E-04  9360   0.207E-01    0.107E-01
DAV:   6    -0.191527103526E+03    0.38059E-04   -0.48166E-04  8360   0.144E-01
  12 F= -.19152710E+03 E0= -.19143028E+03  d E =0.178679E-01
       N       E                     dE             d eps       ncg     rms          rms(c)
DAV:   1    -0.191506869509E+03    0.20272E-01   -0.40797E+00  8160   0.435E+00    0.460E-01
DAV:   2    -0.191516544909E+03   -0.96754E-02   -0.11419E-01 12760   0.102E+00    0.630E-01
DAV:   3    -0.191516129745E+03    0.41516E-03   -0.22452E-02 12440   0.109E+00    0.688E-01
DAV:   4    -0.191512688632E+03    0.34411E-02   -0.10949E-02 12240   0.702E-01    0.386E-01
DAV:   5    -0.191511507253E+03    0.11814E-02   -0.47689E-03 10800   0.484E-01    0.258E-01
DAV:   6    -0.191511257914E+03    0.24934E-03   -0.29143E-03 11840   0.361E-01    0.180E-01
DAV:   7    -0.191511157387E+03    0.10053E-03   -0.17760E-03  9880   0.294E-01    0.191E-01
DAV:   8    -0.191510753144E+03    0.40424E-03   -0.63907E-04  8680   0.193E-01    0.269E-02
DAV:   9    -0.191510755851E+03   -0.27063E-05   -0.48965E-05  6440   0.298E-02
  13 F= -.19151076E+03 E0= -.19141486E+03  d E =0.163477E-01
       N       E                     dE             d eps       ncg     rms          rms(c)
DAV:   1    -0.191526195233E+03   -0.15442E-01   -0.12331E+00  8160   0.240E+00    0.304E-01
DAV:   2    -0.191534395801E+03   -0.82006E-02   -0.43200E-02 13480   0.101E+00    0.879E-01
DAV:   3    -0.191527518214E+03    0.68776E-02   -0.16848E-02 12280   0.921E-01    0.266E-01
DAV:   4    -0.191527745671E+03   -0.22746E-03   -0.35315E-03 11520   0.384E-01    0.316E-01
DAV:   5    -0.191526909797E+03    0.83587E-03   -0.29902E-03 10280   0.402E-01    0.176E-01
DAV:   6    -0.191526646082E+03    0.26372E-03   -0.10209E-03  9560   0.190E-01    0.730E-02
DAV:   7    -0.191526630298E+03    0.15784E-04   -0.37114E-04  9360   0.131E-01
  14 F= -.19152663E+03 E0= -.19143232E+03  d E =-.158744E-01
       N       E                     dE             d eps       ncg     rms          rms(c)
DAV:   1    -0.191573772330E+03   -0.47126E-01   -0.58750E+00  8160   0.526E+00    0.695E-01
DAV:   2    -0.191627042255E+03   -0.53270E-01   -0.24676E-01 13160   0.257E+00    0.228E+00
DAV:   3    -0.191582736328E+03    0.44306E-01   -0.10506E-01 12280   0.229E+00    0.583E-01
DAV:   4    -0.191585496631E+03   -0.27603E-02   -0.19080E-02 11640   0.100E+00    0.814E-01
DAV:   5    -0.191578632132E+03    0.68645E-02   -0.13337E-02 11160   0.890E-01    0.265E-01
DAV:   6    -0.191578401886E+03    0.23025E-03   -0.36664E-03 11400   0.357E-01    0.218E-01
DAV:   7    -0.191578286249E+03    0.11564E-03   -0.23747E-03 11720   0.400E-01    0.208E-01
DAV:   8    -0.191577703947E+03    0.58230E-03   -0.73325E-04 10400   0.213E-01    0.322E-02
DAV:   9    -0.191577703526E+03    0.42127E-06   -0.85814E-05  5840   0.364E-02
  15 F= -.19157770E+03 E0= -.19148718E+03  d E =-.510732E-01
       N       E                     dE             d eps       ncg     rms          rms(c)
DAV:   1    -0.191599315566E+03   -0.21612E-01   -0.10547E+00  8160   0.225E+00    0.334E-01
DAV:   2    -0.191608737183E+03   -0.94216E-02   -0.47978E-02 13280   0.115E+00    0.974E-01
DAV:   3    -0.191600181329E+03    0.85559E-02   -0.19057E-02 12240   0.103E+00    0.280E-01
DAV:   4    -0.191600609206E+03   -0.42788E-03   -0.41955E-03 11440   0.470E-01    0.376E-01
DAV:   5    -0.191599246822E+03    0.13624E-02   -0.31444E-03 10280   0.430E-01    0.150E-01
DAV:   6    -0.191599167291E+03    0.79532E-04   -0.10262E-03  9640   0.213E-01    0.131E-01
DAV:   7    -0.191599035005E+03    0.13229E-03   -0.60510E-04 10120   0.200E-01    0.823E-02
DAV:   8    -0.191598950159E+03    0.84846E-04   -0.13430E-04  6280   0.927E-02
  16 F= -.19159895E+03 E0= -.19151001E+03  d E =-.212466E-01
       N       E                     dE             d eps       ncg     rms          rms(c)
DAV:   1    -0.191642409792E+03   -0.43375E-01   -0.56541E+00  8160   0.514E+00    0.633E-01
DAV:   2    -0.191677228177E+03   -0.34818E-01   -0.20039E-01 13560   0.213E+00    0.174E+00
DAV:   3    -0.191651115879E+03    0.26112E-01   -0.64131E-02 12240   0.191E+00    0.559E-01
DAV:   4    -0.191652029711E+03   -0.91383E-03   -0.12672E-02 12160   0.846E-01    0.682E-01
DAV:   5    -0.191647371557E+03    0.46582E-02   -0.97464E-03 11680   0.805E-01    0.265E-01
DAV:   6    -0.191646914192E+03    0.45736E-03   -0.29529E-03 11280   0.292E-01    0.142E-01
DAV:   7    -0.191646679073E+03    0.23512E-03   -0.11919E-03 10520   0.203E-01    0.122E-01
DAV:   8    -0.191646501229E+03    0.17784E-03   -0.34357E-04  8880   0.155E-01    0.447E-02
DAV:   9    -0.191646479742E+03    0.21487E-04   -0.74991E-05  6240   0.616E-02
  17 F= -.19164648E+03 E0= -.19156203E+03  d E =-.475296E-01
       N       E                     dE             d eps       ncg     rms          rms(c)
DAV:   1    -0.191668401146E+03   -0.21900E-01   -0.12464E+00  8160   0.244E+00    0.309E-01
DAV:   2    -0.191673058486E+03   -0.46573E-02   -0.44292E-02 13520   0.851E-01    0.598E-01
DAV:   3    -0.191670404716E+03    0.26538E-02   -0.10193E-02 12280   0.796E-01    0.325E-01
DAV:   4    -0.191669783022E+03    0.62169E-03   -0.27449E-03 11320   0.399E-01    0.268E-01
DAV:   5    -0.191669251016E+03    0.53201E-03   -0.21380E-03 10080   0.372E-01    0.174E-01
DAV:   6    -0.191669085917E+03    0.16510E-03   -0.10021E-03  9560   0.220E-01    0.116E-01
DAV:   7    -0.191668980989E+03    0.10493E-03   -0.47212E-04  8880   0.180E-01    0.811E-02
DAV:   8    -0.191668900279E+03    0.80710E-04   -0.12796E-04  6400   0.971E-02
  18 F= -.19166890E+03 E0= -.19158634E+03  d E =-.224205E-01
       N       E                     dE             d eps       ncg     rms          rms(c)
DAV:   1    -0.191690543930E+03   -0.21563E-01   -0.13002E+00  8160   0.246E+00    0.275E-01
DAV:   2    -0.191693848374E+03   -0.33044E-02   -0.37587E-02 13520   0.692E-01    0.428E-01
DAV:   3    -0.191692984911E+03    0.86346E-03   -0.69972E-03 12360   0.685E-01    0.333E-01
DAV:   4    -0.191691951763E+03    0.10331E-02   -0.18309E-03 11080   0.339E-01    0.177E-01
DAV:   5    -0.191691944836E+03    0.69265E-05   -0.14145E-03 10000   0.305E-01    0.189E-01
DAV:   6    -0.191691679902E+03    0.26493E-03   -0.85374E-04  9520   0.211E-01    0.743E-02
DAV:   7    -0.191691591697E+03    0.88206E-04   -0.19622E-04  6640   0.808E-02
  19 F= -.19169159E+03 E0= -.19161093E+03  d E =-.226914E-01
       N       E                     dE             d eps       ncg     rms          rms(c)
DAV:   1    -0.191701815467E+03   -0.10136E-01   -0.26968E-01  8160   0.113E+00    0.130E-01
DAV:   2    -0.191702342323E+03   -0.52686E-03   -0.79617E-03 13440   0.279E-01    0.155E-01
DAV:   3    -0.191702401172E+03   -0.58850E-04   -0.13861E-03 11240   0.311E-01    0.180E-01
DAV:   4    -0.191702061942E+03    0.33923E-03   -0.46593E-04  8360   0.189E-01    0.691E-02
DAV:   5    -0.191702089876E+03   -0.27935E-04   -0.27388E-04  7920   0.128E-01
  20 F= -.19170209E+03 E0= -.19162215E+03  d E =-.104982E-01
       N       E                     dE             d eps       ncg     rms          rms(c)
DAV:   1    -0.191679822359E+03    0.22240E-01   -0.13478E+00  8160   0.253E+00    0.333E-01
DAV:   2    -0.191685113747E+03   -0.52914E-02   -0.44514E-02 12720   0.900E-01    0.686E-01
DAV:   3    -0.191681099094E+03    0.40147E-02   -0.11335E-02 12040   0.861E-01    0.346E-01
DAV:   4    -0.191680319274E+03    0.77982E-03   -0.35354E-03 10920   0.414E-01    0.243E-01
DAV:   5    -0.191679842345E+03    0.47693E-03   -0.20014E-03 10080   0.364E-01    0.179E-01
DAV:   6    -0.191679553013E+03    0.28933E-03   -0.10440E-03 10280   0.248E-01    0.886E-02
DAV:   7    -0.191679476354E+03    0.76658E-04   -0.37353E-04  9040   0.124E-01
  21 F= -.19167948E+03 E0= -.19159776E+03  d E =0.226135E-01
       N       E                     dE             d eps       ncg     rms          rms(c)
DAV:   1    -0.191730357616E+03   -0.50805E-01   -0.69476E+00  8160   0.575E+00    0.695E-01
DAV:   2    -0.191750211689E+03   -0.19854E-01   -0.21251E-01 13480   0.179E+00    0.126E+00
DAV:   3    -0.191740286767E+03    0.99249E-02   -0.46686E-02 11160   0.172E+00    0.747E-01
DAV:   4    -0.191736104806E+03    0.41820E-02   -0.12897E-02 12240   0.934E-01    0.560E-01
DAV:   5    -0.191733392909E+03    0.27119E-02   -0.93043E-03 11280   0.831E-01    0.351E-01
DAV:   6    -0.191732376314E+03    0.10166E-02   -0.45614E-03 10320   0.453E-01    0.200E-01
DAV:   7    -0.191732162871E+03    0.21344E-03   -0.17077E-03 10640   0.352E-01    0.172E-01
DAV:   8    -0.191731796387E+03    0.36648E-03   -0.58264E-04  9560   0.197E-01    0.401E-02
DAV:   9    -0.191731779087E+03    0.17300E-04   -0.91827E-05  6240   0.433E-02
  22 F= -.19173178E+03 E0= -.19165323E+03  d E =-.523027E-01
       N       E                     dE             d eps       ncg     rms          rms(c)
DAV:   1    -0.191750689819E+03   -0.18893E-01   -0.95315E-01  8160   0.211E+00    0.225E-01
DAV:   2    -0.191752017593E+03   -0.13278E-02   -0.24738E-02 12240   0.451E-01    0.185E-01
DAV:   3    -0.191752934832E+03   -0.91724E-03   -0.37249E-03 11960   0.468E-01    0.357E-01
DAV:   4    -0.191751602529E+03    0.13323E-02   -0.19733E-03 11040   0.391E-01    0.120E-01
DAV:   5    -0.191751651222E+03   -0.48693E-04   -0.77596E-04  9640   0.201E-01
  23 F= -.19175165E+03 E0= -.19167337E+03  d E =-.198721E-01
       N       E                     dE             d eps       ncg     rms          rms(c)
DAV:   1    -0.191748888151E+03    0.27144E-02   -0.30983E-02 10560   0.507E-01    0.137E-01
DAV:   2    -0.191750725424E+03   -0.18373E-02   -0.43505E-03 11720   0.518E-01    0.432E-01
DAV:   3    -0.191748585900E+03    0.21395E-02   -0.27058E-03 11120   0.486E-01    0.106E-01
DAV:   4    -0.191748547144E+03    0.38756E-04   -0.41295E-04  8520   0.137E-01
  24 F= -.19174855E+03 E0= -.19167084E+03  d E =0.310408E-02
       N       E                     dE             d eps       ncg     rms          rms(c)
DAV:   1    -0.191761040158E+03   -0.12454E-01   -0.80371E-01  8160   0.198E+00    0.347E-01
DAV:   2    -0.191761724551E+03   -0.68439E-03   -0.36546E-02 11720   0.747E-01    0.424E-01
DAV:   3    -0.191761225034E+03    0.49952E-03   -0.85056E-03 12040   0.797E-01    0.406E-01
DAV:   4    -0.191759655061E+03    0.15700E-02   -0.37562E-03 11240   0.536E-01    0.258E-01
DAV:   5    -0.191759575451E+03    0.79610E-04   -0.26824E-03  9800   0.435E-01    0.250E-01
DAV:   6    -0.191758821427E+03    0.75402E-03   -0.13592E-03 10400   0.272E-01    0.565E-02
DAV:   7    -0.191758865349E+03   -0.43922E-04   -0.27268E-04  7600   0.120E-01
  25 F= -.19175887E+03 E0= -.19168250E+03  d E =-.103182E-01
       N       E                     dE             d eps       ncg     rms          rms(c)
DAV:   1    -0.191776698009E+03   -0.17877E-01   -0.51087E-01  8160   0.169E+00    0.420E-01
DAV:   2    -0.191775303100E+03    0.13949E-02   -0.30898E-02 11360   0.783E-01    0.546E-01
DAV:   3    -0.191773849483E+03    0.14536E-02   -0.12895E-02 11280   0.988E-01    0.447E-01
DAV:   4    -0.191771477936E+03    0.23715E-02   -0.54727E-03 11320   0.593E-01    0.258E-01
DAV:   5    -0.191771507347E+03   -0.29411E-04   -0.33575E-03 10440   0.486E-01    0.291E-01
DAV:   6    -0.191770494525E+03    0.10128E-02   -0.16964E-03 10360   0.317E-01    0.783E-02
DAV:   7    -0.191770498537E+03   -0.40119E-05   -0.28511E-04  7720   0.133E-01
  26 F= -.19177050E+03 E0= -.19169324E+03  d E =-.116332E-01
       N       E                     dE             d eps       ncg     rms          rms(c)
DAV:   1    -0.191797520711E+03   -0.27026E-01   -0.19794E+00  8160   0.304E+00    0.342E-01
DAV:   2    -0.191800677756E+03   -0.31570E-02   -0.55484E-02 12920   0.758E-01    0.348E-01
DAV:   3    -0.191801273273E+03   -0.59552E-03   -0.74356E-03 11480   0.748E-01    0.424E-01
DAV:   4    -0.191799029529E+03    0.22437E-02   -0.31051E-03 11520   0.492E-01    0.171E-01
DAV:   5    -0.191799369904E+03   -0.34038E-03   -0.18683E-03 10200   0.366E-01    0.252E-01
DAV:   6    -0.191798785047E+03    0.58486E-03   -0.13391E-03 10120   0.289E-01    0.916E-02
DAV:   7    -0.191798713155E+03    0.71893E-04   -0.40291E-04  8400   0.141E-01
  27 F= -.19179871E+03 E0= -.19172156E+03  d E =-.282146E-01
       N       E                     dE             d eps       ncg     rms          rms(c)
DAV:   1    -0.191828224091E+03   -0.29439E-01   -0.25109E+00  8160   0.342E+00    0.381E-01
DAV:   2    -0.191833614386E+03   -0.53903E-02   -0.73617E-02 12720   0.939E-01    0.473E-01
DAV:   3    -0.191833097853E+03    0.51653E-03   -0.11321E-02 11520   0.891E-01    0.433E-01
DAV:   4    -0.191830784679E+03    0.23132E-02   -0.40565E-03 11760   0.500E-01    0.174E-01
DAV:   5    -0.191831025753E+03   -0.24107E-03   -0.25307E-03 10800   0.381E-01    0.235E-01
DAV:   6    -0.191830522108E+03    0.50365E-03   -0.15085E-03 11480   0.311E-01    0.980E-02
DAV:   7    -0.191830366103E+03    0.15601E-03   -0.37052E-04  8560   0.108E-01    0.495E-02
DAV:   8    -0.191830352523E+03    0.13579E-04   -0.82518E-05  6720   0.800E-02
  28 F= -.19183035E+03 E0= -.19175314E+03  d E =-.316394E-01
       N       E                     dE             d eps       ncg     rms          rms(c)
DAV:   1    -0.191842471323E+03   -0.12105E-01   -0.40695E-01  8160   0.136E+00    0.149E-01
DAV:   2    -0.191843618495E+03   -0.11472E-02   -0.11607E-02 12360   0.423E-01    0.241E-01
DAV:   3    -0.191843167607E+03    0.45089E-03   -0.21799E-03 11960   0.383E-01    0.146E-01
DAV:   4    -0.191842922303E+03    0.24530E-03   -0.45922E-04  8200   0.162E-01    0.616E-02
DAV:   5    -0.191842977991E+03   -0.55687E-04   -0.29033E-04  9200   0.144E-01
  29 F= -.19184298E+03 E0= -.19176559E+03  d E =-.126255E-01
       N       E                     dE             d eps       ncg     rms          rms(c)
DAV:   1    -0.191847115687E+03   -0.41934E-02   -0.78920E-02  8160   0.646E-01    0.976E-02
DAV:   2    -0.191847190322E+03   -0.74636E-04   -0.29245E-03 11520   0.191E-01    0.116E-01
DAV:   3    -0.191847209493E+03   -0.19171E-04   -0.70643E-04 10240   0.228E-01
  30 F= -.19184721E+03 E0= -.19177044E+03  d E =-.423150E-02
       N       E                     dE             d eps       ncg     rms          rms(c)
DAV:   1    -0.191874418007E+03   -0.27228E-01   -0.22890E+00  8160   0.325E+00    0.366E-01
DAV:   2    -0.191881731626E+03   -0.73136E-02   -0.71299E-02 12800   0.106E+00    0.619E-01
DAV:   3    -0.191878525174E+03    0.32065E-02   -0.14105E-02 11760   0.953E-01    0.342E-01
DAV:   4    -0.191877051629E+03    0.14735E-02   -0.30052E-03 11440   0.379E-01    0.148E-01
DAV:   5    -0.191877411119E+03   -0.35949E-03   -0.20757E-03 11520   0.350E-01    0.230E-01
DAV:   6    -0.191876872598E+03    0.53852E-03   -0.13309E-03 10440   0.302E-01    0.854E-02
DAV:   7    -0.191876773923E+03    0.98675E-04   -0.20965E-04  6920   0.112E-01
  31 F= -.19187677E+03 E0= -.19180015E+03  d E =-.295644E-01
       N       E                     dE             d eps       ncg     rms          rms(c)
DAV:   1    -0.191911126707E+03   -0.34254E-01   -0.42943E+00  8160   0.442E+00    0.473E-01
DAV:   2    -0.191923026753E+03   -0.11900E-01   -0.12531E-01 12480   0.131E+00    0.738E-01
DAV:   3    -0.191919290862E+03    0.37359E-02   -0.24943E-02 11880   0.124E+00    0.495E-01
DAV:   4    -0.191916151940E+03    0.31389E-02   -0.54768E-03 11320   0.517E-01    0.144E-01
DAV:   5    -0.191916669550E+03   -0.51761E-03   -0.23527E-03 12040   0.314E-01    0.256E-01
DAV:   6    -0.191916207782E+03    0.46177E-03   -0.17626E-03 12160   0.387E-01    0.167E-01
DAV:   7    -0.191915881364E+03    0.32642E-03   -0.55931E-04  8440   0.180E-01    0.381E-02
DAV:   8    -0.191915870010E+03    0.11354E-04   -0.90535E-05  6200   0.499E-02
  32 F= -.19191587E+03 E0= -.19184027E+03  d E =-.390961E-01
       N       E                     dE             d eps       ncg     rms          rms(c)
DAV:   1    -0.191897405724E+03    0.18476E-01   -0.11731E+00  8160   0.232E+00    0.288E-01
DAV:   2    -0.191902051352E+03   -0.46456E-02   -0.42289E-02 12360   0.906E-01    0.559E-01
DAV:   3    -0.191899106908E+03    0.29444E-02   -0.95338E-03 12200   0.783E-01    0.249E-01
DAV:   4    -0.191898510924E+03    0.59598E-03   -0.20696E-03 12240   0.338E-01    0.174E-01
DAV:   5    -0.191898426761E+03    0.84163E-04   -0.13500E-03 10160   0.317E-01    0.168E-01
DAV:   6    -0.191898164844E+03    0.26192E-03   -0.91619E-04  9880   0.219E-01    0.823E-02
DAV:   7    -0.191898137927E+03    0.26917E-04   -0.33908E-04  8720   0.151E-01
  33 F= -.19189814E+03 E0= -.19182141E+03  d E =0.177321E-01
       N       E                     dE             d eps       ncg     rms          rms(c)
DAV:   1    -0.191919492236E+03   -0.21327E-01   -0.13184E+00  8160   0.246E+00    0.278E-01
DAV:   2    -0.191924786024E+03   -0.52938E-02   -0.40823E-02 12760   0.917E-01    0.583E-01
DAV:   3    -0.191921272106E+03    0.35139E-02   -0.93276E-03 12160   0.785E-01    0.210E-01
DAV:   4    -0.191920762823E+03    0.50928E-03   -0.14000E-03 11040   0.259E-01    0.132E-01
DAV:   5    -0.191920835129E+03   -0.72305E-04   -0.11068E-03 10640   0.286E-01    0.158E-01
DAV:   6    -0.191920597998E+03    0.23713E-03   -0.73586E-04  9520   0.197E-01    0.633E-02
DAV:   7    -0.191920561554E+03    0.36444E-04   -0.15434E-04  6880   0.104E-01
  34 F= -.19192056E+03 E0= -.19184372E+03  d E =-.224236E-01
       N       E                     dE             d eps       ncg     rms          rms(c)
DAV:   1    -0.191936843334E+03   -0.16245E-01   -0.68959E-01  8160   0.178E+00    0.205E-01
DAV:   2    -0.191939374744E+03   -0.25314E-02   -0.22817E-02 12520   0.636E-01    0.377E-01
DAV:   3    -0.191938023055E+03    0.13517E-02   -0.48336E-03 12000   0.552E-01    0.175E-01
DAV:   4    -0.191937691670E+03    0.33139E-03   -0.95241E-04  9880   0.212E-01    0.994E-02
DAV:   5    -0.191937720059E+03   -0.28389E-04   -0.62965E-04  9960   0.208E-01
  35 F= -.19193772E+03 E0= -.19186098E+03  d E =-.171585E-01
       N       E                     dE             d eps       ncg     rms          rms(c)
DAV:   1    -0.191942244602E+03   -0.45529E-02   -0.10538E-01  8160   0.715E-01    0.105E-01
DAV:   2    -0.191943521613E+03   -0.12770E-02   -0.47480E-03 12920   0.417E-01    0.321E-01
DAV:   3    -0.191942373656E+03    0.11480E-02   -0.14759E-03 10520   0.365E-01    0.667E-02
DAV:   4    -0.191942347356E+03    0.26299E-04   -0.16359E-04  6080   0.738E-02
  36 F= -.19194235E+03 E0= -.19186585E+03  d E =-.462730E-02
       N       E                     dE             d eps       ncg     rms          rms(c)
DAV:   1    -0.191969700304E+03   -0.27327E-01   -0.22040E+00  8160   0.317E+00    0.346E-01
DAV:   2    -0.191976241343E+03   -0.65410E-02   -0.65497E-02 12760   0.100E+00    0.580E-01
DAV:   3    -0.191973481420E+03    0.27599E-02   -0.13448E-02 12000   0.900E-01    0.326E-01
DAV:   4    -0.191972099425E+03    0.13820E-02   -0.26844E-03 11920   0.346E-01    0.128E-01
DAV:   5    -0.191972646943E+03   -0.54752E-03   -0.17640E-03 10680   0.353E-01    0.247E-01
DAV:   6    -0.191972015391E+03    0.63155E-03   -0.11409E-03 10160   0.301E-01    0.829E-02
DAV:   7    -0.191971955286E+03    0.60104E-04   -0.23772E-04  8520   0.124E-01
  37 F= -.19197196E+03 E0= -.19189584E+03  d E =-.296079E-01
       N       E                     dE             d eps       ncg     rms          rms(c)
DAV:   1    -0.191991473293E+03   -0.19458E-01   -0.10931E+00  8160   0.222E+00    0.243E-01
DAV:   2    -0.191995483866E+03   -0.40106E-02   -0.33823E-02 12320   0.750E-01    0.461E-01
DAV:   3    -0.191993451181E+03    0.20327E-02   -0.74050E-03 12040   0.682E-01    0.214E-01
DAV:   4    -0.191992908327E+03    0.54285E-03   -0.11579E-03  9720   0.218E-01    0.795E-02
DAV:   5    -0.191993062118E+03   -0.15379E-03   -0.70605E-04 10120   0.183E-01    0.130E-01
DAV:   6    -0.191992924671E+03    0.13745E-03   -0.49658E-04  9160   0.195E-01    0.707E-02
DAV:   7    -0.191992857521E+03    0.67150E-04   -0.10103E-04  6160   0.890E-02
  38 F= -.19199286E+03 E0= -.19191714E+03  d E =-.209022E-01
       N       E                     dE             d eps       ncg     rms          rms(c)
DAV:   1    -0.192010122699E+03   -0.17198E-01   -0.82136E-01  8160   0.194E+00    0.221E-01
DAV:   2    -0.192013494435E+03   -0.33717E-02   -0.27051E-02 12240   0.723E-01    0.445E-01
DAV:   3    -0.192011485184E+03    0.20093E-02   -0.60991E-03 12080   0.626E-01    0.177E-01
DAV:   4    -0.192011123181E+03    0.36200E-03   -0.95325E-04  9920   0.199E-01    0.862E-02
DAV:   5    -0.192011202755E+03   -0.79574E-04   -0.62520E-04  9680   0.197E-01
  39 F= -.19201120E+03 E0= -.19193558E+03  d E =-.183452E-01
       N       E                     dE             d eps       ncg     rms          rms(c)
DAV:   1    -0.191996314180E+03    0.14809E-01   -0.55054E-01  8160   0.163E+00    0.221E-01
DAV:   2    -0.191999257246E+03   -0.29431E-02   -0.21382E-02 13240   0.697E-01    0.473E-01
DAV:   3    -0.191996823015E+03    0.24342E-02   -0.64804E-03 12160   0.646E-01    0.176E-01
DAV:   4    -0.191996488741E+03    0.33427E-03   -0.14330E-03  9680   0.217E-01    0.994E-02
DAV:   5    -0.191996439708E+03    0.49033E-04   -0.63329E-04 10080   0.186E-01
  40 F= -.19199644E+03 E0= -.19192075E+03  d E =0.147630E-01
       N       E                     dE             d eps       ncg     rms          rms(c)
DAV:   1    -0.192003542746E+03   -0.70540E-02   -0.33680E-01  8160   0.125E+00    0.149E-01
DAV:   2    -0.192004471150E+03   -0.92840E-03   -0.11330E-02 12240   0.403E-01    0.219E-01
DAV:   3    -0.192004148387E+03    0.32276E-03   -0.19401E-03 12080   0.371E-01    0.166E-01
DAV:   4    -0.192003860301E+03    0.28809E-03   -0.69573E-04  9160   0.216E-01    0.806E-02
DAV:   5    -0.192003795884E+03    0.64418E-04   -0.25700E-04  6840   0.110E-01
  41 F= -.19200380E+03 E0= -.19192870E+03  d E =-.735618E-02
       N       E                     dE             d eps       ncg     rms          rms(c)
DAV:   1    -0.191941679738E+03    0.62181E-01   -0.17918E+01  8160   0.933E+00    0.166E+00
DAV:   2    -0.192014642710E+03   -0.72963E-01   -0.87472E-01 12600   0.449E+00    0.289E+00
DAV:   3    -0.191930689744E+03    0.83953E-01   -0.28044E-01 12240   0.424E+00    0.140E+00
DAV:   4    -0.191912487841E+03    0.18202E-01   -0.75335E-02 12240   0.207E+00    0.114E+00
DAV:   5    -0.191902937538E+03    0.95503E-02   -0.44780E-02 11760   0.194E+00    0.798E-01
DAV:   6    -0.191895663523E+03    0.72740E-02   -0.18155E-02 12640   0.102E+00    0.361E-01
DAV:   7    -0.191895345101E+03    0.31842E-03   -0.62013E-03 12280   0.665E-01    0.310E-01
DAV:   8    -0.191894235705E+03    0.11094E-02   -0.20618E-03 10960   0.360E-01    0.759E-02
DAV:   9    -0.191894181168E+03    0.54537E-04   -0.30504E-04  9000   0.701E-02
  42 F= -.19189418E+03 E0= -.19182095E+03  d E =0.109615E+00
       N       E                     dE             d eps       ncg     rms          rms(c)
DAV:   1    -0.192086766235E+03   -0.19253E+00   -0.31947E+01  8160   0.126E+01    0.205E+00
DAV:   2    -0.192273583627E+03   -0.18682E+00   -0.14708E+00 12880   0.607E+00    0.445E+00
DAV:   3    -0.192082289595E+03    0.19129E+00   -0.55567E-01 12240   0.595E+00    0.145E+00
DAV:   4    -0.192047678443E+03    0.34611E-01   -0.82132E-02 12240   0.178E+00    0.911E-01
DAV:   5    -0.192052955247E+03   -0.52768E-02   -0.51053E-02 12280   0.207E+00    0.125E+00
DAV:   6    -0.192035717952E+03    0.17237E-01   -0.32524E-02 12240   0.155E+00    0.349E-01
DAV:   7    -0.192035197063E+03    0.52089E-03   -0.70309E-03 11760   0.609E-01    0.311E-01
DAV:   8    -0.192034015941E+03    0.11811E-02   -0.25297E-03 12040   0.411E-01    0.110E-01
DAV:   9    -0.192033869144E+03    0.14680E-03   -0.54959E-04 10560   0.129E-01    0.619E-02
DAV:  10    -0.192033817804E+03    0.51340E-04   -0.32490E-04  7520   0.673E-02
  43 F= -.19203382E+03 E0= -.19195874E+03  d E =-.139637E+00
       N       E                     dE             d eps       ncg     rms          rms(c)
DAV:   1    -0.192065854325E+03   -0.31985E-01   -0.37402E+00  8160   0.414E+00    0.481E-01
DAV:   2    -0.192081905015E+03   -0.16051E-01   -0.12657E-01 12560   0.158E+00    0.991E-01
DAV:   3    -0.192071848150E+03    0.10057E-01   -0.28981E-02 12240   0.137E+00    0.371E-01
DAV:   4    -0.192070122137E+03    0.17260E-02   -0.47180E-03 12440   0.427E-01    0.200E-01
DAV:   5    -0.192070397799E+03   -0.27566E-03   -0.29997E-03 11440   0.437E-01    0.269E-01
DAV:   6    -0.192069864432E+03    0.53337E-03   -0.19925E-03 11320   0.384E-01    0.141E-01
DAV:   7    -0.192069592323E+03    0.27211E-03   -0.59243E-04  9640   0.189E-01    0.785E-02
DAV:   8    -0.192069528973E+03    0.63350E-04   -0.15282E-04  7360   0.103E-01
  44 F= -.19206953E+03 E0= -.19199458E+03  d E =-.357112E-01
       N       E                     dE             d eps       ncg     rms          rms(c)
DAV:   1    -0.192100509826E+03   -0.30918E-01   -0.62066E+00  8160   0.529E+00    0.571E-01
DAV:   2    -0.192123215442E+03   -0.22706E-01   -0.20533E-01 12120   0.179E+00    0.102E+00
DAV:   3    -0.192114075732E+03    0.91397E-02   -0.38946E-02 12080   0.160E+00    0.535E-01
DAV:   4    -0.192110431940E+03    0.36438E-02   -0.70290E-03 12360   0.568E-01    0.189E-01
DAV:   5    -0.192110731820E+03   -0.29988E-03   -0.34269E-03 12320   0.361E-01    0.254E-01
DAV:   6    -0.192110577346E+03    0.15447E-03   -0.26372E-03 12200   0.459E-01    0.221E-01
DAV:   7    -0.192109948933E+03    0.62841E-03   -0.89287E-04  9960   0.258E-01    0.668E-02
DAV:   8    -0.192109926948E+03    0.21984E-04   -0.18951E-04  8080   0.109E-01
  45 F= -.19210993E+03 E0= -.19203520E+03  d E =-.403980E-01
       N       E                     dE             d eps       ncg     rms          rms(c)
DAV:   1    -0.192127315093E+03   -0.17366E-01   -0.23003E+00  8160   0.324E+00    0.388E-01
DAV:   2    -0.192137491101E+03   -0.10176E-01   -0.88635E-02 12960   0.129E+00    0.738E-01
DAV:   3    -0.192132047683E+03    0.54434E-02   -0.16663E-02 12160   0.107E+00    0.319E-01
DAV:   4    -0.192130987366E+03    0.10603E-02   -0.39780E-03 12440   0.431E-01    0.198E-01
DAV:   5    -0.192130827649E+03    0.15972E-03   -0.23889E-03 10880   0.376E-01    0.201E-01
DAV:   6    -0.192130536867E+03    0.29078E-03   -0.13149E-03 11200   0.285E-01    0.102E-01
DAV:   7    -0.192130388484E+03    0.14838E-03   -0.35295E-04  8840   0.136E-01    0.658E-02
DAV:   8    -0.192130345812E+03    0.42672E-04   -0.10388E-04  7080   0.951E-02
  46 F= -.19213035E+03 E0= -.19205517E+03  d E =-.204189E-01
       N       E                     dE             d eps       ncg     rms          rms(c)
DAV:   1    -0.192135640870E+03   -0.52524E-02   -0.17974E-01  8160   0.936E-01    0.161E-01
DAV:   2    -0.192135910453E+03   -0.26958E-03   -0.82003E-03 11480   0.384E-01    0.207E-01
DAV:   3    -0.192135633620E+03    0.27683E-03   -0.19661E-03 11800   0.375E-01    0.151E-01
DAV:   4    -0.192135329245E+03    0.30437E-03   -0.77273E-04 10040   0.216E-01    0.771E-02
DAV:   5    -0.192135387957E+03   -0.58712E-04   -0.51839E-04  9480   0.174E-01
  47 F= -.19213539E+03 E0= -.19206073E+03  d E =-.504214E-02
       N       E                     dE             d eps       ncg     rms          rms(c)
DAV:   1    -0.192144668082E+03   -0.93388E-02   -0.87822E-01  8160   0.198E+00    0.214E-01
DAV:   2    -0.192147972839E+03   -0.33048E-02   -0.29029E-02 13200   0.722E-01    0.397E-01
DAV:   3    -0.192146478229E+03    0.14946E-02   -0.54127E-03 12160   0.608E-01    0.194E-01
DAV:   4    -0.192146038204E+03    0.44002E-03   -0.10288E-03  9800   0.217E-01    0.747E-02
DAV:   5    -0.192146044776E+03   -0.65726E-05   -0.43264E-04  9520   0.121E-01
  48 F= -.19214604E+03 E0= -.19207134E+03  d E =-.106568E-01
       N       E                     dE             d eps       ncg     rms          rms(c)
DAV:   1    -0.192152040082E+03   -0.60019E-02   -0.33363E-01  8160   0.124E+00    0.176E-01
DAV:   2    -0.192154759948E+03   -0.27199E-02   -0.13845E-02 13280   0.657E-01    0.446E-01
DAV:   3    -0.192152433113E+03    0.23268E-02   -0.34858E-03 12280   0.556E-01    0.106E-01
DAV:   4    -0.192152424137E+03    0.89764E-05   -0.43466E-04  8880   0.170E-01
  49 F= -.19215242E+03 E0= -.19207756E+03  d E =-.637936E-02
       N       E                     dE             d eps       ncg     rms          rms(c)
DAV:   1    -0.192160149671E+03   -0.77166E-02   -0.77772E-01  8160   0.187E+00    0.214E-01
DAV:   2    -0.192162200316E+03   -0.20506E-02   -0.23242E-02 11880   0.526E-01    0.282E-01
DAV:   3    -0.192161649605E+03    0.55071E-03   -0.40788E-03 12320   0.531E-01    0.235E-01
DAV:   4    -0.192161120922E+03    0.52868E-03   -0.14242E-03 10280   0.302E-01    0.105E-01
DAV:   5    -0.192161047690E+03    0.73232E-04   -0.58299E-04  9800   0.174E-01
  50 F= -.19216105E+03 E0= -.19208608E+03  d E =-.862355E-02
       N       E                     dE             d eps       ncg     rms          rms(c)
DAV:   1    -0.192170938011E+03   -0.98171E-02   -0.23492E+00  8160   0.324E+00    0.359E-01
DAV:   2    -0.192178847991E+03   -0.79100E-02   -0.74147E-02 12680   0.110E+00    0.596E-01
DAV:   3    -0.192175501660E+03    0.33463E-02   -0.12963E-02 12280   0.977E-01    0.333E-01
DAV:   4    -0.192174376711E+03    0.11249E-02   -0.31120E-03 12000   0.424E-01    0.173E-01
DAV:   5    -0.192174297293E+03    0.79418E-04   -0.15733E-03 11760   0.323E-01    0.168E-01
DAV:   6    -0.192174164906E+03    0.13239E-03   -0.10381E-03 10400   0.260E-01    0.970E-02
DAV:   7    -0.192174013041E+03    0.15186E-03   -0.33058E-04  8240   0.110E-01    0.323E-02
DAV:   8    -0.192174015442E+03   -0.24004E-05   -0.69081E-05  8040   0.682E-02
  51 F= -.19217402E+03 E0= -.19209895E+03  d E =-.129678E-01
       N       E                     dE             d eps       ncg     rms          rms(c)
DAV:   1    -0.192181403653E+03   -0.73906E-02   -0.19788E+00  8160   0.298E+00    0.314E-01
DAV:   2    -0.192187183629E+03   -0.57800E-02   -0.61677E-02 12480   0.894E-01    0.451E-01
DAV:   3    -0.192185769100E+03    0.14145E-02   -0.98059E-03 12000   0.811E-01    0.347E-01
DAV:   4    -0.192184498488E+03    0.12706E-02   -0.32216E-03 12200   0.432E-01    0.140E-01
DAV:   5    -0.192184226637E+03    0.27185E-03   -0.11504E-03 10520   0.174E-01    0.885E-02
DAV:   6    -0.192184467196E+03   -0.24056E-03   -0.76743E-04 11480   0.232E-01    0.150E-01
DAV:   7    -0.192184181069E+03    0.28613E-03   -0.35412E-04  8600   0.176E-01    0.332E-02
DAV:   8    -0.192184179418E+03    0.16513E-05   -0.53168E-05  6520   0.611E-02
  52 F= -.19218418E+03 E0= -.19210899E+03  d E =-.101640E-01
       N       E                     dE             d eps       ncg     rms          rms(c)
DAV:   1    -0.192188642531E+03   -0.44615E-02   -0.62990E-01  8160   0.168E+00    0.171E-01
DAV:   2    -0.192190084345E+03   -0.14418E-02   -0.18238E-02 12240   0.438E-01    0.189E-01
DAV:   3    -0.192189925079E+03    0.15927E-03   -0.22485E-03 12400   0.369E-01    0.193E-01
DAV:   4    -0.192189590112E+03    0.33497E-03   -0.87199E-04 10920   0.264E-01    0.968E-02
DAV:   5    -0.192189481362E+03    0.10875E-03   -0.31517E-04  7760   0.112E-01    0.494E-02
DAV:   6    -0.192189559029E+03   -0.77667E-04   -0.24153E-04  8360   0.136E-01
  53 F= -.19218956E+03 E0= -.19211445E+03  d E =-.537961E-02
       N       E                     dE             d eps       ncg     rms          rms(c)
DAV:   1    -0.192189373759E+03    0.10760E-03   -0.88581E-03  8240   0.209E-01    0.430E-02
DAV:   2    -0.192189375078E+03   -0.13195E-05   -0.41217E-04 10240   0.949E-02
  54 F= -.19218938E+03 E0= -.19211421E+03  d E =0.183951E-03
       N       E                     dE             d eps       ncg     rms          rms(c)
DAV:   1    -0.192191213896E+03   -0.18401E-02   -0.92319E-02  8160   0.644E-01    0.945E-02
DAV:   2    -0.192191716366E+03   -0.50247E-03   -0.31122E-03 12680   0.327E-01    0.206E-01
DAV:   3    -0.192191165387E+03    0.55098E-03   -0.88197E-04 10160   0.265E-01    0.507E-02
DAV:   4    -0.192191171972E+03   -0.65850E-05   -0.20740E-04  6640   0.921E-02
  55 F= -.19219117E+03 E0= -.19211590E+03  d E =-.179689E-02
       N       E                     dE             d eps       ncg     rms          rms(c)
DAV:   1    -0.192193611141E+03   -0.24458E-02   -0.16239E-01  8160   0.858E-01    0.105E-01
DAV:   2    -0.192194350317E+03   -0.73918E-03   -0.47066E-03 13360   0.311E-01    0.213E-01
DAV:   3    -0.192193791608E+03    0.55871E-03   -0.12948E-03 11120   0.307E-01    0.939E-02
DAV:   4    -0.192193728628E+03    0.62981E-04   -0.32871E-04  8440   0.122E-01
  56 F= -.19219373E+03 E0= -.19211845E+03  d E =-.255666E-02
       N       E                     dE             d eps       ncg     rms          rms(c)
DAV:   1    -0.192193817975E+03   -0.26366E-04   -0.28585E-03  8600   0.149E-01    0.429E-02
DAV:   2    -0.192194055523E+03   -0.23755E-03   -0.50657E-04 10280   0.197E-01    0.137E-01
DAV:   3    -0.192193805637E+03    0.24989E-03   -0.28111E-04  8600   0.165E-01    0.196E-02
DAV:   4    -0.192193813170E+03   -0.75332E-05   -0.28626E-05  6160   0.396E-02
  57 F= -.19219381E+03 E0= -.19211863E+03  d E =-.845422E-04
       N       E                     dE             d eps       ncg     rms          rms(c)
DAV:   1    -0.192197405723E+03   -0.36001E-02   -0.34270E-01  8160   0.124E+00    0.136E-01
DAV:   2    -0.192198356988E+03   -0.95127E-03   -0.92899E-03 12560   0.415E-01    0.214E-01
DAV:   3    -0.192197774025E+03    0.58296E-03   -0.17395E-03 12360   0.337E-01    0.109E-01
DAV:   4    -0.192197685607E+03    0.88418E-04   -0.48093E-04  9240   0.160E-01
  58 F= -.19219769E+03 E0= -.19212282E+03  d E =-.387244E-02
       N       E                     dE             d eps       ncg     rms          rms(c)
DAV:   1    -0.192196573442E+03    0.12006E-02   -0.39590E-02  8160   0.445E-01    0.866E-02
DAV:   2    -0.192197111034E+03   -0.53759E-03   -0.23609E-03 12360   0.312E-01    0.222E-01
DAV:   3    -0.192196496323E+03    0.61471E-03   -0.10889E-03  9960   0.291E-01    0.624E-02
DAV:   4    -0.192196463048E+03    0.33276E-04   -0.12804E-04  5600   0.756E-02
  59 F= -.19219646E+03 E0= -.19212167E+03  d E =0.122256E-02
       N       E                     dE             d eps       ncg     rms          rms(c)
DAV:   1    -0.192186381847E+03    0.10114E-01   -0.21392E+00  8160   0.309E+00    0.316E-01
DAV:   2    -0.192190824797E+03   -0.44429E-02   -0.51383E-02 13400   0.869E-01    0.432E-01
DAV:   3    -0.192188672841E+03    0.21520E-02   -0.92526E-03 12240   0.723E-01    0.279E-01
DAV:   4    -0.192188126669E+03    0.54617E-03   -0.27196E-03 12360   0.433E-01    0.203E-01
DAV:   5    -0.192187697355E+03    0.42931E-03   -0.13430E-03 11000   0.282E-01    0.139E-01
DAV:   6    -0.192187699619E+03   -0.22641E-05   -0.10388E-03 11400   0.266E-01    0.123E-01
DAV:   7    -0.192187502359E+03    0.19726E-03   -0.30426E-04  8360   0.130E-01    0.191E-02
DAV:   8    -0.192187500987E+03    0.13715E-05   -0.38485E-05  6800   0.341E-02
  60 F= -.19218750E+03 E0= -.19211207E+03  d E =0.896206E-02
       N       E                     dE             d eps       ncg     rms          rms(c)
DAV:   1    -0.192181947460E+03    0.55549E-02   -0.80452E-01  8160   0.189E+00    0.182E-01
DAV:   2    -0.192183420117E+03   -0.14727E-02   -0.17426E-02 12680   0.466E-01    0.223E-01
DAV:   3    -0.192182848994E+03    0.57112E-03   -0.28480E-03 12400   0.390E-01    0.163E-01
DAV:   4    -0.192182679968E+03    0.16903E-03   -0.86282E-04 11040   0.250E-01    0.111E-01
DAV:   5    -0.192182540445E+03    0.13952E-03   -0.34109E-04  8360   0.146E-01    0.670E-02
DAV:   6    -0.192182594402E+03   -0.53957E-04   -0.28079E-04  9240   0.154E-01
  61 F= -.19218259E+03 E0= -.19210709E+03  d E =0.490659E-02
       N       E                     dE             d eps       ncg     rms          rms(c)
DAV:   1    -0.192182331912E+03    0.20853E-03   -0.15746E-01  8160   0.842E-01    0.101E-01
DAV:   2    -0.192182656740E+03   -0.32483E-03   -0.44845E-03 12040   0.263E-01    0.139E-01
DAV:   3    -0.192182543465E+03    0.11327E-03   -0.10174E-03 11000   0.261E-01    0.120E-01
DAV:   4    -0.192182389521E+03    0.15394E-03   -0.28015E-04  7640   0.146E-01    0.469E-02
DAV:   5    -0.192182357494E+03    0.32027E-04   -0.10237E-04  5640   0.509E-02
  62 F= -.19218236E+03 E0= -.19210722E+03  d E =0.236908E-03
       N       E                     dE             d eps       ncg     rms          rms(c)
DAV:   1    -0.192181322751E+03    0.10668E-02   -0.27300E-01  8160   0.111E+00    0.113E-01
DAV:   2    -0.192181834451E+03   -0.51170E-03   -0.65180E-03 11120   0.259E-01    0.134E-01
DAV:   3    -0.192181745254E+03    0.89197E-04   -0.11141E-03 11400   0.270E-01    0.130E-01
DAV:   4    -0.192181586770E+03    0.15848E-03   -0.30702E-04  8520   0.162E-01    0.602E-02
DAV:   5    -0.192181553484E+03    0.33286E-04   -0.13229E-04  5840   0.924E-02
  63 F= -.19218155E+03 E0= -.19210674E+03  d E =0.804010E-03
       N       E                     dE             d eps       ncg     rms          rms(c)
DAV:   1    -0.192184300839E+03   -0.27141E-02   -0.31742E-01  8160   0.119E+00    0.130E-01
DAV:   2    -0.192185361474E+03   -0.10606E-02   -0.86344E-03 12800   0.383E-01    0.235E-01
DAV:   3    -0.192184713895E+03    0.64758E-03   -0.17581E-03 12200   0.356E-01    0.122E-01
DAV:   4    -0.192184592236E+03    0.12166E-03   -0.52842E-04  8360   0.170E-01    0.721E-02
DAV:   5    -0.192184536598E+03    0.55638E-04   -0.19695E-04  6840   0.991E-02
  64 F= -.19218454E+03 E0= -.19210957E+03  d E =-.298311E-02
       N       E                     dE             d eps       ncg     rms          rms(c)
DAV:   1    -0.192185677761E+03   -0.10855E-02   -0.49947E-02  8160   0.479E-01    0.612E-02
DAV:   2    -0.192185888986E+03   -0.21123E-03   -0.13974E-03 12800   0.185E-01    0.122E-01
DAV:   3    -0.192185700970E+03    0.18802E-03   -0.33822E-04  8960   0.164E-01    0.371E-02
DAV:   4    -0.192185703118E+03   -0.21481E-05   -0.45371E-05  6200   0.538E-02
  65 F= -.19218570E+03 E0= -.19211075E+03  d E =-.116652E-02
       N       E                     dE             d eps       ncg     rms          rms(c)
DAV:   1    -0.192184968164E+03    0.73281E-03   -0.62463E-02  8160   0.543E-01    0.815E-02
DAV:   2    -0.192185300317E+03   -0.33215E-03   -0.21688E-03 11440   0.270E-01    0.178E-01
DAV:   3    -0.192184941503E+03    0.35881E-03   -0.65586E-04  9720   0.241E-01    0.609E-02
DAV:   4    -0.192184908388E+03    0.33115E-04   -0.12184E-04  5520   0.836E-02
  66 F= -.19218491E+03 E0= -.19211017E+03  d E =0.794730E-03
       N       E                     dE             d eps       ncg     rms          rms(c)
DAV:   1    -0.192186651960E+03   -0.17105E-02   -0.14292E-01  8160   0.801E-01    0.832E-02
DAV:   2    -0.192187070154E+03   -0.41819E-03   -0.43787E-03 11920   0.233E-01    0.117E-01
DAV:   3    -0.192186922124E+03    0.14803E-03   -0.65287E-04 10280   0.201E-01    0.764E-02
DAV:   4    -0.192186868271E+03    0.53853E-04   -0.16002E-04  6720   0.104E-01
  67 F= -.19218687E+03 E0= -.19211214E+03  d E =-.195988E-02
       N       E                     dE             d eps       ncg     rms          rms(c)
DAV:   1    -0.192186112925E+03    0.80920E-03   -0.17861E-02  8160   0.291E-01    0.394E-02
DAV:   2    -0.192186335204E+03   -0.22228E-03   -0.94983E-04 10400   0.176E-01    0.122E-01
DAV:   3    -0.192186143368E+03    0.19184E-03   -0.32317E-04  8680   0.151E-01    0.232E-02
DAV:   4    -0.192186142843E+03    0.52494E-06   -0.26818E-05  5560   0.352E-02
  68 F= -.19218614E+03 E0= -.19211143E+03  d E =0.725428E-03
       N       E                     dE             d eps       ncg     rms          rms(c)
DAV:   1    -0.192183752405E+03    0.23910E-02   -0.20397E-01  8160   0.966E-01    0.112E-01
DAV:   2    -0.192184111083E+03   -0.35868E-03   -0.55101E-03 12000   0.242E-01    0.134E-01
DAV:   3    -0.192183963902E+03    0.14718E-03   -0.13162E-03 11400   0.252E-01    0.124E-01
DAV:   4    -0.192183831838E+03    0.13206E-03   -0.38358E-04  8680   0.175E-01    0.667E-02
DAV:   5    -0.192183769309E+03    0.62529E-04   -0.12700E-04  5720   0.817E-02
  69 F= -.19218377E+03 E0= -.19210909E+03  d E =0.237353E-02
       N       E                     dE             d eps       ncg     rms          rms(c)
DAV:   1    -0.192176986941E+03    0.68449E-02   -0.97226E-01  8160   0.210E+00    0.229E-01
DAV:   2    -0.192178871589E+03   -0.18846E-02   -0.26999E-02 12160   0.495E-01    0.232E-01
DAV:   3    -0.192178455183E+03    0.41641E-03   -0.41466E-03 12560   0.452E-01    0.223E-01
DAV:   4    -0.192178003470E+03    0.45171E-03   -0.13401E-03 10760   0.324E-01    0.127E-01
DAV:   5    -0.192177799194E+03    0.20428E-03   -0.54016E-04 10240   0.159E-01    0.738E-02
DAV:   6    -0.192177914729E+03   -0.11553E-03   -0.49022E-04 10120   0.194E-01    0.112E-01
DAV:   7    -0.192177760232E+03    0.15450E-03   -0.24730E-04  7480   0.136E-01    0.153E-02
DAV:   8    -0.192177762786E+03   -0.25547E-05   -0.29636E-05  6760   0.218E-02
  70 F= -.19217776E+03 E0= -.19210324E+03  d E =0.600652E-02
       N       E                     dE             d eps       ncg     rms          rms(c)
DAV:   1    -0.192179832368E+03   -0.20721E-02   -0.13187E-01  8160   0.768E-01    0.763E-02
DAV:   2    -0.192180069890E+03   -0.23752E-03   -0.32925E-03 11560   0.173E-01    0.744E-02
DAV:   3    -0.192180021369E+03    0.48521E-04   -0.40989E-04 11120   0.138E-01
  71 F= -.19218002E+03 E0= -.19210546E+03  d E =-.225858E-02
       N       E                     dE             d eps       ncg     rms          rms(c)
DAV:   1    -0.192169064583E+03    0.11005E-01   -0.21400E+00  8160   0.309E+00    0.314E-01
DAV:   2    -0.192177283624E+03   -0.82190E-02   -0.62876E-02 13080   0.108E+00    0.643E-01
DAV:   3    -0.192172805260E+03    0.44784E-02   -0.11755E-02 11800   0.926E-01    0.263E-01
DAV:   4    -0.192172249006E+03    0.55625E-03   -0.24873E-03 11560   0.359E-01    0.171E-01
DAV:   5    -0.192171986324E+03    0.26268E-03   -0.11473E-03 10520   0.277E-01    0.129E-01
DAV:   6    -0.192171942260E+03    0.44065E-04   -0.70496E-04 11280   0.206E-01
  72 F= -.19217194E+03 E0= -.19209766E+03  d E =0.807911E-02
       N       E                     dE             d eps       ncg     rms          rms(c)
DAV:   1    -0.192174862990E+03   -0.28767E-02   -0.33185E-01  8160   0.123E+00    0.148E-01
DAV:   2    -0.192176054747E+03   -0.11918E-02   -0.11002E-02 13000   0.433E-01    0.261E-01
DAV:   3    -0.192175342316E+03    0.71243E-03   -0.22122E-03 12160   0.395E-01    0.137E-01
DAV:   4    -0.192175147372E+03    0.19494E-03   -0.73224E-04  9000   0.182E-01    0.741E-02
DAV:   5    -0.192175074251E+03    0.73121E-04   -0.35666E-04  8120   0.108E-01
  73 F= -.19217507E+03 E0= -.19210051E+03  d E =-.313199E-02
       N       E                     dE             d eps       ncg     rms          rms(c)
DAV:   1    -0.192174259280E+03    0.88809E-03   -0.16960E-01  8160   0.874E-01    0.118E-01
DAV:   2    -0.192175757132E+03   -0.14979E-02   -0.58870E-03 13320   0.469E-01    0.328E-01
DAV:   3    -0.192174356284E+03    0.14008E-02   -0.19520E-03 11480   0.409E-01    0.721E-02
DAV:   4    -0.192174345487E+03    0.10796E-04   -0.26909E-04  7800   0.115E-01
  74 F= -.19217435E+03 E0= -.19209994E+03  d E =0.728763E-03
       N       E                     dE             d eps       ncg     rms          rms(c)
DAV:   1    -0.192176930260E+03   -0.25740E-02   -0.40743E-01  8160   0.137E+00    0.167E-01
DAV:   2    -0.192177904167E+03   -0.97391E-03   -0.12883E-02 12760   0.425E-01    0.226E-01
DAV:   3    -0.192177566163E+03    0.33800E-03   -0.23876E-03 12280   0.420E-01    0.189E-01
DAV:   4    -0.192177208034E+03    0.35813E-03   -0.75733E-04 10520   0.234E-01    0.810E-02
DAV:   5    -0.192177110816E+03    0.97218E-04   -0.32919E-04  7320   0.110E-01
  75 F= -.19217711E+03 E0= -.19210252E+03  d E =-.276533E-02
       N       E                     dE             d eps       ncg     rms          rms(c)
DAV:   1    -0.192178971362E+03   -0.17633E-02   -0.20625E-01  8160   0.963E-01    0.132E-01
DAV:   2    -0.192180326589E+03   -0.13552E-02   -0.83944E-03 12480   0.455E-01    0.297E-01
DAV:   3    -0.192179240672E+03    0.10859E-02   -0.20207E-03 11680   0.395E-01    0.865E-02
DAV:   4    -0.192179227699E+03    0.12973E-04   -0.42113E-04  8920   0.140E-01
  76 F= -.19217923E+03 E0= -.19210463E+03  d E =-.211688E-02
       N       E                     dE             d eps       ncg     rms          rms(c)
DAV:   1    -0.192180638352E+03   -0.13977E-02   -0.12852E-01  8160   0.770E-01    0.109E-01
DAV:   2    -0.192181303860E+03   -0.66551E-03   -0.45255E-03 13120   0.307E-01    0.207E-01
DAV:   3    -0.192180788159E+03    0.51570E-03   -0.12595E-03 11240   0.314E-01    0.966E-02
DAV:   4    -0.192180717621E+03    0.70538E-04   -0.35426E-04  8400   0.131E-01
  77 F= -.19218072E+03 E0= -.19210625E+03  d E =-.148992E-02
       N       E                     dE             d eps       ncg     rms          rms(c)
DAV:   1    -0.192183339363E+03   -0.25512E-02   -0.10762E+00  8160   0.220E+00    0.258E-01
DAV:   2    -0.192186590502E+03   -0.32511E-02   -0.35288E-02 12520   0.656E-01    0.366E-01
DAV:   3    -0.192185586304E+03    0.10042E-02   -0.62832E-03 11920   0.664E-01    0.291E-01
DAV:   4    -0.192184720092E+03    0.86621E-03   -0.21247E-03 12480   0.357E-01    0.116E-01
DAV:   5    -0.192184540312E+03    0.17978E-03   -0.85108E-04 10600   0.162E-01    0.793E-02
DAV:   6    -0.192184647830E+03   -0.10752E-03   -0.48526E-04 10320   0.192E-01    0.109E-01
DAV:   7    -0.192184498056E+03    0.14977E-03   -0.23307E-04  7720   0.138E-01    0.210E-02
DAV:   8    -0.192184499725E+03   -0.16698E-05   -0.35753E-05  7560   0.378E-02
  78 F= -.19218450E+03 E0= -.19211054E+03  d E =-.378210E-02
       N       E                     dE             d eps       ncg     rms          rms(c)
DAV:   1    -0.192185665486E+03   -0.11674E-02   -0.45013E-01  8160   0.142E+00    0.154E-01
DAV:   2    -0.192187037116E+03   -0.13716E-02   -0.15783E-02 11720   0.423E-01    0.199E-01
DAV:   3    -0.192186848179E+03    0.18894E-03   -0.21422E-03 12040   0.383E-01    0.179E-01
DAV:   4    -0.192186508973E+03    0.33921E-03   -0.72729E-04  9880   0.223E-01    0.682E-02
DAV:   5    -0.192186455329E+03    0.53644E-04   -0.23710E-04  6440   0.944E-02
  79 F= -.19218646E+03 E0= -.19211269E+03  d E =-.195560E-02
       N       E                     dE             d eps       ncg     rms          rms(c)
DAV:   1    -0.192187185666E+03   -0.67669E-03   -0.71322E-02  8160   0.578E-01    0.844E-02
DAV:   2    -0.192187818778E+03   -0.63311E-03   -0.29131E-03 12640   0.304E-01    0.206E-01
DAV:   3    -0.192187248458E+03    0.57032E-03   -0.85448E-04 10080   0.263E-01    0.427E-02
DAV:   4    -0.192187258241E+03   -0.97830E-05   -0.76613E-05  6040   0.672E-02
  80 F= -.19218726E+03 E0= -.19211356E+03  d E =-.802913E-03
