<?xml version="1.0" encoding="ISO-8859-1"?>
<modeling>
 <generator>
  <i name="program" type="string">vasp </i>
  <i name="version" type="string">5.4.1  </i>
  <i name="subversion" type="string">05Feb16 (build Jul 05 2020 17:13:04) complex                          parallel </i>
  <i name="platform" type="string">IFC91_ompi </i>
  <i name="date" type="string">2024 05 08 </i>
  <i name="time" type="string">03:38:55 </i>
 </generator>
 <incar>
  <i type="int" name="ISTART">     0</i>
  <i type="string" name="PREC">normal</i>
  <i type="string" name="ALGO"> Normal</i>
  <i type="int" name="ISPIN">     1</i>
  <i type="int" name="ICHARG">     2</i>
  <i type="int" name="IBRION">     1</i>
  <i type="int" name="NSW">   100</i>
  <i type="int" name="ISIF">     3</i>
  <i type="int" name="ISYM">     0</i>
  <i name="SYMPREC">      0.00000001</i>
  <i name="POTIM">      0.50000000</i>
  <i type="logical" name="LREAL"> F  </i>
  <i type="logical" name="LPLANE"> F  </i>
  <i type="int" name="ISMEAR">     0</i>
  <i type="logical" name="LWAVE"> F  </i>
  <i type="logical" name="LCHARG"> F  </i>
  <v type="int" name="KPOINT_BSE">    -1     0     0     0</v>
 </incar>
 <kpoints>
  <generation param="Gamma">
   <v type="int" name="divisions">       8        8        1 </v>
   <v name="usershift">      0.00000000       0.00000000       0.00000000 </v>
   <v name="genvec1">      0.12500000       0.00000000       0.00000000 </v>
   <v name="genvec2">     -0.00000000       0.12500000       0.00000000 </v>
   <v name="genvec3">      0.00000000       0.00000000       1.00000000 </v>
   <v name="shift">      0.00000000       0.00000000       0.00000000 </v>
  </generation>
  <varray name="kpointlist" >
   <v>       0.00000000       0.00000000       0.00000000 </v>
   <v>       0.12500000       0.00000000       0.00000000 </v>
   <v>       0.25000000       0.00000000       0.00000000 </v>
   <v>       0.37500000       0.00000000       0.00000000 </v>
   <v>       0.50000000       0.00000000       0.00000000 </v>
   <v>       0.00000000       0.12500000       0.00000000 </v>
   <v>       0.12500000       0.12500000       0.00000000 </v>
   <v>       0.25000000       0.12500000       0.00000000 </v>
   <v>       0.37500000       0.12500000       0.00000000 </v>
   <v>       0.50000000       0.12500000       0.00000000 </v>
   <v>      -0.37500000       0.12500000       0.00000000 </v>
   <v>      -0.25000000       0.12500000       0.00000000 </v>
   <v>      -0.12500000       0.12500000       0.00000000 </v>
   <v>       0.00000000       0.25000000       0.00000000 </v>
   <v>       0.12500000       0.25000000       0.00000000 </v>
   <v>       0.25000000       0.25000000       0.00000000 </v>
   <v>       0.37500000       0.25000000       0.00000000 </v>
   <v>       0.50000000       0.25000000       0.00000000 </v>
   <v>      -0.37500000       0.25000000       0.00000000 </v>
   <v>      -0.25000000       0.25000000       0.00000000 </v>
   <v>      -0.12500000       0.25000000       0.00000000 </v>
   <v>      -0.00000000       0.37500000       0.00000000 </v>
   <v>       0.12500000       0.37500000       0.00000000 </v>
   <v>       0.25000000       0.37500000       0.00000000 </v>
   <v>       0.37500000       0.37500000       0.00000000 </v>
   <v>       0.50000000       0.37500000       0.00000000 </v>
   <v>      -0.37500000       0.37500000       0.00000000 </v>
   <v>      -0.25000000       0.37500000       0.00000000 </v>
   <v>      -0.12500000       0.37500000       0.00000000 </v>
   <v>       0.00000000       0.50000000       0.00000000 </v>
   <v>       0.12500000       0.50000000       0.00000000 </v>
   <v>       0.25000000       0.50000000       0.00000000 </v>
   <v>       0.37500000       0.50000000       0.00000000 </v>
   <v>       0.50000000       0.50000000       0.00000000 </v>
  </varray>
  <varray name="weights" >
   <v>       0.01562500 </v>
   <v>       0.03125000 </v>
   <v>       0.03125000 </v>
   <v>       0.03125000 </v>
   <v>       0.01562500 </v>
   <v>       0.03125000 </v>
   <v>       0.03125000 </v>
   <v>       0.03125000 </v>
   <v>       0.03125000 </v>
   <v>       0.03125000 </v>
   <v>       0.03125000 </v>
   <v>       0.03125000 </v>
   <v>       0.03125000 </v>
   <v>       0.03125000 </v>
   <v>       0.03125000 </v>
   <v>       0.03125000 </v>
   <v>       0.03125000 </v>
   <v>       0.03125000 </v>
   <v>       0.03125000 </v>
   <v>       0.03125000 </v>
   <v>       0.03125000 </v>
   <v>       0.03125000 </v>
   <v>       0.03125000 </v>
   <v>       0.03125000 </v>
   <v>       0.03125000 </v>
   <v>       0.03125000 </v>
   <v>       0.03125000 </v>
   <v>       0.03125000 </v>
   <v>       0.03125000 </v>
   <v>       0.01562500 </v>
   <v>       0.03125000 </v>
   <v>       0.03125000 </v>
   <v>       0.03125000 </v>
   <v>       0.01562500 </v>
  </varray>
 </kpoints>
 <parameters>
  <separator name="general" >
   <i type="string" name="SYSTEM">unknown system</i>
   <i type="logical" name="LCOMPAT"> F  </i>
  </separator>
  <separator name="electronic" >
   <i type="string" name="PREC">normal</i>
   <i name="ENMAX">    280.00000000</i>
   <i name="ENAUG">    373.43800000</i>
   <i name="EDIFF">      0.00010000</i>
   <i type="int" name="IALGO">    38</i>
   <i type="int" name="IWAVPR">    11</i>
   <i type="int" name="NBANDS">   120</i>
   <i name="NELECT">    159.00000000</i>
   <i type="int" name="TURBO">     0</i>
   <i type="int" name="IRESTART">     0</i>
   <i type="int" name="NREBOOT">     0</i>
   <i type="int" name="NMIN">     0</i>
   <i name="EREF">      0.00000000</i>
   <separator name="electronic smearing" >
    <i type="int" name="ISMEAR">     0</i>
    <i name="SIGMA">      0.20000000</i>
    <i name="KSPACING">      0.50000000</i>
    <i type="logical" name="KGAMMA"> T  </i>
   </separator>
   <separator name="electronic projectors" >
    <i type="logical" name="LREAL"> F  </i>
    <v name="ROPT">      0.00000000      0.00000000      0.00000000      0.00000000</v>
    <i type="int" name="LMAXPAW">  -100</i>
    <i type="int" name="LMAXMIX">     2</i>
    <i type="logical" name="NLSPLINE"> F  </i>
   </separator>
   <separator name="electronic startup" >
    <i type="int" name="ISTART">     0</i>
    <i type="int" name="ICHARG">     2</i>
    <i type="int" name="INIWAV">     1</i>
   </separator>
   <separator name="electronic spin" >
    <i type="int" name="ISPIN">     1</i>
    <i type="logical" name="LNONCOLLINEAR"> F  </i>
    <v name="MAGMOM">      1.00000000      1.00000000      1.00000000      1.00000000      1.00000000      1.00000000      1.00000000      1.00000000      1.00000000      1.00000000      1.00000000      1.00000000      1.00000000      1.00000000      1.00000000      1.00000000      1.00000000      1.00000000      1.00000000      1.00000000
      1.00000000      1.00000000      1.00000000      1.00000000      1.00000000      1.00000000      1.00000000</v>
    <i name="NUPDOWN">     -1.00000000</i>
    <i type="logical" name="LSORBIT"> F  </i>
    <v name="SAXIS">      0.00000000      0.00000000      1.00000000</v>
    <i type="logical" name="LSPIRAL"> F  </i>
    <v name="QSPIRAL">      0.00000000      0.00000000      0.00000000</v>
    <i type="logical" name="LZEROZ"> F  </i>
   </separator>
   <separator name="electronic exchange-correlation" >
    <i type="logical" name="LASPH"> F  </i>
    <i type="logical" name="LMETAGGA"> F  </i>
   </separator>
   <separator name="electronic convergence" >
    <i type="int" name="NELM">    60</i>
    <i type="int" name="NELMDL">    -5</i>
    <i type="int" name="NELMIN">     2</i>
    <i name="ENINI">    280.00000000</i>
    <separator name="electronic convergence detail" >
     <i type="logical" name="LDIAG"> T  </i>
     <i type="logical" name="LSUBROT"> F  </i>
     <i name="WEIMIN">      0.00100000</i>
     <i name="EBREAK">      0.00000021</i>
     <i name="DEPER">      0.30000000</i>
     <i type="int" name="NRMM">     4</i>
     <i name="TIME">      0.40000000</i>
    </separator>
   </separator>
   <separator name="electronic mixer" >
    <i name="AMIX">      0.40000000</i>
    <i name="BMIX">      1.00000000</i>
    <i name="AMIN">      0.10000000</i>
    <i name="AMIX_MAG">      1.60000000</i>
    <i name="BMIX_MAG">      1.00000000</i>
    <separator name="electronic mixer details" >
     <i type="int" name="IMIX">     4</i>
     <i type="logical" name="MIXFIRST"> F  </i>
     <i type="int" name="MAXMIX">   -45</i>
     <i name="WC">    100.00000000</i>
     <i type="int" name="INIMIX">     1</i>
     <i type="int" name="MIXPRE">     1</i>
     <i type="int" name="MREMOVE">     5</i>
    </separator>
   </separator>
   <separator name="electronic dipolcorrection" >
    <i type="logical" name="LDIPOL"> F  </i>
    <i type="logical" name="LMONO"> F  </i>
    <i type="int" name="IDIPOL">     0</i>
    <i name="EPSILON">      1.00000000</i>
    <v name="DIPOL">   -100.00000000   -100.00000000   -100.00000000</v>
    <i name="EFIELD">      0.00000000</i>
   </separator>
  </separator>
  <separator name="grids" >
   <i type="int" name="NGX">    42</i>
   <i type="int" name="NGY">    42</i>
   <i type="int" name="NGZ">   126</i>
   <i type="int" name="NGXF">    84</i>
   <i type="int" name="NGYF">    84</i>
   <i type="int" name="NGZF">   252</i>
   <i type="logical" name="ADDGRID"> F  </i>
  </separator>
  <separator name="ionic" >
   <i type="int" name="NSW">   100</i>
   <i type="int" name="IBRION">     1</i>
   <i type="int" name="ISIF">     3</i>
   <i name="PSTRESS">      0.00000000</i>
   <i name="EDIFFG">      0.00100000</i>
   <i type="int" name="NFREE">     0</i>
   <i name="POTIM">      0.50000000</i>
   <i name="SMASS">     -3.00000000</i>
   <i name="SCALEE">      1.00000000</i>
  </separator>
  <separator name="ionic md" >
   <i name="TEBEG">      0.00010000</i>
   <i name="TEEND">      0.00010000</i>
   <i type="int" name="NBLOCK">     1</i>
   <i type="int" name="KBLOCK">   100</i>
   <i type="int" name="NPACO">   256</i>
   <i name="APACO">     16.00000000</i>
  </separator>
  <separator name="symmetry" >
   <i type="int" name="ISYM">     0</i>
   <i name="SYMPREC">      0.00000001</i>
  </separator>
  <separator name="dos" >
   <i type="logical" name="LORBIT"> F  </i>
   <v name="RWIGS">     -1.00000000     -1.00000000     -1.00000000     -1.00000000</v>
   <i type="int" name="NEDOS">   301</i>
   <i name="EMIN">     10.00000000</i>
   <i name="EMAX">    -10.00000000</i>
   <i name="EFERMI">      0.00000000</i>
  </separator>
  <separator name="writing" >
   <i type="int" name="NWRITE">     2</i>
   <i type="logical" name="LWAVE"> F  </i>
   <i type="logical" name="LCHARG"> F  </i>
   <i type="logical" name="LPARD"> F  </i>
   <i type="logical" name="LVTOT"> F  </i>
   <i type="logical" name="LVHAR"> F  </i>
   <i type="logical" name="LELF"> F  </i>
   <i type="logical" name="LOPTICS"> F  </i>
   <v name="STM">      0.00000000      0.00000000      0.00000000      0.00000000      0.00000000      0.00000000      0.00000000</v>
  </separator>
  <separator name="performance" >
   <i type="int" name="NPAR">    40</i>
   <i type="int" name="NSIM">     4</i>
   <i type="int" name="NBLK">    -1</i>
   <i type="logical" name="LPLANE"> F  </i>
   <i type="logical" name="LSCALAPACK"> T  </i>
   <i type="logical" name="LSCAAWARE"> F  </i>
   <i type="logical" name="LSCALU"> F  </i>
   <i type="logical" name="LASYNC"> F  </i>
   <i type="logical" name="LORBITALREAL"> F  </i>
  </separator>
  <separator name="miscellaneous" >
   <i type="int" name="IDIOT">     3</i>
   <i type="logical" name="LMUSIC"> F  </i>
   <v name="POMASS">     50.94100000     95.94000000    183.85000000     32.06600000</v>
   <v name="DARWINR">      0.00000000      0.00000000      0.00000000      0.00000000</v>
   <v name="DARWINV">      1.00000000      1.00000000      1.00000000      1.00000000</v>
   <i type="logical" name="LCORR"> T  </i>
  </separator>
  <i type="logical" name="GGA_COMPAT"> T  </i>
  <i type="logical" name="LBERRY"> F  </i>
  <i type="int" name="ICORELEVEL">     0</i>
  <i type="logical" name="LDAU"> F  </i>
  <i type="int" name="I_CONSTRAINED_M">     0</i>
  <separator name="electronic exchange-correlation" >
   <i type="string" name="GGA">--</i>
   <i type="int" name="VOSKOWN">     0</i>
   <i type="logical" name="LHFCALC"> F  </i>
   <i type="string" name="PRECFOCK"></i>
   <i type="logical" name="LSYMGRAD"> F  </i>
   <i type="logical" name="LHFONE"> F  </i>
   <i type="logical" name="LRHFCALC"> F  </i>
   <i type="logical" name="LTHOMAS"> F  </i>
   <i type="logical" name="LMODELHF"> F  </i>
   <i name="ENCUT4O">     -1.00000000</i>
   <i type="int" name="EXXOEP">     0</i>
   <i type="int" name="FOURORBIT">     0</i>
   <i name="AEXX">      0.00000000</i>
   <i name="HFALPHA">      0.00000000</i>
   <i name="MCALPHA">      0.00000000</i>
   <i name="ALDAX">      1.00000000</i>
   <i name="AGGAX">      1.00000000</i>
   <i name="ALDAC">      1.00000000</i>
   <i name="AGGAC">      1.00000000</i>
   <i type="int" name="NKREDX">     1</i>
   <i type="int" name="NKREDY">     1</i>
   <i type="int" name="NKREDZ">     1</i>
   <i type="logical" name="SHIFTRED"> F  </i>
   <i type="logical" name="ODDONLY"> F  </i>
   <i type="logical" name="EVENONLY"> F  </i>
   <i type="int" name="LMAXFOCK">     0</i>
   <i type="int" name="NMAXFOCKAE">     0</i>
   <i type="logical" name="LFOCKAEDFT"> F  </i>
   <i name="HFSCREEN">      0.00000000</i>
   <i name="HFSCREENC">      0.00000000</i>
   <i type="int" name="NBANDSGWLOW">     0</i>
  </separator>
  <separator name="vdW DFT" >
   <i type="logical" name="LUSE_VDW"> F  </i>
   <i name="Zab_VDW">     -0.84910000</i>
   <i name="PARAM1">      0.12340000</i>
   <i name="PARAM2">      1.00000000</i>
   <i name="PARAM3">      0.00000000</i>
  </separator>
  <separator name="model GW" >
   <i type="int" name="MODEL_GW">     0</i>
   <i name="MODEL_EPS0">     58.26239943</i>
   <i name="MODEL_ALPHA">      1.00000000</i>
  </separator>
  <separator name="linear response parameters" >
   <i type="logical" name="LEPSILON"> F  </i>
   <i type="logical" name="LRPA"> F  </i>
   <i type="logical" name="LNABLA"> F  </i>
   <i type="logical" name="LVEL"> F  </i>
   <i type="int" name="KINTER">     0</i>
   <i name="CSHIFT">      0.10000000</i>
   <i name="OMEGAMAX">     -1.00000000</i>
   <i name="DEG_THRESHOLD">      0.00200000</i>
  </separator>
  <separator name="orbital magnetization" >
   <i type="logical" name="NUCIND"> F  </i>
   <v name="MAGPOS">      0.00000000      0.00000000      0.00000000</v>
   <i type="logical" name="LNICSALL"> T  </i>
   <i type="logical" name="ORBITALMAG"> F  </i>
   <i type="logical" name="LMAGBLOCH"> F  </i>
   <i type="logical" name="LCHIMAG"> F  </i>
   <i type="logical" name="LGAUGE"> T  </i>
   <i type="int" name="MAGATOM">     0</i>
   <v name="MAGDIPOL">      0.00000000      0.00000000      0.00000000</v>
   <v name="AVECCONST">      0.00000000      0.00000000      0.00000000</v>
  </separator>
  <separator name="response functions" >
   <i type="logical" name="LADDER"> F  </i>
   <i type="logical" name="LFXC"> F  </i>
   <i type="logical" name="LHARTREE"> T  </i>
   <i type="int" name="IBSE">     0</i>
   <v type="int" name="KPOINT">    -1     0     0     0</v>
   <i type="logical" name="LTCTE"> F  </i>
   <i type="logical" name="LTETE"> F  </i>
   <i type="logical" name="LTRIPLET"> F  </i>
   <i type="logical" name="LFXCEPS"> F  </i>
   <i type="logical" name="LFXHEG"> F  </i>
   <i type="int" name="NATURALO">     0</i>
   <i type="logical" name="L2ORDER"> F  </i>
   <i type="logical" name="LUSEW"> F  </i>
   <i name="ENCUTGW">     -2.00000000</i>
   <i name="ENCUTGWSOFT">     -2.00000000</i>
   <i name="ENCUTLF">     -1.00000000</i>
   <i type="int" name="LMAXMP2">    -1</i>
   <i name="SCISSOR">      0.00000000</i>
   <i type="int" name="NOMEGA">     0</i>
   <i type="int" name="NOMEGAR">     0</i>
   <i type="int" name="NBANDSGW">    -1</i>
   <i type="int" name="NBANDSO">    -1</i>
   <i type="int" name="NBANDSV">    -1</i>
   <i type="int" name="NELM">     1</i>
   <i type="int" name="NELMHF">     1</i>
   <i type="int" name="DIM">     3</i>
   <i type="int" name="ANTIRES">     0</i>
   <i name="OMEGAMAX">    -30.00000000</i>
   <i name="OMEGAMIN">    -30.00000000</i>
   <i name="OMEGATL">   -200.00000000</i>
   <i type="int" name="OMEGAGRID">     0</i>
   <i name="CSHIFT">     -0.10000000</i>
   <i type="logical" name="SELFENERGY"> F  </i>
   <i type="logical" name="LSPECTRAL"> F  </i>
   <i type="logical" name="LSPECTRALGW"> F  </i>
   <i type="logical" name="LSINGLES"> F  </i>
   <i type="logical" name="LFERMIGW"> F  </i>
   <i type="logical" name="ODDONLYGW"> F  </i>
   <i type="logical" name="EVENONLYGW"> F  </i>
   <i type="int" name="NKREDLFX">     1</i>
   <i type="int" name="NKREDLFY">     1</i>
   <i type="int" name="NKREDLFZ">     1</i>
   <i type="int" name="MAXMEM">  1800</i>
   <i type="int" name="TELESCOPE">     0</i>
   <i type="int" name="TAUPAR">     1</i>
   <i type="int" name="OMEGAPAR">    -1</i>
   <i name="LAMBDA">      1.00000000</i>
  </separator>
  <separator name="External order field" >
   <i name="OFIELD_KAPPA">      0.00000000</i>
   <v name="OFIELD_K">      0.00000000      0.00000000      0.00000000</v>
   <i name="OFIELD_Q6_NEAR">      0.00000000</i>
   <i name="OFIELD_Q6_FAR">      0.00000000</i>
   <i name="OFIELD_A">      0.00000000</i>
  </separator>
 </parameters>
 <atominfo>
  <atoms>      27 </atoms>
  <types>       4 </types>
  <array name="atoms" >
   <dimension dim="1">ion</dimension>
   <field type="string">element</field>
   <field type="int">atomtype</field>
   <set>
    <rc><c>V </c><c>   1</c></rc>
    <rc><c>V </c><c>   1</c></rc>
    <rc><c>V </c><c>   1</c></rc>
    <rc><c>Mo</c><c>   2</c></rc>
    <rc><c>Mo</c><c>   2</c></rc>
    <rc><c>Mo</c><c>   2</c></rc>
    <rc><c>W </c><c>   3</c></rc>
    <rc><c>W </c><c>   3</c></rc>
    <rc><c>W </c><c>   3</c></rc>
    <rc><c>S </c><c>   4</c></rc>
    <rc><c>S </c><c>   4</c></rc>
    <rc><c>S </c><c>   4</c></rc>
    <rc><c>S </c><c>   4</c></rc>
    <rc><c>S </c><c>   4</c></rc>
    <rc><c>S </c><c>   4</c></rc>
    <rc><c>S </c><c>   4</c></rc>
    <rc><c>S </c><c>   4</c></rc>
    <rc><c>S </c><c>   4</c></rc>
    <rc><c>S </c><c>   4</c></rc>
    <rc><c>S </c><c>   4</c></rc>
    <rc><c>S </c><c>   4</c></rc>
    <rc><c>S </c><c>   4</c></rc>
    <rc><c>S </c><c>   4</c></rc>
    <rc><c>S </c><c>   4</c></rc>
    <rc><c>S </c><c>   4</c></rc>
    <rc><c>S </c><c>   4</c></rc>
    <rc><c>S </c><c>   4</c></rc>
   </set>
  </array>
  <array name="atomtypes" >
   <dimension dim="1">type</dimension>
   <field type="int">atomspertype</field>
   <field type="string">element</field>
   <field>mass</field>
   <field>valence</field>
   <field type="string">pseudopotential</field>
   <set>
    <rc><c>   3</c><c>V </c><c>     50.94100000</c><c>      5.00000000</c><c> PAW_PBE V 08Apr2002                    </c></rc>
    <rc><c>   3</c><c>Mo</c><c>     95.94000000</c><c>      6.00000000</c><c> PAW_PBE Mo 08Apr2002                   </c></rc>
    <rc><c>   3</c><c>W </c><c>    183.85000000</c><c>      6.00000000</c><c> PAW_PBE W 08Apr2002                    </c></rc>
    <rc><c>  18</c><c>S </c><c>     32.06600000</c><c>      6.00000000</c><c>  PAW_PBE S 17Jan2003                   </c></rc>
   </set>
  </array>
 </atominfo>
 <structure name="initialpos" >
  <crystal>
   <varray name="basis" >
    <v>       8.66999996       5.03999989       0.00000000 </v>
    <v>      -8.66999982       5.04000013       0.00000000 </v>
    <v>       0.00000000       0.00000000      30.00000000 </v>
   </varray>
   <i name="volume">   2621.80797419 </i>
   <varray name="rec_basis" >
    <v>       0.05767013       0.09920635       0.00000000 </v>
    <v>      -0.05767013       0.09920635       0.00000000 </v>
    <v>       0.00000000       0.00000000       0.03333333 </v>
   </varray>
  </crystal>
  <varray name="positions" >
   <v>       0.33333334       0.00000000       0.00000000 </v>
   <v>       0.33333334       0.66666669       0.00000000 </v>
   <v>       0.66666669       0.33333334       0.00000000 </v>
   <v>       0.66666669       0.66666669       0.00000000 </v>
   <v>       0.00000000       0.66666669       0.00000000 </v>
   <v>       1.00000000       0.33333334       0.00000000 </v>
   <v>       0.00000000       0.00000000       0.00000000 </v>
   <v>       0.33333334       0.33333334       0.00000000 </v>
   <v>       0.66666669       0.00000000       0.00000000 </v>
   <v>       0.11068511       0.22244981       0.95539999 </v>
   <v>       0.22244981       0.11068511       0.04460000 </v>
   <v>       0.11068511       0.55578315       0.95539999 </v>
   <v>       0.22244981       0.44401845       0.04460000 </v>
   <v>       0.11068511       0.88911647       0.95539999 </v>
   <v>       0.22244981       0.77735180       0.04460000 </v>
   <v>       0.44401845       0.22244981       0.95539999 </v>
   <v>       0.55578315       0.11068511       0.04460000 </v>
   <v>       0.44401845       0.55578315       0.95539999 </v>
   <v>       0.55578315       0.44401845       0.04460000 </v>
   <v>       0.44401845       0.88911647       0.95539999 </v>
   <v>       0.55578315       0.77735180       0.04460000 </v>
   <v>       0.77735180       0.22244981       0.95539999 </v>
   <v>       0.88911647       0.11068511       0.04460000 </v>
   <v>       0.77735180       0.55578315       0.95539999 </v>
   <v>       0.88911647       0.44401845       0.04460000 </v>
   <v>       0.77735180       0.88911647       0.95539999 </v>
   <v>       0.88911647       0.77735180       0.04460000 </v>
  </varray>
 </structure>
 <calculation>
  <scstep>
   <time name="dav">   21.73   21.78</time>
   <time name="total">   21.78   21.83</time>
   <energy>
    <i name="alphaZ">     81.65567618 </i>
    <i name="ewald">  41890.23011113 </i>
    <i name="hartreedc"> -47722.86570022 </i>
    <i name="XCdc">   -242.92873452 </i>
    <i name="pawpsdc">   3467.42045192 </i>
    <i name="pawaedc">  -2871.19716117 </i>
    <i name="eentropy">     -0.54481882 </i>
    <i name="bandstr">   -238.53871361 </i>
    <i name="atom">   6761.44252427 </i>
    <i name="e_fr_energy">   1124.67363516 </i>
    <i name="e_wo_entrp">   1125.21845397 </i>
    <i name="e_0_energy">   1124.94604457 </i>
   </energy>
  </scstep>
  <scstep>
   <time name="dav">   27.82   27.89</time>
   <time name="total">   27.83   27.90</time>
   <energy>
    <i name="e_fr_energy">     -2.63178305 </i>
    <i name="e_wo_entrp">     -2.45039008 </i>
    <i name="e_0_energy">     -2.54108656 </i>
   </energy>
  </scstep>
  <scstep>
   <time name="dav">   27.67   27.74</time>
   <time name="total">   27.68   27.75</time>
   <energy>
    <i name="e_fr_energy">   -199.93794645 </i>
    <i name="e_wo_entrp">   -199.68230664 </i>
    <i name="e_0_energy">   -199.81012655 </i>
   </energy>
  </scstep>
  <scstep>
   <time name="dav">   30.04   30.12</time>
   <time name="total">   30.05   30.12</time>
   <energy>
    <i name="e_fr_energy">   -209.01470841 </i>
    <i name="e_wo_entrp">   -208.73129157 </i>
    <i name="e_0_energy">   -208.87299999 </i>
   </energy>
  </scstep>
  <scstep>
   <time name="dav">   28.44   28.51</time>
   <time name="total">   28.90   28.98</time>
   <energy>
    <i name="e_fr_energy">   -209.31219170 </i>
    <i name="e_wo_entrp">   -209.03159171 </i>
    <i name="e_0_energy">   -209.17189170 </i>
   </energy>
  </scstep>
  <scstep>
   <time name="dav">   31.15   31.23</time>
   <time name="total">   31.65   31.74</time>
   <energy>
    <i name="e_fr_energy">   -237.22780817 </i>
    <i name="e_wo_entrp">   -236.95284622 </i>
    <i name="e_0_energy">   -237.09032720 </i>
   </energy>
  </scstep>
  <scstep>
   <time name="dav">   32.39   32.46</time>
   <time name="total">   32.89   32.99</time>
   <energy>
    <i name="e_fr_energy">   -196.46823881 </i>
    <i name="e_wo_entrp">   -196.14000589 </i>
    <i name="e_0_energy">   -196.30412235 </i>
   </energy>
  </scstep>
  <scstep>
   <time name="dav">   29.24   29.31</time>
   <time name="total">   29.75   29.83</time>
   <energy>
    <i name="e_fr_energy">   -189.43532458 </i>
    <i name="e_wo_entrp">   -189.14358519 </i>
    <i name="e_0_energy">   -189.28945489 </i>
   </energy>
  </scstep>
  <scstep>
   <time name="dav">   30.67   30.75</time>
   <time name="total">   31.19   31.28</time>
   <energy>
    <i name="e_fr_energy">   -188.23177630 </i>
    <i name="e_wo_entrp">   -187.91115394 </i>
    <i name="e_0_energy">   -188.07146512 </i>
   </energy>
  </scstep>
  <scstep>
   <time name="dav">   32.44   32.52</time>
   <time name="total">   32.97   33.06</time>
   <energy>
    <i name="e_fr_energy">   -187.08080094 </i>
    <i name="e_wo_entrp">   -186.73361726 </i>
    <i name="e_0_energy">   -186.90720910 </i>
   </energy>
  </scstep>
  <scstep>
   <time name="dav">   32.88   32.96</time>
   <time name="total">   33.41   33.50</time>
   <energy>
    <i name="e_fr_energy">   -187.03047574 </i>
    <i name="e_wo_entrp">   -186.68229249 </i>
    <i name="e_0_energy">   -186.85638412 </i>
   </energy>
  </scstep>
  <scstep>
   <time name="dav">   30.90   30.97</time>
   <time name="total">   31.43   31.51</time>
   <energy>
    <i name="e_fr_energy">   -187.17730454 </i>
    <i name="e_wo_entrp">   -186.83880275 </i>
    <i name="e_0_energy">   -187.00805365 </i>
   </energy>
  </scstep>
  <scstep>
   <time name="dav">   32.13   32.20</time>
   <time name="total">   32.66   32.75</time>
   <energy>
    <i name="e_fr_energy">   -186.93053267 </i>
    <i name="e_wo_entrp">   -186.59564670 </i>
    <i name="e_0_energy">   -186.76308968 </i>
   </energy>
  </scstep>
  <scstep>
   <time name="dav">   32.58   32.66</time>
   <time name="total">   33.11   33.20</time>
   <energy>
    <i name="e_fr_energy">   -186.88202012 </i>
    <i name="e_wo_entrp">   -186.53809736 </i>
    <i name="e_0_energy">   -186.71005874 </i>
   </energy>
  </scstep>
  <scstep>
   <time name="dav">   30.98   31.06</time>
   <time name="total">   31.51   31.60</time>
   <energy>
    <i name="e_fr_energy">   -186.88345187 </i>
    <i name="e_wo_entrp">   -186.53826377 </i>
    <i name="e_0_energy">   -186.71085782 </i>
   </energy>
  </scstep>
  <scstep>
   <time name="dav">   32.22   32.29</time>
   <time name="total">   32.75   32.84</time>
   <energy>
    <i name="e_fr_energy">   -186.87517056 </i>
    <i name="e_wo_entrp">   -186.52962289 </i>
    <i name="e_0_energy">   -186.70239672 </i>
   </energy>
  </scstep>
  <scstep>
   <time name="dav">   31.20   31.28</time>
   <time name="total">   31.74   31.82</time>
   <energy>
    <i name="e_fr_energy">   -186.87179449 </i>
    <i name="e_wo_entrp">   -186.52855324 </i>
    <i name="e_0_energy">   -186.70017387 </i>
   </energy>
  </scstep>
  <scstep>
   <time name="dav">   30.05   30.13</time>
   <time name="total">   30.59   30.67</time>
   <energy>
    <i name="e_fr_energy">   -186.87161174 </i>
    <i name="e_wo_entrp">   -186.52798117 </i>
    <i name="e_0_energy">   -186.69979646 </i>
   </energy>
  </scstep>
  <scstep>
   <time name="dav">   28.20   28.27</time>
   <time name="total">   28.74   28.81</time>
   <energy>
    <i name="e_fr_energy">   -186.87126424 </i>
    <i name="e_wo_entrp">   -186.52751113 </i>
    <i name="e_0_energy">   -186.69938769 </i>
   </energy>
  </scstep>
  <scstep>
   <time name="dav">   23.73   23.79</time>
   <time name="total">   24.27   24.34</time>
   <energy>
    <i name="e_fr_energy">   -186.87202394 </i>
    <i name="e_wo_entrp">   -186.52853340 </i>
    <i name="e_0_energy">   -186.70027867 </i>
   </energy>
  </scstep>
  <scstep>
   <time name="dav">   21.88   21.94</time>
   <time name="total">   22.42   22.48</time>
   <energy>
    <i name="e_fr_energy">   -186.87264096 </i>
    <i name="e_wo_entrp">   -186.52913389 </i>
    <i name="e_0_energy">   -186.70088742 </i>
   </energy>
  </scstep>
  <scstep>
   <time name="dav">   20.58   20.63</time>
   <time name="total">   21.12   21.18</time>
   <energy>
    <i name="e_fr_energy">   -186.87374852 </i>
    <i name="e_wo_entrp">   -186.53021200 </i>
    <i name="e_0_energy">   -186.70198026 </i>
   </energy>
  </scstep>
  <scstep>
   <time name="dav">   20.23   20.28</time>
   <time name="total">   20.76   20.82</time>
   <energy>
    <i name="e_fr_energy">   -186.87497071 </i>
    <i name="e_wo_entrp">   -186.53151233 </i>
    <i name="e_0_energy">   -186.70324152 </i>
   </energy>
  </scstep>
  <scstep>
   <time name="dav">   19.13   19.18</time>
   <time name="total">   19.67   19.72</time>
   <energy>
    <i name="e_fr_energy">   -186.87555492 </i>
    <i name="e_wo_entrp">   -186.53207119 </i>
    <i name="e_0_energy">   -186.70381306 </i>
   </energy>
  </scstep>
  <scstep>
   <time name="dav">   16.17   16.21</time>
   <time name="total">   16.70   16.75</time>
   <energy>
    <i name="e_fr_energy">   -186.87593240 </i>
    <i name="e_wo_entrp">   -186.53241063 </i>
    <i name="e_0_energy">   -186.70417151 </i>
   </energy>
  </scstep>
  <scstep>
   <time name="dav">   19.10   19.15</time>
   <time name="total">   19.64   19.69</time>
   <energy>
    <i name="e_fr_energy">   -186.87615365 </i>
    <i name="e_wo_entrp">   -186.53264607 </i>
    <i name="e_0_energy">   -186.70439986 </i>
   </energy>
  </scstep>
  <scstep>
   <time name="dav">   19.46   19.51</time>
   <time name="total">   20.00   20.05</time>
   <energy>
    <i name="e_fr_energy">   -186.87625515 </i>
    <i name="e_wo_entrp">   -186.53275172 </i>
    <i name="e_0_energy">   -186.70450344 </i>
   </energy>
  </scstep>
  <scstep>
   <time name="dav">   20.00   20.05</time>
   <time name="total">   20.04   20.09</time>
   <energy>
    <i name="alphaZ">     81.65567618 </i>
    <i name="ewald">  41890.23011113 </i>
    <i name="hartreedc"> -47833.05118752 </i>
    <i name="XCdc">   -231.60063454 </i>
    <i name="pawpsdc">   4192.09545604 </i>
    <i name="pawaedc">  -3610.11451428 </i>
    <i name="eentropy">     -0.34350361 </i>
    <i name="bandstr">  -1437.19023342 </i>
    <i name="atom">   6761.44252427 </i>
    <i name="e_fr_energy">   -186.87630574 </i>
    <i name="e_wo_entrp">   -186.53280213 </i>
    <i name="e_0_energy">   -186.70455394 </i>
   </energy>
  </scstep>
  <structure>
   <crystal>
    <varray name="basis" >
     <v>       8.66999996       5.03999989       0.00000000 </v>
     <v>      -8.66999982       5.04000013       0.00000000 </v>
     <v>       0.00000000       0.00000000      30.00000000 </v>
    </varray>
    <i name="volume">   2621.80797419 </i>
    <varray name="rec_basis" >
     <v>       0.05767013       0.09920635       0.00000000 </v>
     <v>      -0.05767013       0.09920635       0.00000000 </v>
     <v>       0.00000000       0.00000000       0.03333333 </v>
    </varray>
   </crystal>
   <varray name="positions" >
    <v>       0.33333334       0.00000000       0.00000000 </v>
    <v>       0.33333334       0.66666669       0.00000000 </v>
    <v>       0.66666669       0.33333334       0.00000000 </v>
    <v>       0.66666669       0.66666669       0.00000000 </v>
    <v>       0.00000000       0.66666669       0.00000000 </v>
    <v>       1.00000000       0.33333334       0.00000000 </v>
    <v>       0.00000000       0.00000000       0.00000000 </v>
    <v>       0.33333334       0.33333334       0.00000000 </v>
    <v>       0.66666669       0.00000000       0.00000000 </v>
    <v>       0.11068511       0.22244981       0.95539999 </v>
    <v>       0.22244981       0.11068511       0.04460000 </v>
    <v>       0.11068511       0.55578315       0.95539999 </v>
    <v>       0.22244981       0.44401845       0.04460000 </v>
    <v>       0.11068511       0.88911647       0.95539999 </v>
    <v>       0.22244981       0.77735180       0.04460000 </v>
    <v>       0.44401845       0.22244981       0.95539999 </v>
    <v>       0.55578315       0.11068511       0.04460000 </v>
    <v>       0.44401845       0.55578315       0.95539999 </v>
    <v>       0.55578315       0.44401845       0.04460000 </v>
    <v>       0.44401845       0.88911647       0.95539999 </v>
    <v>       0.55578315       0.77735180       0.04460000 </v>
    <v>       0.77735180       0.22244981       0.95539999 </v>
    <v>       0.88911647       0.11068511       0.04460000 </v>
    <v>       0.77735180       0.55578315       0.95539999 </v>
    <v>       0.88911647       0.44401845       0.04460000 </v>
    <v>       0.77735180       0.88911647       0.95539999 </v>
    <v>       0.88911647       0.77735180       0.04460000 </v>
   </varray>
  </structure>
  <varray name="forces" >
   <v>       0.06577740      -0.19349143       0.00981875 </v>
   <v>      -0.08170659      -0.21304045       0.12264130 </v>
   <v>       0.00271332       0.41760819      -0.10220128 </v>
   <v>       0.24629552       0.15856638      -0.09986078 </v>
   <v>       0.05211723      -0.27736668       0.01494712 </v>
   <v>      -0.26437587       0.12994175       0.08404443 </v>
   <v>       0.04361963      -0.32389839      -0.02808185 </v>
   <v>      -0.18453523       0.21107369      -0.05912356 </v>
   <v>       0.12301777       0.06654553       0.03915772 </v>
   <v>       0.29273507      -0.01445876      -2.84119554 </v>
   <v>       0.58510373      -0.00971553       2.11137836 </v>
   <v>       0.51355652       0.70341851      -2.15609779 </v>
   <v>      -0.38222206       0.71462252       2.21319521 </v>
   <v>       0.35270550       0.69946232      -2.14756684 </v>
   <v>       0.35140518       0.67278758       1.42516882 </v>
   <v>       0.74265582       0.01441364      -1.45801066 </v>
   <v>      -0.73505190      -0.00159944       1.43892847 </v>
   <v>      -0.64243363      -0.14357749      -2.10510584 </v>
   <v>       0.66137734      -0.15888565       2.09784218 </v>
   <v>      -0.23713049      -0.52298215      -1.40789799 </v>
   <v>      -0.63833585      -0.56702844       2.12570539 </v>
   <v>      -0.69752566      -0.15648579      -2.12088211 </v>
   <v>      -0.05291561      -0.10055456       2.92481767 </v>
   <v>       0.52392988      -0.72613501      -2.19617913 </v>
   <v>      -0.51123879      -0.68999900       2.17497763 </v>
   <v>       0.07312199       0.13129533      -2.95641066 </v>
   <v>      -0.20266023       0.17948334       2.89599096 </v>
  </varray>
  <varray name="stress" >
   <v>       7.27552528       0.08566523      -1.50642314 </v>
   <v>       0.08566525       4.47014560       0.04430937 </v>
   <v>      -1.50642315       0.04430949      30.30703933 </v>
  </varray>
  <energy>
   <i name="e_fr_energy">   -186.87630574 </i>
   <i name="e_wo_entrp">   -186.70455394 </i>
   <i name="e_0_energy">     -0.34350361 </i>
  </energy>
  <time name="totalsc">  807.17  809.35</time>
 </calculation>
 <calculation>
  <scstep>
   <time name="dav">   21.63   21.68</time>
   <time name="total">   22.17   22.23</time>
   <energy>
    <i name="alphaZ">     78.92329163 </i>
    <i name="ewald">  39380.74029672 </i>
    <i name="hartreedc"> -45338.30419431 </i>
    <i name="XCdc">   -239.05505100 </i>
    <i name="pawpsdc">   4192.09535482 </i>
    <i name="pawaedc">  -3610.11442756 </i>
    <i name="eentropy">     -0.28039127 </i>
    <i name="bandstr">  -1412.94541099 </i>
    <i name="atom">   6761.44252427 </i>
    <i name="e_fr_energy">   -187.49800771 </i>
    <i name="e_wo_entrp">   -187.21761643 </i>
    <i name="e_0_energy">   -187.35781207 </i>
   </energy>
  </scstep>
  <scstep>
   <time name="dav">   30.21   30.29</time>
   <time name="total">   30.75   30.83</time>
   <energy>
    <i name="e_fr_energy">   -189.49912437 </i>
    <i name="e_wo_entrp">   -189.16652356 </i>
    <i name="e_0_energy">   -189.33282396 </i>
   </energy>
  </scstep>
  <scstep>
   <time name="dav">   30.41   30.48</time>
   <time name="total">   30.95   31.04</time>
   <energy>
    <i name="e_fr_energy">   -189.33185578 </i>
    <i name="e_wo_entrp">   -189.06843645 </i>
    <i name="e_0_energy">   -189.20014611 </i>
   </energy>
  </scstep>
  <scstep>
   <time name="dav">   29.30   29.37</time>
   <time name="total">   29.85   29.93</time>
   <energy>
    <i name="e_fr_energy">   -188.76719465 </i>
    <i name="e_wo_entrp">   -188.48350657 </i>
    <i name="e_0_energy">   -188.62535061 </i>
   </energy>
  </scstep>
  <scstep>
   <time name="dav">   30.42   30.50</time>
   <time name="total">   30.96   31.04</time>
   <energy>
    <i name="e_fr_energy">   -188.89410502 </i>
    <i name="e_wo_entrp">   -188.60842117 </i>
    <i name="e_0_energy">   -188.75126309 </i>
   </energy>
  </scstep>
  <scstep>
   <time name="dav">   31.07   31.14</time>
   <time name="total">   31.61   31.70</time>
   <energy>
    <i name="e_fr_energy">   -188.74649130 </i>
    <i name="e_wo_entrp">   -188.46349941 </i>
    <i name="e_0_energy">   -188.60499535 </i>
   </energy>
  </scstep>
  <scstep>
   <time name="dav">   28.98   29.05</time>
   <time name="total">   29.52   29.60</time>
   <energy>
    <i name="e_fr_energy">   -188.70680024 </i>
    <i name="e_wo_entrp">   -188.42190533 </i>
    <i name="e_0_energy">   -188.56435278 </i>
   </energy>
  </scstep>
  <scstep>
   <time name="dav">   31.44   31.51</time>
   <time name="total">   31.98   32.06</time>
   <energy>
    <i name="e_fr_energy">   -188.69442645 </i>
    <i name="e_wo_entrp">   -188.41285377 </i>
    <i name="e_0_energy">   -188.55364011 </i>
   </energy>
  </scstep>
  <scstep>
   <time name="dav">   29.39   29.47</time>
   <time name="total">   29.94   30.02</time>
   <energy>
    <i name="e_fr_energy">   -188.66865386 </i>
    <i name="e_wo_entrp">   -188.38714361 </i>
    <i name="e_0_energy">   -188.52789873 </i>
   </energy>
  </scstep>
  <scstep>
   <time name="dav">   28.20   28.27</time>
   <time name="total">   28.74   28.82</time>
   <energy>
    <i name="e_fr_energy">   -188.66728105 </i>
    <i name="e_wo_entrp">   -188.38683998 </i>
    <i name="e_0_energy">   -188.52706051 </i>
   </energy>
  </scstep>
  <scstep>
   <time name="dav">   32.12   32.19</time>
   <time name="total">   32.66   32.74</time>
   <energy>
    <i name="e_fr_energy">   -188.66653864 </i>
    <i name="e_wo_entrp">   -188.38705364 </i>
    <i name="e_0_energy">   -188.52679614 </i>
   </energy>
  </scstep>
  <scstep>
   <time name="dav">   29.88   29.95</time>
   <time name="total">   29.91   30.00</time>
   <energy>
    <i name="alphaZ">     78.92329163 </i>
    <i name="ewald">  39380.74029672 </i>
    <i name="hartreedc"> -45349.17862808 </i>
    <i name="XCdc">   -237.96892957 </i>
    <i name="pawpsdc">   3952.51420552 </i>
    <i name="pawaedc">  -3367.05093367 </i>
    <i name="eentropy">     -0.27952347 </i>
    <i name="bandstr">  -1407.80889082 </i>
    <i name="atom">   6761.44252427 </i>
    <i name="e_fr_energy">   -188.66658747 </i>
    <i name="e_wo_entrp">   -188.38706400 </i>
    <i name="e_0_energy">   -188.52682574 </i>
   </energy>
  </scstep>
  <structure>
   <crystal>
    <varray name="basis" >
     <v>       8.85569643       5.10804488       0.00000000 </v>
     <v>      -8.85317151       5.10370191       0.00000000 </v>
     <v>       0.00000000       0.00000000      30.00000000 </v>
    </varray>
    <i name="volume">   2712.57696577 </i>
    <varray name="rec_basis" >
     <v>       0.05644487       0.09791248       0.00000000 </v>
     <v>      -0.05649290       0.09794041       0.00000000 </v>
     <v>       0.00000000       0.00000000       0.03333333 </v>
    </varray>
   </crystal>
   <varray name="positions" >
    <v>       0.33259030      -0.00110905       0.00001579 </v>
    <v>       0.33208642       0.66587440       0.00019722 </v>
    <v>       0.66867290       0.33532446      -0.00016435 </v>
    <v>       0.66811082       0.66674035      -0.00016058 </v>
    <v>      -0.00118247       0.66519422       0.00002404 </v>
    <v>       0.99988636       0.33469078       0.00013515 </v>
    <v>      -0.00142881      -0.00167153      -0.00004516 </v>
    <v>       0.33383013       0.33485694      -0.00009508 </v>
    <v>       0.66732743      -0.00002377       0.00006297 </v>
    <v>       0.11143035       0.22156617       0.95083110 </v>
    <v>       0.22403116       0.10901076       0.04799528 </v>
    <v>       0.11548045       0.55772090       0.95193279 </v>
    <v>       0.22480657       0.44850202       0.04815901 </v>
    <v>       0.11501400       0.89148279       0.95194651 </v>
    <v>       0.22664742       0.77959408       0.04689180 </v>
    <v>       0.44615362       0.22045261       0.95305538 </v>
    <v>       0.55373047       0.11272249       0.04691392 </v>
    <v>       0.44154394       0.55688335       0.95201479 </v>
    <v>       0.55686279       0.44141797       0.04797351 </v>
    <v>       0.44085574       0.88727322       0.95313597 </v>
    <v>       0.55129341       0.77641396       0.04801832 </v>
    <v>       0.77466223       0.22364150       0.95198942 </v>
    <v>       0.88848799       0.11035108       0.04930336 </v>
    <v>       0.77533419       0.55085023       0.95186834 </v>
    <v>       0.88439180       0.44213848       0.04809756 </v>
    <v>       0.77818361       0.88954141       0.95064582 </v>
    <v>       0.88941164       0.77877463       0.04925701 </v>
   </varray>
  </structure>
  <varray name="forces" >
   <v>       0.00509439      -0.15700581       0.01328799 </v>
   <v>      -0.02719455      -0.27425606       0.04448652 </v>
   <v>      -0.01149722       0.39070659      -0.03020566 </v>
   <v>       0.20145067       0.36851259       0.03423913 </v>
   <v>      -0.09437467      -0.30886074      -0.00492270 </v>
   <v>      -0.10319807       0.09700567      -0.04158938 </v>
   <v>      -0.11412394      -0.44328460      -0.00474831 </v>
   <v>      -0.25286924       0.11037589      -0.08405982 </v>
   <v>       0.38866922       0.21377552       0.09881124 </v>
   <v>       0.10850145      -0.00148799       0.10285403 </v>
   <v>      -0.09838230       0.00275732      -0.14397569 </v>
   <v>       0.02127963       0.08154874      -0.04173932 </v>
   <v>       0.09008899       0.07472949       0.08946193 </v>
   <v>      -0.09481103       0.04352862       0.04584571 </v>
   <v>       0.01558834       0.03013011      -0.03924070 </v>
   <v>      -0.10400538       0.01188542       0.20709344 </v>
   <v>       0.10384209       0.00796023      -0.24627860 </v>
   <v>       0.01208167      -0.09434304       0.01600048 </v>
   <v>      -0.00933750      -0.11515016      -0.05147573 </v>
   <v>       0.06807524       0.07102330       0.15158828 </v>
   <v>      -0.08131246       0.05736752      -0.10271600 </v>
   <v>       0.00234113      -0.11637257       0.00555903 </v>
   <v>       0.07546076      -0.09226699       0.02659894 </v>
   <v>       0.05017374      -0.08307527      -0.20113614 </v>
   <v>      -0.03988140      -0.07838834       0.15756661 </v>
   <v>      -0.06680592       0.09698171      -0.14264084 </v>
   <v>      -0.04485364       0.10620285       0.14133554 </v>
  </varray>
  <varray name="stress" >
   <v>     -20.01388470      -0.01404518       0.01449613 </v>
   <v>      -0.01404526     -19.58042992      -0.02050086 </v>
   <v>       0.01449617      -0.02050102      -1.79823546 </v>
  </varray>
  <energy>
   <i name="e_fr_energy">   -188.66658747 </i>
   <i name="e_wo_entrp">   -188.52682574 </i>
   <i name="e_0_energy">     -0.27952347 </i>
  </energy>
  <time name="totalsc">  400.63  401.70</time>
 </calculation>
 <calculation>
  <scstep>
   <time name="dav">   23.79   23.85</time>
   <time name="total">   24.32   24.38</time>
   <energy>
    <i name="alphaZ">     82.34449965 </i>
    <i name="ewald">  41301.88131115 </i>
    <i name="hartreedc"> -47300.83571420 </i>
    <i name="XCdc">   -233.85404161 </i>
    <i name="pawpsdc">   3950.48541780 </i>
    <i name="pawaedc">  -3364.99848773 </i>
    <i name="eentropy">     -0.23302821 </i>
    <i name="bandstr">  -1386.81435835 </i>
    <i name="atom">   6761.44252427 </i>
    <i name="e_fr_energy">   -190.58187721 </i>
    <i name="e_wo_entrp">   -190.34884901 </i>
    <i name="e_0_energy">   -190.46536311 </i>
   </energy>
  </scstep>
  <scstep>
   <time name="dav">   27.45   27.51</time>
   <time name="total">   27.97   28.04</time>
   <energy>
    <i name="e_fr_energy">   -190.56602353 </i>
    <i name="e_wo_entrp">   -190.33780565 </i>
    <i name="e_0_energy">   -190.45191459 </i>
   </energy>
  </scstep>
  <scstep>
   <time name="dav">   30.15   30.23</time>
   <time name="total">   30.68   30.76</time>
   <energy>
    <i name="e_fr_energy">   -190.05665516 </i>
    <i name="e_wo_entrp">   -189.80820112 </i>
    <i name="e_0_energy">   -189.93242814 </i>
   </energy>
  </scstep>
  <scstep>
   <time name="dav">   31.01   31.09</time>
   <time name="total">   31.55   31.63</time>
   <energy>
    <i name="e_fr_energy">   -189.85217051 </i>
    <i name="e_wo_entrp">   -189.62343829 </i>
    <i name="e_0_energy">   -189.73780440 </i>
   </energy>
  </scstep>
  <scstep>
   <time name="dav">   27.71   27.78</time>
   <time name="total">   28.24   28.32</time>
   <energy>
    <i name="e_fr_energy">   -189.78688899 </i>
    <i name="e_wo_entrp">   -189.54458031 </i>
    <i name="e_0_energy">   -189.66573465 </i>
   </energy>
  </scstep>
  <scstep>
   <time name="dav">   30.88   30.96</time>
   <time name="total">   31.42   31.50</time>
   <energy>
    <i name="e_fr_energy">   -189.75650601 </i>
    <i name="e_wo_entrp">   -189.52388503 </i>
    <i name="e_0_energy">   -189.64019552 </i>
   </energy>
  </scstep>
  <scstep>
   <time name="dav">   30.67   30.75</time>
   <time name="total">   31.21   31.30</time>
   <energy>
    <i name="e_fr_energy">   -189.74893552 </i>
    <i name="e_wo_entrp">   -189.51407487 </i>
    <i name="e_0_energy">   -189.63150519 </i>
   </energy>
  </scstep>
  <scstep>
   <time name="dav">   27.97   28.04</time>
   <time name="total">   28.51   28.58</time>
   <energy>
    <i name="e_fr_energy">   -189.74904319 </i>
    <i name="e_wo_entrp">   -189.51449878 </i>
    <i name="e_0_energy">   -189.63177099 </i>
   </energy>
  </scstep>
  <scstep>
   <time name="dav">   27.40   27.46</time>
   <time name="total">   27.93   28.00</time>
   <energy>
    <i name="e_fr_energy">   -189.74932122 </i>
    <i name="e_wo_entrp">   -189.51460193 </i>
    <i name="e_0_energy">   -189.63196158 </i>
   </energy>
  </scstep>
  <scstep>
   <time name="dav">   25.82   25.88</time>
   <time name="total">   26.36   26.43</time>
   <energy>
    <i name="e_fr_energy">   -189.74923536 </i>
    <i name="e_wo_entrp">   -189.51432937 </i>
    <i name="e_0_energy">   -189.63178236 </i>
   </energy>
  </scstep>
  <scstep>
   <time name="dav">   20.94   20.99</time>
   <time name="total">   21.47   21.53</time>
   <energy>
    <i name="e_fr_energy">   -189.74905710 </i>
    <i name="e_wo_entrp">   -189.51421426 </i>
    <i name="e_0_energy">   -189.63163568 </i>
   </energy>
  </scstep>
  <scstep>
   <time name="dav">   20.93   20.98</time>
   <time name="total">   20.97   21.02</time>
   <energy>
    <i name="alphaZ">     82.34449965 </i>
    <i name="ewald">  41301.88131115 </i>
    <i name="hartreedc"> -47274.14023874 </i>
    <i name="XCdc">   -235.24774062 </i>
    <i name="pawpsdc">   4038.40950310 </i>
    <i name="pawaedc">  -3454.11174699 </i>
    <i name="eentropy">     -0.23482117 </i>
    <i name="bandstr">  -1410.09235883 </i>
    <i name="atom">   6761.44252427 </i>
    <i name="e_fr_energy">   -189.74906818 </i>
    <i name="e_wo_entrp">   -189.51424700 </i>
    <i name="e_0_energy">   -189.63165759 </i>
   </energy>
  </scstep>
  <structure>
   <crystal>
    <varray name="basis" >
     <v>       8.66766768       5.00184816       0.00000000 </v>
     <v>      -8.66534844       4.99785913       0.00000000 </v>
     <v>       0.00000000       0.00000000      30.00000000 </v>
    </varray>
    <i name="volume">   2599.87617673 </i>
    <varray name="rec_basis" >
     <v>       0.05767035       0.09998955       0.00000000 </v>
     <v>      -0.05771638       0.10001631       0.00000000 </v>
     <v>       0.00000000       0.00000000       0.03333333 </v>
    </varray>
   </crystal>
   <varray name="positions" >
    <v>       0.33233518      -0.00137397       0.00002328 </v>
    <v>       0.33160633       0.66544612       0.00022230 </v>
    <v>       0.66930888       0.33598258      -0.00018138 </v>
    <v>       0.66891332       0.66715827      -0.00014128 </v>
    <v>      -0.00178399       0.66477280       0.00002126 </v>
    <v>       0.99994848       0.33495005       0.00011171 </v>
    <v>      -0.00227177      -0.00229672      -0.00004783 </v>
    <v>       0.33377151       0.33528135      -0.00014246 </v>
    <v>       0.66805243      -0.00004102       0.00011867 </v>
    <v>       0.11153146       0.22146005       0.95088908 </v>
    <v>       0.22394182       0.10910932       0.04791412 </v>
    <v>       0.11563580       0.55783564       0.95190926 </v>
    <v>       0.22501631       0.44853973       0.04820944 </v>
    <v>       0.11499558       0.89164547       0.95197236 </v>
    <v>       0.22671219       0.77962909       0.04686968 </v>
    <v>       0.44607402       0.22057166       0.95317212 </v>
    <v>       0.55384277       0.11263646       0.04677509 </v>
    <v>       0.44139926       0.55671554       0.95202381 </v>
    <v>       0.55666320       0.44123617       0.04794450 </v>
    <v>       0.44103833       0.88732582       0.95322142 </v>
    <v>       0.55131079       0.77658667       0.04796042 </v>
    <v>       0.77447177       0.22344651       0.95199256 </v>
    <v>       0.88840725       0.11012616       0.04931836 </v>
    <v>       0.77524452       0.55066469       0.95175495 </v>
    <v>       0.88422393       0.44204675       0.04818638 </v>
    <v>       0.77828043       0.88976587       0.95056541 </v>
    <v>       0.88954468       0.77899339       0.04933668 </v>
   </varray>
  </structure>
  <varray name="forces" >
   <v>      -0.03232733      -0.15121257       0.01005637 </v>
   <v>       0.00898662      -0.30909852       0.01455488 </v>
   <v>      -0.01962697       0.38962694      -0.00445544 </v>
   <v>       0.18502845       0.42759346       0.05056212 </v>
   <v>      -0.14255553      -0.31127716      -0.01015382 </v>
   <v>      -0.04005852       0.08543574      -0.05437454 </v>
   <v>      -0.16536123      -0.46425225      -0.00062185 </v>
   <v>      -0.27507575       0.06263877      -0.06525370 </v>
   <v>       0.46924447       0.25123283       0.08238727 </v>
   <v>       0.03940277      -0.00827883      -0.43326435 </v>
   <v>       0.03440689       0.00681060       0.33910541 </v>
   <v>       0.04899641       0.14760173      -0.52588129 </v>
   <v>      -0.02806819       0.13102800       0.60757956 </v>
   <v>       0.02843703       0.09577182      -0.44514120 </v>
   <v>       0.04144163       0.08143764       0.40550508 </v>
   <v>       0.05471286       0.01181785      -0.23922032 </v>
   <v>      -0.05464453       0.01227758       0.19400211 </v>
   <v>      -0.10426411      -0.00199256      -0.47396935 </v>
   <v>       0.09644161      -0.04847297       0.43077442 </v>
   <v>      -0.00203043      -0.05211335      -0.28746847 </v>
   <v>      -0.06771739      -0.07567551       0.38705316 </v>
   <v>      -0.10323877      -0.05098983      -0.48732181 </v>
   <v>       0.04113245      -0.01005797       0.59188540 </v>
   <v>       0.08849792      -0.13961781      -0.71253636 </v>
   <v>      -0.07856542      -0.14315011       0.65187389 </v>
   <v>      -0.03217379       0.02466261      -0.73065667 </v>
   <v>       0.00897886       0.03825388       0.70497949 </v>
  </varray>
  <varray name="stress" >
   <v>     -10.17662304      -0.02395868      -0.01855449 </v>
   <v>      -0.02395878      -9.88068428      -0.03812604 </v>
   <v>      -0.01855432      -0.03812608       6.49603225 </v>
  </varray>
  <energy>
   <i name="e_fr_energy">   -189.74906818 </i>
   <i name="e_wo_entrp">   -189.63165759 </i>
   <i name="e_0_energy">     -0.23482117 </i>
  </energy>
  <time name="totalsc">  372.73  373.73</time>
 </calculation>
 <calculation>
  <scstep>
   <time name="dav">   21.62   21.67</time>
   <time name="total">   22.14   22.19</time>
   <energy>
    <i name="alphaZ">     85.81168973 </i>
    <i name="ewald">  42828.18122343 </i>
    <i name="hartreedc"> -48844.84876498 </i>
    <i name="XCdc">   -232.96765320 </i>
    <i name="pawpsdc">   4038.54910553 </i>
    <i name="pawaedc">  -3454.24917342 </i>
    <i name="eentropy">     -0.19143140 </i>
    <i name="bandstr">  -1373.01734360 </i>
    <i name="atom">   6761.44252427 </i>
    <i name="e_fr_energy">   -191.28982364 </i>
    <i name="e_wo_entrp">   -191.09839223 </i>
    <i name="e_0_energy">   -191.19410793 </i>
   </energy>
  </scstep>
  <scstep>
   <time name="dav">   32.56   32.64</time>
   <time name="total">   33.08   33.16</time>
   <energy>
    <i name="e_fr_energy">   -191.18172530 </i>
    <i name="e_wo_entrp">   -190.98338604 </i>
    <i name="e_0_energy">   -191.08255567 </i>
   </energy>
  </scstep>
  <scstep>
   <time name="dav">   29.10   29.17</time>
   <time name="total">   29.61   29.69</time>
   <energy>
    <i name="e_fr_energy">   -191.22275798 </i>
    <i name="e_wo_entrp">   -191.01121939 </i>
    <i name="e_0_energy">   -191.11698868 </i>
   </energy>
  </scstep>
  <scstep>
   <time name="dav">   30.65   30.72</time>
   <time name="total">   31.17   31.25</time>
   <energy>
    <i name="e_fr_energy">   -190.90065347 </i>
    <i name="e_wo_entrp">   -190.69161341 </i>
    <i name="e_0_energy">   -190.79613344 </i>
   </energy>
  </scstep>
  <scstep>
   <time name="dav">   27.85   27.92</time>
   <time name="total">   28.37   28.44</time>
   <energy>
    <i name="e_fr_energy">   -190.88913796 </i>
    <i name="e_wo_entrp">   -190.70341290 </i>
    <i name="e_0_energy">   -190.79627543 </i>
   </energy>
  </scstep>
  <scstep>
   <time name="dav">   27.66   27.73</time>
   <time name="total">   28.18   28.26</time>
   <energy>
    <i name="e_fr_energy">   -190.70768498 </i>
    <i name="e_wo_entrp">   -190.50999410 </i>
    <i name="e_0_energy">   -190.60883954 </i>
   </energy>
  </scstep>
  <scstep>
   <time name="dav">   28.29   28.36</time>
   <time name="total">   28.81   28.88</time>
   <energy>
    <i name="e_fr_energy">   -190.70601935 </i>
    <i name="e_wo_entrp">   -190.50955220 </i>
    <i name="e_0_energy">   -190.60778577 </i>
   </energy>
  </scstep>
  <scstep>
   <time name="dav">   26.29   26.35</time>
   <time name="total">   26.81   26.88</time>
   <energy>
    <i name="e_fr_energy">   -190.70293770 </i>
    <i name="e_wo_entrp">   -190.50587564 </i>
    <i name="e_0_energy">   -190.60440667 </i>
   </energy>
  </scstep>
  <scstep>
   <time name="dav">   30.56   30.64</time>
   <time name="total">   31.08   31.16</time>
   <energy>
    <i name="e_fr_energy">   -190.70287710 </i>
    <i name="e_wo_entrp">   -190.50581762 </i>
    <i name="e_0_energy">   -190.60434736 </i>
   </energy>
  </scstep>
  <scstep>
   <time name="dav">   28.56   28.62</time>
   <time name="total">   29.07   29.15</time>
   <energy>
    <i name="e_fr_energy">   -190.70291427 </i>
    <i name="e_wo_entrp">   -190.50593081 </i>
    <i name="e_0_energy">   -190.60442254 </i>
   </energy>
  </scstep>
  <scstep>
   <time name="dav">   24.97   25.03</time>
   <time name="total">   25.48   25.55</time>
   <energy>
    <i name="e_fr_energy">   -190.70281333 </i>
    <i name="e_wo_entrp">   -190.50577772 </i>
    <i name="e_0_energy">   -190.60429552 </i>
   </energy>
  </scstep>
  <scstep>
   <time name="dav">   20.84   20.89</time>
   <time name="total">   20.87   20.93</time>
   <energy>
    <i name="alphaZ">     85.81168973 </i>
    <i name="ewald">  42828.18122343 </i>
    <i name="hartreedc"> -48816.33127966 </i>
    <i name="XCdc">   -234.30150927 </i>
    <i name="pawpsdc">   4062.93292099 </i>
    <i name="pawaedc">  -3478.80132530 </i>
    <i name="eentropy">     -0.19708461 </i>
    <i name="bandstr">  -1399.43998085 </i>
    <i name="atom">   6761.44252427 </i>
    <i name="e_fr_energy">   -190.70282127 </i>
    <i name="e_wo_entrp">   -190.50573666 </i>
    <i name="e_0_energy">   -190.60427896 </i>
   </energy>
  </scstep>
  <structure>
   <crystal>
    <varray name="basis" >
     <v>       8.48663179       4.90095280       0.00000000 </v>
     <v>      -8.48538647       4.89882126       0.00000000 </v>
     <v>       0.00000000       0.00000000      30.00000000 </v>
    </varray>
    <i name="volume">   2494.82912652 </i>
    <varray name="rec_basis" >
     <v>       0.05890770       0.10203568       0.00000000 </v>
     <v>      -0.05893333       0.10205066       0.00000000 </v>
     <v>       0.00000000       0.00000000       0.03333333 </v>
    </varray>
   </crystal>
   <varray name="positions" >
    <v>       0.33123371      -0.00213464       0.00004132 </v>
    <v>       0.32967115       0.66334139       0.00022694 </v>
    <v>       0.67165989       0.33849928      -0.00016870 </v>
    <v>       0.67237815       0.66933580      -0.00002291 </v>
    <v>      -0.00431986       0.66340395      -0.00000417 </v>
    <v>       1.00040016       0.33550917      -0.00001154 </v>
    <v>      -0.00589710      -0.00458192      -0.00004561 </v>
    <v>       0.33301986       0.33657887      -0.00026135 </v>
    <v>       0.67152530      -0.00018614       0.00027499 </v>
    <v>       0.11150544       0.22134859       0.94953803 </v>
    <v>       0.22430970       0.10884659       0.04902549 </v>
    <v>       0.11694019       0.55870692       0.95041097 </v>
    <v>       0.22570484       0.44977127       0.04990546 </v>
    <v>       0.11600473       0.89209475       0.95063512 </v>
    <v>       0.22753615       0.78007970       0.04808570 </v>
    <v>       0.44657349       0.22021931       0.95229844 </v>
    <v>       0.55350516       0.11314954       0.04755019 </v>
    <v>       0.44107382       0.55747760       0.95062786 </v>
    <v>       0.55702663       0.44059901       0.04924462 </v>
    <v>       0.44029691       0.88680073       0.95225418 </v>
    <v>       0.55028083       0.77600605       0.04917657 </v>
    <v>       0.77379184       0.22381558       0.95056653 </v>
    <v>       0.88864853       0.11016948       0.05102202 </v>
    <v>       0.77460476       0.54927565       0.94984772 </v>
    <v>       0.88282816       0.44132907       0.04995371 </v>
    <v>       0.77818790       0.88980581       0.94855562 </v>
    <v>       0.88972411       0.77895304       0.05127269 </v>
   </varray>
  </structure>
  <varray name="forces" >
   <v>      -0.04175515      -0.12629663       0.00365868 </v>
   <v>      -0.00779992      -0.36089688      -0.04345295 </v>
   <v>      -0.02922315       0.33613891       0.04857785 </v>
   <v>       0.17185794       0.52328758       0.02562345 </v>
   <v>      -0.17930998      -0.27734488      -0.01363118 </v>
   <v>       0.00301152       0.09678851      -0.03158647 </v>
   <v>      -0.18150149      -0.50960524       0.00685047 </v>
   <v>      -0.27497006       0.02669538      -0.02266653 </v>
   <v>       0.50610248       0.23630404       0.02569145 </v>
   <v>       0.00985675      -0.04268754      -0.26892893 </v>
   <v>      -0.03713898      -0.02554280       0.17974025 </v>
   <v>      -0.02656208       0.04281240      -0.36869350 </v>
   <v>      -0.06238141       0.03978466       0.46762116 </v>
   <v>       0.00644794      -0.02995075      -0.29449443 </v>
   <v>      -0.00336011      -0.04183230       0.32354836 </v>
   <v>       0.01744175       0.03210835      -0.17771013 </v>
   <v>       0.01954960       0.04148723       0.09146526 </v>
   <v>      -0.03132992       0.07453834      -0.26486561 </v>
   <v>       0.00771819       0.02201859       0.22800977 </v>
   <v>       0.04921520       0.00414189      -0.14282726 </v>
   <v>       0.01255425      -0.01863448       0.24075282 </v>
   <v>      -0.02012844      -0.01203117      -0.31216628 </v>
   <v>       0.02157656       0.06594046       0.45815678 </v>
   <v>       0.02278699      -0.03436529      -0.54982589 </v>
   <v>      -0.02704737      -0.04229662       0.44501590 </v>
   <v>       0.01866365      -0.03039137      -0.59934121 </v>
   <v>       0.05572524       0.00982961       0.54547815 </v>
  </varray>
  <varray name="stress" >
   <v>      -5.90879584       0.07479824      -0.05173114 </v>
   <v>       0.07479839      -5.77762372       0.04976699 </v>
   <v>      -0.05173119       0.04976669       4.51916256 </v>
  </varray>
  <energy>
   <i name="e_fr_energy">   -190.70282127 </i>
   <i name="e_wo_entrp">   -190.60427896 </i>
   <i name="e_0_energy">     -0.19708461 </i>
  </energy>
  <time name="totalsc">  376.78  377.77</time>
 </calculation>
 <calculation>
  <scstep>
   <time name="dav">   21.62   21.67</time>
   <time name="total">   22.12   22.18</time>
   <energy>
    <i name="alphaZ">     90.30294931 </i>
    <i name="ewald">  44718.53681733 </i>
    <i name="hartreedc"> -50763.70909661 </i>
    <i name="XCdc">   -231.76283261 </i>
    <i name="pawpsdc">   4062.89918656 </i>
    <i name="pawaedc">  -3478.76361273 </i>
    <i name="eentropy">     -0.17752899 </i>
    <i name="bandstr">  -1350.88540321 </i>
    <i name="atom">   6761.44252427 </i>
    <i name="e_fr_energy">   -192.11699667 </i>
    <i name="e_wo_entrp">   -191.93946768 </i>
    <i name="e_0_energy">   -192.02823218 </i>
   </energy>
  </scstep>
  <scstep>
   <time name="dav">   29.96   30.03</time>
   <time name="total">   30.46   30.55</time>
   <energy>
    <i name="e_fr_energy">   -191.96597612 </i>
    <i name="e_wo_entrp">   -191.76659938 </i>
    <i name="e_0_energy">   -191.86628775 </i>
   </energy>
  </scstep>
  <scstep>
   <time name="dav">   30.00   30.07</time>
   <time name="total">   30.50   30.58</time>
   <energy>
    <i name="e_fr_energy">   -192.42533393 </i>
    <i name="e_wo_entrp">   -192.23411734 </i>
    <i name="e_0_energy">   -192.32972564 </i>
   </energy>
  </scstep>
  <scstep>
   <time name="dav">   30.17   30.24</time>
   <time name="total">   30.68   30.76</time>
   <energy>
    <i name="e_fr_energy">   -191.54621434 </i>
    <i name="e_wo_entrp">   -191.36640652 </i>
    <i name="e_0_energy">   -191.45631043 </i>
   </energy>
  </scstep>
  <scstep>
   <time name="dav">   29.07   29.14</time>
   <time name="total">   29.57   29.65</time>
   <energy>
    <i name="e_fr_energy">   -191.52227022 </i>
    <i name="e_wo_entrp">   -191.32493214 </i>
    <i name="e_0_energy">   -191.42360118 </i>
   </energy>
  </scstep>
  <scstep>
   <time name="dav">   29.93   30.00</time>
   <time name="total">   30.44   30.52</time>
   <energy>
    <i name="e_fr_energy">   -191.37465206 </i>
    <i name="e_wo_entrp">   -191.19206880 </i>
    <i name="e_0_energy">   -191.28336043 </i>
   </energy>
  </scstep>
  <scstep>
   <time name="dav">   29.37   29.44</time>
   <time name="total">   29.87   29.95</time>
   <energy>
    <i name="e_fr_energy">   -191.35015526 </i>
    <i name="e_wo_entrp">   -191.16503618 </i>
    <i name="e_0_energy">   -191.25759572 </i>
   </energy>
  </scstep>
  <scstep>
   <time name="dav">   29.79   29.86</time>
   <time name="total">   30.29   30.37</time>
   <energy>
    <i name="e_fr_energy">   -191.34855191 </i>
    <i name="e_wo_entrp">   -191.16171273 </i>
    <i name="e_0_energy">   -191.25513232 </i>
   </energy>
  </scstep>
  <scstep>
   <time name="dav">   28.49   28.55</time>
   <time name="total">   28.99   29.07</time>
   <energy>
    <i name="e_fr_energy">   -191.34265203 </i>
    <i name="e_wo_entrp">   -191.15667438 </i>
    <i name="e_0_energy">   -191.24966321 </i>
   </energy>
  </scstep>
  <scstep>
   <time name="dav">   29.26   29.33</time>
   <time name="total">   29.76   29.84</time>
   <energy>
    <i name="e_fr_energy">   -191.34279354 </i>
    <i name="e_wo_entrp">   -191.15652158 </i>
    <i name="e_0_energy">   -191.24965756 </i>
   </energy>
  </scstep>
  <scstep>
   <time name="dav">   26.93   26.99</time>
   <time name="total">   27.43   27.50</time>
   <energy>
    <i name="e_fr_energy">   -191.34266324 </i>
    <i name="e_wo_entrp">   -191.15607061 </i>
    <i name="e_0_energy">   -191.24936692 </i>
   </energy>
  </scstep>
  <scstep>
   <time name="dav">   19.68   19.73</time>
   <time name="total">   19.72   19.77</time>
   <energy>
    <i name="alphaZ">     90.30294931 </i>
    <i name="ewald">  44718.53681733 </i>
    <i name="hartreedc"> -50728.54446568 </i>
    <i name="XCdc">   -233.35092626 </i>
    <i name="pawpsdc">   4084.45109900 </i>
    <i name="pawaedc">  -3500.38602258 </i>
    <i name="eentropy">     -0.18647239 </i>
    <i name="bandstr">  -1383.60812757 </i>
    <i name="atom">   6761.44252427 </i>
    <i name="e_fr_energy">   -191.34262456 </i>
    <i name="e_wo_entrp">   -191.15615218 </i>
    <i name="e_0_energy">   -191.24938837 </i>
   </energy>
  </scstep>
  <structure>
   <crystal>
    <varray name="basis" >
     <v>       8.27170664       4.78295637       0.00000000 </v>
     <v>      -8.26638452       4.77376268       0.00000000 </v>
     <v>       0.00000000       0.00000000      30.00000000 </v>
    </varray>
    <i name="volume">   2370.74762854 </i>
    <varray name="rec_basis" >
     <v>       0.06040832       0.10460478       0.00000000 </v>
     <v>      -0.06052466       0.10467213       0.00000000 </v>
     <v>       0.00000000       0.00000000       0.03333333 </v>
    </varray>
   </crystal>
   <varray name="positions" >
    <v>       0.32926153      -0.00338965       0.00005654 </v>
    <v>       0.32514029       0.65876420       0.00005028 </v>
    <v>       0.67575874       0.34303232       0.00002743 </v>
    <v>       0.68020327       0.67469701       0.00011259 </v>
    <v>      -0.00922163       0.66119961      -0.00006347 </v>
    <v>       1.00165140       0.33658346      -0.00016666 </v>
    <v>      -0.01368039      -0.00958481      -0.00001744 </v>
    <v>       0.33123915       0.33886857      -0.00035852 </v>
    <v>       0.67841204      -0.00085478       0.00039479 </v>
    <v>       0.11098860       0.22086949       0.94779626 </v>
    <v>       0.22408810       0.10856144       0.05034471 </v>
    <v>       0.11778786       0.55969416       0.94831752 </v>
    <v>       0.22590789       0.45122203       0.05242958 </v>
    <v>       0.11628398       0.89180916       0.94884235 </v>
    <v>       0.22744158       0.77985519       0.04991223 </v>
    <v>       0.44738091       0.22014885       0.95107925 </v>
    <v>       0.55378296       0.11384077       0.04843244 </v>
    <v>       0.44165545       0.55906298       0.94892525 </v>
    <v>       0.55771024       0.44062729       0.05078479 </v>
    <v>       0.44006666       0.88620071       0.95113944 </v>
    <v>       0.54958317       0.77523833       0.05074545 </v>
    <v>       0.77335837       0.22420590       0.94868586 </v>
    <v>       0.88971063       0.11099861       0.05355221 </v>
    <v>       0.77411858       0.54819481       0.94698102 </v>
    <v>       0.88161333       0.44074345       0.05239779 </v>
    <v>       0.77782805       0.88915576       0.94542492 </v>
    <v>       0.89014370       0.77846957       0.05417329 </v>
   </varray>
  </structure>
  <varray name="forces" >
   <v>      -0.02071647      -0.08494145       0.00379180 </v>
   <v>      -0.14796740      -0.39283894      -0.01153526 </v>
   <v>      -0.01819258       0.19578172      -0.00695501 </v>
   <v>       0.08471357       0.32361342      -0.06296795 </v>
   <v>      -0.08215907      -0.05324713       0.02390154 </v>
   <v>       0.05100526       0.10597500       0.03359042 </v>
   <v>      -0.05319097      -0.24142152       0.08751445 </v>
   <v>      -0.20099324      -0.08020122      -0.01024860 </v>
   <v>       0.30912047       0.13226977      -0.02475726 </v>
   <v>       0.02260456      -0.11597036       0.00989026 </v>
   <v>      -0.15136641      -0.09404853      -0.08417109 </v>
   <v>      -0.11588392      -0.09672281      -0.10761440 </v>
   <v>      -0.06037389      -0.05247822       0.14996919 </v>
   <v>      -0.09645854      -0.14894874      -0.01763855 </v>
   <v>      -0.01900334      -0.14503804       0.02640313 </v>
   <v>      -0.06675590       0.05707095       0.07057695 </v>
   <v>       0.16086229       0.07944390      -0.13275873 </v>
   <v>       0.05689426       0.14035416       0.09861237 </v>
   <v>      -0.12628394       0.10985271      -0.08657999 </v>
   <v>       0.11317983       0.06182153       0.12362142 </v>
   <v>       0.10999027       0.07187130      -0.09552601 </v>
   <v>       0.08030858       0.01233185       0.01311340 </v>
   <v>       0.05035277       0.11610248       0.16540615 </v>
   <v>      -0.06473265       0.05997086      -0.14614235 </v>
   <v>       0.03336150       0.05123561       0.08118655 </v>
   <v>       0.06191877      -0.05338580      -0.33346617 </v>
   <v>       0.08976620       0.04154748       0.23278376 </v>
  </varray>
  <varray name="stress" >
   <v>      -0.20446081       0.25638559       0.10932708 </v>
   <v>       0.25638564       0.05141069       0.29302326 </v>
   <v>       0.10932716       0.29302317      -0.56255762 </v>
  </varray>
  <energy>
   <i name="e_fr_energy">   -191.34262456 </i>
   <i name="e_wo_entrp">   -191.24938837 </i>
   <i name="e_0_energy">     -0.18647239 </i>
  </energy>
  <time name="totalsc">  381.92  382.93</time>
 </calculation>
 <calculation>
  <scstep>
   <time name="dav">   21.62   21.68</time>
   <time name="total">   22.13   22.19</time>
   <energy>
    <i name="alphaZ">     90.38169166 </i>
    <i name="ewald">  44734.46681958 </i>
    <i name="hartreedc"> -50746.04480717 </i>
    <i name="XCdc">   -233.37744139 </i>
    <i name="pawpsdc">   4084.32936602 </i>
    <i name="pawaedc">  -3500.25973809 </i>
    <i name="eentropy">     -0.18918080 </i>
    <i name="bandstr">  -1382.14462571 </i>
    <i name="atom">   6761.44252427 </i>
    <i name="e_fr_energy">   -191.39539163 </i>
    <i name="e_wo_entrp">   -191.20621083 </i>
    <i name="e_0_energy">   -191.30080123 </i>
   </energy>
  </scstep>
  <scstep>
   <time name="dav">   30.35   30.43</time>
   <time name="total">   30.86   30.94</time>
   <energy>
    <i name="e_fr_energy">   -191.45453684 </i>
    <i name="e_wo_entrp">   -191.25299184 </i>
    <i name="e_0_energy">   -191.35376434 </i>
   </energy>
  </scstep>
  <scstep>
   <time name="dav">   29.52   29.59</time>
   <time name="total">   30.02   30.10</time>
   <energy>
    <i name="e_fr_energy">   -191.40643415 </i>
    <i name="e_wo_entrp">   -191.21676438 </i>
    <i name="e_0_energy">   -191.31159927 </i>
   </energy>
  </scstep>
  <scstep>
   <time name="dav">   28.30   28.37</time>
   <time name="total">   28.81   28.89</time>
   <energy>
    <i name="e_fr_energy">   -191.40670258 </i>
    <i name="e_wo_entrp">   -191.21560655 </i>
    <i name="e_0_energy">   -191.31115457 </i>
   </energy>
  </scstep>
  <scstep>
   <time name="dav">   28.37   28.44</time>
   <time name="total">   28.87   28.95</time>
   <energy>
    <i name="e_fr_energy">   -191.40288813 </i>
    <i name="e_wo_entrp">   -191.21192718 </i>
    <i name="e_0_energy">   -191.30740765 </i>
   </energy>
  </scstep>
  <scstep>
   <time name="dav">   28.10   28.17</time>
   <time name="total">   28.60   28.68</time>
   <energy>
    <i name="e_fr_energy">   -191.40290350 </i>
    <i name="e_wo_entrp">   -191.21159079 </i>
    <i name="e_0_energy">   -191.30724715 </i>
   </energy>
  </scstep>
  <scstep>
   <time name="dav">   28.94   29.01</time>
   <time name="total">   29.44   29.52</time>
   <energy>
    <i name="e_fr_energy">   -191.40292628 </i>
    <i name="e_wo_entrp">   -191.21184742 </i>
    <i name="e_0_energy">   -191.30738685 </i>
   </energy>
  </scstep>
  <scstep>
   <time name="dav">   25.20   25.26</time>
   <time name="total">   25.70   25.77</time>
   <energy>
    <i name="e_fr_energy">   -191.40236625 </i>
    <i name="e_wo_entrp">   -191.21120663 </i>
    <i name="e_0_energy">   -191.30678644 </i>
   </energy>
  </scstep>
  <scstep>
   <time name="dav">   17.54   17.59</time>
   <time name="total">   17.58   17.63</time>
   <energy>
    <i name="alphaZ">     90.38169166 </i>
    <i name="ewald">  44734.46681958 </i>
    <i name="hartreedc"> -50746.39881684 </i>
    <i name="XCdc">   -233.38251372 </i>
    <i name="pawpsdc">   4082.54135289 </i>
    <i name="pawaedc">  -3498.44014232 </i>
    <i name="eentropy">     -0.19115055 </i>
    <i name="bandstr">  -1381.82214384 </i>
    <i name="atom">   6761.44252427 </i>
    <i name="e_fr_energy">   -191.40237886 </i>
    <i name="e_wo_entrp">   -191.21122830 </i>
    <i name="e_0_energy">   -191.30680358 </i>
   </energy>
  </scstep>
  <structure>
   <crystal>
    <varray name="basis" >
     <v>       8.26854373       4.78834889       0.00000000 </v>
     <v>      -8.25653396       4.76757563       0.00000000 </v>
     <v>       0.00000000       0.00000000      30.00000000 </v>
    </varray>
    <i name="volume">   2368.68218561 </i>
    <varray name="rec_basis" >
     <v>       0.06038263       0.10457123       0.00000000 </v>
     <v>      -0.06064573       0.10472334       0.00000000 </v>
     <v>       0.00000000       0.00000000       0.03333333 </v>
    </varray>
   </crystal>
   <varray name="positions" >
    <v>       0.32872966      -0.00378598       0.00006302 </v>
    <v>       0.32259852       0.65710362       0.00002861 </v>
    <v>       0.67677993       0.34416961       0.00001890 </v>
    <v>       0.68224858       0.67619984       0.00001116 </v>
    <v>      -0.00981780       0.66113632      -0.00002500 </v>
    <v>       1.00237093       0.33699439      -0.00011390 </v>
    <v>      -0.01520641      -0.01075003       0.00012722 </v>
    <v>       0.33019586       0.33908926      -0.00037692 </v>
    <v>       0.68012613      -0.00110509       0.00035594 </v>
    <v>       0.11044798       0.22019565       0.94777996 </v>
    <v>       0.22314981       0.10852108       0.05023164 </v>
    <v>       0.11695922       0.55955782       0.94810280 </v>
    <v>       0.22546074       0.45115794       0.05272088 </v>
    <v>       0.11523567       0.89132397       0.94878043 </v>
    <v>       0.22663768       0.77916073       0.04998827 </v>
    <v>       0.44749163       0.22063953       0.95117233 </v>
    <v>       0.55467477       0.11378404       0.04823194 </v>
    <v>       0.44255887       0.55964722       0.94905598 </v>
    <v>       0.55791499       0.44157229       0.05067131 </v>
    <v>       0.44071473       0.88617000       0.95132115 </v>
    <v>       0.55026744       0.77526520       0.05061744 </v>
    <v>       0.77365413       0.22403916       0.94867314 </v>
    <v>       0.89047835       0.11146289       0.05386947 </v>
    <v>       0.77422590       0.54867782       0.94669080 </v>
    <v>       0.88195482       0.44089747       0.05257463 </v>
    <v>       0.77773032       0.88868303       0.94482137 </v>
    <v>       0.89063200       0.77840667       0.05460733 </v>
   </varray>
  </structure>
  <varray name="forces" >
   <v>      -0.01173589      -0.08537791      -0.02441556 </v>
   <v>      -0.17965519      -0.38698497      -0.02095484 </v>
   <v>      -0.02646133       0.19637637       0.00271873 </v>
   <v>       0.12093738       0.34397701      -0.01599542 </v>
   <v>      -0.07295130      -0.04974824       0.01477312 </v>
   <v>       0.05322707       0.11377583       0.01648428 </v>
   <v>      -0.06064129      -0.26139966       0.02666844 </v>
   <v>      -0.21305110      -0.10139096      -0.03154170 </v>
   <v>       0.32535228       0.16344996      -0.01047129 </v>
   <v>       0.02184735      -0.08357998       0.03174598 </v>
   <v>      -0.09559248      -0.05892191      -0.05411954 </v>
   <v>      -0.07619097      -0.07470588      -0.08520479 </v>
   <v>      -0.04886641      -0.03677564       0.13285665 </v>
   <v>      -0.06634199      -0.08680163       0.00975493 </v>
   <v>      -0.00796299      -0.09336658       0.02579786 </v>
   <v>      -0.05058515       0.03924477       0.10985087 </v>
   <v>       0.11310656       0.05486536      -0.15740460 </v>
   <v>       0.01513127       0.09185424       0.13127595 </v>
   <v>      -0.09728098       0.06767967      -0.12393125 </v>
   <v>       0.08101709       0.03101502       0.14497235 </v>
   <v>       0.07272351       0.02692307      -0.13963442 </v>
   <v>       0.05538364       0.02138244       0.02816357 </v>
   <v>       0.03053901       0.07377247       0.10130879 </v>
   <v>      -0.02593904       0.04934201      -0.10398118 </v>
   <v>       0.02013722       0.02125808       0.04365566 </v>
   <v>       0.05933872       0.00404887      -0.21195155 </v>
   <v>       0.06451501       0.02008817       0.15957896 </v>
  </varray>
  <varray name="stress" >
   <v>       0.00066709       0.01913356       0.03987041 </v>
   <v>       0.01913363       0.07195473       0.09026759 </v>
   <v>       0.03987033       0.09026782      -1.25738435 </v>
  </varray>
  <energy>
   <i name="e_fr_energy">   -191.40237886 </i>
   <i name="e_wo_entrp">   -191.30680358 </i>
   <i name="e_0_energy">     -0.19115055 </i>
  </energy>
  <time name="totalsc">  284.03  284.79</time>
 </calculation>
 <calculation>
  <scstep>
   <time name="dav">   21.74   21.79</time>
   <time name="total">   22.25   22.30</time>
   <energy>
    <i name="alphaZ">     90.35626692 </i>
    <i name="ewald">  44722.82683598 </i>
    <i name="hartreedc"> -50734.38005674 </i>
    <i name="XCdc">   -233.40410172 </i>
    <i name="pawpsdc">   4082.53292482 </i>
    <i name="pawaedc">  -3498.43120800 </i>
    <i name="eentropy">     -0.19126914 </i>
    <i name="bandstr">  -1382.21784010 </i>
    <i name="atom">   6761.44252427 </i>
    <i name="e_fr_energy">   -191.46592370 </i>
    <i name="e_wo_entrp">   -191.27465455 </i>
    <i name="e_0_energy">   -191.37028912 </i>
   </energy>
  </scstep>
  <scstep>
   <time name="dav">   31.89   31.97</time>
   <time name="total">   32.39   32.48</time>
   <energy>
    <i name="e_fr_energy">   -191.57557984 </i>
    <i name="e_wo_entrp">   -191.35764580 </i>
    <i name="e_0_energy">   -191.46661282 </i>
   </energy>
  </scstep>
  <scstep>
   <time name="dav">   29.71   29.78</time>
   <time name="total">   30.21   30.29</time>
   <energy>
    <i name="e_fr_energy">   -191.47980450 </i>
    <i name="e_wo_entrp">   -191.28713257 </i>
    <i name="e_0_energy">   -191.38346854 </i>
   </energy>
  </scstep>
  <scstep>
   <time name="dav">   28.77   28.84</time>
   <time name="total">   29.28   29.35</time>
   <energy>
    <i name="e_fr_energy">   -191.47901818 </i>
    <i name="e_wo_entrp">   -191.28440018 </i>
    <i name="e_0_energy">   -191.38170918 </i>
   </energy>
  </scstep>
  <scstep>
   <time name="dav">   28.99   29.06</time>
   <time name="total">   29.49   29.57</time>
   <energy>
    <i name="e_fr_energy">   -191.47309836 </i>
    <i name="e_wo_entrp">   -191.27831813 </i>
    <i name="e_0_energy">   -191.37570825 </i>
   </energy>
  </scstep>
  <scstep>
   <time name="dav">   28.37   28.44</time>
   <time name="total">   28.87   28.95</time>
   <energy>
    <i name="e_fr_energy">   -191.47334047 </i>
    <i name="e_wo_entrp">   -191.27795492 </i>
    <i name="e_0_energy">   -191.37564769 </i>
   </energy>
  </scstep>
  <scstep>
   <time name="dav">   28.33   28.39</time>
   <time name="total">   28.83   28.91</time>
   <energy>
    <i name="e_fr_energy">   -191.47263618 </i>
    <i name="e_wo_entrp">   -191.27750205 </i>
    <i name="e_0_energy">   -191.37506911 </i>
   </energy>
  </scstep>
  <scstep>
[...]
      <set comment="kpoint 31">
       <r>  -17.5282    1.0000 </r>
       <r>  -17.2190    1.0000 </r>
       <r>  -16.9267    1.0000 </r>
       <r>  -16.6372    1.0000 </r>
       <r>  -16.5151    1.0000 </r>
       <r>  -16.4069    1.0000 </r>
       <r>  -16.2815    1.0000 </r>
       <r>  -16.1902    1.0000 </r>
       <r>  -16.1013    1.0000 </r>
       <r>  -16.0380    1.0000 </r>
       <r>  -15.8902    1.0000 </r>
       <r>  -15.7638    1.0000 </r>
       <r>  -15.7390    1.0000 </r>
       <r>  -15.6878    1.0000 </r>
       <r>  -15.6124    1.0000 </r>
       <r>  -15.5458    1.0000 </r>
       <r>  -15.4937    1.0000 </r>
       <r>  -15.3709    1.0000 </r>
       <r>   -9.7337    1.0000 </r>
       <r>   -9.4618    1.0000 </r>
       <r>   -9.3211    1.0000 </r>
       <r>   -9.0385    1.0000 </r>
       <r>   -8.8002    1.0000 </r>
       <r>   -8.7461    1.0000 </r>
       <r>   -8.6261    1.0000 </r>
       <r>   -8.4939    1.0000 </r>
       <r>   -8.3856    1.0000 </r>
       <r>   -8.2827    1.0000 </r>
       <r>   -8.2212    1.0000 </r>
       <r>   -8.1656    1.0000 </r>
       <r>   -8.1115    1.0000 </r>
       <r>   -8.0685    1.0000 </r>
       <r>   -7.9676    1.0000 </r>
       <r>   -7.8987    1.0000 </r>
       <r>   -7.7935    1.0000 </r>
       <r>   -7.6901    1.0000 </r>
       <r>   -7.5903    1.0000 </r>
       <r>   -7.4348    1.0000 </r>
       <r>   -7.4016    1.0000 </r>
       <r>   -7.2946    1.0000 </r>
       <r>   -7.2104    1.0000 </r>
       <r>   -7.1022    1.0000 </r>
       <r>   -6.9249    1.0000 </r>
       <r>   -6.9093    1.0000 </r>
       <r>   -6.7860    1.0000 </r>
       <r>   -6.7129    1.0000 </r>
       <r>   -6.6698    1.0000 </r>
       <r>   -6.6191    1.0000 </r>
       <r>   -6.5742    1.0000 </r>
       <r>   -6.4790    1.0000 </r>
       <r>   -6.4468    1.0000 </r>
       <r>   -6.3523    1.0000 </r>
       <r>   -6.2538    1.0000 </r>
       <r>   -6.1650    1.0000 </r>
       <r>   -6.1210    1.0000 </r>
       <r>   -6.0616    1.0000 </r>
       <r>   -5.9526    1.0000 </r>
       <r>   -5.8594    1.0000 </r>
       <r>   -5.7943    1.0000 </r>
       <r>   -5.7641    1.0000 </r>
       <r>   -5.7301    1.0000 </r>
       <r>   -5.6826    1.0000 </r>
       <r>   -5.5746    1.0000 </r>
       <r>   -5.3968    1.0000 </r>
       <r>   -5.3198    1.0000 </r>
       <r>   -5.1457    1.0000 </r>
       <r>   -5.0660    1.0000 </r>
       <r>   -4.9178    1.0000 </r>
       <r>   -4.8240    1.0000 </r>
       <r>   -4.6754    1.0000 </r>
       <r>   -4.6441    1.0000 </r>
       <r>   -4.4378    1.0000 </r>
       <r>   -4.4326    1.0000 </r>
       <r>   -4.3305    1.0000 </r>
       <r>   -4.0759    1.0000 </r>
       <r>   -4.0326    1.0000 </r>
       <r>   -3.8800    0.9998 </r>
       <r>   -3.7624    0.9964 </r>
       <r>   -3.5725    0.9108 </r>
       <r>   -3.3929    0.5302 </r>
       <r>   -2.9243    0.0006 </r>
       <r>   -2.8841    0.0002 </r>
       <r>   -2.7516    0.0000 </r>
       <r>   -2.6732    0.0000 </r>
       <r>   -2.5311    0.0000 </r>
       <r>   -2.4363    0.0000 </r>
       <r>   -2.3184    0.0000 </r>
       <r>   -2.1886    0.0000 </r>
       <r>   -2.1320    0.0000 </r>
       <r>   -1.9624    0.0000 </r>
       <r>   -1.7901    0.0000 </r>
       <r>   -1.5465    0.0000 </r>
       <r>   -1.4118    0.0000 </r>
       <r>   -1.3008    0.0000 </r>
       <r>   -1.2825    0.0000 </r>
       <r>   -1.2217    0.0000 </r>
       <r>   -1.0150    0.0000 </r>
       <r>   -1.0006    0.0000 </r>
       <r>   -0.9199    0.0000 </r>
       <r>   -0.8572    0.0000 </r>
       <r>   -0.7883    0.0000 </r>
       <r>   -0.7011    0.0000 </r>
       <r>   -0.6028    0.0000 </r>
       <r>   -0.5842    0.0000 </r>
       <r>   -0.4767    0.0000 </r>
       <r>   -0.4401    0.0000 </r>
       <r>   -0.2780    0.0000 </r>
       <r>   -0.1589    0.0000 </r>
       <r>   -0.0404    0.0000 </r>
       <r>    0.1452    0.0000 </r>
       <r>    0.2690    0.0000 </r>
       <r>    0.5144    0.0000 </r>
       <r>    0.6612    0.0000 </r>
       <r>    0.8975    0.0000 </r>
       <r>    1.1436    0.0000 </r>
       <r>    1.2114    0.0000 </r>
       <r>    1.3715    0.0000 </r>
       <r>    2.1299    0.0000 </r>
       <r>    2.2774    0.0000 </r>
       <r>    2.3779    0.0000 </r>
      </set>
      <set comment="kpoint 32">
       <r>  -17.5408    1.0000 </r>
       <r>  -17.1109    1.0000 </r>
       <r>  -17.0724    1.0000 </r>
       <r>  -16.6376    1.0000 </r>
       <r>  -16.4407    1.0000 </r>
       <r>  -16.3471    1.0000 </r>
       <r>  -16.3004    1.0000 </r>
       <r>  -16.1826    1.0000 </r>
       <r>  -16.1328    1.0000 </r>
       <r>  -16.0616    1.0000 </r>
       <r>  -15.9187    1.0000 </r>
       <r>  -15.7796    1.0000 </r>
       <r>  -15.7412    1.0000 </r>
       <r>  -15.6896    1.0000 </r>
       <r>  -15.6101    1.0000 </r>
       <r>  -15.5252    1.0000 </r>
       <r>  -15.4878    1.0000 </r>
       <r>  -15.3702    1.0000 </r>
       <r>   -9.6644    1.0000 </r>
       <r>   -9.5639    1.0000 </r>
       <r>   -9.3647    1.0000 </r>
       <r>   -9.0231    1.0000 </r>
       <r>   -8.7178    1.0000 </r>
       <r>   -8.6436    1.0000 </r>
       <r>   -8.5445    1.0000 </r>
       <r>   -8.4365    1.0000 </r>
       <r>   -8.3844    1.0000 </r>
       <r>   -8.3112    1.0000 </r>
       <r>   -8.2890    1.0000 </r>
       <r>   -8.2231    1.0000 </r>
       <r>   -8.1532    1.0000 </r>
       <r>   -8.1092    1.0000 </r>
       <r>   -8.0489    1.0000 </r>
       <r>   -7.9597    1.0000 </r>
       <r>   -7.8094    1.0000 </r>
       <r>   -7.6479    1.0000 </r>
       <r>   -7.5097    1.0000 </r>
       <r>   -7.4174    1.0000 </r>
       <r>   -7.3858    1.0000 </r>
       <r>   -7.2786    1.0000 </r>
       <r>   -7.1939    1.0000 </r>
       <r>   -7.0858    1.0000 </r>
       <r>   -6.9920    1.0000 </r>
       <r>   -6.8800    1.0000 </r>
       <r>   -6.8022    1.0000 </r>
       <r>   -6.7467    1.0000 </r>
       <r>   -6.7190    1.0000 </r>
       <r>   -6.6289    1.0000 </r>
       <r>   -6.5363    1.0000 </r>
       <r>   -6.4962    1.0000 </r>
       <r>   -6.4568    1.0000 </r>
       <r>   -6.3722    1.0000 </r>
       <r>   -6.3269    1.0000 </r>
       <r>   -6.1793    1.0000 </r>
       <r>   -6.1079    1.0000 </r>
       <r>   -6.0195    1.0000 </r>
       <r>   -5.9582    1.0000 </r>
       <r>   -5.8525    1.0000 </r>
       <r>   -5.8065    1.0000 </r>
       <r>   -5.7584    1.0000 </r>
       <r>   -5.6749    1.0000 </r>
       <r>   -5.6098    1.0000 </r>
       <r>   -5.5269    1.0000 </r>
       <r>   -5.4147    1.0000 </r>
       <r>   -5.2689    1.0000 </r>
       <r>   -5.1111    1.0000 </r>
       <r>   -5.0310    1.0000 </r>
       <r>   -4.9619    1.0000 </r>
       <r>   -4.8934    1.0000 </r>
       <r>   -4.7358    1.0000 </r>
       <r>   -4.6858    1.0000 </r>
       <r>   -4.4590    1.0000 </r>
       <r>   -4.3955    1.0000 </r>
       <r>   -4.3142    1.0000 </r>
       <r>   -4.0560    1.0000 </r>
       <r>   -4.0078    1.0000 </r>
       <r>   -3.8871    0.9998 </r>
       <r>   -3.7800    0.9975 </r>
       <r>   -3.5547    0.8887 </r>
       <r>   -3.3993    0.5483 </r>
       <r>   -2.9594    0.0014 </r>
       <r>   -2.8284    0.0000 </r>
       <r>   -2.7412    0.0000 </r>
       <r>   -2.6408    0.0000 </r>
       <r>   -2.5075    0.0000 </r>
       <r>   -2.4417    0.0000 </r>
       <r>   -2.3419    0.0000 </r>
       <r>   -2.1882    0.0000 </r>
       <r>   -2.1522    0.0000 </r>
       <r>   -1.9974    0.0000 </r>
       <r>   -1.8230    0.0000 </r>
       <r>   -1.5416    0.0000 </r>
       <r>   -1.3670    0.0000 </r>
       <r>   -1.2936    0.0000 </r>
       <r>   -1.2749    0.0000 </r>
       <r>   -1.1951    0.0000 </r>
       <r>   -1.0325    0.0000 </r>
       <r>   -1.0175    0.0000 </r>
       <r>   -0.9343    0.0000 </r>
       <r>   -0.8907    0.0000 </r>
       <r>   -0.7879    0.0000 </r>
       <r>   -0.7298    0.0000 </r>
       <r>   -0.6382    0.0000 </r>
       <r>   -0.5770    0.0000 </r>
       <r>   -0.4848    0.0000 </r>
       <r>   -0.4051    0.0000 </r>
       <r>   -0.1972    0.0000 </r>
       <r>   -0.1721    0.0000 </r>
       <r>   -0.0781    0.0000 </r>
       <r>    0.0639    0.0000 </r>
       <r>    0.2715    0.0000 </r>
       <r>    0.5093    0.0000 </r>
       <r>    0.6587    0.0000 </r>
       <r>    0.9366    0.0000 </r>
       <r>    1.1251    0.0000 </r>
       <r>    1.2136    0.0000 </r>
       <r>    1.4217    0.0000 </r>
       <r>    2.0969    0.0000 </r>
       <r>    2.2472    0.0000 </r>
       <r>    2.5552    0.0000 </r>
      </set>
      <set comment="kpoint 33">
       <r>  -17.5333    1.0000 </r>
       <r>  -17.2239    1.0000 </r>
       <r>  -16.9133    1.0000 </r>
       <r>  -16.6383    1.0000 </r>
       <r>  -16.5152    1.0000 </r>
       <r>  -16.3967    1.0000 </r>
       <r>  -16.2664    1.0000 </r>
       <r>  -16.2205    1.0000 </r>
       <r>  -16.0630    1.0000 </r>
       <r>  -16.0158    1.0000 </r>
       <r>  -15.9159    1.0000 </r>
       <r>  -15.8122    1.0000 </r>
       <r>  -15.7467    1.0000 </r>
       <r>  -15.6806    1.0000 </r>
       <r>  -15.6305    1.0000 </r>
       <r>  -15.5132    1.0000 </r>
       <r>  -15.4977    1.0000 </r>
       <r>  -15.3685    1.0000 </r>
       <r>   -9.7356    1.0000 </r>
       <r>   -9.4573    1.0000 </r>
       <r>   -9.3004    1.0000 </r>
       <r>   -9.0114    1.0000 </r>
       <r>   -8.7932    1.0000 </r>
       <r>   -8.7458    1.0000 </r>
       <r>   -8.5493    1.0000 </r>
       <r>   -8.4392    1.0000 </r>
       <r>   -8.4167    1.0000 </r>
       <r>   -8.3046    1.0000 </r>
       <r>   -8.2428    1.0000 </r>
       <r>   -8.2207    1.0000 </r>
       <r>   -8.1558    1.0000 </r>
       <r>   -8.1391    1.0000 </r>
       <r>   -8.0180    1.0000 </r>
       <r>   -7.8750    1.0000 </r>
       <r>   -7.8322    1.0000 </r>
       <r>   -7.6018    1.0000 </r>
       <r>   -7.5492    1.0000 </r>
       <r>   -7.4486    1.0000 </r>
       <r>   -7.3447    1.0000 </r>
       <r>   -7.1889    1.0000 </r>
       <r>   -7.1144    1.0000 </r>
       <r>   -7.0853    1.0000 </r>
       <r>   -7.0600    1.0000 </r>
       <r>   -6.9175    1.0000 </r>
       <r>   -6.8308    1.0000 </r>
       <r>   -6.7698    1.0000 </r>
       <r>   -6.7095    1.0000 </r>
       <r>   -6.6435    1.0000 </r>
       <r>   -6.5592    1.0000 </r>
       <r>   -6.5157    1.0000 </r>
       <r>   -6.4769    1.0000 </r>
       <r>   -6.3853    1.0000 </r>
       <r>   -6.3153    1.0000 </r>
       <r>   -6.2307    1.0000 </r>
       <r>   -6.0954    1.0000 </r>
       <r>   -6.0153    1.0000 </r>
       <r>   -5.9647    1.0000 </r>
       <r>   -5.8586    1.0000 </r>
       <r>   -5.8190    1.0000 </r>
       <r>   -5.7515    1.0000 </r>
       <r>   -5.6922    1.0000 </r>
       <r>   -5.6423    1.0000 </r>
       <r>   -5.5003    1.0000 </r>
       <r>   -5.4186    1.0000 </r>
       <r>   -5.2675    1.0000 </r>
       <r>   -5.1212    1.0000 </r>
       <r>   -5.0522    1.0000 </r>
       <r>   -4.8514    1.0000 </r>
       <r>   -4.8061    1.0000 </r>
       <r>   -4.7371    1.0000 </r>
       <r>   -4.6210    1.0000 </r>
       <r>   -4.4911    1.0000 </r>
       <r>   -4.4278    1.0000 </r>
       <r>   -4.3206    1.0000 </r>
       <r>   -4.0400    1.0000 </r>
       <r>   -3.9979    1.0000 </r>
       <r>   -3.9248    0.9999 </r>
       <r>   -3.8080    0.9987 </r>
       <r>   -3.5428    0.8720 </r>
       <r>   -3.4124    0.5846 </r>
       <r>   -2.9982    0.0033 </r>
       <r>   -2.7964    0.0000 </r>
       <r>   -2.7001    0.0000 </r>
       <r>   -2.6225    0.0000 </r>
       <r>   -2.4914    0.0000 </r>
       <r>   -2.4541    0.0000 </r>
       <r>   -2.3708    0.0000 </r>
       <r>   -2.1902    0.0000 </r>
       <r>   -2.1302    0.0000 </r>
       <r>   -2.0197    0.0000 </r>
       <r>   -1.8340    0.0000 </r>
       <r>   -1.5370    0.0000 </r>
       <r>   -1.3309    0.0000 </r>
       <r>   -1.2677    0.0000 </r>
       <r>   -1.2500    0.0000 </r>
       <r>   -1.1750    0.0000 </r>
       <r>   -1.0830    0.0000 </r>
       <r>   -1.0376    0.0000 </r>
       <r>   -0.9859    0.0000 </r>
       <r>   -0.8771    0.0000 </r>
       <r>   -0.8255    0.0000 </r>
       <r>   -0.7643    0.0000 </r>
       <r>   -0.6587    0.0000 </r>
       <r>   -0.5605    0.0000 </r>
       <r>   -0.4943    0.0000 </r>
       <r>   -0.3691    0.0000 </r>
       <r>   -0.2610    0.0000 </r>
       <r>   -0.1682    0.0000 </r>
       <r>   -0.0844    0.0000 </r>
       <r>    0.0228    0.0000 </r>
       <r>    0.2672    0.0000 </r>
       <r>    0.5417    0.0000 </r>
       <r>    0.6605    0.0000 </r>
       <r>    0.9676    0.0000 </r>
       <r>    1.1229    0.0000 </r>
       <r>    1.2481    0.0000 </r>
       <r>    1.4728    0.0000 </r>
       <r>    2.1240    0.0000 </r>
       <r>    2.2814    0.0000 </r>
       <r>    2.3733    0.0000 </r>
      </set>
      <set comment="kpoint 34">
       <r>  -17.5228    1.0000 </r>
       <r>  -17.2749    1.0000 </r>
       <r>  -16.7547    1.0000 </r>
       <r>  -16.6699    1.0000 </r>
       <r>  -16.6347    1.0000 </r>
       <r>  -16.4042    1.0000 </r>
       <r>  -16.2721    1.0000 </r>
       <r>  -16.2177    1.0000 </r>
       <r>  -16.0471    1.0000 </r>
       <r>  -15.9662    1.0000 </r>
       <r>  -15.8849    1.0000 </r>
       <r>  -15.8371    1.0000 </r>
       <r>  -15.7621    1.0000 </r>
       <r>  -15.6851    1.0000 </r>
       <r>  -15.6318    1.0000 </r>
       <r>  -15.5169    1.0000 </r>
       <r>  -15.5032    1.0000 </r>
       <r>  -15.3674    1.0000 </r>
       <r>   -9.7714    1.0000 </r>
       <r>   -9.3920    1.0000 </r>
       <r>   -9.1900    1.0000 </r>
       <r>   -8.9868    1.0000 </r>
       <r>   -8.9427    1.0000 </r>
       <r>   -8.8409    1.0000 </r>
       <r>   -8.5767    1.0000 </r>
       <r>   -8.4504    1.0000 </r>
       <r>   -8.4119    1.0000 </r>
       <r>   -8.3084    1.0000 </r>
       <r>   -8.2088    1.0000 </r>
       <r>   -8.1936    1.0000 </r>
       <r>   -8.1520    1.0000 </r>
       <r>   -8.1002    1.0000 </r>
       <r>   -8.0382    1.0000 </r>
       <r>   -7.8716    1.0000 </r>
       <r>   -7.7555    1.0000 </r>
       <r>   -7.6196    1.0000 </r>
       <r>   -7.5179    1.0000 </r>
       <r>   -7.4238    1.0000 </r>
       <r>   -7.3628    1.0000 </r>
       <r>   -7.2353    1.0000 </r>
       <r>   -7.1342    1.0000 </r>
       <r>   -7.0661    1.0000 </r>
       <r>   -7.0299    1.0000 </r>
       <r>   -6.8964    1.0000 </r>
       <r>   -6.8357    1.0000 </r>
       <r>   -6.7557    1.0000 </r>
       <r>   -6.7105    1.0000 </r>
       <r>   -6.6555    1.0000 </r>
       <r>   -6.5898    1.0000 </r>
       <r>   -6.5461    1.0000 </r>
       <r>   -6.5024    1.0000 </r>
       <r>   -6.4021    1.0000 </r>
       <r>   -6.2614    1.0000 </r>
       <r>   -6.1967    1.0000 </r>
       <r>   -6.1165    1.0000 </r>
       <r>   -6.0768    1.0000 </r>
       <r>   -6.0056    1.0000 </r>
       <r>   -5.8393    1.0000 </r>
       <r>   -5.7653    1.0000 </r>
       <r>   -5.7594    1.0000 </r>
       <r>   -5.7293    1.0000 </r>
       <r>   -5.6344    1.0000 </r>
       <r>   -5.5109    1.0000 </r>
       <r>   -5.4942    1.0000 </r>
       <r>   -5.3002    1.0000 </r>
       <r>   -5.0419    1.0000 </r>
       <r>   -5.0144    1.0000 </r>
       <r>   -4.8571    1.0000 </r>
       <r>   -4.7862    1.0000 </r>
       <r>   -4.6684    1.0000 </r>
       <r>   -4.5797    1.0000 </r>
       <r>   -4.4860    1.0000 </r>
       <r>   -4.4034    1.0000 </r>
       <r>   -4.3859    1.0000 </r>
       <r>   -4.0456    1.0000 </r>
       <r>   -4.0037    1.0000 </r>
       <r>   -3.9420    1.0000 </r>
       <r>   -3.8218    0.9991 </r>
       <r>   -3.5402    0.8681 </r>
       <r>   -3.4191    0.6030 </r>
       <r>   -3.0139    0.0046 </r>
       <r>   -2.7930    0.0000 </r>
       <r>   -2.6766    0.0000 </r>
       <r>   -2.6098    0.0000 </r>
       <r>   -2.4982    0.0000 </r>
       <r>   -2.4591    0.0000 </r>
       <r>   -2.3766    0.0000 </r>
       <r>   -2.1889    0.0000 </r>
       <r>   -2.1253    0.0000 </r>
       <r>   -2.0147    0.0000 </r>
       <r>   -1.8316    0.0000 </r>
       <r>   -1.5332    0.0000 </r>
       <r>   -1.3265    0.0000 </r>
       <r>   -1.2459    0.0000 </r>
       <r>   -1.2323    0.0000 </r>
       <r>   -1.1741    0.0000 </r>
       <r>   -1.1006    0.0000 </r>
       <r>   -1.0413    0.0000 </r>
       <r>   -1.0145    0.0000 </r>
       <r>   -0.8748    0.0000 </r>
       <r>   -0.8414    0.0000 </r>
       <r>   -0.8009    0.0000 </r>
       <r>   -0.6549    0.0000 </r>
       <r>   -0.5560    0.0000 </r>
       <r>   -0.5009    0.0000 </r>
       <r>   -0.3601    0.0000 </r>
       <r>   -0.2834    0.0000 </r>
       <r>   -0.1900    0.0000 </r>
       <r>   -0.0990    0.0000 </r>
       <r>    0.0439    0.0000 </r>
       <r>    0.2544    0.0000 </r>
       <r>    0.5599    0.0000 </r>
       <r>    0.6682    0.0000 </r>
       <r>    0.9743    0.0000 </r>
       <r>    1.1318    0.0000 </r>
       <r>    1.2691    0.0000 </r>
       <r>    1.4957    0.0000 </r>
       <r>    2.2009    0.0000 </r>
       <r>    2.2306    0.0000 </r>
       <r>    2.3600    0.0000 </r>
      </set>
     </set>
    </set>
   </array>
  </eigenvalues>
  <separator name="orbital magnetization" >
   <v name="MAGDIPOLOUT">      0.00000000      0.00000000      0.00000000</v>
  </separator>
 </calculation>
 <structure name="finalpos" >
  <crystal>
   <varray name="basis" >
    <v>       8.38048466       4.86136130       0.00000000 </v>
    <v>      -8.35321834       4.81439780       0.00000000 </v>
    <v>       0.00000000       0.00000000      30.00000000 </v>
   </varray>
   <i name="volume">   2428.64997705 </i>
   <varray name="rec_basis" >
    <v>       0.05947005       0.10318348       0.00000000 </v>
    <v>      -0.06005017       0.10352029       0.00000000 </v>
    <v>       0.00000000       0.00000000       0.03333333 </v>
   </varray>
  </crystal>
  <varray name="positions" >
   <v>       0.37817860       0.01697003      -0.00388395 </v>
   <v>       0.29019891       0.63962001       0.00206785 </v>
   <v>       0.69125618       0.35700577      -0.00047732 </v>
   <v>       0.70346111       0.68654589      -0.00233414 </v>
   <v>      -0.02570285       0.65312013       0.00137655 </v>
   <v>       1.00147009       0.32495221       0.00015122 </v>
   <v>      -0.02121080      -0.00292366       0.00070081 </v>
   <v>       0.29042413       0.31992916       0.00169877 </v>
   <v>       0.69599276       0.00556715      -0.00048384 </v>
   <v>       0.10032571       0.21423518       0.94474194 </v>
   <v>       0.22550552       0.10355100       0.04831371 </v>
   <v>       0.10365778       0.55238618       0.94850496 </v>
   <v>       0.21267518       0.44498779       0.05606623 </v>
   <v>       0.12452397       0.89602118       0.95655572 </v>
   <v>       0.22704489       0.78496819       0.04747945 </v>
   <v>       0.44713395       0.23192023       0.95313747 </v>
   <v>       0.56932109       0.12030891       0.04868619 </v>
   <v>       0.44006663       0.55654529       0.95638140 </v>
   <v>       0.55019473       0.44392920       0.04391349 </v>
   <v>       0.44593493       0.87618977       0.95211754 </v>
   <v>       0.54817140       0.77180441       0.04453086 </v>
   <v>       0.77218285       0.22257643       0.94833056 </v>
   <v>       0.89137602       0.11156276       0.05680905 </v>
   <v>       0.77689265       0.55207885       0.94407811 </v>
   <v>       0.88233122       0.44113887       0.05351197 </v>
   <v>       0.78227426       0.88995481       0.94235845 </v>
   <v>       0.89453352       0.78326870       0.05566684 </v>
  </varray>
 </structure>
</modeling>
