unknown system                          
           1
     8.855696    5.108045    0.000000
    -8.853172    5.103702    0.000000
     0.000000    0.000000   30.000000
   V    Mo   W    S 
   3   3   3  18
Direct configuration=     1
   0.33333334  0.00000000  0.00000000
   0.33333334  0.66666669  0.00000000
   0.66666669  0.33333334  0.00000000
   0.66666669  0.66666669  0.00000000
   0.00000000  0.66666669  0.00000000
   1.00000000  0.33333334  0.00000000
   0.00000000  0.00000000  0.00000000
   0.33333334  0.33333334  0.00000000
   0.66666669  0.00000000  0.00000000
   0.11068511  0.22244981  0.95539999
   0.22244981  0.11068511  0.04460000
   0.11068511  0.55578315  0.95539999
   0.22244981  0.44401845  0.04460000
   0.11068511  0.88911647  0.95539999
   0.22244981  0.77735180  0.04460000
   0.44401845  0.22244981  0.95539999
   0.55578315  0.11068511  0.04460000
   0.44401845  0.55578315  0.95539999
   0.55578315  0.44401845  0.04460000
   0.44401845  0.88911647  0.95539999
   0.55578315  0.77735180  0.04460000
   0.77735180  0.22244981  0.95539999
   0.88911647  0.11068511  0.04460000
   0.77735180  0.55578315  0.95539999
   0.88911647  0.44401845  0.04460000
   0.77735180  0.88911647  0.95539999
   0.88911647  0.77735180  0.04460000
unknown system                          
           1
     8.667668    5.001848    0.000000
    -8.665348    4.997859    0.000000
     0.000000    0.000000   30.000000
   V    Mo   W    S 
   3   3   3  18
Direct configuration=     2
   0.33259030 -0.00110905  0.00001579
   0.33208642  0.66587440  0.00019722
   0.66867290  0.33532446 -0.00016435
   0.66811082  0.66674035 -0.00016058
  -0.00118247  0.66519422  0.00002404
   0.99988636  0.33469078  0.00013515
  -0.00142881 -0.00167153 -0.00004516
   0.33383013  0.33485694 -0.00009508
   0.66732743 -0.00002377  0.00006297
   0.11143035  0.22156617  0.95083110
   0.22403116  0.10901076  0.04799528
   0.11548045  0.55772090  0.95193279
   0.22480657  0.44850202  0.04815901
   0.11501400  0.89148279  0.95194651
   0.22664742  0.77959408  0.04689180
   0.44615362  0.22045261  0.95305538
   0.55373047  0.11272249  0.04691392
   0.44154394  0.55688335  0.95201479
   0.55686279  0.44141797  0.04797351
   0.44085574  0.88727322  0.95313597
   0.55129341  0.77641396  0.04801832
   0.77466223  0.22364150  0.95198942
   0.88848799  0.11035108  0.04930336
   0.77533419  0.55085023  0.95186834
   0.88439180  0.44213848  0.04809756
   0.77818361  0.88954141  0.95064582
   0.88941164  0.77877463  0.04925701
unknown system                          
           1
     8.486632    4.900953    0.000000
    -8.485386    4.898821    0.000000
     0.000000    0.000000   30.000000
   V    Mo   W    S 
   3   3   3  18
Direct configuration=     3
   0.33233518 -0.00137397  0.00002328
   0.33160633  0.66544612  0.00022230
   0.66930888  0.33598258 -0.00018138
   0.66891332  0.66715827 -0.00014128
  -0.00178399  0.66477280  0.00002126
   0.99994848  0.33495005  0.00011171
  -0.00227177 -0.00229672 -0.00004783
   0.33377151  0.33528135 -0.00014246
   0.66805243 -0.00004102  0.00011867
   0.11153146  0.22146005  0.95088908
   0.22394182  0.10910932  0.04791412
   0.11563580  0.55783564  0.95190926
   0.22501631  0.44853973  0.04820944
   0.11499558  0.89164547  0.95197236
   0.22671219  0.77962909  0.04686968
   0.44607402  0.22057166  0.95317212
   0.55384277  0.11263646  0.04677509
   0.44139926  0.55671554  0.95202381
   0.55666320  0.44123617  0.04794450
   0.44103833  0.88732582  0.95322142
   0.55131079  0.77658667  0.04796042
   0.77447177  0.22344651  0.95199256
   0.88840725  0.11012616  0.04931836
   0.77524452  0.55066469  0.95175495
   0.88422393  0.44204675  0.04818638
   0.77828043  0.88976587  0.95056541
   0.88954468  0.77899339  0.04933668
unknown system                          
           1
     8.271707    4.782956    0.000000
    -8.266385    4.773763    0.000000
     0.000000    0.000000   30.000000
   V    Mo   W    S 
   3   3   3  18
Direct configuration=     4
   0.33123371 -0.00213464  0.00004132
   0.32967115  0.66334139  0.00022694
   0.67165989  0.33849928 -0.00016870
   0.67237815  0.66933580 -0.00002291
  -0.00431986  0.66340395 -0.00000417
   1.00040016  0.33550917 -0.00001154
  -0.00589710 -0.00458192 -0.00004561
   0.33301986  0.33657887 -0.00026135
   0.67152530 -0.00018614  0.00027499
   0.11150544  0.22134859  0.94953803
   0.22430970  0.10884659  0.04902549
   0.11694019  0.55870692  0.95041097
   0.22570484  0.44977127  0.04990546
   0.11600473  0.89209475  0.95063512
   0.22753615  0.78007970  0.04808570
   0.44657349  0.22021931  0.95229844
   0.55350516  0.11314954  0.04755019
   0.44107382  0.55747760  0.95062786
   0.55702663  0.44059901  0.04924462
   0.44029691  0.88680073  0.95225418
   0.55028083  0.77600605  0.04917657
   0.77379184  0.22381558  0.95056653
   0.88864853  0.11016948  0.05102202
   0.77460476  0.54927565  0.94984772
   0.88282816  0.44132907  0.04995371
   0.77818790  0.88980581  0.94855562
   0.88972411  0.77895304  0.05127269
unknown system                          
           1
     8.268544    4.788349    0.000000
    -8.256534    4.767576    0.000000
     0.000000    0.000000   30.000000
   V    Mo   W    S 
   3   3   3  18
Direct configuration=     5
   0.32926153 -0.00338965  0.00005654
   0.32514029  0.65876420  0.00005028
   0.67575874  0.34303232  0.00002743
   0.68020327  0.67469701  0.00011259
  -0.00922163  0.66119961 -0.00006347
   1.00165140  0.33658346 -0.00016666
  -0.01368039 -0.00958481 -0.00001744
   0.33123915  0.33886857 -0.00035852
   0.67841204 -0.00085478  0.00039479
   0.11098860  0.22086949  0.94779626
   0.22408810  0.10856144  0.05034471
   0.11778786  0.55969416  0.94831752
   0.22590789  0.45122203  0.05242958
   0.11628398  0.89180916  0.94884235
   0.22744158  0.77985519  0.04991223
   0.44738091  0.22014885  0.95107925
   0.55378296  0.11384077  0.04843244
   0.44165545  0.55906298  0.94892525
   0.55771024  0.44062729  0.05078479
   0.44006666  0.88620071  0.95113944
   0.54958317  0.77523833  0.05074545
   0.77335837  0.22420590  0.94868586
   0.88971063  0.11099861  0.05355221
   0.77411858  0.54819481  0.94698102
   0.88161333  0.44074345  0.05239779
   0.77782805  0.88915576  0.94542492
   0.89014370  0.77846957  0.05417329
unknown system                          
           1
     8.268913    4.790311    0.000000
    -8.256186    4.768292    0.000000
     0.000000    0.000000   30.000000
   V    Mo   W    S 
   3   3   3  18
Direct configuration=     6
   0.32872966 -0.00378598  0.00006302
   0.32259852  0.65710362  0.00002861
   0.67677993  0.34416961  0.00001890
   0.68224858  0.67619984  0.00001116
  -0.00981780  0.66113632 -0.00002500
   1.00237093  0.33699439 -0.00011390
  -0.01520641 -0.01075003  0.00012722
   0.33019586  0.33908926 -0.00037692
   0.68012613 -0.00110509  0.00035594
   0.11044798  0.22019565  0.94777996
   0.22314981  0.10852108  0.05023164
   0.11695922  0.55955782  0.94810280
   0.22546074  0.45115794  0.05272088
   0.11523567  0.89132397  0.94878043
   0.22663768  0.77916073  0.04998827
   0.44749163  0.22063953  0.95117233
   0.55467477  0.11378404  0.04823194
   0.44255887  0.55964722  0.94905598
   0.55791499  0.44157229  0.05067131
   0.44071473  0.88617000  0.95132115
   0.55026744  0.77526520  0.05061744
   0.77365413  0.22403916  0.94867314
   0.89047835  0.11146289  0.05386947
   0.77422590  0.54867782  0.94669080
   0.88195482  0.44089747  0.05257463
   0.77773032  0.88868303  0.94482137
   0.89063200  0.77840667  0.05460733
unknown system                          
           1
     8.273927    4.798529    0.000000
    -8.257207    4.769592    0.000000
     0.000000    0.000000   30.000000
   V    Mo   W    S 
   3   3   3  18
Direct configuration=     7
   0.32804097 -0.00437404  0.00000488
   0.31893183  0.65498617 -0.00002131
   0.67813331  0.34575397  0.00002539
   0.68534091  0.67824997 -0.00002694
  -0.01050464  0.66108000  0.00001018
   1.00345071  0.33761512 -0.00007465
  -0.01742166 -0.01244351  0.00019075
   0.32851908  0.33925398 -0.00045204
   0.68275150 -0.00129193  0.00033101
   0.10991771  0.21947557  0.94785537
   0.22229715  0.10849437  0.05010289
   0.11607245  0.55932910  0.94789966
   0.22497518  0.45109466  0.05303754
   0.11430095  0.89096192  0.94880347
   0.22590574  0.77849662  0.05004990
   0.44756670  0.22115234  0.95143380
   0.55557268  0.11370454  0.04785718
   0.44331051  0.56026910  0.94936843
   0.55800106  0.44250022  0.05037634
   0.44129595  0.88605096  0.95166627
   0.55078228  0.77515146  0.05028507
   0.77405277  0.22395921  0.94874001
   0.89116141  0.11188264  0.05411102
   0.77448258  0.54915929  0.94644287
   0.88220041  0.44096922  0.05267886
   0.77801648  0.88845611  0.94431626
   0.89106047  0.77827738  0.05498768
unknown system                          
           1
     8.276750    4.805367    0.000000
    -8.256658    4.770584    0.000000
     0.000000    0.000000   30.000000
   V    Mo   W    S 
   3   3   3  18
Direct configuration=     8
   0.32746824 -0.00488016 -0.00002470
   0.31619521  0.65357543 -0.00003358
   0.67917682  0.34694549  0.00003358
   0.68744125  0.67947153 -0.00008186
  -0.01080873  0.66104664  0.00004985
   1.00425386  0.33812106 -0.00005673
  -0.01853092 -0.01339455  0.00031302
   0.32704863  0.33923236 -0.00048728
   0.68457857 -0.00124538  0.00031309
   0.10951926  0.21898076  0.94785646
   0.22192377  0.10847527  0.05003100
   0.11549540  0.55913677  0.94771338
   0.22471594  0.45108862  0.05327310
   0.11385460  0.89081759  0.94878198
   0.22559424  0.77819952  0.05012657
   0.44757002  0.22142651  0.95163626
   0.55608844  0.11366405  0.04756467
   0.44367508  0.56069429  0.94962281
   0.55803765  0.44301887  0.05015807
   0.44155464  0.88589841  0.95191305
   0.55094086  0.77499215  0.05001333
   0.77421460  0.22388973  0.94877230
   0.89165886  0.11214005  0.05427832
   0.77462776  0.54940175  0.94625882
   0.88230015  0.44097499  0.05276113
   0.77815318  0.88826923  0.94394662
   0.89146704  0.77827347  0.05526665
unknown system                          
           1
     8.277493    4.806222    0.000000
    -8.257121    4.770955    0.000000
     0.000000    0.000000   30.000000
   V    Mo   W    S 
   3   3   3  18
Direct configuration=     9
   0.32656660 -0.00567946 -0.00008792
   0.31310235  0.65219717 -0.00002718
   0.68058099  0.34846027  0.00003887
   0.68969808  0.68057416 -0.00015054
  -0.01092956  0.66106667  0.00008791
   1.00515529  0.33873090 -0.00005864
  -0.01929521 -0.01421290  0.00041813
   0.32492955  0.33894135 -0.00054895
   0.68663393 -0.00099247  0.00027863
   0.10908715  0.21848543  0.94787172
   0.22172141  0.10847004  0.04997180
   0.11483130  0.55886366  0.94751801
   0.22441041  0.45104257  0.05350174
   0.11352025  0.89075063  0.94878935
   0.22534275  0.77796997  0.05022526
   0.44749190  0.22170564  0.95194713
   0.55656782  0.11359888  0.04716489
   0.44393276  0.56113136  0.95001944
   0.55798765  0.44347238  0.04983518
   0.44178504  0.88567806  0.95225150
   0.55098425  0.77477161  0.04959216
   0.77431647  0.22378308  0.94884266
   0.89215578  0.11239272  0.05440672
   0.77485608  0.54964451  0.94610680
   0.88238411  0.44095275  0.05281774
   0.77844691  0.88814951  0.94367820
   0.89195036  0.77826595  0.05550929
unknown system                          
           1
     8.270094    4.796502    0.000000
    -8.251692    4.764667    0.000000
     0.000000    0.000000   30.000000
   V    Mo   W    S 
   3   3   3  18
Direct configuration=    10
   0.32644687 -0.00577855 -0.00009406
   0.31282907  0.65208561 -0.00002410
   0.68073712  0.34861523  0.00003935
   0.68989997  0.68066282 -0.00015614
  -0.01092834  0.66107339  0.00009247
   1.00522871  0.33878426 -0.00005878
  -0.01932610 -0.01426701  0.00043022
   0.32469576  0.33888806 -0.00055354
   0.68682621 -0.00095403  0.00027575
   0.10904034  0.21844182  0.94786616
   0.22171641  0.10847071  0.04997216
   0.11476597  0.55883675  0.94749691
   0.22437720  0.45103669  0.05352479
   0.11349623  0.89074437  0.94878497
   0.22531949  0.77795188  0.05023940
   0.44748257  0.22173211  0.95197867
   0.55660749  0.11359408  0.04712524
   0.44395574  0.56117461  0.95005870
   0.55797896  0.44350829  0.04980293
   0.44180661  0.88565445  0.95228291
   0.55097990  0.77474644  0.04955034
   0.77432048  0.22377398  0.94884608
   0.89220282  0.11241738  0.05441857
   0.77488149  0.54966541  0.94609031
   0.88239433  0.44095164  0.05282528
   0.77848142  0.88813929  0.94365517
   0.89199774  0.77826479  0.05553014
unknown system                          
           1
     8.268861    4.794564    0.000000
    -8.251112    4.763861    0.000000
     0.000000    0.000000   30.000000
   V    Mo   W    S 
   3   3   3  18
Direct configuration=    11
   0.32792151 -0.00476233 -0.00004265
   0.31407798  0.65241475 -0.00004654
   0.67989426  0.34806029  0.00004029
   0.68886696  0.67987875 -0.00011185
  -0.01151700  0.66058964  0.00007400
   1.00478304  0.33871799 -0.00004268
  -0.01958246 -0.01424641  0.00038599
   0.32653875  0.33962544 -0.00051283
   0.68567492 -0.00124448  0.00030449
   0.10939459  0.21864781  0.94793645
   0.22163248  0.10849524  0.04992785
   0.11526567  0.55905614  0.94759449
   0.22465398  0.45117420  0.05340840
   0.11362152  0.89078300  0.94881173
   0.22548113  0.77795533  0.05014436
   0.44777315  0.22166230  0.95173459
   0.55652444  0.11384626  0.04741603
   0.44376267  0.56102281  0.94976926
   0.55820033  0.44328427  0.05001916
   0.44157458  0.88562313  0.95202965
   0.55088498  0.77483551  0.04982989
   0.77423499  0.22392282  0.94887143
   0.89193032  0.11228315  0.05437864
   0.77463294  0.54931761  0.94617989
   0.88210741  0.44083102  0.05274489
   0.77816502  0.88818865  0.94368116
   0.89171628  0.77825157  0.05547381
unknown system                          
           1
     8.269327    4.800891    0.000000
    -8.248711    4.765204    0.000000
     0.000000    0.000000   30.000000
   V    Mo   W    S 
   3   3   3  18
Direct configuration=    12
   0.32884376 -0.00415272 -0.00001898
   0.31487507  0.65267587 -0.00005458
   0.67924988  0.34760512  0.00003245
   0.68815535  0.67945932 -0.00009796
  -0.01172241  0.66041596  0.00006105
   1.00456881  0.33862899 -0.00004126
  -0.01973908 -0.01423336  0.00033884
   0.32766727  0.34007774 -0.00049908
   0.68495065 -0.00146018  0.00031349
   0.10958566  0.21875885  0.94799072
   0.22157160  0.10849071  0.04989288
   0.11549069  0.55916979  0.94764086
   0.22480033  0.45122750  0.05334932
   0.11367697  0.89081004  0.94885110
   0.22555598  0.77796802  0.05008045
   0.44790130  0.22161512  0.95158760
   0.55647662  0.11395305  0.04759538
   0.44368710  0.56094557  0.94959334
   0.55831734  0.44318352  0.05017269
   0.44144845  0.88563358  0.95188662
   0.55086642  0.77488498  0.04998781
   0.77420242  0.22398258  0.94887645
   0.89178136  0.11221772  0.05436003
   0.77448571  0.54916607  0.94620713
   0.88198780  0.44077225  0.05273077
   0.77796703  0.88818780  0.94371676
   0.89156238  0.77823055  0.05544602
unknown system                          
           1
     8.273737    4.804869    0.000000
    -8.252171    4.767534    0.000000
     0.000000    0.000000   30.000000
   V    Mo   W    S 
   3   3   3  18
Direct configuration=    13
   0.33237256 -0.00231509  0.00001642
   0.31528900  0.65271530 -0.00002990
   0.67759622  0.34703764 -0.00001237
   0.68712782  0.67868211 -0.00010209
  -0.01239178  0.65972598  0.00005676
   1.00467725  0.33887146 -0.00003510
  -0.02118567 -0.01501710  0.00029258
   0.33043784  0.34186817 -0.00048198
   0.68390714 -0.00200912  0.00033441
   0.10988279  0.21865287  0.94829812
   0.22115889  0.10849009  0.04956912
   0.11537906  0.55923196  0.94762014
   0.22502827  0.45121999  0.05330309
   0.11353143  0.89087191  0.94914614
   0.22547001  0.77784281  0.04987220
   0.44824984  0.22178300  0.95127712
   0.55680354  0.11423577  0.04796522
   0.44368614  0.56107444  0.94925319
   0.55868339  0.44328017  0.05055734
   0.44123218  0.88551612  0.95163010
   0.55086335  0.77484474  0.05013076
   0.77419966  0.22398335  0.94898762
   0.89159458  0.11215620  0.05430385
   0.77414300  0.54891560  0.94612533
   0.88171807  0.44053087  0.05276100
   0.77735779  0.88791185  0.94370349
   0.89140209  0.77811337  0.05545732
unknown system                          
           1
     8.282655    4.817196    0.000000
    -8.256369    4.771677    0.000000
     0.000000    0.000000   30.000000
   V    Mo   W    S 
   3   3   3  18
Direct configuration=    14
   0.33427581 -0.00171400  0.00000565
   0.31423254  0.65238997 -0.00002529
   0.67698917  0.34728804 -0.00003703
   0.68745143  0.67864849 -0.00012904
  -0.01272997  0.65941936  0.00003904
   1.00523013  0.33935565 -0.00003308
  -0.02236583 -0.01592046  0.00032660
   0.33117632  0.34284360 -0.00047646
   0.68407757 -0.00223185  0.00032033
   0.10990633  0.21838491  0.94848709
   0.22097904  0.10847345  0.04928603
   0.11499876  0.55908778  0.94755219
   0.22493409  0.45115311  0.05335644
   0.11347239  0.89095468  0.94937898
   0.22530600  0.77779637  0.04979861
   0.44828854  0.22195668  0.95127430
   0.55709075  0.11428171  0.04797889
   0.44373049  0.56132391  0.94929016
   0.55873839  0.44352620  0.05061187
   0.44121317  0.88536979  0.95166022
   0.55077778  0.77467916  0.04996572
   0.77425960  0.22385305  0.94910194
   0.89166717  0.11224072  0.05430190
   0.77417105  0.54898473  0.94605944
   0.88167338  0.44040701  0.05276527
   0.77722171  0.88764990  0.94363010
   0.89144864  0.77801251  0.05551002
unknown system                          
           1
     8.290513    4.823037    0.000000
    -8.263095    4.775559    0.000000
     0.000000    0.000000   30.000000
   V    Mo   W    S 
   3   3   3  18
Direct configuration=    15
   0.33682823 -0.00157160 -0.00003557
   0.31087647  0.65136634  0.00005430
   0.67687803  0.34865049 -0.00008310
   0.68920106  0.67907519 -0.00021662
  -0.01323636  0.65898638  0.00006901
   1.00663934  0.34033351 -0.00003796
  -0.02416816 -0.01738011  0.00048784
   0.33053331  0.34395347 -0.00046879
   0.68560746 -0.00224767  0.00027245
   0.10965459  0.21770254  0.94876370
   0.22079215  0.10839410  0.04878577
   0.11395421  0.55865479  0.94729521
   0.22454310  0.45106965  0.05357217
   0.11338347  0.89115957  0.94973753
   0.22489108  0.77769655  0.04981410
   0.44820014  0.22238785  0.95148204
   0.55779840  0.11434362  0.04777827
   0.44382822  0.56199028  0.94961460
   0.55869760  0.44409012  0.05049937
   0.44130447  0.88496511  0.95182595
   0.55048004  0.77421569  0.04941282
   0.77432748  0.22356889  0.94933136
   0.89205676  0.11247377  0.05432674
   0.77438257  0.54920291  0.94588094
   0.88170815  0.44025097  0.05273659
   0.77726926  0.88712180  0.94339697
   0.89178340  0.77776026  0.05570423
unknown system                          
           1
     8.298190    4.833282    0.000000
    -8.266416    4.778259    0.000000
     0.000000    0.000000   30.000000
   V    Mo   W    S 
   3   3   3  18
Direct configuration=    16
   0.33763800 -0.00180568 -0.00008659
   0.30947885  0.65099437  0.00007398
   0.67710429  0.34935763 -0.00009408
   0.68998432  0.67919682 -0.00024233
  -0.01335566  0.65889503  0.00005772
   1.00721703  0.34073127 -0.00005840
  -0.02453293 -0.01774919  0.00053579
   0.32973487  0.34411108 -0.00047501
   0.68625788 -0.00215574  0.00024363
   0.10947746  0.21745676  0.94878298
   0.22077138  0.10827597  0.04866761
   0.11360873  0.55850642  0.94720795
   0.22431719  0.45108959  0.05369118
   0.11341607  0.89126233  0.94984750
   0.22472009  0.77765621  0.04988483
   0.44812977  0.22252247  0.95161392
   0.55807328  0.11443252  0.04768243
   0.44381043  0.56230107  0.94979658
   0.55865770  0.44426889  0.05040098
   0.44131934  0.88469581  0.95188285
   0.55027165  0.77399885  0.04916338
   0.77431423  0.22349268  0.94939489
   0.89223843  0.11259666  0.05437173
   0.77450219  0.54926540  0.94580876
   0.88168662  0.44017825  0.05272979
   0.77744881  0.88697489  0.94332250
   0.89192442  0.77766407  0.05579533
unknown system                          
           1
     8.304169    4.838706    0.000000
    -8.271079    4.781400    0.000000
     0.000000    0.000000   30.000000
   V    Mo   W    S 
   3   3   3  18
Direct configuration=    17
   0.34034553 -0.00198758 -0.00017010
   0.30636797  0.65013410  0.00017845
   0.67734315  0.35089615 -0.00012733
   0.69167259  0.67944169 -0.00031005
  -0.01386136  0.65851317  0.00008445
   1.00858958  0.34161620 -0.00008085
  -0.02576841 -0.01873184  0.00070139
   0.32821240  0.34474660 -0.00046501
   0.68766014 -0.00201868  0.00020716
   0.10915062  0.21690903  0.94892328
   0.22072583  0.10806961  0.04825466
   0.11271956  0.55814804  0.94699288
   0.22382913  0.45111187  0.05391069
   0.11347493  0.89153217  0.95019130
   0.22429608  0.77753438  0.04996201
   0.44797069  0.22289881  0.95189249
   0.55878996  0.11466893  0.04750686
   0.44374737  0.56297168  0.95018876
   0.55856960  0.44469226  0.05021455
   0.44134293  0.88405299  0.95196536
   0.54984181  0.77354092  0.04856265
   0.77427713  0.22326626  0.94960285
   0.89258990  0.11280616  0.05438172
   0.77471273  0.54939825  0.94564733
   0.88164834  0.44001777  0.05266355
   0.77771514  0.88654333  0.94317736
   0.89225109  0.77744221  0.05594349
unknown system                          
           1
     8.306807    4.842011    0.000000
    -8.272344    4.782327    0.000000
     0.000000    0.000000   30.000000
   V    Mo   W    S 
   3   3   3  18
Direct configuration=    18
   0.34202592 -0.00200522 -0.00021829
   0.30528031  0.64983733  0.00022800
   0.67752624  0.35160666 -0.00015382
   0.69224288  0.67944826 -0.00035181
  -0.01422136  0.65834315  0.00007975
   1.00914984  0.34187978 -0.00012327
  -0.02606855 -0.01895713  0.00076459
   0.32715034  0.34482327 -0.00044774
   0.68814244 -0.00191960  0.00016972
   0.10896384  0.21670923  0.94892156
   0.22078069  0.10790681  0.04806957
   0.11228762  0.55800234  0.94689903
   0.22354375  0.45113247  0.05406029
   0.11360817  0.89171877  0.95038073
   0.22406197  0.77751756  0.05001648
   0.44786548  0.22305694  0.95202121
   0.55915813  0.11486909  0.04749480
   0.44368237  0.56328884  0.95036454
   0.55848701  0.44485101  0.05013681
   0.44134352  0.88363519  0.95192488
   0.54954092  0.77329174  0.04829748
   0.77422882  0.22317807  0.94968645
   0.89274192  0.11294794  0.05441917
   0.77480292  0.54943933  0.94555470
   0.88160274  0.43992734  0.05265095
   0.77788717  0.88635429  0.94312517
   0.89239938  0.77733099  0.05602895
unknown system                          
           1
     8.308574    4.843828    0.000000
    -8.273560    4.783192    0.000000
     0.000000    0.000000   30.000000
   V    Mo   W    S 
   3   3   3  18
Direct configuration=    19
   0.34388608 -0.00194148 -0.00026060
   0.30421418  0.64948654  0.00028335
   0.67770634  0.35226817 -0.00017097
   0.69283442  0.67949525 -0.00037871
  -0.01464978  0.65813366  0.00009368
   1.00973667  0.34212976 -0.00014505
  -0.02644308 -0.01915705  0.00084380
   0.32601212  0.34487493 -0.00041563
   0.68858232 -0.00182677  0.00015140
   0.10878489  0.21652841  0.94890656
   0.22087370  0.10774554  0.04786671
   0.11188842  0.55787419  0.94683359
   0.22324157  0.45114637  0.05418201
   0.11377835  0.89191913  0.95059593
   0.22385264  0.77750972  0.05003140
   0.44773848  0.22322255  0.95215718
   0.55954483  0.11507345  0.04749663
   0.44359245  0.56352821  0.95054625
   0.55837856  0.44499310  0.05003451
   0.44136468  0.88322071  0.95187473
   0.54928487  0.77309144  0.04802834
   0.77417094  0.22307891  0.94977016
   0.89283329  0.11303961  0.05442361
   0.77486073  0.54948738  0.94547024
   0.88156506  0.43986176  0.05261503
   0.77806927  0.88618113  0.94309315
   0.89251244  0.77724983  0.05607258
unknown system                          
           1
     8.301314    4.837950    0.000000
    -8.267404    4.779227    0.000000
     0.000000    0.000000   30.000000
   V    Mo   W    S 
   3   3   3  18
Direct configuration=    20
   0.34479480 -0.00186368 -0.00028127
   0.30379123  0.64933531  0.00030455
   0.67780044  0.35255100 -0.00018214
   0.69307346  0.67951745 -0.00039610
  -0.01488251  0.65802933  0.00009684
   1.00997274  0.34219597 -0.00016081
  -0.02658098 -0.01920334  0.00087315
   0.32544661  0.34484951 -0.00040023
   0.68874673 -0.00178643  0.00013744
   0.10869803  0.21645272  0.94888710
   0.22093151  0.10766308  0.04777762
   0.11170628  0.55782025  0.94680678
   0.22309865  0.45115186  0.05424751
   0.11388024  0.89202066  0.95070115
   0.22376451  0.77752101  0.05003492
   0.44767540  0.22329596  0.95221565
   0.55973457  0.11517540  0.04751435
   0.44354992  0.56361919  0.95062462
   0.55831802  0.44504934  0.04998960
   0.44138571  0.88302701  0.95184074
   0.54916581  0.77300292  0.04791667
   0.77414265  0.22303520  0.94980352
   0.89286693  0.11308550  0.05443500
   0.77487598  0.54950739  0.94543020
   0.88154611  0.43983431  0.05260524
   0.77815096  0.88610908  0.94307921
   0.89256063  0.77721845  0.05609858
unknown system                          
           1
     8.314186    4.849331    0.000000
    -8.277697    4.786135    0.000000
     0.000000    0.000000   30.000000
   V    Mo   W    S 
   3   3   3  18
Direct configuration=    21
   0.34273794 -0.00226779 -0.00023778
   0.30458186  0.64979398  0.00025736
   0.67735094  0.35174464 -0.00016909
   0.69262005  0.67964773 -0.00036764
  -0.01406451  0.65845875  0.00007514
   1.00957562  0.34208604 -0.00013073
  -0.02641648 -0.01921043  0.00080351
   0.32674953  0.34501637 -0.00044626
   0.68847264 -0.00189955  0.00016041
   0.10890055  0.21657803  0.94895935
   0.22079651  0.10783331  0.04794574
   0.11205536  0.55792568  0.94682410
   0.22342605  0.45115329  0.05414122
   0.11364647  0.89182026  0.95046502
   0.22393051  0.77752716  0.05007431
   0.44776743  0.22305977  0.95210324
   0.55922776  0.11484713  0.04742959
   0.44365956  0.56354347  0.95046717
   0.55844001  0.44497671  0.05011832
   0.44129208  0.88347663  0.95194765
   0.54939928  0.77318479  0.04811033
   0.77419333  0.22304129  0.94974810
   0.89284338  0.11300873  0.05441329
   0.77491432  0.54951927  0.94548972
   0.88162783  0.43988495  0.05264238
   0.77799303  0.88621958  0.94310375
   0.89249343  0.77724464  0.05607170
unknown system                          
           1
     8.316054    4.851327    0.000000
    -8.278947    4.787060    0.000000
     0.000000    0.000000   30.000000
   V    Mo   W    S 
   3   3   3  18
Direct configuration=    22
   0.34747352 -0.00148047 -0.00034340
   0.30268965  0.64884907  0.00036099
   0.67818699  0.35341012 -0.00021121
   0.69370892  0.67953622 -0.00044542
  -0.01570647  0.65764026  0.00011030
   1.01057259  0.34232524 -0.00020979
  -0.02691543 -0.01925966  0.00094909
   0.32376184  0.34468289 -0.00035444
   0.68915599 -0.00166902  0.00009803
   0.10844261  0.21626471  0.94881363
   0.22110904  0.10742920  0.04753886
   0.11120964  0.55767681  0.94675487
   0.22267882  0.45115427  0.05442334
   0.11418556  0.89229922  0.95101324
   0.22353055  0.77754455  0.05001485
   0.44751528  0.22354126  0.95237426
   0.56032613  0.11551549  0.04759468
   0.44341709  0.56379662  0.95084163
   0.55813776  0.44517853  0.04984767
   0.44147811  0.88246954  0.95172891
   0.54885280  0.77276934  0.04762572
   0.77406365  0.22294471  0.94988988
   0.89292919  0.11320251  0.05446960
   0.77487933  0.54954306  0.94532492
   0.88147873  0.43976541  0.05257797
   0.77837435  0.88593024  0.94304950
   0.89267821  0.77715435  0.05616224
unknown system                          
           1
     8.312552    4.849191    0.000000
    -8.275474    4.784975    0.000000
     0.000000    0.000000   30.000000
   V    Mo   W    S 
   3   3   3  18
Direct configuration=    23
   0.34932634 -0.00116866 -0.00038251
   0.30200129  0.64858169  0.00040180
   0.67836328  0.35379869 -0.00022675
   0.69410062  0.67960825 -0.00047351
  -0.01620471  0.65746316  0.00012837
   1.01095849  0.34236274 -0.00023161
  -0.02708167 -0.01924774  0.00100987
   0.32256391  0.34446811 -0.00031163
   0.68934991 -0.00158777  0.00007734
   0.10825669  0.21613952  0.94873635
   0.22127258  0.10725617  0.04738048
   0.11089438  0.55758935  0.94672741
   0.22240218  0.45115152  0.05453498
   0.11447852  0.89250746  0.95123043
   0.22343362  0.77763047  0.04997546
   0.44737635  0.22363766  0.95247433
   0.56067002  0.11569868  0.04766121
   0.44333063  0.56385969  0.95098097
   0.55798341  0.44526067  0.04975356
   0.44153703  0.88214709  0.95165599
   0.54865231  0.77261846  0.04744882
   0.77401815  0.22287910  0.94993269
   0.89294766  0.11326771  0.05448860
   0.77486655  0.54958683  0.94524329
   0.88146100  0.43973895  0.05256464
   0.77852161  0.88582346  0.94302285
   0.89273425  0.77714317  0.05619647
unknown system                          
           1
     8.300805    4.843794    0.000000
    -8.262941    4.778214    0.000000
     0.000000    0.000000   30.000000
   V    Mo   W    S 
   3   3   3  18
Direct configuration=    24
   0.34906391 -0.00123310 -0.00037389
   0.30204889  0.64855440  0.00039730
   0.67836270  0.35378763 -0.00022341
   0.69407354  0.67962604 -0.00046305
  -0.01613975  0.65747513  0.00012850
   1.01095963  0.34239006 -0.00022721
  -0.02710790 -0.01927919  0.00100588
   0.32271494  0.34454429 -0.00031876
   0.68936423 -0.00160315  0.00008316
   0.10828980  0.21615874  0.94875878
   0.22122636  0.10729774  0.04739932
   0.11094091  0.55759956  0.94673321
   0.22243740  0.45114524  0.05451580
   0.11439597  0.89246021  0.95119661
   0.22342563  0.77758151  0.04998181
   0.44741007  0.22365641  0.95246044
   0.56063917  0.11568460  0.04764465
   0.44334184  0.56386213  0.95096213
   0.55800305  0.44525298  0.04976782
   0.44153412  0.88217897  0.95166815