unknown system                          
           1
     8.854600    5.104393    0.000000
    -8.855685    5.106260    0.000000
     0.000000    0.000000   30.000000
   V    Mo   W    S 
   3   3   3  18
Direct configuration=     1
   0.33333334  0.00000000  0.00000000
   0.66666669  0.00000000  0.00000000
   0.66666669  0.66666669  0.00000000
   0.00000000  0.00000000  0.00000000
   0.66666669  0.33333334  0.00000000
   0.33333334  0.33333334  0.00000000
   1.00000000  0.33333334  0.00000000
   0.00000000  0.66666669  0.00000000
   0.33333334  0.66666669  0.00000000
   0.11068511  0.22244981  0.95539999
   0.22244981  0.11068511  0.04460000
   0.11068511  0.55578315  0.95539999
   0.22244981  0.44401845  0.04460000
   0.11068511  0.88911647  0.95539999
   0.22244981  0.77735180  0.04460000
   0.44401845  0.22244981  0.95539999
   0.55578315  0.11068511  0.04460000
   0.44401845  0.55578315  0.95539999
   0.55578315  0.44401845  0.04460000
   0.44401845  0.88911647  0.95539999
   0.55578315  0.77735180  0.04460000
   0.77735180  0.22244981  0.95539999
   0.88911647  0.11068511  0.04460000
   0.77735180  0.55578315  0.95539999
   0.88911647  0.44401845  0.04460000
   0.77735180  0.88911647  0.95539999
   0.88911647  0.77735180  0.04460000
unknown system                          
           1
     8.666450    4.998216    0.000000
    -8.667367    4.999794    0.000000
     0.000000    0.000000   30.000000
   V    Mo   W    S 
   3   3   3  18
Direct configuration=     2
   0.33370113  0.00239083  0.00018229
   0.66741411  0.00069688 -0.00004230
   0.66671708  0.66588701 -0.00019350
   0.00102639  0.00110175 -0.00010456
   0.66501272  0.33311800  0.00012797
   0.33344201  0.33194186  0.00021337
   0.99985747  0.33153774 -0.00000205
  -0.00151925  0.66700004 -0.00017815
   0.33399407  0.66580636 -0.00003989
   0.11052221  0.22262220  0.95074777
   0.22468314  0.10863021  0.04807820
   0.11091602  0.55539497  0.95069272
   0.22167316  0.44470748  0.04928750
   0.11498346  0.88995552  0.95196032
   0.22402450  0.78153636  0.04806839
   0.44222785  0.21766425  0.95189949
   0.55337011  0.10656361  0.04689317
   0.44855111  0.55828890  0.95192547
   0.55758064  0.44872046  0.04805510
   0.44585434  0.89225233  0.95316659
   0.55892268  0.77920603  0.04687894
   0.77651057  0.21821061  0.95195204
   0.88482805  0.10986124  0.04809894
   0.77625743  0.55851682  0.95191803
   0.88966007  0.44474512  0.04919608
   0.77323968  0.88675165  0.95314879
   0.88476370  0.77510622  0.04806918
unknown system                          
           1
     8.486097    4.899467    0.000000
    -8.486491    4.900139    0.000000
     0.000000    0.000000   30.000000
   V    Mo   W    S 
   3   3   3  18
Direct configuration=     3
   0.33377638  0.00315044  0.00020633
   0.66775886  0.00102639 -0.00009335
   0.66679803  0.66557521 -0.00021441
   0.00158433  0.00176397 -0.00014742
   0.66475859  0.33332134  0.00017799
   0.33314977  0.33148356  0.00023863
   1.00011550  0.33123515 -0.00000905
  -0.00197825  0.66685606 -0.00014785
   0.33369082  0.66515227 -0.00004787
   0.11043594  0.22277689  0.95067021
   0.22476433  0.10856434  0.04820235
   0.11085581  0.55537714  0.95075110
   0.22157343  0.44478583  0.04931788
   0.11501144  0.88979924  0.95197445
   0.22398518  0.78140147  0.04794206
   0.44214824  0.21750875  0.95183345
   0.55328136  0.10646959  0.04687470
   0.44856362  0.55847088  0.95193453
   0.55766272  0.44887747  0.04810255
   0.44579062  0.89207227  0.95329790
   0.55875910  0.77914685  0.04679915
   0.77664060  0.21820495  0.95198178
   0.88481623  0.10998792  0.04813200
   0.77640670  0.55869043  0.95184731
   0.88993572  0.44487385  0.04913339
   0.77316532  0.88670463  0.95321048
   0.88476406  0.77493755  0.04803161
unknown system                          
           1
     8.269595    4.773878    0.000000
    -8.270645    4.775685    0.000000
     0.000000    0.000000   30.000000
   V    Mo   W    S 
   3   3   3  18
Direct configuration=     4
   0.33372804  0.00577557  0.00020268
   0.66926292  0.00243278 -0.00026460
   0.66719367  0.66408711 -0.00021289
   0.00393627  0.00458815 -0.00023859
   0.66442768  0.33467331  0.00027731
   0.33145886  0.32991801  0.00023356
   1.00177787  0.33086416 -0.00002492
  -0.00360855  0.66573862  0.00002960
   0.33160571  0.66200817 -0.00006297
   0.11068009  0.22302008  0.94873747
   0.22537513  0.10792512  0.05015533
   0.11054416  0.55523927  0.94932622
   0.22156963  0.44462639  0.05109258
   0.11632704  0.89040376  0.95058278
   0.22457316  0.78234318  0.04890805
   0.44152744  0.21624412  0.95017951
   0.55262718  0.10535662  0.04812114
   0.44970838  0.55890432  0.95051220
   0.55827561  0.45031495  0.04971010
   0.44622972  0.89289891  0.95249292
   0.55972649  0.77968973  0.04781304
   0.77592824  0.21716489  0.95067552
   0.88361494  0.10918660  0.04973155
   0.77566725  0.55918159  0.95007785
   0.89022931  0.44491788  0.05047455
   0.77220141  0.88615527  0.95215905
   0.88362679  0.77455592  0.04931087
unknown system                          
           1
     8.261237    4.772974    0.000000
    -8.262052    4.774378    0.000000
     0.000000    0.000000   30.000000
   V    Mo   W    S 
   3   3   3  18
Direct configuration=     5
   0.33358491  0.01088731  0.00000859
   0.67224324  0.00520193 -0.00047303
   0.66815261  0.66083341 -0.00003109
   0.00886979  0.01085698 -0.00022523
   0.66417051  0.33798538  0.00030854
   0.32711787  0.32703144  0.00012043
   1.00629778  0.33072779 -0.00003040
  -0.00714264  0.66276323  0.00027910
   0.32730947  0.65543660 -0.00010022
   0.11139413  0.22308395  0.94582424
   0.22600012  0.10761951  0.05311029
   0.10962611  0.55457089  0.94728321
   0.22161879  0.44355659  0.05380855
   0.11766030  0.89123830  0.94885609
   0.22524583  0.78352702  0.05003005
   0.44109690  0.21535661  0.94794594
   0.55211952  0.10475041  0.04996520
   0.45066385  0.55848202  0.94857559
   0.55827553  0.45147588  0.05196823
   0.44635628  0.89343531  0.95163136
   0.56048524  0.77996631  0.04899565
   0.77524573  0.21652716  0.94901158
   0.88266230  0.10824877  0.05191361
   0.77455305  0.55940490  0.94746454
   0.88993079  0.44419851  0.05224794
   0.77205212  0.88590025  0.95065278
   0.88262431  0.77514799  0.05085834
unknown system                          
           1
     8.262104    4.773926    0.000000
    -8.263013    4.775491    0.000000
     0.000000    0.000000   30.000000
   V    Mo   W    S 
   3   3   3  18
Direct configuration=     6
   0.33403362  0.01294468  0.00003003
   0.67319484  0.00619705 -0.00052978
   0.66852623  0.65955649  0.00000945
   0.01005146  0.01280258 -0.00017811
   0.66424429  0.33922757  0.00034001
   0.32563818  0.32675258  0.00012881
   1.00830148  0.33103889 -0.00008079
  -0.00864373  0.66093975  0.00026299
   0.32601535  0.65308651 -0.00012592
   0.11154781  0.22303312  0.94534570
   0.22601773  0.10804366  0.05343540
   0.10898448  0.55399961  0.94703499
   0.22158018  0.44280717  0.05431208
   0.11725313  0.89119596  0.94897165
   0.22506278  0.78330241  0.04979245
   0.44123673  0.21603060  0.94773113
   0.55227476  0.10538738  0.05003734
   0.45020113  0.55780897  0.94847832
   0.55750491  0.45091467  0.05213401
   0.44577580  0.89283380  0.95191430
   0.56006211  0.77947364  0.04884376
   0.77586361  0.21741611  0.94905815
   0.88328265  0.10859945  0.05210115
   0.77448294  0.55928784  0.94712792
   0.88954527  0.44330550  0.05231903
   0.77302289  0.88619777  0.95071989
   0.88315384  0.77603070  0.05078596
unknown system                          
           1
     8.257817    4.770408    0.000000
    -8.257707    4.770210    0.000000
     0.000000    0.000000   30.000000
   V    Mo   W    S 
   3   3   3  18
Direct configuration=     7
   0.33464653  0.01458462  0.00001869
   0.67385780  0.00693434 -0.00059458
   0.66880142  0.65872939  0.00005014
   0.01077115  0.01423077 -0.00017436
   0.66416272  0.34003162  0.00033887
   0.32473228  0.32661638  0.00010134
   1.00968363  0.33124927 -0.00010459
  -0.00984525  0.65943049  0.00029156
   0.32510431  0.65135435 -0.00011666
   0.11164287  0.22303525  0.94511814
   0.22604925  0.10830163  0.05358079
   0.10868129  0.55369134  0.94692061
   0.22152691  0.44245473  0.05457633
   0.11703928  0.89107785  0.94916417
   0.22488928  0.78310723  0.04953772
   0.44129685  0.21642410  0.94768057
   0.55232683  0.10572136  0.05003219
   0.44997638  0.55748690  0.94844625
   0.55708378  0.45066199  0.05218917
   0.44540382  0.89244781  0.95219223
   0.55978245  0.77916047  0.04866485
   0.77626359  0.21795261  0.94916047
   0.88361948  0.10886208  0.05216829
   0.77442089  0.55920228  0.94694709
   0.88935687  0.44276651  0.05230461
   0.77349771  0.88629801  0.95085616
   0.88344234  0.77640110  0.05064985
unknown system                          
           1
     8.254460    4.769913    0.000000
    -8.252546    4.766593    0.000000
     0.000000    0.000000   30.000000
   V    Mo   W    S 
   3   3   3  18
Direct configuration=     8
   0.33353690  0.01238155 -0.00000551
   0.67292871  0.00584598 -0.00050588
   0.66850468  0.65970779  0.00001146
   0.01011948  0.01250170 -0.00019694
   0.66443280  0.33914475  0.00031129
   0.32548990  0.32666202  0.00009970
   1.00828630  0.33108678 -0.00006988
  -0.00817721  0.66163176  0.00028076
   0.32611594  0.65340650 -0.00010583
   0.11156632  0.22296571  0.94536374
   0.22603364  0.10806733  0.05348819
   0.10889421  0.55395678  0.94701490
   0.22158619  0.44279947  0.05428545
   0.11723596  0.89131137  0.94883226
   0.22507815  0.78331478  0.04990515
   0.44124024  0.21599922  0.94776763
   0.55230873  0.10547293  0.05005474
   0.45010838  0.55763802  0.94848459
   0.55743464  0.45081496  0.05214820
   0.44578926  0.89286516  0.95181550
   0.56002984  0.77943812  0.04891313
   0.77584644  0.21740626  0.94902011
   0.88335349  0.10860961  0.05211715
   0.77452841  0.55928777  0.94713892
   0.88961778  0.44348372  0.05232412
   0.77316853  0.88628457  0.95064942
   0.88315675  0.77612984  0.05085752
unknown system                          
           1
     8.250110    4.767856    0.000000
    -8.248916    4.765780    0.000000
     0.000000    0.000000   30.000000
   V    Mo   W    S 
   3   3   3  18
Direct configuration=     9
   0.33102607  0.00849665 -0.00001259
   0.67151250  0.00402456 -0.00036170
   0.66823117  0.66106054 -0.00003124
   0.00960327  0.01005993 -0.00012544
   0.66532227  0.33818189  0.00032402
   0.32578156  0.32659281  0.00017812
   1.00660303  0.33072134 -0.00002654
  -0.00545792  0.66567778  0.00025186
   0.32732735  0.65617667 -0.00017587
   0.11133432  0.22275957  0.94554191
   0.22601936  0.10782313  0.05343315
   0.10895594  0.55422426  0.94713052
   0.22166071  0.44305596  0.05402080
   0.11738090  0.89179339  0.94810940
   0.22540053  0.78362532  0.05057585
   0.44119820  0.21556471  0.94787994
   0.55236164  0.10529565  0.05001955
   0.45014178  0.55757486  0.94854762
   0.55769276  0.45078897  0.05203971
   0.44621363  0.89332588  0.95124882
   0.56026419  0.77964306  0.04931966
   0.77551027  0.21673823  0.94885723
   0.88322074  0.10835945  0.05201398
   0.77482804  0.55962090  0.94737047
   0.89020876  0.44456156  0.05231180
   0.77305047  0.88637155  0.95032837
   0.88282293  0.77609584  0.05123048
unknown system                          
           1
     8.253779    4.770412    0.000000
    -8.252361    4.767949    0.000000
     0.000000    0.000000   30.000000
   V    Mo   W    S 
   3   3   3  18
Direct configuration=    10
   0.33155779  0.01048853 -0.00003592
   0.67243196  0.00509175 -0.00047676
   0.66864916  0.65996091  0.00001553
   0.01075727  0.01185276 -0.00016493
   0.66526197  0.33932558  0.00031935
   0.32451583  0.32637589  0.00010656
   1.00843605  0.33083619 -0.00006885
  -0.00699257  0.66398641  0.00026791
   0.32604267  0.65378883 -0.00017842
   0.11140319  0.22274946  0.94526914
   0.22610163  0.10810744  0.05360767
   0.10859014  0.55394528  0.94705663
   0.22158962  0.44274973  0.05436347
   0.11716323  0.89162142  0.94840612
   0.22519466  0.78337180  0.05018459
   0.44125462  0.21604021  0.94790868
   0.55230591  0.10559452  0.04993649
   0.44985399  0.55725477  0.94855475
   0.55719198  0.45052409  0.05206102
   0.44566188  0.89273191  0.95170187
   0.55979620  0.77919116  0.04902480
   0.77604155  0.21737417  0.94903881
   0.88361493  0.10868146  0.05208076
   0.77486542  0.55963728  0.94718216
   0.89016334  0.44402542  0.05221875
   0.77357751  0.88641879  0.95058912
   0.88318453  0.77648868  0.05103059
unknown system                          
           1
     8.261072    4.775696    0.000000
    -8.259396    4.772785    0.000000
     0.000000    0.000000   30.000000
   V    Mo   W    S 
   3   3   3  18
Direct configuration=    11
   0.33169340  0.01106335 -0.00003317
   0.67268939  0.00539546 -0.00050011
   0.66878819  0.65963145  0.00003380
   0.01108604  0.01236079 -0.00015135
   0.66526848  0.33967957  0.00032750
   0.32410506  0.32632651  0.00011185
   1.00900309  0.33085780 -0.00007140
  -0.00745289  0.66355525  0.00028050
   0.32565660  0.65304982 -0.00017523
   0.11141730  0.22273132  0.94514793
   0.22613534  0.10819670  0.05367048
   0.10846424  0.55384090  0.94701570
   0.22157167  0.44264342  0.05448495
   0.11712279  0.89159055  0.94844906
   0.22515141  0.78331518  0.05009484
   0.44126583  0.21617146  0.94789070
   0.55229594  0.10567736  0.04992074
   0.44979353  0.55715448  0.94853293
   0.55704539  0.45045275  0.05207813
   0.44550173  0.89258167  0.95181496
   0.55969160  0.77907476  0.04895532
   0.77619227  0.21755759  0.94907197
   0.88372338  0.10875651  0.05210676
   0.77485576  0.55964610  0.94710036
   0.89016710  0.44386891  0.05219991
   0.77371760  0.88641479  0.95064552
   0.88326423  0.77662002  0.05099725
unknown system                          
           1
     8.261447    4.775888    0.000000
    -8.259982    4.773342    0.000000
     0.000000    0.000000   30.000000
   V    Mo   W    S 
   3   3   3  18
Direct configuration=    12
   0.33264552  0.01360423 -0.00003004
   0.67379882  0.00671054 -0.00061224
   0.66932707  0.65833665  0.00009078
   0.01210562  0.01436271 -0.00013473
   0.66515619  0.34102178  0.00034986
   0.32276871  0.32623286  0.00010120
   1.01105494  0.33089009 -0.00011443
  -0.00950894  0.66151074  0.00031769
   0.32428775  0.65022866 -0.00017599
   0.11147634  0.22269478  0.94478252
   0.22620610  0.10854269  0.05386352
   0.10805907  0.55341026  0.94691059
   0.22146927  0.44221365  0.05490739
   0.11693620  0.89140968  0.94873049
   0.22493951  0.78303153  0.04967405
   0.44131558  0.21670333  0.94782598
   0.55231197  0.10601752  0.04986411
   0.44957380  0.55684249  0.94847754
   0.55655681  0.45023099  0.05213853
   0.44492552  0.89200162  0.95230040
   0.55932206  0.77866199  0.04864226
   0.77677698  0.21828080  0.94924460
   0.88412644  0.10906439  0.05217830
   0.77475776  0.55960768  0.94682521
   0.89006236  0.44313663  0.05211702
   0.77420013  0.88641348  0.95091060
   0.88356287  0.77705267  0.05081470
unknown system                          
           1
     8.252677    4.772717    0.000000
    -8.248364    4.765243    0.000000
     0.000000    0.000000   30.000000
   V    Mo   W    S 
   3   3   3  18
Direct configuration=    13
   0.33284514  0.01396566 -0.00002445
   0.67393845  0.00689251 -0.00062311
   0.66934972  0.65820268  0.00009750
   0.01218707  0.01459034 -0.00013171
   0.66507127  0.34111072  0.00035563
   0.32270625  0.32622500  0.00010364
   1.01122500  0.33089530 -0.00011497
  -0.00975718  0.66119879  0.00032281
   0.32416984  0.64995102 -0.00017202
   0.11150282  0.22270601  0.94474588
   0.22621206  0.10856211  0.05387251
   0.10804248  0.55338528  0.94689668
   0.22146427  0.44217322  0.05494367
   0.11693116  0.89137470  0.94877921
   0.22491664  0.78301255  0.04961939
   0.44131909  0.21674491  0.94780605
   0.55230383  0.10603245  0.04987114
   0.44957619  0.55683958  0.94846366
   0.55652055  0.45022454  0.05215340
   0.44488267  0.89196023  0.95234704
   0.55930463  0.77864403  0.04861316
   0.77681176  0.21834738  0.94924986
   0.88413547  0.10907678  0.05219521
   0.77473491  0.55958653  0.94678926
   0.89001927  0.44304024  0.05211712
   0.77421225  0.88640088  0.95092864
   0.88358883  0.77707102  0.05079469
unknown system                          
           1
     8.264890    4.778208    0.000000
    -8.263728    4.776186    0.000000
     0.000000    0.000000   30.000000
   V    Mo   W    S 
   3   3   3  18
Direct configuration=    14
   0.33115397  0.01222384 -0.00004553
   0.67296459  0.00562141 -0.00054265
   0.66957365  0.65862697  0.00009919
   0.01257357  0.01365455 -0.00008749
   0.66556013  0.34120305  0.00036691
   0.32222627  0.32588869  0.00014559
   1.01119791  0.33084397 -0.00008240
  -0.00869206  0.66326026  0.00032594
   0.32447078  0.65079658 -0.00018179
   0.11135549  0.22258397  0.94477051
   0.22635023  0.10851214  0.05382655
   0.10797208  0.55346723  0.94697762
   0.22150403  0.44241956  0.05485129
   0.11706514  0.89167877  0.94846906
   0.22507890  0.78311953  0.04987608
   0.44125816  0.21652982  0.94798786
   0.55220414  0.10597145  0.04973944
   0.44957550  0.55678365  0.94857468
   0.55662657  0.45026617  0.05199800
   0.44485055  0.89212162  0.95214511
   0.55925695  0.77847518  0.04874020
   0.77675816  0.21819457  0.94923230
   0.88424391  0.10910716  0.05214154
   0.77492008  0.55984257  0.94689200
   0.89053952  0.44371011  0.05202060
   0.77421770  0.88626965  0.95084399
   0.88340852  0.77704199  0.05091532
unknown system                          
           1
     8.268550    4.780373    0.000000
    -8.267719    4.778923    0.000000
     0.000000    0.000000   30.000000
   V    Mo   W    S 
   3   3   3  18
Direct configuration=    15
   0.33359422  0.01587215 -0.00002265
   0.67473353  0.00785380 -0.00071661
   0.66976334  0.65729350  0.00012924
   0.01288004  0.01597906 -0.00013654
   0.66492004  0.34206454  0.00037092
   0.32179026  0.32616625  0.00007937
   1.01266640  0.33081287 -0.00015816
  -0.01131967  0.65978546  0.00034496
   0.32326767  0.64794694 -0.00018387
   0.11156178  0.22266864  0.94449968
   0.22626387  0.10878854  0.05400908
   0.10777938  0.55309619  0.94685005
   0.22138998  0.44186567  0.05525097
   0.11682656  0.89123944  0.94899516
   0.22476364  0.78280961  0.04929620
   0.44134891  0.21712528  0.94775929
   0.55230075  0.10624978  0.04983433
   0.44945087  0.55664940  0.94842975
   0.55618064  0.45009645  0.05221082
   0.44447006  0.89155302  0.95270596
   0.55906227  0.77836223  0.04838987
   0.77722305  0.21886145  0.94938220
   0.88439376  0.10927076  0.05225171
   0.77466649  0.55956457  0.94658046
   0.88995271  0.44250608  0.05204268
   0.77450690  0.88637092  0.95112200
   0.88377697  0.77736186  0.05068303
unknown system                          
           1
     8.253252    4.773207    0.000000
    -8.250486    4.768410    0.000000
     0.000000    0.000000   30.000000
   V    Mo   W    S 
   3   3   3  18
Direct configuration=    16
   0.33416166  0.01724536 -0.00000534
   0.67535041  0.00859585 -0.00077646
   0.67002882  0.65661828  0.00015652
   0.01329542  0.01684957 -0.00013031
   0.66474879  0.34274196  0.00039445
   0.32130604  0.32613673  0.00007445
   1.01352978  0.33065673 -0.00017736
  -0.01250508  0.65879937  0.00036551
   0.32274157  0.64662978 -0.00018607
   0.11161308  0.22264261  0.94432375
   0.22628878  0.10893276  0.05408940
   0.10760453  0.55289538  0.94682526
   0.22133138  0.44164540  0.05545010
   0.11678817  0.89115120  0.94914844
   0.22466799  0.78269445  0.04905983
   0.44138201  0.21739296  0.94771124
   0.55228992  0.10638884  0.04981116
   0.44940440  0.55654442  0.94840079
   0.55596580  0.45004218  0.05224825
   0.44418788  0.89127534  0.95295276
   0.55891351  0.77818013  0.04823349
   0.77750251  0.21922560  0.94946141
   0.88456349  0.10939265  0.05229559
   0.77459589  0.55954523  0.94642986
   0.88989819  0.44212154  0.05198322
   0.77467491  0.88632581  0.95124960
   0.88388460  0.77754429  0.05061036
unknown system                          
           1
     8.271559    4.781770    0.000000
    -8.271810    4.782193    0.000000
     0.000000    0.000000   30.000000
   V    Mo   W    S 
   3   3   3  18
Direct configuration=    17
   0.33296458  0.01438431 -0.00006650
   0.67356305  0.00666170 -0.00061849
   0.66939500  0.65828990  0.00011000
   0.01270921  0.01516279 -0.00010216
   0.66503935  0.34093002  0.00034420
   0.32219872  0.32599898  0.00013475
   1.01188764  0.33152130 -0.00009439
  -0.00957553  0.66070979  0.00033523
   0.32362095  0.64942924 -0.00015584
   0.11148694  0.22277593  0.94467053
   0.22633219  0.10860601  0.05387608
   0.10798856  0.55336021  0.94679753
   0.22150081  0.44219553  0.05500605
   0.11689497  0.89140837  0.94877880
   0.22495242  0.78299781  0.04966794
   0.44120018  0.21665432  0.94784738
   0.55225906  0.10601561  0.04987545
   0.44942512  0.55672353  0.94845199
   0.55640470  0.45005420  0.05212719
   0.44479231  0.89197971  0.95233061
   0.55922277  0.77858440  0.04864817
   0.77686482  0.21839320  0.94925484
   0.88417648  0.10918472  0.05218872
   0.77481042  0.55956352  0.94677147
   0.89007330  0.44303585  0.05215461
   0.77431300  0.88643945  0.95089644
   0.88371344  0.77715407  0.05076932
unknown system                          
           1
     8.269397    4.780647    0.000000
    -8.270281    4.782164    0.000000
     0.000000    0.000000   30.000000
   V    Mo   W    S 
   3   3   3  18
Direct configuration=    18
   0.33513600  0.01879644  0.00001231
   0.67606750  0.00949808 -0.00083768
   0.67013272  0.65600999  0.00018329
   0.01348888  0.01781588 -0.00013781
   0.66447290  0.34316757  0.00040979
   0.32113369  0.32619454  0.00006141
   1.01414368  0.33070432 -0.00020051
  -0.01363341  0.65727910  0.00038270
   0.32221889  0.64545031 -0.00017815
   0.11169252  0.22269886  0.94420245
   0.22626547  0.10905342  0.05414342
   0.10752165  0.55273036  0.94675860
   0.22128601  0.44141919  0.05561566
   0.11670559  0.89098981  0.94939186
   0.22455365  0.78257304  0.04880494
   0.44142439  0.21765690  0.94761953
   0.55230933  0.10650433  0.04984127
   0.44935584  0.55649916  0.94835405
   0.55581096  0.44999205  0.05230150
   0.44398918  0.89101407  0.95319159
   0.55879943  0.77809110  0.04806920
   0.77771976  0.21953712  0.94951518
   0.88465792  0.10949848  0.05233863
   0.77447740  0.55942792  0.94631487
   0.88964420  0.44161082  0.05199017
   0.77480280  0.88634564  0.95137384
   0.88403749  0.77765596  0.05047778
unknown system                          
           1
     8.270005    4.780583    0.000000
    -8.270135    4.780797    0.000000
     0.000000    0.000000   30.000000
   V    Mo   W    S 
   3   3   3  18
Direct configuration=    19
   0.33550518  0.01929957  0.00001975
   0.67624762  0.00977949 -0.00084637
   0.67004678  0.65590179  0.00018659
   0.01359282  0.01821734 -0.00014171
   0.66431574  0.34309344  0.00040945
   0.32114989  0.32615216  0.00005544
   1.01425083  0.33087063 -0.00020331
  -0.01380834  0.65659391  0.00037936
   0.32201720  0.64517396 -0.00017277
   0.11174069  0.22277912  0.94418547
   0.22626889  0.10907206  0.05414532
   0.10752564  0.55270546  0.94670634
   0.22127719  0.44134699  0.05564899
   0.11669442  0.89094028  0.94949404
   0.22453710  0.78257861  0.04874003
   0.44142644  0.21771188  0.94758225
   0.55229645  0.10650638  0.04987160
   0.44933362  0.55649996  0.94833494
   0.55576078  0.44995620  0.05232389
   0.44395373  0.89096493  0.95324429
   0.55877107  0.77809880  0.04803251
   0.77775696  0.21960914  0.94950528
   0.88465297  0.10953289  0.05235775
   0.77444072  0.55935931  0.94628957
   0.88950812  0.44142372  0.05203538
   0.77482607  0.88637436  0.95139384
   0.88412588  0.77767208  0.05042200
unknown system                          
           1
     8.271037    4.780423    0.000000
    -8.274740    4.786816    0.000000
     0.000000    0.000000   30.000000
   V    Mo   W    S 
   3   3   3  18
Direct configuration=    20
   0.33589628  0.02065716  0.00005500
   0.67721119  0.01072720 -0.00091544
   0.67039178  0.65512194  0.00021766
   0.01394254  0.01886405 -0.00014732
   0.66411295  0.34399412  0.00045490
   0.32052478  0.32609411  0.00005115
   1.01509010  0.32996889 -0.00023724
  -0.01533282  0.65633657  0.00040772
   0.32181419  0.64383590 -0.00018453
   0.11178958  0.22260451  0.94405835
   0.22620861  0.10921328  0.05417188
   0.10730582  0.55245588  0.94684923
   0.22115310  0.44112062  0.05578425
   0.11666134  0.89083622  0.94963139
   0.22436864  0.78239310  0.04842690
   0.44149823  0.21798097  0.94756782
   0.55233236  0.10670379  0.04978574
   0.44934515  0.55642152  0.94832194
   0.55556687  0.44996587  0.05236686
   0.44371966  0.89068614  0.95355561
   0.55865946  0.77792235  0.04783577
   0.77806098  0.22001746  0.94962464
   0.88483688  0.10958082  0.05239154
   0.77436820  0.55939438  0.94611576
   0.88959721  0.44116383  0.05184746
   0.77496016  0.88629176  0.95155564
   0.88413123  0.77786201  0.05040722
unknown system                          
           1
     8.276506    4.782216    0.000000
    -8.284497    4.796025    0.000000
     0.000000    0.000000   30.000000
   V    Mo   W    S 
   3   3   3  18
Direct configuration=    21
   0.33705119  0.02195154  0.00007918
   0.67778326  0.01162954 -0.00093633
   0.67011317  0.65458371  0.00022954
   0.01397688  0.01989202 -0.00014258
   0.66377434  0.34398831  0.00044615
   0.32097962  0.32629431  0.00004122
   1.01522343  0.33064861 -0.00023051
  -0.01592538  0.65408550  0.00039439
   0.32120764  0.64306884 -0.00015858
   0.11192396  0.22287424  0.94397466
   0.22621506  0.10928865  0.05422225
   0.10734440  0.55240058  0.94664866
   0.22114022  0.44090779  0.05588414
   0.11660530  0.89064908  0.94991645
   0.22431281  0.78240004  0.04825612
   0.44156026  0.21819573  0.94744003
   0.55233134  0.10675129  0.04989257
   0.44931925  0.55644507  0.94826117
   0.55547710  0.44990447  0.05242203
   0.44361880  0.89050853  0.95369383
   0.55857743  0.77793408  0.04771306
   0.77811507  0.22020317  0.94958393
   0.88482525  0.10967737  0.05245880
   0.77420383  0.55917991  0.94606744
   0.88909578  0.44055762  0.05201301
   0.77501076  0.88635204  0.95162090
   0.88435368  0.77784243  0.05020838
unknown system                          
           1
     8.278294    4.781607    0.000000
    -8.291166    4.803859    0.000000
     0.000000    0.000000   30.000000
   V    Mo   W    S 
   3   3   3  18
Direct configuration=    22
   0.33888160  0.02481363  0.00016775
   0.67978681  0.01406590 -0.00101042
   0.66981992  0.65304548  0.00025987
   0.01431799  0.02205132 -0.00015792
   0.66308576  0.34471904  0.00047250
   0.32112749  0.32646077 -0.00000636
   1.01587881  0.33045802 -0.00027733
  -0.01803015  0.65060610  0.00037561
   0.32033680  0.64098271 -0.00014828
   0.11223108  0.22314698  0.94378973
   0.22611270  0.10953272  0.05430718
   0.10716378  0.55209135  0.94649788
   0.22096896  0.44033340  0.05614596
   0.11646958  0.89026280  0.95050552
   0.22403096  0.78225995  0.04769653
   0.44178518  0.21881336  0.94721990
   0.55242862  0.10703014  0.04997979
   0.44935438  0.55645245  0.94814536
   0.55514112  0.44983812  0.05259200
   0.44336396  0.89001586  0.95420375
   0.55839641  0.77786406  0.04732698
   0.77843023  0.22085230  0.94959789
   0.88494439  0.10981581  0.05261866
   0.77386211  0.55887492  0.94581024
   0.88839228  0.43941318  0.05211366
   0.77520565  0.88642071  0.95188838
   0.88472805  0.77799335  0.04988505
unknown system                          
           1
     8.283844    4.782493    0.000000
    -8.303062    4.815720    0.000000
     0.000000    0.000000   30.000000
   V    Mo   W    S 
   3   3   3  18
Direct configuration=    23
   0.34031223  0.02727501  0.00027740
   0.68174412  0.01645418 -0.00103573
   0.66929337  0.65142660  0.00027797
   0.01470520  0.02400311 -0.00012934
   0.66231400  0.34538740  0.00052081
   0.32140356  0.32665556 -0.00003040
   1.01639190  0.33015148 -0.00028745
  -0.01988474  0.64754400  0.00032640
   0.31974190  0.63915378 -0.00015103
   0.11261424  0.22345865  0.94359412
   0.22599478  0.10974119  0.05435480
   0.10696839  0.55175794  0.94641441
   0.22071715  0.43973621  0.05631372
   0.11634561  0.88990191  0.95107796
   0.22375395  0.78216414  0.04713164
   0.44202183  0.21934991  0.94704436
   0.55254142  0.10732389  0.05003099
   0.44943644  0.55650591  0.94804204
   0.55482811  0.44977925  0.05274318
   0.44318353  0.88959339  0.95471189
   0.55823936  0.77782246  0.04693575
   0.77873602  0.22152912  0.94957451
   0.88506939  0.10993332  0.05279534
   0.77353740  0.55862937  0.94559003
   0.88775111  0.43835606  0.05217826
   0.77537381  0.88648523  0.95215712
   0.88508035  0.77809540  0.04954112
unknown system                          
           1
     8.279543    4.777574    0.000000
    -8.306290    4.823826    0.000000
     0.000000    0.000000   30.000000
   V    Mo   W    S 
   3   3   3  18
Direct configuration=    24
   0.34176373  0.02977608  0.00041713
   0.68400132  0.01935589 -0.00103837
   0.66826245  0.64955959  0.00025826
   0.01512207  0.02623976 -0.00009825
   0.66131232  0.34583458  0.00055148
   0.32199666  0.32688770 -0.00008934
   1.01665844  0.32976764 -0.00033002
  -0.02157805  0.64398040  0.00021970
   0.31927996  0.63736905 -0.00016940
   0.11315393  0.22394643  0.94340738
   0.22587244  0.11001152  0.05444211
   0.10673264  0.55134566  0.94628434
   0.22040886  0.43898952  0.05649985
   0.11615796  0.88947009  0.95177537
   0.22342377  0.78211126  0.04646837
   0.44232333  0.21996457  0.94684244
   0.55272997  0.10769257  0.05011819
   0.44958891  0.55657894  0.94787817
   0.55440382  0.44965949  0.05298168
   0.44311262  0.88918861  0.95530765