       N       E                     dE             d eps       ncg     rms          rms(c)
DAV:   1     0.112350193861E+04    0.11235E+04   -0.35865E+04  8160   0.577E+02
DAV:   2    -0.120412115690E+01   -0.11247E+04   -0.10815E+04 11160   0.173E+02
DAV:   3    -0.199680737851E+03   -0.19848E+03   -0.19049E+03 10920   0.821E+01
DAV:   4    -0.208889607997E+03   -0.92089E+01   -0.89133E+01 12080   0.261E+01
DAV:   5    -0.209223810200E+03   -0.33420E+00   -0.33330E+00 11400   0.369E+00    0.274E+01
DAV:   6    -0.236383275342E+03   -0.27159E+02   -0.11177E+02 12760   0.602E+01    0.592E+01
DAV:   7    -0.196824072258E+03    0.39559E+02   -0.17551E+02 13200   0.151E+02    0.206E+01
DAV:   8    -0.190299535914E+03    0.65245E+01   -0.21160E+01 11920   0.135E+01    0.140E+01
DAV:   9    -0.188294765284E+03    0.20048E+01   -0.37430E+00 12120   0.644E+00    0.935E+00
DAV:  10    -0.187100859017E+03    0.11939E+01   -0.17478E+00 13320   0.770E+00    0.325E+00
DAV:  11    -0.187014353289E+03    0.86506E-01   -0.66153E-01 12360   0.235E+00    0.243E+00
DAV:  12    -0.186974972541E+03    0.39381E-01   -0.37896E-01 12920   0.255E+00    0.274E+00
DAV:  13    -0.186929883669E+03    0.45089E-01   -0.19376E-01 13200   0.280E+00    0.205E+00
DAV:  14    -0.186892021219E+03    0.37862E-01   -0.95361E-02 13000   0.182E+00    0.615E-01
DAV:  15    -0.186887529227E+03    0.44920E-02   -0.15626E-02 11960   0.434E-01    0.495E-01
DAV:  16    -0.186887413011E+03    0.11622E-03   -0.11020E-02 13320   0.524E-01    0.596E-01
DAV:  17    -0.186885077361E+03    0.23357E-02   -0.10370E-02 12760   0.542E-01    0.289E-01
DAV:  18    -0.186883988723E+03    0.10886E-02   -0.26110E-03 12760   0.228E-01    0.187E-01
DAV:  19    -0.186883787524E+03    0.20120E-03   -0.87477E-04 11120   0.149E-01    0.477E-02
DAV:  20    -0.186884652308E+03   -0.86478E-03   -0.84461E-04  9120   0.586E-02    0.461E-02
DAV:  21    -0.186885408445E+03   -0.75614E-03   -0.22932E-04  8200   0.515E-02    0.335E-02
DAV:  22    -0.186886261050E+03   -0.85261E-03   -0.11977E-04  7200   0.316E-02    0.384E-02
DAV:  23    -0.186887504543E+03   -0.12435E-02   -0.15305E-04  7440   0.483E-02    0.222E-02
DAV:  24    -0.186888038863E+03   -0.53432E-03   -0.29812E-05  6800   0.234E-02    0.514E-03
DAV:  25    -0.186888446579E+03   -0.40772E-03   -0.20696E-05  5440   0.101E-02    0.519E-03
DAV:  26    -0.186888684394E+03   -0.23781E-03   -0.92084E-06  6840   0.799E-03    0.164E-03
DAV:  27    -0.186888770990E+03   -0.86595E-04   -0.31637E-06  7120   0.388E-03
   1 F= -.18688877E+03 E0= -.18671738E+03  d E =-.186889E+03
       N       E                     dE             d eps       ncg     rms          rms(c)
DAV:   1    -0.187544117363E+03   -0.65543E+00   -0.27354E+02  8160   0.352E+01    0.470E+00
DAV:   2    -0.189651427147E+03   -0.21073E+01   -0.20592E+01 12320   0.160E+01    0.103E+01
DAV:   3    -0.189341429246E+03    0.31000E+00   -0.45720E+00 12400   0.127E+01    0.619E+00
DAV:   4    -0.188806407787E+03    0.53502E+00   -0.57732E-01 12520   0.429E+00    0.187E+00
DAV:   5    -0.188958639474E+03   -0.15223E+00   -0.52311E-01 12360   0.371E+00    0.588E+00
DAV:   6    -0.188779347299E+03    0.17929E+00   -0.85427E-01 12800   0.448E+00    0.215E+00
DAV:   7    -0.188765878816E+03    0.13468E-01   -0.20558E-01 11640   0.227E+00    0.225E+00
DAV:   8    -0.188735917113E+03    0.29962E-01   -0.12741E-01 13000   0.213E+00    0.147E+00
DAV:   9    -0.188715970974E+03    0.19946E-01   -0.35915E-02 12320   0.951E-01    0.341E-01
DAV:  10    -0.188715258551E+03    0.71242E-03   -0.45762E-03 10760   0.224E-01    0.197E-01
DAV:  11    -0.188714749452E+03    0.50910E-03   -0.25212E-03 12520   0.163E-01    0.101E-01
DAV:  12    -0.188714893032E+03   -0.14358E-03   -0.78844E-04 11680   0.838E-02    0.891E-02
DAV:  13    -0.188714826704E+03    0.66327E-04   -0.25116E-04  7920   0.579E-02
   2 F= -.18871483E+03 E0= -.18857530E+03  d E =-.182606E+01
       N       E                     dE             d eps       ncg     rms          rms(c)
DAV:   1    -0.190645800484E+03   -0.19309E+01   -0.31670E+01  9080   0.143E+01    0.442E+00
DAV:   2    -0.190564737190E+03    0.81063E-01   -0.27498E+00 11120   0.928E+00    0.704E+00
DAV:   3    -0.190135617461E+03    0.42912E+00   -0.13625E+00 12320   0.856E+00    0.427E+00
DAV:   4    -0.189923211983E+03    0.21241E+00   -0.76155E-01 12800   0.437E+00    0.253E+00
DAV:   5    -0.189899990938E+03    0.23221E-01   -0.37913E-01 12240   0.307E+00    0.281E+00
DAV:   6    -0.189825934684E+03    0.74056E-01   -0.15559E-01 12360   0.251E+00    0.856E-01
DAV:   7    -0.189817290442E+03    0.86442E-02   -0.17674E-02 11760   0.629E-01    0.246E-01
DAV:   8    -0.189818313793E+03   -0.10234E-02   -0.50533E-03 12520   0.393E-01    0.402E-01
DAV:   9    -0.189817187037E+03    0.11268E-02   -0.27219E-03 11280   0.331E-01    0.138E-01
DAV:  10    -0.189817450052E+03   -0.26302E-03   -0.92231E-04 10080   0.122E-01    0.128E-01
DAV:  11    -0.189817234719E+03    0.21533E-03   -0.45098E-04  8600   0.765E-02    0.206E-02
DAV:  12    -0.189817257688E+03   -0.22969E-04   -0.76858E-05  6880   0.289E-02
   3 F= -.18981726E+03 E0= -.18969785E+03  d E =-.110243E+01
       N       E                     dE             d eps       ncg     rms          rms(c)
DAV:   1    -0.191415408303E+03   -0.15982E+01   -0.82487E+01  8160   0.206E+01    0.459E+00
DAV:   2    -0.191225897105E+03    0.18951E+00   -0.54482E+00 13160   0.749E+00    0.439E+00
DAV:   3    -0.191375641682E+03   -0.14974E+00   -0.16033E+00 12240   0.895E+00    0.657E+00
DAV:   4    -0.190998378146E+03    0.37726E+00   -0.13953E+00 12320   0.777E+00    0.299E+00
DAV:   5    -0.190920686608E+03    0.77692E-01   -0.39189E-01 12400   0.345E+00    0.252E+00
DAV:   6    -0.190869097489E+03    0.51589E-01   -0.21001E-01 12400   0.305E+00    0.160E+00
DAV:   7    -0.190846223794E+03    0.22874E-01   -0.61274E-02 12640   0.138E+00    0.418E-01
DAV:   8    -0.190844485133E+03    0.17387E-02   -0.85235E-03 11520   0.453E-01    0.349E-01
DAV:   9    -0.190843668848E+03    0.81629E-03   -0.27867E-03 10840   0.352E-01    0.176E-01
DAV:  10    -0.190843888522E+03   -0.21967E-03   -0.13620E-03 11240   0.161E-01    0.113E-01
DAV:  11    -0.190843700596E+03    0.18793E-03   -0.59735E-04 10280   0.887E-02    0.434E-02
DAV:  12    -0.190843707501E+03   -0.69046E-05   -0.10242E-04  7000   0.394E-02
   4 F= -.19084371E+03 E0= -.19073574E+03  d E =-.102645E+01
       N       E                     dE             d eps       ncg     rms          rms(c)
DAV:   1    -0.192145040842E+03   -0.13013E+01   -0.17162E+02  8160   0.290E+01    0.547E+00
DAV:   2    -0.191923605300E+03    0.22144E+00   -0.90967E+00 10880   0.769E+00    0.341E+00
DAV:   3    -0.191798592207E+03    0.12501E+00   -0.14608E+00 11840   0.609E+00    0.369E+00
DAV:   4    -0.191820969203E+03   -0.22377E-01   -0.10786E+00 12320   0.756E+00    0.435E+00
DAV:   5    -0.191551676932E+03    0.26929E+00   -0.43846E-01 12360   0.453E+00    0.812E-01
DAV:   6    -0.191541855710E+03    0.98212E-02   -0.79874E-02 11280   0.114E+00    0.523E-01
DAV:   7    -0.191545634630E+03   -0.37789E-02   -0.34592E-02 11880   0.109E+00    0.963E-01
DAV:   8    -0.191537325630E+03    0.83090E-02   -0.18479E-02 11600   0.827E-01    0.170E-01
DAV:   9    -0.191537846806E+03   -0.52118E-03   -0.24578E-03 11520   0.238E-01    0.231E-01
DAV:  10    -0.191537735058E+03    0.11175E-03   -0.26494E-03 11120   0.330E-01    0.214E-01
DAV:  11    -0.191537364992E+03    0.37007E-03   -0.10872E-03 10120   0.192E-01    0.544E-02
DAV:  12    -0.191537334395E+03    0.30597E-04   -0.11663E-04  6000   0.453E-02
   5 F= -.19153733E+03 E0= -.19142674E+03  d E =-.693627E+00
       N       E                     dE             d eps       ncg     rms          rms(c)
DAV:   1    -0.191610854845E+03   -0.73490E-01   -0.52860E+00  8160   0.486E+00    0.639E-01
DAV:   2    -0.191663208393E+03   -0.52354E-01   -0.28027E-01 13440   0.274E+00    0.205E+00
DAV:   3    -0.191622157801E+03    0.41051E-01   -0.98041E-02 12520   0.206E+00    0.458E-01
DAV:   4    -0.191625077577E+03   -0.29198E-02   -0.21505E-02 10280   0.918E-01    0.765E-01
DAV:   5    -0.191619161396E+03    0.59162E-02   -0.13256E-02 11120   0.742E-01    0.231E-01
DAV:   6    -0.191619903308E+03   -0.74191E-03   -0.52915E-03 11120   0.387E-01    0.382E-01
DAV:   7    -0.191618949115E+03    0.95419E-03   -0.46460E-03 11200   0.440E-01    0.217E-01
DAV:   8    -0.191618447700E+03    0.50141E-03   -0.10007E-03  9880   0.174E-01    0.337E-02
DAV:   9    -0.191618457745E+03   -0.10045E-04   -0.97900E-05  6320   0.345E-02
   6 F= -.19161846E+03 E0= -.19150693E+03  d E =-.811233E-01
       N       E                     dE             d eps       ncg     rms          rms(c)
DAV:   1    -0.191691770838E+03   -0.73323E-01   -0.53741E+00  8160   0.488E+00    0.541E-01
DAV:   2    -0.191726368081E+03   -0.34597E-01   -0.17943E-01 13040   0.190E+00    0.170E+00
DAV:   3    -0.191699054696E+03    0.27313E-01   -0.78503E-02 12480   0.178E+00    0.493E-01
DAV:   4    -0.191699623860E+03   -0.56916E-03   -0.15617E-02 11000   0.749E-01    0.563E-01
DAV:   5    -0.191696380898E+03    0.32430E-02   -0.79688E-03 11160   0.606E-01    0.202E-01
DAV:   6    -0.191696442445E+03   -0.61547E-04   -0.30442E-03 11440   0.290E-01    0.257E-01
DAV:   7    -0.191696449109E+03   -0.66647E-05   -0.34488E-03 10560   0.377E-01    0.264E-01
DAV:   8    -0.191695765538E+03    0.68357E-03   -0.12359E-03  9120   0.212E-01    0.282E-02
DAV:   9    -0.191695789881E+03   -0.24342E-04   -0.85875E-05  5960   0.331E-02
   7 F= -.19169579E+03 E0= -.19158440E+03  d E =-.773321E-01
       N       E                     dE             d eps       ncg     rms          rms(c)
DAV:   1    -0.191763547936E+03   -0.67782E-01   -0.43799E+00  8160   0.444E+00    0.547E-01
DAV:   2    -0.191807057218E+03   -0.43509E-01   -0.19227E-01 11720   0.233E+00    0.204E+00
DAV:   3    -0.191769325681E+03    0.37732E-01   -0.93574E-02 12440   0.192E+00    0.396E-01
DAV:   4    -0.191770748915E+03   -0.14232E-02   -0.13402E-02 11400   0.743E-01    0.565E-01
DAV:   5    -0.191767483449E+03    0.32655E-02   -0.82350E-03 11080   0.609E-01    0.230E-01
DAV:   6    -0.191768179127E+03   -0.69568E-03   -0.45104E-03 11720   0.404E-01    0.385E-01
DAV:   7    -0.191767124819E+03    0.10543E-02   -0.36584E-03 11200   0.394E-01    0.148E-01
DAV:   8    -0.191766811394E+03    0.31343E-03   -0.61519E-04  9680   0.121E-01    0.211E-02
DAV:   9    -0.191766823979E+03   -0.12585E-04   -0.65709E-05  6840   0.259E-02
   8 F= -.19176682E+03 E0= -.19165676E+03  d E =-.710341E-01
       N       E                     dE             d eps       ncg     rms          rms(c)
DAV:   1    -0.191905442974E+03   -0.13863E+00   -0.34588E+01  8160   0.125E+01    0.144E+00
DAV:   2    -0.192195227892E+03   -0.28978E+00   -0.13612E+00 11440   0.577E+00    0.540E+00
DAV:   3    -0.191960542028E+03    0.23469E+00   -0.72759E-01 12320   0.515E+00    0.112E+00
DAV:   4    -0.191973397677E+03   -0.12856E-01   -0.95714E-02 12200   0.202E+00    0.178E+00
DAV:   5    -0.191943291594E+03    0.30106E-01   -0.67454E-02 11360   0.173E+00    0.654E-01
DAV:   6    -0.191944672498E+03   -0.13809E-02   -0.22989E-02 11800   0.102E+00    0.789E-01
DAV:   7    -0.191939981702E+03    0.46908E-02   -0.19559E-02 11720   0.104E+00    0.385E-01
DAV:   8    -0.191937509727E+03    0.24720E-02   -0.39849E-03 11160   0.360E-01    0.616E-02
DAV:   9    -0.191937538731E+03   -0.29005E-04   -0.56736E-04 10200   0.724E-02
   9 F= -.19193754E+03 E0= -.19183378E+03  d E =-.170715E+00
       N       E                     dE             d eps       ncg     rms          rms(c)
DAV:   1    -0.191975539522E+03   -0.38030E-01   -0.23688E+00  8160   0.330E+00    0.480E-01
DAV:   2    -0.191994690632E+03   -0.19151E-01   -0.11753E-01 12200   0.164E+00    0.136E+00
DAV:   3    -0.191978695899E+03    0.15995E-01   -0.44468E-02 12320   0.140E+00    0.388E-01
DAV:   4    -0.191979468014E+03   -0.77211E-03   -0.96588E-03 12240   0.676E-01    0.538E-01
DAV:   5    -0.191977073431E+03    0.23946E-02   -0.81947E-03 11200   0.628E-01    0.305E-01
DAV:   6    -0.191977385920E+03   -0.31249E-03   -0.40494E-03 11520   0.442E-01    0.354E-01
DAV:   7    -0.191976191817E+03    0.11941E-02   -0.24165E-03 10920   0.357E-01    0.683E-02
DAV:   8    -0.191976129262E+03    0.62555E-04   -0.16709E-04  6160   0.659E-02
  10 F= -.19197613E+03 E0= -.19187338E+03  d E =-.385905E-01
       N       E                     dE             d eps       ncg     rms          rms(c)
DAV:   1    -0.192031247080E+03   -0.55055E-01   -0.89076E+00  8160   0.629E+00    0.689E-01
DAV:   2    -0.192087638342E+03   -0.56391E-01   -0.29686E-01 11760   0.254E+00    0.222E+00
DAV:   3    -0.192045223399E+03    0.42415E-01   -0.11220E-01 12320   0.223E+00    0.556E-01
DAV:   4    -0.192048547793E+03   -0.33244E-02   -0.18996E-02 11240   0.910E-01    0.882E-01
DAV:   5    -0.192041563641E+03    0.69842E-02   -0.14112E-02 10840   0.841E-01    0.284E-01
DAV:   6    -0.192041543644E+03    0.19997E-04   -0.36915E-03 12160   0.333E-01    0.237E-01
DAV:   7    -0.192041104088E+03    0.43956E-03   -0.25611E-03 11880   0.389E-01    0.178E-01
DAV:   8    -0.192040688012E+03    0.41608E-03   -0.70061E-04  9600   0.193E-01    0.300E-02
DAV:   9    -0.192040688986E+03   -0.97372E-06   -0.10085E-04  6800   0.374E-02
  11 F= -.19204069E+03 E0= -.19194069E+03  d E =-.645597E-01
       N       E                     dE             d eps       ncg     rms          rms(c)
DAV:   1    -0.192054909012E+03   -0.14221E-01   -0.60497E-01  8160   0.165E+00    0.173E-01
DAV:   2    -0.192055862864E+03   -0.95385E-03   -0.15167E-02 13320   0.426E-01    0.216E-01
DAV:   3    -0.192055761762E+03    0.10110E-03   -0.25755E-03 12280   0.370E-01    0.209E-01
DAV:   4    -0.192055450027E+03    0.31173E-03   -0.13931E-03  9960   0.248E-01    0.163E-01
DAV:   5    -0.192055380293E+03    0.69734E-04   -0.10512E-03  9120   0.227E-01    0.146E-01
DAV:   6    -0.192055223424E+03    0.15687E-03   -0.55934E-04  8720   0.151E-01    0.721E-02
DAV:   7    -0.192055231230E+03   -0.78061E-05   -0.25180E-04  8360   0.122E-01
  12 F= -.19205523E+03 E0= -.19195563E+03  d E =-.145422E-01
       N       E                     dE             d eps       ncg     rms          rms(c)
DAV:   1    -0.192057597221E+03   -0.23738E-02   -0.12305E-02  8160   0.247E-01    0.285E-02
DAV:   2    -0.192057658134E+03   -0.60913E-04   -0.36801E-04  9920   0.797E-02
  13 F= -.19205766E+03 E0= -.19195803E+03  d E =-.242690E-02
       N       E                     dE             d eps       ncg     rms          rms(c)
DAV:   1    -0.192086131614E+03   -0.28534E-01   -0.19561E+00  8160   0.293E+00    0.290E-01
DAV:   2    -0.192092240942E+03   -0.61093E-02   -0.50580E-02 11520   0.816E-01    0.627E-01
DAV:   3    -0.192089288682E+03    0.29523E-02   -0.12167E-02 12440   0.760E-01    0.316E-01
DAV:   4    -0.192089073805E+03    0.21488E-03   -0.31347E-03 11480   0.376E-01    0.301E-01
DAV:   5    -0.192088369837E+03    0.70397E-03   -0.22741E-03  9920   0.347E-01    0.167E-01
DAV:   6    -0.192088604679E+03   -0.23484E-03   -0.12618E-03 10360   0.258E-01    0.207E-01
DAV:   7    -0.192088164183E+03    0.44050E-03   -0.84736E-04 10040   0.234E-01    0.503E-02
DAV:   8    -0.192088126893E+03    0.37289E-04   -0.78553E-05  5920   0.528E-02
  14 F= -.19208813E+03 E0= -.19199021E+03  d E =-.304688E-01
       N       E                     dE             d eps       ncg     rms          rms(c)
DAV:   1    -0.192079863433E+03    0.83007E-02   -0.17543E-01  8160   0.895E-01    0.117E-01
DAV:   2    -0.192080341432E+03   -0.47800E-03   -0.68090E-03 11480   0.279E-01    0.189E-01
DAV:   3    -0.192080353353E+03   -0.11921E-04   -0.19191E-03 10400   0.292E-01    0.208E-01
DAV:   4    -0.192079935607E+03    0.41775E-03   -0.66920E-04  8160   0.170E-01    0.479E-02
DAV:   5    -0.192079997490E+03   -0.61883E-04   -0.25814E-04  7040   0.120E-01
  15 F= -.19208000E+03 E0= -.19198158E+03  d E =0.812940E-02
       N       E                     dE             d eps       ncg     rms          rms(c)
DAV:   1    -0.192110486626E+03   -0.30551E-01   -0.20143E+00  8160   0.301E+00    0.311E-01
DAV:   2    -0.192115780089E+03   -0.52935E-02   -0.50638E-02 11600   0.867E-01    0.602E-01
DAV:   3    -0.192113098315E+03    0.26818E-02   -0.11353E-02 12560   0.783E-01    0.320E-01
DAV:   4    -0.192111967741E+03    0.11306E-02   -0.24109E-03 11400   0.314E-01    0.124E-01
DAV:   5    -0.192112046014E+03   -0.78273E-04   -0.14297E-03 11960   0.224E-01    0.188E-01
DAV:   6    -0.192111967133E+03    0.78882E-04   -0.14532E-03 10240   0.278E-01    0.171E-01
DAV:   7    -0.192111790437E+03    0.17670E-03   -0.69225E-04  8320   0.182E-01    0.108E-01
DAV:   8    -0.192111671360E+03    0.11908E-03   -0.18348E-04  6440   0.110E-01    0.180E-02
DAV:   9    -0.192111673314E+03   -0.19538E-05   -0.29001E-05  6800   0.241E-02
  16 F= -.19211167E+03 E0= -.19201486E+03  d E =-.316758E-01
       N       E                     dE             d eps       ncg     rms          rms(c)
DAV:   1    -0.192137225560E+03   -0.25554E-01   -0.13259E+00  8160   0.243E+00    0.230E-01
DAV:   2    -0.192139407263E+03   -0.21817E-02   -0.32813E-02 11800   0.523E-01    0.219E-01
DAV:   3    -0.192140408624E+03   -0.10014E-02   -0.47253E-03 12200   0.488E-01    0.402E-01
DAV:   4    -0.192139052549E+03    0.13561E-02   -0.29557E-03 10160   0.395E-01    0.184E-01
DAV:   5    -0.192138923265E+03    0.12928E-03   -0.11225E-03  9600   0.249E-01    0.150E-01
DAV:   6    -0.192138804009E+03    0.11926E-03   -0.74459E-04 10400   0.183E-01    0.890E-02
DAV:   7    -0.192138789027E+03    0.14982E-04   -0.38226E-04  8760   0.153E-01
  17 F= -.19213879E+03 E0= -.19204338E+03  d E =-.271157E-01
       N       E                     dE             d eps       ncg     rms          rms(c)
DAV:   1    -0.192133299676E+03    0.55043E-02   -0.55446E-02  8160   0.519E-01    0.679E-02
DAV:   2    -0.192133634022E+03   -0.33435E-03   -0.23083E-03 11480   0.216E-01    0.161E-01
DAV:   3    -0.192133382064E+03    0.25196E-03   -0.58253E-04  8800   0.187E-01    0.641E-02
DAV:   4    -0.192133415720E+03   -0.33656E-04   -0.20474E-04  6680   0.106E-01
  18 F= -.19213342E+03 E0= -.19203764E+03  d E =0.537331E-02
       N       E                     dE             d eps       ncg     rms          rms(c)
DAV:   1    -0.192116882236E+03    0.16500E-01   -0.53622E-01  8160   0.157E+00    0.176E-01
DAV:   2    -0.192118830505E+03   -0.19483E-02   -0.15694E-02 12520   0.510E-01    0.391E-01
DAV:   3    -0.192117706608E+03    0.11239E-02   -0.42091E-03 11720   0.448E-01    0.188E-01
DAV:   4    -0.192117685353E+03    0.21255E-04   -0.11468E-03  9840   0.230E-01    0.195E-01
DAV:   5    -0.192117374094E+03    0.31126E-03   -0.81182E-04  8840   0.228E-01    0.943E-02
DAV:   6    -0.192117381489E+03   -0.73952E-05   -0.36789E-04  8560   0.116E-01
  19 F= -.19211738E+03 E0= -.19202082E+03  d E =0.160342E-01
       N       E                     dE             d eps       ncg     rms          rms(c)
DAV:   1    -0.192142352349E+03   -0.24978E-01   -0.16569E+00  8160   0.271E+00    0.250E-01
DAV:   2    -0.192144977152E+03   -0.26248E-02   -0.41450E-02 11880   0.573E-01    0.194E-01
DAV:   3    -0.192146036306E+03   -0.10592E-02   -0.48974E-03 11200   0.459E-01    0.414E-01
DAV:   4    -0.192144510637E+03    0.15257E-02   -0.29219E-03 10360   0.406E-01    0.152E-01
DAV:   5    -0.192144656543E+03   -0.14591E-03   -0.13073E-03  9680   0.240E-01    0.205E-01
DAV:   6    -0.192144350914E+03    0.30563E-03   -0.11153E-03 10160   0.242E-01    0.997E-02
DAV:   7    -0.192144317802E+03    0.33112E-04   -0.40139E-04  8480   0.147E-01
  20 F= -.19214432E+03 E0= -.19204894E+03  d E =-.269363E-01
       N       E                     dE             d eps       ncg     rms          rms(c)
DAV:   1    -0.192155220060E+03   -0.10869E-01   -0.22882E-01  8160   0.105E+00    0.131E-01
DAV:   2    -0.192155608866E+03   -0.38881E-03   -0.67764E-03 11640   0.251E-01    0.167E-01
DAV:   3    -0.192155814548E+03   -0.20568E-03   -0.18896E-03 11040   0.300E-01    0.240E-01
DAV:   4    -0.192155324731E+03    0.48982E-03   -0.92022E-04  8640   0.208E-01    0.758E-02
DAV:   5    -0.192155348406E+03   -0.23674E-04   -0.33127E-04  8120   0.136E-01
  21 F= -.19215535E+03 E0= -.19206114E+03  d E =-.110306E-01
       N       E                     dE             d eps       ncg     rms          rms(c)
DAV:   1    -0.192126111916E+03    0.29213E-01   -0.15349E+00  8160   0.266E+00    0.286E-01
DAV:   2    -0.192130787307E+03   -0.46754E-02   -0.41934E-02 12160   0.734E-01    0.574E-01
DAV:   3    -0.192128662032E+03    0.21253E-02   -0.96638E-03 12120   0.707E-01    0.354E-01
DAV:   4    -0.192128041385E+03    0.62065E-03   -0.35294E-03 10960   0.377E-01    0.255E-01
DAV:   5    -0.192127663968E+03    0.37742E-03   -0.22357E-03  9600   0.353E-01    0.194E-01
DAV:   6    -0.192127367109E+03    0.29686E-03   -0.10915E-03 10080   0.222E-01    0.897E-02
DAV:   7    -0.192127383363E+03   -0.16254E-04   -0.48227E-04  9160   0.164E-01
  22 F= -.19212738E+03 E0= -.19203107E+03  d E =0.279650E-01
       N       E                     dE             d eps       ncg     rms          rms(c)
DAV:   1    -0.192122472938E+03    0.48942E-02   -0.11171E+00  8160   0.228E+00    0.285E-01
DAV:   2    -0.192124275918E+03   -0.18030E-02   -0.25625E-02 12480   0.574E-01    0.440E-01
DAV:   3    -0.192124117429E+03    0.15849E-03   -0.97569E-03 11360   0.661E-01    0.434E-01
DAV:   4    -0.192122743585E+03    0.13738E-02   -0.39679E-03 11440   0.407E-01    0.223E-01
DAV:   5    -0.192122499866E+03    0.24372E-03   -0.19194E-03 10040   0.332E-01    0.197E-01
DAV:   6    -0.192122226381E+03    0.27349E-03   -0.10247E-03 10000   0.229E-01    0.102E-01
DAV:   7    -0.192122183464E+03    0.42917E-04   -0.44056E-04  9160   0.167E-01
  23 F= -.19212218E+03 E0= -.19202475E+03  d E =0.519990E-02
       N       E                     dE             d eps       ncg     rms          rms(c)
DAV:   1    -0.192154398129E+03   -0.32172E-01   -0.28029E+00  8160   0.364E+00    0.426E-01
DAV:   2    -0.192158930104E+03   -0.45320E-02   -0.81843E-02 11720   0.909E-01    0.507E-01
DAV:   3    -0.192160386836E+03   -0.14567E-02   -0.15581E-02 12000   0.939E-01    0.636E-01
DAV:   4    -0.192156540810E+03    0.38460E-02   -0.79476E-03 11800   0.660E-01    0.320E-01
DAV:   5    -0.192156683837E+03   -0.14303E-03   -0.48976E-03 10160   0.494E-01    0.366E-01
DAV:   6    -0.192155800884E+03    0.88295E-03   -0.34838E-03 11080   0.392E-01    0.191E-01
DAV:   7    -0.192155559299E+03    0.24158E-03   -0.12698E-03  9840   0.279E-01    0.122E-01
DAV:   8    -0.192155360894E+03    0.19841E-03   -0.29597E-04  8680   0.129E-01    0.238E-02
DAV:   9    -0.192155353888E+03    0.70053E-05   -0.39984E-05  6480   0.259E-02
  24 F= -.19215535E+03 E0= -.19205960E+03  d E =-.331704E-01
       N       E                     dE             d eps       ncg     rms          rms(c)
DAV:   1    -0.192174180586E+03   -0.18820E-01   -0.95701E-01  8160   0.207E+00    0.201E-01
DAV:   2    -0.192176296219E+03   -0.21156E-02   -0.25528E-02 11200   0.494E-01    0.295E-01
DAV:   3    -0.192176383359E+03   -0.87139E-04   -0.42238E-03 12520   0.463E-01    0.316E-01
DAV:   4    -0.192175512162E+03    0.87120E-03   -0.16748E-03  9760   0.278E-01    0.122E-01
DAV:   5    -0.192175576840E+03   -0.64678E-04   -0.81345E-04  9400   0.216E-01
  25 F= -.19217558E+03 E0= -.19208020E+03  d E =-.202230E-01
       N       E                     dE             d eps       ncg     rms          rms(c)
DAV:   1    -0.192179627334E+03   -0.41152E-02   -0.10132E-01  8160   0.735E-01    0.140E-01
DAV:   2    -0.192181096874E+03   -0.14695E-02   -0.58584E-03 11240   0.525E-01    0.374E-01
DAV:   3    -0.192179440916E+03    0.16560E-02   -0.24060E-03 10400   0.421E-01    0.899E-02
DAV:   4    -0.192179521236E+03   -0.80320E-04   -0.55790E-04  8360   0.170E-01
  26 F= -.19217952E+03 E0= -.19208503E+03  d E =-.394440E-02
       N       E                     dE             d eps       ncg     rms          rms(c)
DAV:   1    -0.192201530735E+03   -0.22090E-01   -0.16462E+00  8160   0.280E+00    0.421E-01
DAV:   2    -0.192208354933E+03   -0.68242E-02   -0.66257E-02 12440   0.126E+00    0.819E-01
DAV:   3    -0.192201532035E+03    0.68229E-02   -0.16924E-02 12200   0.104E+00    0.285E-01
DAV:   4    -0.192200833829E+03    0.69821E-03   -0.40297E-03 12240   0.398E-01    0.306E-01
DAV:   5    -0.192200506219E+03    0.32761E-03   -0.36446E-03 12120   0.498E-01    0.282E-01
DAV:   6    -0.192199777397E+03    0.72882E-03   -0.18683E-03 11120   0.294E-01    0.122E-01
DAV:   7    -0.192199829134E+03   -0.51737E-04   -0.89262E-04  8920   0.207E-01
  27 F= -.19219983E+03 E0= -.19210531E+03  d E =-.203079E-01
       N       E                     dE             d eps       ncg     rms          rms(c)
DAV:   1    -0.192220670064E+03   -0.20893E-01   -0.10014E+00  8160   0.215E+00    0.277E-01
DAV:   2    -0.192224911536E+03   -0.42415E-02   -0.36015E-02 11480   0.837E-01    0.587E-01
DAV:   3    -0.192222303252E+03    0.26083E-02   -0.88998E-03 12280   0.699E-01    0.306E-01
DAV:   4    -0.192222133515E+03    0.16974E-03   -0.32155E-03 11280   0.423E-01    0.290E-01
DAV:   5    -0.192221373858E+03    0.75966E-03   -0.19406E-03 10040   0.358E-01    0.133E-01
DAV:   6    -0.192221209984E+03    0.16387E-03   -0.72732E-04 10280   0.147E-01    0.649E-02
DAV:   7    -0.192221246894E+03   -0.36910E-04   -0.31128E-04  9360   0.141E-01
  28 F= -.19222125E+03 E0= -.19212934E+03  d E =-.214178E-01
       N       E                     dE             d eps       ncg     rms          rms(c)
DAV:   1    -0.192238159309E+03   -0.16949E-01   -0.63965E-01  8160   0.172E+00    0.199E-01
DAV:   2    -0.192240161509E+03   -0.20022E-02   -0.20567E-02 11200   0.494E-01    0.354E-01
DAV:   3    -0.192239620185E+03    0.54132E-03   -0.43894E-03 12360   0.480E-01    0.270E-01
DAV:   4    -0.192238961776E+03    0.65841E-03   -0.13002E-03  9680   0.237E-01    0.898E-02
DAV:   5    -0.192238936547E+03    0.25229E-04   -0.49307E-04  9840   0.156E-01
  29 F= -.19223894E+03 E0= -.19214834E+03  d E =-.176897E-01
       N       E                     dE             d eps       ncg     rms          rms(c)
DAV:   1    -0.192228828504E+03    0.10133E-01   -0.19494E-01  8160   0.957E-01    0.125E-01
DAV:   2    -0.192230783650E+03   -0.19551E-02   -0.82518E-03 11240   0.453E-01    0.388E-01
DAV:   3    -0.192229158287E+03    0.16254E-02   -0.27855E-03 10960   0.411E-01    0.120E-01
DAV:   4    -0.192229161503E+03   -0.32159E-05   -0.60150E-04  8320   0.168E-01
  30 F= -.19222916E+03 E0= -.19213705E+03  d E =0.977504E-02
       N       E                     dE             d eps       ncg     rms          rms(c)
DAV:   1    -0.192258087937E+03   -0.28930E-01   -0.19392E+00  8160   0.300E+00    0.339E-01
DAV:   2    -0.192264010954E+03   -0.59230E-02   -0.64217E-02 11480   0.903E-01    0.595E-01
DAV:   3    -0.192262514174E+03    0.14968E-02   -0.12386E-02 12280   0.825E-01    0.449E-01
DAV:   4    -0.192260673042E+03    0.18411E-02   -0.37150E-03 11160   0.434E-01    0.197E-01
DAV:   5    -0.192260649817E+03    0.23225E-04   -0.17767E-03 10160   0.358E-01    0.203E-01
DAV:   6    -0.192260224469E+03    0.42535E-03   -0.11572E-03 10600   0.238E-01    0.666E-02
DAV:   7    -0.192260170688E+03    0.53781E-04   -0.22865E-04  7840   0.102E-01
  31 F= -.19226017E+03 E0= -.19217083E+03  d E =-.310092E-01
       N       E                     dE             d eps       ncg     rms          rms(c)
DAV:   1    -0.192273625512E+03   -0.13401E-01   -0.36368E-01  8160   0.130E+00    0.172E-01
DAV:   2    -0.192275578083E+03   -0.19526E-02   -0.13523E-02 11120   0.526E-01    0.388E-01
DAV:   3    -0.192274195345E+03    0.13827E-02   -0.35411E-03 11880   0.459E-01    0.161E-01
DAV:   4    -0.192274256026E+03   -0.60681E-04   -0.10914E-03  9640   0.250E-01    0.187E-01
DAV:   5    -0.192273942548E+03    0.31348E-03   -0.68618E-04  8920   0.215E-01    0.828E-02
DAV:   6    -0.192273956681E+03   -0.14133E-04   -0.28366E-04  8520   0.126E-01
  32 F= -.19227396E+03 E0= -.19218575E+03  d E =-.137860E-01
       N       E                     dE             d eps       ncg     rms          rms(c)
DAV:   1    -0.192297412105E+03   -0.23470E-01   -0.11454E+00  8160   0.230E+00    0.277E-01
DAV:   2    -0.192302279397E+03   -0.48673E-02   -0.36607E-02 11240   0.773E-01    0.587E-01
DAV:   3    -0.192299321143E+03    0.29583E-02   -0.81891E-03 11920   0.705E-01    0.276E-01
DAV:   4    -0.192299489946E+03   -0.16880E-03   -0.27381E-03 11200   0.413E-01    0.309E-01
DAV:   5    -0.192298465842E+03    0.10241E-02   -0.16261E-03 10000   0.343E-01    0.894E-02
DAV:   6    -0.192298618796E+03   -0.15295E-03   -0.54899E-04  9160   0.168E-01    0.134E-01
DAV:   7    -0.192298428640E+03    0.19016E-03   -0.37883E-04  8880   0.172E-01    0.496E-02
DAV:   8    -0.192298403166E+03    0.25475E-04   -0.60326E-05  6160   0.536E-02
  33 F= -.19229840E+03 E0= -.19221233E+03  d E =-.244465E-01
       N       E                     dE             d eps       ncg     rms          rms(c)
DAV:   1    -0.192305195339E+03   -0.67667E-02   -0.87837E-02  8160   0.645E-01    0.900E-02
DAV:   2    -0.192305642851E+03   -0.44751E-03   -0.33816E-03 11120   0.260E-01    0.196E-01
DAV:   3    -0.192305307903E+03    0.33495E-03   -0.99508E-04 10280   0.247E-01    0.893E-02
DAV:   4    -0.192305275298E+03    0.32605E-04   -0.21880E-04  7440   0.108E-01
  34 F= -.19230528E+03 E0= -.19221973E+03  d E =-.687213E-02
       N       E                     dE             d eps       ncg     rms          rms(c)
DAV:   1    -0.192303827717E+03    0.14802E-02   -0.38514E-03  8520   0.172E-01    0.507E-02
DAV:   2    -0.192304489847E+03   -0.66213E-03   -0.10631E-03 10720   0.274E-01    0.255E-01
DAV:   3    -0.192303799542E+03    0.69030E-03   -0.68182E-04  9000   0.231E-01    0.233E-02
DAV:   4    -0.192303820355E+03   -0.20813E-04   -0.27880E-05  5920   0.386E-02
  35 F= -.19230382E+03 E0= -.19221816E+03  d E =0.145494E-02
       N       E                     dE             d eps       ncg     rms          rms(c)
DAV:   1    -0.192313026551E+03   -0.92270E-02   -0.35163E-01  8160   0.129E+00    0.249E-01
DAV:   2    -0.192319831990E+03   -0.68054E-02   -0.25127E-02 11120   0.104E+00    0.805E-01
DAV:   3    -0.192313114699E+03    0.67173E-02   -0.91377E-03 11440   0.822E-01    0.186E-01
DAV:   4    -0.192313374750E+03   -0.26005E-03   -0.19570E-03  9840   0.363E-01    0.252E-01
DAV:   5    -0.192312738033E+03    0.63672E-03   -0.12939E-03  9560   0.289E-01    0.105E-01
DAV:   6    -0.192312705576E+03    0.32458E-04   -0.53266E-04  9000   0.163E-01
  36 F= -.19231271E+03 E0= -.19222854E+03  d E =-.888522E-02
       N       E                     dE             d eps       ncg     rms          rms(c)
DAV:   1    -0.192327489536E+03   -0.14752E-01   -0.23780E+00  8160   0.337E+00    0.643E-01
DAV:   2    -0.192358379200E+03   -0.30890E-01   -0.15803E-01 12120   0.237E+00    0.171E+00
DAV:   3    -0.192327694900E+03    0.30684E-01   -0.48252E-02 12240   0.189E+00    0.500E-01
DAV:   4    -0.192329610521E+03   -0.19156E-02   -0.13823E-02 11000   0.993E-01    0.716E-01
DAV:   5    -0.192324290056E+03    0.53205E-02   -0.10022E-02 11080   0.829E-01    0.254E-01
DAV:   6    -0.192323883837E+03    0.40622E-03   -0.36355E-03 11480   0.377E-01    0.227E-01
DAV:   7    -0.192323568306E+03    0.31553E-03   -0.17854E-03 12560   0.355E-01    0.150E-01
DAV:   8    -0.192323312516E+03    0.25579E-03   -0.42298E-04  8360   0.152E-01    0.310E-02
DAV:   9    -0.192323308172E+03    0.43437E-05   -0.56998E-05  6480   0.318E-02
  37 F= -.19232331E+03 E0= -.19224154E+03  d E =-.106026E-01
       N       E                     dE             d eps       ncg     rms          rms(c)
DAV:   1    -0.192351388639E+03   -0.28076E-01   -0.24975E+00  8160   0.358E+00    0.827E-01
DAV:   2    -0.192401061235E+03   -0.49673E-01   -0.19422E-01 12360   0.294E+00    0.243E+00
DAV:   3    -0.192342499429E+03    0.58562E-01   -0.92519E-02 12200   0.263E+00    0.516E-01
DAV:   4    -0.192343112128E+03   -0.61270E-03   -0.18294E-02 12200   0.976E-01    0.736E-01
DAV:   5    -0.192339549091E+03    0.35630E-02   -0.15581E-02 11720   0.104E+00    0.511E-01
DAV:   6    -0.192336955974E+03    0.25931E-02   -0.70624E-03 11120   0.602E-01    0.280E-01
DAV:   7    -0.192336369946E+03    0.58603E-03   -0.24198E-03 11520   0.390E-01    0.154E-01
DAV:   8    -0.192336094284E+03    0.27566E-03   -0.53057E-04  8480   0.159E-01    0.372E-02
DAV:   9    -0.192336066507E+03    0.27777E-04   -0.79217E-05  6680   0.363E-02
  38 F= -.19233607E+03 E0= -.19225293E+03  d E =-.127583E-01
       N       E                     dE             d eps       ncg     rms          rms(c)
DAV:   1    -0.192366047158E+03   -0.29953E-01   -0.18185E+00  8160   0.291E+00    0.367E-01
DAV:   2    -0.192375950324E+03   -0.99032E-02   -0.59369E-02 11240   0.114E+00    0.860E-01
DAV:   3    -0.192368430334E+03    0.75200E-02   -0.15893E-02 11880   0.103E+00    0.308E-01
DAV:   4    -0.192368350306E+03    0.80028E-04   -0.37276E-03 11480   0.446E-01    0.317E-01
DAV:   5    -0.192367410632E+03    0.93967E-03   -0.23115E-03 10680   0.403E-01    0.165E-01
DAV:   6    -0.192367341028E+03    0.69604E-04   -0.10079E-03 10400   0.238E-01    0.141E-01
DAV:   7    -0.192367288176E+03    0.52852E-04   -0.74556E-04 10560   0.238E-01
  39 F= -.19236729E+03 E0= -.19228617E+03  d E =-.312217E-01
       N       E                     dE             d eps       ncg     rms          rms(c)
DAV:   1    -0.192379802658E+03   -0.12462E-01   -0.32062E-01  8160   0.122E+00    0.163E-01
DAV:   2    -0.192381397790E+03   -0.15951E-02   -0.10940E-02 11320   0.460E-01    0.355E-01
DAV:   3    -0.192380245831E+03    0.11520E-02   -0.30673E-03 11840   0.447E-01    0.158E-01
DAV:   4    -0.192380147870E+03    0.97961E-04   -0.75734E-04  9400   0.197E-01
  40 F= -.19238015E+03 E0= -.19229992E+03  d E =-.128597E-01
       N       E                     dE             d eps       ncg     rms          rms(c)
DAV:   1    -0.192375634238E+03    0.46116E-02   -0.41520E-02  8160   0.483E-01    0.101E-01
DAV:   2    -0.192377928291E+03   -0.22941E-02   -0.43885E-03 12240   0.521E-01    0.456E-01
DAV:   3    -0.192375616064E+03    0.23122E-02   -0.25229E-03  9960   0.441E-01    0.427E-02
DAV:   4    -0.192375652033E+03   -0.35970E-04   -0.11274E-04  6560   0.794E-02
  41 F= -.19237565E+03 E0= -.19229541E+03  d E =0.449584E-02
       N       E                     dE             d eps       ncg     rms          rms(c)
DAV:   1    -0.192381045473E+03   -0.54294E-02   -0.12793E-01  8160   0.828E-01    0.200E-01
DAV:   2    -0.192382007138E+03   -0.96167E-03   -0.94190E-03 10080   0.545E-01    0.415E-01
DAV:   3    -0.192380469636E+03    0.15375E-02   -0.38361E-03 11040   0.517E-01    0.191E-01
DAV:   4    -0.192380288255E+03    0.18138E-03   -0.13190E-03  9520   0.285E-01    0.171E-01
DAV:   5    -0.192380109182E+03    0.17907E-03   -0.96945E-04  9560   0.264E-01    0.124E-01
DAV:   6    -0.192379919108E+03    0.19007E-03   -0.41746E-04  8840   0.138E-01    0.460E-02
DAV:   7    -0.192379915712E+03    0.33950E-05   -0.94782E-05  6440   0.820E-02
  42 F= -.19237992E+03 E0= -.19230028E+03  d E =-.426368E-02
       N       E                     dE             d eps       ncg     rms          rms(c)
DAV:   1    -0.192405659877E+03   -0.25741E-01   -0.13276E+00  8160   0.252E+00    0.354E-01
DAV:   2    -0.192410926217E+03   -0.52663E-02   -0.42291E-02 11520   0.937E-01    0.685E-01
DAV:   3    -0.192406670952E+03    0.42553E-02   -0.13748E-02 12400   0.968E-01    0.355E-01
DAV:   4    -0.192405492119E+03    0.11788E-02   -0.34583E-03 11440   0.399E-01    0.192E-01
DAV:   5    -0.192405476459E+03    0.15660E-04   -0.21258E-03 12160   0.367E-01    0.240E-01
DAV:   6    -0.192404982251E+03    0.49421E-03   -0.12997E-03 10000   0.291E-01    0.111E-01
DAV:   7    -0.192404932704E+03    0.49548E-04   -0.43690E-04  8360   0.174E-01
  43 F= -.19240493E+03 E0= -.19232623E+03  d E =-.250170E-01
       N       E                     dE             d eps       ncg     rms          rms(c)
DAV:   1    -0.192442020753E+03   -0.37039E-01   -0.37126E+00  8160   0.416E+00    0.537E-01
DAV:   2    -0.192461503769E+03   -0.19483E-01   -0.11954E-01 11280   0.166E+00    0.119E+00
DAV:   3    -0.192446326123E+03    0.15178E-01   -0.32904E-02 11880   0.152E+00    0.443E-01
DAV:   4    -0.192445501595E+03    0.82453E-03   -0.74841E-03 11560   0.619E-01    0.378E-01
DAV:   5    -0.192444256440E+03    0.12452E-02   -0.45462E-03 12240   0.575E-01    0.262E-01
DAV:   6    -0.192443747569E+03    0.50887E-03   -0.22059E-03 10560   0.341E-01    0.170E-01
DAV:   7    -0.192443860337E+03   -0.11277E-03   -0.13787E-03 10880   0.319E-01    0.203E-01
DAV:   8    -0.192443376100E+03    0.48424E-03   -0.56785E-04  8520   0.206E-01    0.263E-02
DAV:   9    -0.192443376499E+03   -0.39930E-06   -0.50614E-05  6040   0.298E-02
  44 F= -.19244338E+03 E0= -.19236676E+03  d E =-.384438E-01
       N       E                     dE             d eps       ncg     rms          rms(c)
DAV:   1    -0.192482878996E+03   -0.39503E-01   -0.12022E+01  8160   0.753E+00    0.907E-01
DAV:   2    -0.192538925479E+03   -0.56046E-01   -0.39875E-01 11520   0.281E+00    0.187E+00
DAV:   3    -0.192501371112E+03    0.37554E-01   -0.94825E-02 12120   0.253E+00    0.762E-01
DAV:   4    -0.192497275052E+03    0.40961E-02   -0.20233E-02 12400   0.103E+00    0.559E-01
DAV:   5    -0.192494516158E+03    0.27589E-02   -0.10616E-02 12080   0.914E-01    0.409E-01
DAV:   6    -0.192492975674E+03    0.15405E-02   -0.56942E-03 11680   0.543E-01    0.206E-01
DAV:   7    -0.192492305261E+03    0.67041E-03   -0.17653E-03 11080   0.200E-01    0.800E-02
DAV:   8    -0.192492271930E+03    0.33331E-04   -0.35492E-04  9680   0.138E-01
  45 F= -.19249227E+03 E0= -.19241747E+03  d E =-.488954E-01
       N       E                     dE             d eps       ncg     rms          rms(c)
DAV:   1    -0.192499965355E+03   -0.76601E-02   -0.30730E+00  8160   0.377E+00    0.474E-01
DAV:   2    -0.192516444397E+03   -0.16479E-01   -0.12053E-01 12000   0.149E+00    0.965E-01
DAV:   3    -0.192506393706E+03    0.10051E-01   -0.27252E-02 12120   0.136E+00    0.414E-01
DAV:   4    -0.192505250519E+03    0.11432E-02   -0.55833E-03 11600   0.553E-01    0.300E-01
DAV:   5    -0.192504417647E+03    0.83287E-03   -0.27820E-03 12120   0.466E-01    0.196E-01
DAV:   6    -0.192504125806E+03    0.29184E-03   -0.13791E-03 10760   0.250E-01    0.107E-01
DAV:   7    -0.192503990188E+03    0.13562E-03   -0.58755E-04 10240   0.128E-01    0.745E-02
DAV:   8    -0.192503945513E+03    0.44675E-04   -0.17394E-04  9360   0.109E-01
  46 F= -.19250395E+03 E0= -.19242965E+03  d E =-.116736E-01
       N       E                     dE             d eps       ncg     rms          rms(c)
DAV:   1    -0.192505509814E+03   -0.15196E-02   -0.15729E-01  8160   0.830E-01    0.889E-02
DAV:   2    -0.192506323082E+03   -0.81327E-03   -0.81464E-03 13120   0.310E-01    0.136E-01
DAV:   3    -0.192506238763E+03    0.84319E-04   -0.88702E-04 10880   0.242E-01
  47 F= -.19250624E+03 E0= -.19243203E+03  d E =-.229325E-02
       N       E                     dE             d eps       ncg     rms          rms(c)
DAV:   1    -0.192507388045E+03   -0.10650E-02   -0.14113E-01  8160   0.802E-01    0.102E-01
DAV:   2    -0.192508173763E+03   -0.78572E-03   -0.60941E-03 13560   0.354E-01    0.212E-01
DAV:   3    -0.192507738315E+03    0.43545E-03   -0.12818E-03 10080   0.291E-01    0.942E-02
DAV:   4    -0.192507632880E+03    0.10544E-03   -0.17503E-04  6160   0.995E-02    0.408E-02
DAV:   5    -0.192507642473E+03   -0.95924E-05   -0.14403E-04  6600   0.759E-02
  48 F= -.19250764E+03 E0= -.19243338E+03  d E =-.140371E-02
       N       E                     dE             d eps       ncg     rms          rms(c)
DAV:   1    -0.192508645261E+03   -0.10124E-02   -0.91613E-02  8160   0.651E-01    0.849E-02
DAV:   2    -0.192509214055E+03   -0.56879E-03   -0.46585E-03 12400   0.249E-01    0.177E-01
DAV:   3    -0.192508927501E+03    0.28655E-03   -0.85584E-04 10360   0.237E-01    0.812E-02
DAV:   4    -0.192508851787E+03    0.75713E-04   -0.10545E-04  6080   0.806E-02
  49 F= -.19250885E+03 E0= -.19243471E+03  d E =-.120931E-02
       N       E                     dE             d eps       ncg     rms          rms(c)
DAV:   1    -0.192509859539E+03   -0.93204E-03   -0.23150E-01  8160   0.102E+00    0.115E-01
DAV:   2    -0.192510843838E+03   -0.98430E-03   -0.91500E-03 11640   0.340E-01    0.186E-01
DAV:   3    -0.192510526482E+03    0.31736E-03   -0.12951E-03 11920   0.299E-01    0.109E-01
DAV:   4    -0.192510402743E+03    0.12374E-03   -0.28839E-04  8160   0.127E-01    0.600E-02
DAV:   5    -0.192510399893E+03    0.28500E-05   -0.16249E-04  7400   0.114E-01
  50 F= -.19251040E+03 E0= -.19243646E+03  d E =-.154811E-02
       N       E                     dE             d eps       ncg     rms          rms(c)
DAV:   1    -0.192510929282E+03   -0.52654E-03   -0.19603E-01  8160   0.942E-01    0.103E-01
DAV:   2    -0.192511651015E+03   -0.72173E-03   -0.76605E-03 11560   0.290E-01    0.145E-01
DAV:   3    -0.192511541173E+03    0.10984E-03   -0.10099E-03 11120   0.254E-01    0.114E-01
DAV:   4    -0.192511399183E+03    0.14199E-03   -0.26363E-04  8000   0.135E-01    0.558E-02
DAV:   5    -0.192511393548E+03    0.56352E-05   -0.11708E-04  6520   0.966E-02
  51 F= -.19251139E+03 E0= -.19243764E+03  d E =-.993654E-03
