<?xml version="1.0" encoding="ISO-8859-1"?>
<modeling>
 <generator>
  <i name="program" type="string">vasp </i>
  <i name="version" type="string">5.4.1  </i>
  <i name="subversion" type="string">05Feb16 (build Jul 05 2020 17:13:04) complex                          parallel </i>
  <i name="platform" type="string">IFC91_ompi </i>
  <i name="date" type="string">2024 05 10 </i>
  <i name="time" type="string">13:27:12 </i>
 </generator>
 <incar>
  <i type="int" name="ISTART">     0</i>
  <i type="string" name="PREC">normal</i>
  <i type="string" name="ALGO"> Normal</i>
  <i type="int" name="ISPIN">     1</i>
  <i type="int" name="ICHARG">     2</i>
  <i type="int" name="IBRION">     1</i>
  <i type="int" name="NSW">   100</i>
  <i type="int" name="ISIF">     3</i>
  <i type="int" name="ISYM">     0</i>
  <i name="SYMPREC">      0.00000001</i>
  <i name="POTIM">      0.50000000</i>
  <i type="logical" name="LREAL"> F  </i>
  <i type="logical" name="LPLANE"> F  </i>
  <i type="int" name="ISMEAR">     0</i>
  <i type="logical" name="LWAVE"> F  </i>
  <i type="logical" name="LCHARG"> F  </i>
  <v type="int" name="KPOINT_BSE">    -1     0     0     0</v>
 </incar>
 <kpoints>
  <generation param="Gamma">
   <v type="int" name="divisions">       8        8        1 </v>
   <v name="usershift">      0.00000000       0.00000000       0.00000000 </v>
   <v name="genvec1">      0.12500000       0.00000000       0.00000000 </v>
   <v name="genvec2">     -0.00000000       0.12500000       0.00000000 </v>
   <v name="genvec3">      0.00000000       0.00000000       1.00000000 </v>
   <v name="shift">      0.00000000       0.00000000       0.00000000 </v>
  </generation>
  <varray name="kpointlist" >
   <v>       0.00000000       0.00000000       0.00000000 </v>
   <v>       0.12500000       0.00000000       0.00000000 </v>
   <v>       0.25000000       0.00000000       0.00000000 </v>
   <v>       0.37500000       0.00000000       0.00000000 </v>
   <v>       0.50000000       0.00000000       0.00000000 </v>
   <v>       0.00000000       0.12500000       0.00000000 </v>
   <v>       0.12500000       0.12500000       0.00000000 </v>
   <v>       0.25000000       0.12500000       0.00000000 </v>
   <v>       0.37500000       0.12500000       0.00000000 </v>
   <v>       0.50000000       0.12500000       0.00000000 </v>
   <v>      -0.37500000       0.12500000       0.00000000 </v>
   <v>      -0.25000000       0.12500000       0.00000000 </v>
   <v>      -0.12500000       0.12500000       0.00000000 </v>
   <v>       0.00000000       0.25000000       0.00000000 </v>
   <v>       0.12500000       0.25000000       0.00000000 </v>
   <v>       0.25000000       0.25000000       0.00000000 </v>
   <v>       0.37500000       0.25000000       0.00000000 </v>
   <v>       0.50000000       0.25000000       0.00000000 </v>
   <v>      -0.37500000       0.25000000       0.00000000 </v>
   <v>      -0.25000000       0.25000000       0.00000000 </v>
   <v>      -0.12500000       0.25000000       0.00000000 </v>
   <v>      -0.00000000       0.37500000       0.00000000 </v>
   <v>       0.12500000       0.37500000       0.00000000 </v>
   <v>       0.25000000       0.37500000       0.00000000 </v>
   <v>       0.37500000       0.37500000       0.00000000 </v>
   <v>       0.50000000       0.37500000       0.00000000 </v>
   <v>      -0.37500000       0.37500000       0.00000000 </v>
   <v>      -0.25000000       0.37500000       0.00000000 </v>
   <v>      -0.12500000       0.37500000       0.00000000 </v>
   <v>       0.00000000       0.50000000       0.00000000 </v>
   <v>       0.12500000       0.50000000       0.00000000 </v>
   <v>       0.25000000       0.50000000       0.00000000 </v>
   <v>       0.37500000       0.50000000       0.00000000 </v>
   <v>       0.50000000       0.50000000       0.00000000 </v>
  </varray>
  <varray name="weights" >
   <v>       0.01562500 </v>
   <v>       0.03125000 </v>
   <v>       0.03125000 </v>
   <v>       0.03125000 </v>
   <v>       0.01562500 </v>
   <v>       0.03125000 </v>
   <v>       0.03125000 </v>
   <v>       0.03125000 </v>
   <v>       0.03125000 </v>
   <v>       0.03125000 </v>
   <v>       0.03125000 </v>
   <v>       0.03125000 </v>
   <v>       0.03125000 </v>
   <v>       0.03125000 </v>
   <v>       0.03125000 </v>
   <v>       0.03125000 </v>
   <v>       0.03125000 </v>
   <v>       0.03125000 </v>
   <v>       0.03125000 </v>
   <v>       0.03125000 </v>
   <v>       0.03125000 </v>
   <v>       0.03125000 </v>
   <v>       0.03125000 </v>
   <v>       0.03125000 </v>
   <v>       0.03125000 </v>
   <v>       0.03125000 </v>
   <v>       0.03125000 </v>
   <v>       0.03125000 </v>
   <v>       0.03125000 </v>
   <v>       0.01562500 </v>
   <v>       0.03125000 </v>
   <v>       0.03125000 </v>
   <v>       0.03125000 </v>
   <v>       0.01562500 </v>
  </varray>
 </kpoints>
 <parameters>
  <separator name="general" >
   <i type="string" name="SYSTEM">unknown system</i>
   <i type="logical" name="LCOMPAT"> F  </i>
  </separator>
  <separator name="electronic" >
   <i type="string" name="PREC">normal</i>
   <i name="ENMAX">    280.00000000</i>
   <i name="ENAUG">    373.43800000</i>
   <i name="EDIFF">      0.00010000</i>
   <i type="int" name="IALGO">    38</i>
   <i type="int" name="IWAVPR">    11</i>
   <i type="int" name="NBANDS">   120</i>
   <i name="NELECT">    159.00000000</i>
   <i type="int" name="TURBO">     0</i>
   <i type="int" name="IRESTART">     0</i>
   <i type="int" name="NREBOOT">     0</i>
   <i type="int" name="NMIN">     0</i>
   <i name="EREF">      0.00000000</i>
   <separator name="electronic smearing" >
    <i type="int" name="ISMEAR">     0</i>
    <i name="SIGMA">      0.20000000</i>
    <i name="KSPACING">      0.50000000</i>
    <i type="logical" name="KGAMMA"> T  </i>
   </separator>
   <separator name="electronic projectors" >
    <i type="logical" name="LREAL"> F  </i>
    <v name="ROPT">      0.00000000      0.00000000      0.00000000      0.00000000</v>
    <i type="int" name="LMAXPAW">  -100</i>
    <i type="int" name="LMAXMIX">     2</i>
    <i type="logical" name="NLSPLINE"> F  </i>
   </separator>
   <separator name="electronic startup" >
    <i type="int" name="ISTART">     0</i>
    <i type="int" name="ICHARG">     2</i>
    <i type="int" name="INIWAV">     1</i>
   </separator>
   <separator name="electronic spin" >
    <i type="int" name="ISPIN">     1</i>
    <i type="logical" name="LNONCOLLINEAR"> F  </i>
    <v name="MAGMOM">      1.00000000      1.00000000      1.00000000      1.00000000      1.00000000      1.00000000      1.00000000      1.00000000      1.00000000      1.00000000      1.00000000      1.00000000      1.00000000      1.00000000      1.00000000      1.00000000      1.00000000      1.00000000      1.00000000      1.00000000
      1.00000000      1.00000000      1.00000000      1.00000000      1.00000000      1.00000000      1.00000000</v>
    <i name="NUPDOWN">     -1.00000000</i>
    <i type="logical" name="LSORBIT"> F  </i>
    <v name="SAXIS">      0.00000000      0.00000000      1.00000000</v>
    <i type="logical" name="LSPIRAL"> F  </i>
    <v name="QSPIRAL">      0.00000000      0.00000000      0.00000000</v>
    <i type="logical" name="LZEROZ"> F  </i>
   </separator>
   <separator name="electronic exchange-correlation" >
    <i type="logical" name="LASPH"> F  </i>
    <i type="logical" name="LMETAGGA"> F  </i>
   </separator>
   <separator name="electronic convergence" >
    <i type="int" name="NELM">    60</i>
    <i type="int" name="NELMDL">    -5</i>
    <i type="int" name="NELMIN">     2</i>
    <i name="ENINI">    280.00000000</i>
    <separator name="electronic convergence detail" >
     <i type="logical" name="LDIAG"> T  </i>
     <i type="logical" name="LSUBROT"> F  </i>
     <i name="WEIMIN">      0.00100000</i>
     <i name="EBREAK">      0.00000021</i>
     <i name="DEPER">      0.30000000</i>
     <i type="int" name="NRMM">     4</i>
     <i name="TIME">      0.40000000</i>
    </separator>
   </separator>
   <separator name="electronic mixer" >
    <i name="AMIX">      0.40000000</i>
    <i name="BMIX">      1.00000000</i>
    <i name="AMIN">      0.10000000</i>
    <i name="AMIX_MAG">      1.60000000</i>
    <i name="BMIX_MAG">      1.00000000</i>
    <separator name="electronic mixer details" >
     <i type="int" name="IMIX">     4</i>
     <i type="logical" name="MIXFIRST"> F  </i>
     <i type="int" name="MAXMIX">   -45</i>
     <i name="WC">    100.00000000</i>
     <i type="int" name="INIMIX">     1</i>
     <i type="int" name="MIXPRE">     1</i>
     <i type="int" name="MREMOVE">     5</i>
    </separator>
   </separator>
   <separator name="electronic dipolcorrection" >
    <i type="logical" name="LDIPOL"> F  </i>
    <i type="logical" name="LMONO"> F  </i>
    <i type="int" name="IDIPOL">     0</i>
    <i name="EPSILON">      1.00000000</i>
    <v name="DIPOL">   -100.00000000   -100.00000000   -100.00000000</v>
    <i name="EFIELD">      0.00000000</i>
   </separator>
  </separator>
  <separator name="grids" >
   <i type="int" name="NGX">    42</i>
   <i type="int" name="NGY">    42</i>
   <i type="int" name="NGZ">   126</i>
   <i type="int" name="NGXF">    84</i>
   <i type="int" name="NGYF">    84</i>
   <i type="int" name="NGZF">   252</i>
   <i type="logical" name="ADDGRID"> F  </i>
  </separator>
  <separator name="ionic" >
   <i type="int" name="NSW">   100</i>
   <i type="int" name="IBRION">     1</i>
   <i type="int" name="ISIF">     3</i>
   <i name="PSTRESS">      0.00000000</i>
   <i name="EDIFFG">      0.00100000</i>
   <i type="int" name="NFREE">     0</i>
   <i name="POTIM">      0.50000000</i>
   <i name="SMASS">     -3.00000000</i>
   <i name="SCALEE">      1.00000000</i>
  </separator>
  <separator name="ionic md" >
   <i name="TEBEG">      0.00010000</i>
   <i name="TEEND">      0.00010000</i>
   <i type="int" name="NBLOCK">     1</i>
   <i type="int" name="KBLOCK">   100</i>
   <i type="int" name="NPACO">   256</i>
   <i name="APACO">     16.00000000</i>
  </separator>
  <separator name="symmetry" >
   <i type="int" name="ISYM">     0</i>
   <i name="SYMPREC">      0.00000001</i>
  </separator>
  <separator name="dos" >
   <i type="logical" name="LORBIT"> F  </i>
   <v name="RWIGS">     -1.00000000     -1.00000000     -1.00000000     -1.00000000</v>
   <i type="int" name="NEDOS">   301</i>
   <i name="EMIN">     10.00000000</i>
   <i name="EMAX">    -10.00000000</i>
   <i name="EFERMI">      0.00000000</i>
  </separator>
  <separator name="writing" >
   <i type="int" name="NWRITE">     2</i>
   <i type="logical" name="LWAVE"> F  </i>
   <i type="logical" name="LCHARG"> F  </i>
   <i type="logical" name="LPARD"> F  </i>
   <i type="logical" name="LVTOT"> F  </i>
   <i type="logical" name="LVHAR"> F  </i>
   <i type="logical" name="LELF"> F  </i>
   <i type="logical" name="LOPTICS"> F  </i>
   <v name="STM">      0.00000000      0.00000000      0.00000000      0.00000000      0.00000000      0.00000000      0.00000000</v>
  </separator>
  <separator name="performance" >
   <i type="int" name="NPAR">    40</i>
   <i type="int" name="NSIM">     4</i>
   <i type="int" name="NBLK">    -1</i>
   <i type="logical" name="LPLANE"> F  </i>
   <i type="logical" name="LSCALAPACK"> T  </i>
   <i type="logical" name="LSCAAWARE"> F  </i>
   <i type="logical" name="LSCALU"> F  </i>
   <i type="logical" name="LASYNC"> F  </i>
   <i type="logical" name="LORBITALREAL"> F  </i>
  </separator>
  <separator name="miscellaneous" >
   <i type="int" name="IDIOT">     3</i>
   <i type="logical" name="LMUSIC"> F  </i>
   <v name="POMASS">     50.94100000     95.94000000    183.85000000     32.06600000</v>
   <v name="DARWINR">      0.00000000      0.00000000      0.00000000      0.00000000</v>
   <v name="DARWINV">      1.00000000      1.00000000      1.00000000      1.00000000</v>
   <i type="logical" name="LCORR"> T  </i>
  </separator>
  <i type="logical" name="GGA_COMPAT"> T  </i>
  <i type="logical" name="LBERRY"> F  </i>
  <i type="int" name="ICORELEVEL">     0</i>
  <i type="logical" name="LDAU"> F  </i>
  <i type="int" name="I_CONSTRAINED_M">     0</i>
  <separator name="electronic exchange-correlation" >
   <i type="string" name="GGA">--</i>
   <i type="int" name="VOSKOWN">     0</i>
   <i type="logical" name="LHFCALC"> F  </i>
   <i type="string" name="PRECFOCK"></i>
   <i type="logical" name="LSYMGRAD"> F  </i>
   <i type="logical" name="LHFONE"> F  </i>
   <i type="logical" name="LRHFCALC"> F  </i>
   <i type="logical" name="LTHOMAS"> F  </i>
   <i type="logical" name="LMODELHF"> F  </i>
   <i name="ENCUT4O">     -1.00000000</i>
   <i type="int" name="EXXOEP">     0</i>
   <i type="int" name="FOURORBIT">     0</i>
   <i name="AEXX">      0.00000000</i>
   <i name="HFALPHA">      0.00000000</i>
   <i name="MCALPHA">      0.00000000</i>
   <i name="ALDAX">      1.00000000</i>
   <i name="AGGAX">      1.00000000</i>
   <i name="ALDAC">      1.00000000</i>
   <i name="AGGAC">      1.00000000</i>
   <i type="int" name="NKREDX">     1</i>
   <i type="int" name="NKREDY">     1</i>
   <i type="int" name="NKREDZ">     1</i>
   <i type="logical" name="SHIFTRED"> F  </i>
   <i type="logical" name="ODDONLY"> F  </i>
   <i type="logical" name="EVENONLY"> F  </i>
   <i type="int" name="LMAXFOCK">     0</i>
   <i type="int" name="NMAXFOCKAE">     0</i>
   <i type="logical" name="LFOCKAEDFT"> F  </i>
   <i name="HFSCREEN">      0.00000000</i>
   <i name="HFSCREENC">      0.00000000</i>
   <i type="int" name="NBANDSGWLOW">     0</i>
  </separator>
  <separator name="vdW DFT" >
   <i type="logical" name="LUSE_VDW"> F  </i>
   <i name="Zab_VDW">     -0.84910000</i>
   <i name="PARAM1">      0.12340000</i>
   <i name="PARAM2">      1.00000000</i>
   <i name="PARAM3">      0.00000000</i>
  </separator>
  <separator name="model GW" >
   <i type="int" name="MODEL_GW">     0</i>
   <i name="MODEL_EPS0">     58.26239943</i>
   <i name="MODEL_ALPHA">      1.00000000</i>
  </separator>
  <separator name="linear response parameters" >
   <i type="logical" name="LEPSILON"> F  </i>
   <i type="logical" name="LRPA"> F  </i>
   <i type="logical" name="LNABLA"> F  </i>
   <i type="logical" name="LVEL"> F  </i>
   <i type="int" name="KINTER">     0</i>
   <i name="CSHIFT">      0.10000000</i>
   <i name="OMEGAMAX">     -1.00000000</i>
   <i name="DEG_THRESHOLD">      0.00200000</i>
  </separator>
  <separator name="orbital magnetization" >
   <i type="logical" name="NUCIND"> F  </i>
   <v name="MAGPOS">      0.00000000      0.00000000      0.00000000</v>
   <i type="logical" name="LNICSALL"> T  </i>
   <i type="logical" name="ORBITALMAG"> F  </i>
   <i type="logical" name="LMAGBLOCH"> F  </i>
   <i type="logical" name="LCHIMAG"> F  </i>
   <i type="logical" name="LGAUGE"> T  </i>
   <i type="int" name="MAGATOM">     0</i>
   <v name="MAGDIPOL">      0.00000000      0.00000000      0.00000000</v>
   <v name="AVECCONST">      0.00000000      0.00000000      0.00000000</v>
  </separator>
  <separator name="response functions" >
   <i type="logical" name="LADDER"> F  </i>
   <i type="logical" name="LFXC"> F  </i>
   <i type="logical" name="LHARTREE"> T  </i>
   <i type="int" name="IBSE">     0</i>
   <v type="int" name="KPOINT">    -1     0     0     0</v>
   <i type="logical" name="LTCTE"> F  </i>
   <i type="logical" name="LTETE"> F  </i>
   <i type="logical" name="LTRIPLET"> F  </i>
   <i type="logical" name="LFXCEPS"> F  </i>
   <i type="logical" name="LFXHEG"> F  </i>
   <i type="int" name="NATURALO">     0</i>
   <i type="logical" name="L2ORDER"> F  </i>
   <i type="logical" name="LUSEW"> F  </i>
   <i name="ENCUTGW">     -2.00000000</i>
   <i name="ENCUTGWSOFT">     -2.00000000</i>
   <i name="ENCUTLF">     -1.00000000</i>
   <i type="int" name="LMAXMP2">    -1</i>
   <i name="SCISSOR">      0.00000000</i>
   <i type="int" name="NOMEGA">     0</i>
   <i type="int" name="NOMEGAR">     0</i>
   <i type="int" name="NBANDSGW">    -1</i>
   <i type="int" name="NBANDSO">    -1</i>
   <i type="int" name="NBANDSV">    -1</i>
   <i type="int" name="NELM">     1</i>
   <i type="int" name="NELMHF">     1</i>
   <i type="int" name="DIM">     3</i>
   <i type="int" name="ANTIRES">     0</i>
   <i name="OMEGAMAX">    -30.00000000</i>
   <i name="OMEGAMIN">    -30.00000000</i>
   <i name="OMEGATL">   -200.00000000</i>
   <i type="int" name="OMEGAGRID">     0</i>
   <i name="CSHIFT">     -0.10000000</i>
   <i type="logical" name="SELFENERGY"> F  </i>
   <i type="logical" name="LSPECTRAL"> F  </i>
   <i type="logical" name="LSPECTRALGW"> F  </i>
   <i type="logical" name="LSINGLES"> F  </i>
   <i type="logical" name="LFERMIGW"> F  </i>
   <i type="logical" name="ODDONLYGW"> F  </i>
   <i type="logical" name="EVENONLYGW"> F  </i>
   <i type="int" name="NKREDLFX">     1</i>
   <i type="int" name="NKREDLFY">     1</i>
   <i type="int" name="NKREDLFZ">     1</i>
   <i type="int" name="MAXMEM">  1800</i>
   <i type="int" name="TELESCOPE">     0</i>
   <i type="int" name="TAUPAR">     1</i>
   <i type="int" name="OMEGAPAR">    -1</i>
   <i name="LAMBDA">      1.00000000</i>
  </separator>
  <separator name="External order field" >
   <i name="OFIELD_KAPPA">      0.00000000</i>
   <v name="OFIELD_K">      0.00000000      0.00000000      0.00000000</v>
   <i name="OFIELD_Q6_NEAR">      0.00000000</i>
   <i name="OFIELD_Q6_FAR">      0.00000000</i>
   <i name="OFIELD_A">      0.00000000</i>
  </separator>
 </parameters>
 <atominfo>
  <atoms>      27 </atoms>
  <types>       4 </types>
  <array name="atoms" >
   <dimension dim="1">ion</dimension>
   <field type="string">element</field>
   <field type="int">atomtype</field>
   <set>
    <rc><c>V </c><c>   1</c></rc>
    <rc><c>V </c><c>   1</c></rc>
    <rc><c>V </c><c>   1</c></rc>
    <rc><c>Mo</c><c>   2</c></rc>
    <rc><c>Mo</c><c>   2</c></rc>
    <rc><c>Mo</c><c>   2</c></rc>
    <rc><c>W </c><c>   3</c></rc>
    <rc><c>W </c><c>   3</c></rc>
    <rc><c>W </c><c>   3</c></rc>
    <rc><c>S </c><c>   4</c></rc>
    <rc><c>S </c><c>   4</c></rc>
    <rc><c>S </c><c>   4</c></rc>
    <rc><c>S </c><c>   4</c></rc>
    <rc><c>S </c><c>   4</c></rc>
    <rc><c>S </c><c>   4</c></rc>
    <rc><c>S </c><c>   4</c></rc>
    <rc><c>S </c><c>   4</c></rc>
    <rc><c>S </c><c>   4</c></rc>
    <rc><c>S </c><c>   4</c></rc>
    <rc><c>S </c><c>   4</c></rc>
    <rc><c>S </c><c>   4</c></rc>
    <rc><c>S </c><c>   4</c></rc>
    <rc><c>S </c><c>   4</c></rc>
    <rc><c>S </c><c>   4</c></rc>
    <rc><c>S </c><c>   4</c></rc>
    <rc><c>S </c><c>   4</c></rc>
    <rc><c>S </c><c>   4</c></rc>
   </set>
  </array>
  <array name="atomtypes" >
   <dimension dim="1">type</dimension>
   <field type="int">atomspertype</field>
   <field type="string">element</field>
   <field>mass</field>
   <field>valence</field>
   <field type="string">pseudopotential</field>
   <set>
    <rc><c>   3</c><c>V </c><c>     50.94100000</c><c>      5.00000000</c><c> PAW_PBE V 08Apr2002                    </c></rc>
    <rc><c>   3</c><c>Mo</c><c>     95.94000000</c><c>      6.00000000</c><c> PAW_PBE Mo 08Apr2002                   </c></rc>
    <rc><c>   3</c><c>W </c><c>    183.85000000</c><c>      6.00000000</c><c> PAW_PBE W 08Apr2002                    </c></rc>
    <rc><c>  18</c><c>S </c><c>     32.06600000</c><c>      6.00000000</c><c>  PAW_PBE S 17Jan2003                   </c></rc>
   </set>
  </array>
 </atominfo>
 <structure name="initialpos" >
  <crystal>
   <varray name="basis" >
    <v>       8.66999996       5.03999989       0.00000000 </v>
    <v>      -8.66999982       5.04000013       0.00000000 </v>
    <v>       0.00000000       0.00000000      30.00000000 </v>
   </varray>
   <i name="volume">   2621.80797419 </i>
   <varray name="rec_basis" >
    <v>       0.05767013       0.09920635       0.00000000 </v>
    <v>      -0.05767013       0.09920635       0.00000000 </v>
    <v>       0.00000000       0.00000000       0.03333333 </v>
   </varray>
  </crystal>
  <varray name="positions" >
   <v>       0.33333334       0.33333334       0.00000000 </v>
   <v>       0.66666669       0.66666669       0.00000000 </v>
   <v>       1.00000000       0.33333334       0.00000000 </v>
   <v>       0.33333334       0.00000000       0.00000000 </v>
   <v>       0.66666669       0.00000000       0.00000000 </v>
   <v>       0.33333334       0.66666669       0.00000000 </v>
   <v>       0.00000000       0.00000000       0.00000000 </v>
   <v>       0.00000000       0.66666669       0.00000000 </v>
   <v>       0.66666669       0.33333334       0.00000000 </v>
   <v>       0.11068511       0.22244981       0.95539999 </v>
   <v>       0.22244981       0.11068511       0.04460000 </v>
   <v>       0.11068511       0.55578315       0.95539999 </v>
   <v>       0.22244981       0.44401845       0.04460000 </v>
   <v>       0.11068511       0.88911647       0.95539999 </v>
   <v>       0.22244981       0.77735180       0.04460000 </v>
   <v>       0.44401845       0.22244981       0.95539999 </v>
   <v>       0.55578315       0.11068511       0.04460000 </v>
   <v>       0.44401845       0.55578315       0.95539999 </v>
   <v>       0.55578315       0.44401845       0.04460000 </v>
   <v>       0.44401845       0.88911647       0.95539999 </v>
   <v>       0.55578315       0.77735180       0.04460000 </v>
   <v>       0.77735180       0.22244981       0.95539999 </v>
   <v>       0.88911647       0.11068511       0.04460000 </v>
   <v>       0.77735180       0.55578315       0.95539999 </v>
   <v>       0.88911647       0.44401845       0.04460000 </v>
   <v>       0.77735180       0.88911647       0.95539999 </v>
   <v>       0.88911647       0.77735180       0.04460000 </v>
  </varray>
 </structure>
 <calculation>
  <scstep>
   <time name="dav">   21.66   21.71</time>
   <time name="total">   21.71   21.76</time>
   <energy>
    <i name="alphaZ">     81.65567618 </i>
    <i name="ewald">  41890.23011081 </i>
    <i name="hartreedc"> -47722.85866975 </i>
    <i name="XCdc">   -242.92971623 </i>
    <i name="pawpsdc">   3467.42045192 </i>
    <i name="pawaedc">  -2871.19716117 </i>
    <i name="eentropy">     -0.52226366 </i>
    <i name="bandstr">   -239.73901377 </i>
    <i name="atom">   6761.44252427 </i>
    <i name="e_fr_energy">   1123.50193861 </i>
    <i name="e_wo_entrp">   1124.02420226 </i>
    <i name="e_0_energy">   1123.76307043 </i>
   </energy>
  </scstep>
  <scstep>
   <time name="dav">   27.94   28.01</time>
   <time name="total">   27.94   28.02</time>
   <energy>
    <i name="e_fr_energy">     -1.20412116 </i>
    <i name="e_wo_entrp">     -1.01231961 </i>
    <i name="e_0_energy">     -1.10822039 </i>
   </energy>
  </scstep>
  <scstep>
   <time name="dav">   27.46   27.53</time>
   <time name="total">   27.46   27.54</time>
   <energy>
    <i name="e_fr_energy">   -199.68073785 </i>
    <i name="e_wo_entrp">   -199.39671868 </i>
    <i name="e_0_energy">   -199.53872827 </i>
   </energy>
  </scstep>
  <scstep>
   <time name="dav">   29.83   29.90</time>
   <time name="total">   29.83   29.91</time>
   <energy>
    <i name="e_fr_energy">   -208.88960800 </i>
    <i name="e_wo_entrp">   -208.56727182 </i>
    <i name="e_0_energy">   -208.72843991 </i>
   </energy>
  </scstep>
  <scstep>
   <time name="dav">   28.35   28.42</time>
   <time name="total">   28.82   28.89</time>
   <energy>
    <i name="e_fr_energy">   -209.22381020 </i>
    <i name="e_wo_entrp">   -208.90459904 </i>
    <i name="e_0_energy">   -209.06420462 </i>
   </energy>
  </scstep>
  <scstep>
   <time name="dav">   31.13   31.20</time>
   <time name="total">   31.63   31.71</time>
   <energy>
    <i name="e_fr_energy">   -236.38327534 </i>
    <i name="e_wo_entrp">   -236.10614891 </i>
    <i name="e_0_energy">   -236.24471212 </i>
   </energy>
  </scstep>
  <scstep>
   <time name="dav">   32.05   32.12</time>
   <time name="total">   32.55   32.64</time>
   <energy>
    <i name="e_fr_energy">   -196.82407226 </i>
    <i name="e_wo_entrp">   -196.49394576 </i>
    <i name="e_0_energy">   -196.65900901 </i>
   </energy>
  </scstep>
  <scstep>
   <time name="dav">   29.45   29.52</time>
   <time name="total">   29.95   30.04</time>
   <energy>
    <i name="e_fr_energy">   -190.29953591 </i>
    <i name="e_wo_entrp">   -190.03196595 </i>
    <i name="e_0_energy">   -190.16575093 </i>
   </energy>
  </scstep>
  <scstep>
   <time name="dav">   29.91   29.98</time>
   <time name="total">   30.43   30.51</time>
   <energy>
    <i name="e_fr_energy">   -188.29476528 </i>
    <i name="e_wo_entrp">   -187.96010314 </i>
    <i name="e_0_energy">   -188.12743421 </i>
   </energy>
  </scstep>
  <scstep>
   <time name="dav">   32.34   32.42</time>
   <time name="total">   32.87   32.96</time>
   <energy>
    <i name="e_fr_energy">   -187.10085902 </i>
    <i name="e_wo_entrp">   -186.75434299 </i>
    <i name="e_0_energy">   -186.92760100 </i>
   </energy>
  </scstep>
  <scstep>
   <time name="dav">   30.40   30.48</time>
   <time name="total">   30.94   31.02</time>
   <energy>
    <i name="e_fr_energy">   -187.01435329 </i>
    <i name="e_wo_entrp">   -186.66765695 </i>
    <i name="e_0_energy">   -186.84100512 </i>
   </energy>
  </scstep>
  <scstep>
   <time name="dav">   31.50   31.58</time>
   <time name="total">   32.04   32.12</time>
   <energy>
    <i name="e_fr_energy">   -186.97497254 </i>
    <i name="e_wo_entrp">   -186.63858394 </i>
    <i name="e_0_energy">   -186.80677824 </i>
   </energy>
  </scstep>
  <scstep>
   <time name="dav">   32.06   32.13</time>
   <time name="total">   32.59   32.68</time>
   <energy>
    <i name="e_fr_energy">   -186.92988367 </i>
    <i name="e_wo_entrp">   -186.59100187 </i>
    <i name="e_0_energy">   -186.76044277 </i>
   </energy>
  </scstep>
  <scstep>
   <time name="dav">   31.66   31.74</time>
   <time name="total">   32.20   32.28</time>
   <energy>
    <i name="e_fr_energy">   -186.89202122 </i>
    <i name="e_wo_entrp">   -186.54844143 </i>
    <i name="e_0_energy">   -186.72023132 </i>
   </energy>
  </scstep>
  <scstep>
   <time name="dav">   29.51   29.58</time>
   <time name="total">   30.05   30.13</time>
   <energy>
    <i name="e_fr_energy">   -186.88752923 </i>
    <i name="e_wo_entrp">   -186.54311235 </i>
    <i name="e_0_energy">   -186.71532079 </i>
   </energy>
  </scstep>
  <scstep>
   <time name="dav">   32.34   32.42</time>
   <time name="total">   32.87   32.96</time>
   <energy>
    <i name="e_fr_energy">   -186.88741301 </i>
    <i name="e_wo_entrp">   -186.54384947 </i>
    <i name="e_0_energy">   -186.71563124 </i>
   </energy>
  </scstep>
  <scstep>
   <time name="dav">   31.07   31.14</time>
   <time name="total">   31.60   31.69</time>
   <energy>
    <i name="e_fr_energy">   -186.88507736 </i>
    <i name="e_wo_entrp">   -186.54197001 </i>
    <i name="e_0_energy">   -186.71352368 </i>
   </energy>
  </scstep>
  <scstep>
   <time name="dav">   31.19   31.27</time>
   <time name="total">   31.73   31.82</time>
   <energy>
    <i name="e_fr_energy">   -186.88398872 </i>
    <i name="e_wo_entrp">   -186.54142763 </i>
    <i name="e_0_energy">   -186.71270818 </i>
   </energy>
  </scstep>
  <scstep>
   <time name="dav">   27.69   27.75</time>
   <time name="total">   28.22   28.30</time>
   <energy>
    <i name="e_fr_energy">   -186.88378752 </i>
    <i name="e_wo_entrp">   -186.54071732 </i>
    <i name="e_0_energy">   -186.71225242 </i>
   </energy>
  </scstep>
  <scstep>
   <time name="dav">   23.62   23.67</time>
   <time name="total">   24.15   24.22</time>
   <energy>
    <i name="e_fr_energy">   -186.88465231 </i>
    <i name="e_wo_entrp">   -186.54191239 </i>
    <i name="e_0_energy">   -186.71328235 </i>
   </energy>
  </scstep>
  <scstep>
   <time name="dav">   21.70   21.76</time>
   <time name="total">   22.24   22.30</time>
   <energy>
    <i name="e_fr_energy">   -186.88540845 </i>
    <i name="e_wo_entrp">   -186.54255272 </i>
    <i name="e_0_energy">   -186.71398058 </i>
   </energy>
  </scstep>
  <scstep>
   <time name="dav">   19.72   19.76</time>
   <time name="total">   20.25   20.30</time>
   <energy>
    <i name="e_fr_energy">   -186.88626105 </i>
    <i name="e_wo_entrp">   -186.54341749 </i>
    <i name="e_0_energy">   -186.71483927 </i>
   </energy>
  </scstep>
  <scstep>
   <time name="dav">   20.18   20.23</time>
   <time name="total">   20.72   20.77</time>
   <energy>
    <i name="e_fr_energy">   -186.88750454 </i>
    <i name="e_wo_entrp">   -186.54479648 </i>
    <i name="e_0_energy">   -186.71615051 </i>
   </energy>
  </scstep>
  <scstep>
   <time name="dav">   18.91   18.95</time>
   <time name="total">   19.45   19.50</time>
   <energy>
    <i name="e_fr_energy">   -186.88803886 </i>
    <i name="e_wo_entrp">   -186.54525611 </i>
    <i name="e_0_energy">   -186.71664749 </i>
   </energy>
  </scstep>
  <scstep>
   <time name="dav">   16.13   16.17</time>
   <time name="total">   16.66   16.71</time>
   <energy>
    <i name="e_fr_energy">   -186.88844658 </i>
    <i name="e_wo_entrp">   -186.54564449 </i>
    <i name="e_0_energy">   -186.71704554 </i>
   </energy>
  </scstep>
  <scstep>
   <time name="dav">   19.00   19.04</time>
   <time name="total">   19.53   19.59</time>
   <energy>
    <i name="e_fr_energy">   -186.88868439 </i>
    <i name="e_wo_entrp">   -186.54590288 </i>
    <i name="e_0_energy">   -186.71729364 </i>
   </energy>
  </scstep>
  <scstep>
   <time name="dav">   19.62   19.67</time>
   <time name="total">   19.66   19.71</time>
   <energy>
    <i name="alphaZ">     81.65567618 </i>
    <i name="ewald">  41890.23011081 </i>
    <i name="hartreedc"> -47833.13999637 </i>
    <i name="XCdc">   -231.59825092 </i>
    <i name="pawpsdc">   4192.18681124 </i>
    <i name="pawaedc">  -3610.21253791 </i>
    <i name="eentropy">     -0.34278340 </i>
    <i name="bandstr">  -1437.11032489 </i>
    <i name="atom">   6761.44252427 </i>
    <i name="e_fr_energy">   -186.88877099 </i>
    <i name="e_wo_entrp">   -186.54598759 </i>
    <i name="e_0_energy">   -186.71737929 </i>
   </energy>
  </scstep>
  <structure>
   <crystal>
    <varray name="basis" >
     <v>       8.66999996       5.03999989       0.00000000 </v>
     <v>      -8.66999982       5.04000013       0.00000000 </v>
     <v>       0.00000000       0.00000000      30.00000000 </v>
    </varray>
    <i name="volume">   2621.80797419 </i>
    <varray name="rec_basis" >
     <v>       0.05767013       0.09920635       0.00000000 </v>
     <v>      -0.05767013       0.09920635       0.00000000 </v>
     <v>       0.00000000       0.00000000       0.03333333 </v>
    </varray>
   </crystal>
   <varray name="positions" >
    <v>       0.33333334       0.33333334       0.00000000 </v>
    <v>       0.66666669       0.66666669       0.00000000 </v>
    <v>       1.00000000       0.33333334       0.00000000 </v>
    <v>       0.33333334       0.00000000       0.00000000 </v>
    <v>       0.66666669       0.00000000       0.00000000 </v>
    <v>       0.33333334       0.66666669       0.00000000 </v>
    <v>       0.00000000       0.00000000       0.00000000 </v>
    <v>       0.00000000       0.66666669       0.00000000 </v>
    <v>       0.66666669       0.33333334       0.00000000 </v>
    <v>       0.11068511       0.22244981       0.95539999 </v>
    <v>       0.22244981       0.11068511       0.04460000 </v>
    <v>       0.11068511       0.55578315       0.95539999 </v>
    <v>       0.22244981       0.44401845       0.04460000 </v>
    <v>       0.11068511       0.88911647       0.95539999 </v>
    <v>       0.22244981       0.77735180       0.04460000 </v>
    <v>       0.44401845       0.22244981       0.95539999 </v>
    <v>       0.55578315       0.11068511       0.04460000 </v>
    <v>       0.44401845       0.55578315       0.95539999 </v>
    <v>       0.55578315       0.44401845       0.04460000 </v>
    <v>       0.44401845       0.88911647       0.95539999 </v>
    <v>       0.55578315       0.77735180       0.04460000 </v>
    <v>       0.77735180       0.22244981       0.95539999 </v>
    <v>       0.88911647       0.11068511       0.04460000 </v>
    <v>       0.77735180       0.55578315       0.95539999 </v>
    <v>       0.88911647       0.44401845       0.04460000 </v>
    <v>       0.77735180       0.88911647       0.95539999 </v>
    <v>       0.88911647       0.77735180       0.04460000 </v>
   </varray>
  </structure>
  <varray name="forces" >
   <v>      -0.08056675       0.04857746       0.02969240 </v>
   <v>      -0.43787947      -0.06337892       0.06235726 </v>
   <v>       0.06530395       0.04801950      -0.06006336 </v>
   <v>       0.52647932      -0.01272877       0.00817282 </v>
   <v>      -0.26245338      -0.44111713      -0.09627498 </v>
   <v>      -0.17198060       0.38165932       0.01915225 </v>
   <v>      -0.06008730       0.04469798       0.01821587 </v>
   <v>       0.29436511       0.43947353       0.07203818 </v>
   <v>       0.21423456      -0.47577090      -0.02578424 </v>
   <v>      -0.26537022       0.52233455      -1.45530576 </v>
   <v>      -0.60564000       0.53723840       2.11094109 </v>
   <v>       0.38175693      -0.72846934      -2.16957752 </v>
   <v>       0.32271392      -0.66703719       1.38850266 </v>
   <v>       0.04784538      -0.10064752      -2.89813126 </v>
   <v>      -0.23164523      -0.15944257       2.93420172 </v>
   <v>      -0.65930132       0.15165218      -2.10739800 </v>
   <v>      -0.23224615       0.14931341       2.91496285 </v>
   <v>       0.89796522      -0.00174034      -1.45937495 </v>
   <v>      -0.75777972       0.01914494       1.47657311 </v>
   <v>       0.11958606       0.02261920      -2.94678441 </v>
   <v>       0.77618715      -0.00844679       2.13789748 </v>
   <v>       0.37017316       0.71638125      -2.18468982 </v>
   <v>      -0.35881459       0.69748200       2.10889306 </v>
   <v>      -0.59966100       0.00168983      -2.03520780 </v>
   <v>       0.57601445       0.01700963       2.10123247 </v>
   <v>       0.60003440      -0.54081026      -2.13883887 </v>
   <v>      -0.46923386      -0.59770345       2.19459775 </v>
  </varray>
  <varray name="stress" >
   <v>       7.35329044      -0.09684417      -1.52881149 </v>
   <v>      -0.09684403       4.42560563      -0.04526055 </v>
   <v>      -1.52881134      -0.04526040      30.28135592 </v>
  </varray>
  <energy>
   <i name="e_fr_energy">   -186.88877099 </i>
   <i name="e_wo_entrp">   -186.71737929 </i>
   <i name="e_0_energy">     -0.34278340 </i>
  </energy>
  <time name="totalsc">  780.25  782.36</time>
 </calculation>
 <calculation>
  <scstep>
   <time name="dav">   21.60   21.65</time>
   <time name="total">   22.15   22.20</time>
   <energy>
    <i name="alphaZ">     78.91587007 </i>
    <i name="ewald">  39377.59337224 </i>
    <i name="hartreedc"> -45335.15028998 </i>
    <i name="XCdc">   -239.05720847 </i>
    <i name="pawpsdc">   4192.17211421 </i>
    <i name="pawaedc">  -3610.19794654 </i>
    <i name="eentropy">     -0.28177780 </i>
    <i name="bandstr">  -1412.98077537 </i>
    <i name="atom">   6761.44252427 </i>
    <i name="e_fr_energy">   -187.54411736 </i>
    <i name="e_wo_entrp">   -187.26233957 </i>
    <i name="e_0_energy">   -187.40322846 </i>
   </energy>
  </scstep>
  <scstep>
   <time name="dav">   30.32   30.40</time>
   <time name="total">   30.86   30.94</time>
   <energy>
    <i name="e_fr_energy">   -189.65142715 </i>
    <i name="e_wo_entrp">   -189.31145732 </i>
    <i name="e_0_energy">   -189.48144223 </i>
   </energy>
  </scstep>
  <scstep>
   <time name="dav">   30.27   30.35</time>
   <time name="total">   30.83   30.91</time>
   <energy>
    <i name="e_fr_energy">   -189.34142925 </i>
    <i name="e_wo_entrp">   -189.06749073 </i>
    <i name="e_0_energy">   -189.20445999 </i>
   </energy>
  </scstep>
  <scstep>
   <time name="dav">   30.56   30.63</time>
   <time name="total">   31.10   31.19</time>
   <energy>
    <i name="e_fr_energy">   -188.80640779 </i>
    <i name="e_wo_entrp">   -188.52553959 </i>
    <i name="e_0_energy">   -188.66597369 </i>
   </energy>
  </scstep>
  <scstep>
   <time name="dav">   30.27   30.34</time>
   <time name="total">   30.82   31.11</time>
   <energy>
    <i name="e_fr_energy">   -188.95863947 </i>
    <i name="e_wo_entrp">   -188.66471704 </i>
    <i name="e_0_energy">   -188.81167826 </i>
   </energy>
  </scstep>
  <scstep>
   <time name="dav">   31.15   31.23</time>
   <time name="total">   31.70   31.78</time>
   <energy>
    <i name="e_fr_energy">   -188.77934730 </i>
    <i name="e_wo_entrp">   -188.49984519 </i>
    <i name="e_0_energy">   -188.63959625 </i>
   </energy>
  </scstep>
  <scstep>
   <time name="dav">   28.72   28.79</time>
   <time name="total">   29.26   29.34</time>
   <energy>
    <i name="e_fr_energy">   -188.76587882 </i>
    <i name="e_wo_entrp">   -188.48490210 </i>
    <i name="e_0_energy">   -188.62539046 </i>
   </energy>
  </scstep>
  <scstep>
   <time name="dav">   31.64   31.72</time>
   <time name="total">   32.18   32.27</time>
   <energy>
    <i name="e_fr_energy">   -188.73591711 </i>
    <i name="e_wo_entrp">   -188.45538625 </i>
    <i name="e_0_energy">   -188.59565168 </i>
   </energy>
  </scstep>
  <scstep>
   <time name="dav">   30.21   30.28</time>
   <time name="total">   30.75   30.83</time>
   <energy>
    <i name="e_fr_energy">   -188.71597097 </i>
    <i name="e_wo_entrp">   -188.43639801 </i>
    <i name="e_0_energy">   -188.57618449 </i>
   </energy>
  </scstep>
  <scstep>
   <time name="dav">   27.01   27.07</time>
   <time name="total">   27.55   27.63</time>
   <energy>
    <i name="e_fr_energy">   -188.71525855 </i>
    <i name="e_wo_entrp">   -188.43583635 </i>
    <i name="e_0_energy">   -188.57554745 </i>
   </energy>
  </scstep>
  <scstep>
   <time name="dav">   30.59   30.67</time>
   <time name="total">   31.14   31.23</time>
   <energy>
    <i name="e_fr_energy">   -188.71474945 </i>
    <i name="e_wo_entrp">   -188.43577914 </i>
    <i name="e_0_energy">   -188.57526430 </i>
   </energy>
  </scstep>
  <scstep>
   <time name="dav">   29.01   29.08</time>
   <time name="total">   29.56   29.64</time>
   <energy>
    <i name="e_fr_energy">   -188.71489303 </i>
    <i name="e_wo_entrp">   -188.43584292 </i>
    <i name="e_0_energy">   -188.57536798 </i>
   </energy>
  </scstep>
  <scstep>
   <time name="dav">   21.36   21.41</time>
   <time name="total">   21.40   21.46</time>
   <energy>
    <i name="alphaZ">     78.91587007 </i>
    <i name="ewald">  39377.59337224 </i>
    <i name="hartreedc"> -45345.87150967 </i>
    <i name="XCdc">   -237.96850578 </i>
    <i name="pawpsdc">   3950.59814133 </i>
    <i name="pawaedc">  -3365.12102947 </i>
    <i name="eentropy">     -0.27904797 </i>
    <i name="bandstr">  -1408.02464174 </i>
    <i name="atom">   6761.44252427 </i>
    <i name="e_fr_energy">   -188.71482670 </i>
    <i name="e_wo_entrp">   -188.43577874 </i>
    <i name="e_0_energy">   -188.57530272 </i>
   </energy>
  </scstep>
  <structure>
   <crystal>
    <varray name="basis" >
     <v>       8.85497826       5.10276192       0.00000000 </v>
     <v>      -8.85783237       5.10767215       0.00000000 </v>
     <v>       0.00000000       0.00000000      30.00000000 </v>
    </varray>
    <i name="volume">   2712.83206706 </i>
    <varray name="rec_basis" >
     <v>       0.05648347       0.09795482       0.00000000 </v>
     <v>      -0.05642917       0.09792326       0.00000000 </v>
     <v>       0.00000000       0.00000000       0.03333333 </v>
    </varray>
   </crystal>
   <varray name="positions" >
    <v>       0.33334168       0.33378998       0.00004775 </v>
    <v>       0.66514511       0.66758161       0.00010028 </v>
    <v>       1.00041151       0.33338148      -0.00009659 </v>
    <v>       0.33473717      -0.00152567       0.00001314 </v>
    <v>       0.66382532      -0.00138099      -0.00015482 </v>
    <v>       0.33468148       0.66897178       0.00003080 </v>
    <v>       0.00004675       0.00038110       0.00002929 </v>
    <v>       0.00292228       0.66795103       0.00011584 </v>
    <v>       0.66498569       0.33046028      -0.00004146 </v>
    <v>       0.11244669       0.22568799       0.95305973 </v>
    <v>       0.22333603       0.11494131       0.04799458 </v>
    <v>       0.10826078       0.55123461       0.95191112 </v>
    <v>       0.22015523       0.43992819       0.04683283 </v>
    <v>       0.11033653       0.88850166       0.95073954 </v>
    <v>       0.22104225       0.77723318       0.04931845 </v>
    <v>       0.44290998       0.22500990       0.95201111 </v>
    <v>       0.55585162       0.11204587       0.04928752 </v>
    <v>       0.44650841       0.55327654       0.95305319 </v>
    <v>       0.55376652       0.44621835       0.04697446 </v>
    <v>       0.44445942       0.88889201       0.95066130 </v>
    <v>       0.55790220       0.77515189       0.04803793 </v>
    <v>       0.78181026       0.22484851       0.95188682 </v>
    <v>       0.89145632       0.11502152       0.04799129 </v>
    <v>       0.77569153       0.55745959       0.95212720 </v>
    <v>       0.89080044       0.44249730       0.04797897 </v>
    <v>       0.77643288       0.88485877       0.95196055 </v>
    <v>       0.88495039       0.77579669       0.04812911 </v>
   </varray>
  </structure>
  <varray name="forces" >
   <v>      -0.04999770       0.03188352       0.09033735 </v>
   <v>      -0.33456570      -0.00719538      -0.06116701 </v>
   <v>       0.02999498       0.00600981       0.06803685 </v>
   <v>       0.62535025      -0.07794218      -0.01031493 </v>
   <v>      -0.42318412      -0.43552247      -0.03032140 </v>
   <v>      -0.45181733       0.46494856       0.00170840 </v>
   <v>       0.07204453      -0.04728129       0.11358568 </v>
   <v>       0.18673650       0.55137975      -0.07263033 </v>
   <v>       0.27563798      -0.49131243      -0.12007158 </v>
   <v>       0.04841292      -0.06374808       0.03949056 </v>
   <v>      -0.07211228      -0.06130291      -0.14169473 </v>
   <v>      -0.10068298      -0.04561227       0.02577099 </v>
   <v>       0.00839816      -0.02569176      -0.15730120 </v>
   <v>      -0.06099750      -0.08462445       0.00877455 </v>
   <v>      -0.05107921      -0.09734710       0.28701690 </v>
   <v>       0.03063020       0.10287606       0.02372414 </v>
   <v>      -0.04913812       0.10006957       0.24177646 </v>
   <v>       0.02528692      -0.00559840       0.09592147 </v>
   <v>       0.10480116      -0.00186636      -0.15298600 </v>
   <v>       0.00460338       0.00006219      -0.40312838 </v>
   <v>       0.05152658      -0.00303553       0.18354597 </v>
   <v>      -0.11098652       0.04029168      -0.00197665 </v>
   <v>       0.10507092       0.03975100      -0.17032349 </v>
   <v>       0.10311651       0.00041729       0.36493346 </v>
   <v>      -0.09447541       0.00361401      -0.14831338 </v>
   <v>       0.07057027       0.05556287       0.04157676 </v>
   <v>       0.05685562       0.05121430      -0.11597045 </v>
  </varray>
  <varray name="stress" >
   <v>     -19.89916149       0.01488999       0.04199467 </v>
   <v>       0.01488994     -19.48321329       0.01401656 </v>
   <v>       0.04199498       0.01401643      -1.76547801 </v>
  </varray>
  <energy>
   <i name="e_fr_energy">   -188.71482670 </i>
   <i name="e_wo_entrp">   -188.57530272 </i>
   <i name="e_0_energy">     -0.27904797 </i>
  </energy>
  <time name="totalsc">  421.53  422.86</time>
 </calculation>
 <calculation>
  <scstep>
   <time name="dav">   23.51   23.57</time>
   <time name="total">   24.04   24.10</time>
   <energy>
    <i name="alphaZ">     82.33693482 </i>
    <i name="ewald">  41299.20565958 </i>
    <i name="hartreedc"> -47297.99195892 </i>
    <i name="XCdc">   -233.84846666 </i>
    <i name="pawpsdc">   3950.06194078 </i>
    <i name="pawaedc">  -3364.57974944 </i>
    <i name="eentropy">     -0.23645484 </i>
    <i name="bandstr">  -1387.03623008 </i>
    <i name="atom">   6761.44252427 </i>
    <i name="e_fr_energy">   -190.64580048 </i>
    <i name="e_wo_entrp">   -190.40934564 </i>
    <i name="e_0_energy">   -190.52757306 </i>
   </energy>
  </scstep>
  <scstep>
   <time name="dav">   27.69   27.75</time>
   <time name="total">   28.21   28.29</time>
   <energy>
    <i name="e_fr_energy">   -190.56473719 </i>
    <i name="e_wo_entrp">   -190.32750442 </i>
    <i name="e_0_energy">   -190.44612081 </i>
   </energy>
  </scstep>
  <scstep>
   <time name="dav">   30.11   30.19</time>
   <time name="total">   30.64   30.72</time>
   <energy>
    <i name="e_fr_energy">   -190.13561746 </i>
    <i name="e_wo_entrp">   -189.88363164 </i>
    <i name="e_0_energy">   -190.00962455 </i>
   </energy>
  </scstep>
  <scstep>
   <time name="dav">   31.18   31.25</time>
   <time name="total">   31.71   31.80</time>
   <energy>
    <i name="e_fr_energy">   -189.92321198 </i>
    <i name="e_wo_entrp">   -189.68731596 </i>
    <i name="e_0_energy">   -189.80526397 </i>
   </energy>
  </scstep>
  <scstep>
   <time name="dav">   29.94   30.01</time>
   <time name="total">   30.47   30.55</time>
   <energy>
    <i name="e_fr_energy">   -189.89999094 </i>
    <i name="e_wo_entrp">   -189.66044856 </i>
    <i name="e_0_energy">   -189.78021975 </i>
   </energy>
  </scstep>
  <scstep>
   <time name="dav">   30.25   30.32</time>
   <time name="total">   30.78   30.86</time>
   <energy>
    <i name="e_fr_energy">   -189.82593468 </i>
    <i name="e_wo_entrp">   -189.58684450 </i>
    <i name="e_0_energy">   -189.70638959 </i>
   </energy>
  </scstep>
  <scstep>
   <time name="dav">   29.00   29.07</time>
   <time name="total">   29.53   29.61</time>
   <energy>
    <i name="e_fr_energy">   -189.81729044 </i>
    <i name="e_wo_entrp">   -189.57867323 </i>
    <i name="e_0_energy">   -189.69798183 </i>
   </energy>
  </scstep>
  <scstep>
   <time name="dav">   30.57   30.64</time>
   <time name="total">   31.10   31.18</time>
   <energy>
    <i name="e_fr_energy">   -189.81831379 </i>
    <i name="e_wo_entrp">   -189.57956410 </i>
    <i name="e_0_energy">   -189.69893895 </i>
   </energy>
  </scstep>
  <scstep>
   <time name="dav">   28.05   28.11</time>
   <time name="total">   28.58   28.65</time>
   <energy>
    <i name="e_fr_energy">   -189.81718704 </i>
    <i name="e_wo_entrp">   -189.57847879 </i>
    <i name="e_0_energy">   -189.69783291 </i>
   </energy>
  </scstep>
  <scstep>
   <time name="dav">   25.59   25.65</time>
   <time name="total">   26.12   26.20</time>
   <energy>
    <i name="e_fr_energy">   -189.81745005 </i>
    <i name="e_wo_entrp">   -189.57874884 </i>
    <i name="e_0_energy">   -189.69809944 </i>
   </energy>
  </scstep>
  <scstep>
   <time name="dav">   22.51   22.57</time>
   <time name="total">   23.04   23.11</time>
   <energy>
    <i name="e_fr_energy">   -189.81723472 </i>
    <i name="e_wo_entrp">   -189.57842947 </i>
    <i name="e_0_energy">   -189.69783210 </i>
   </energy>
  </scstep>
  <scstep>
   <time name="dav">   19.14   19.19</time>
   <time name="total">   19.18   19.23</time>
   <energy>
    <i name="alphaZ">     82.33693482 </i>
    <i name="ewald">  41299.20565958 </i>
    <i name="hartreedc"> -47271.45248100 </i>
    <i name="XCdc">   -235.23789457 </i>
    <i name="pawpsdc">   4038.95778583 </i>
    <i name="pawaedc">  -3454.67629626 </i>
    <i name="eentropy">     -0.23881052 </i>
    <i name="bandstr">  -1410.15467984 </i>
    <i name="atom">   6761.44252427 </i>
    <i name="e_fr_energy">   -189.81725769 </i>
    <i name="e_wo_entrp">   -189.57844717 </i>
    <i name="e_0_energy">   -189.69785243 </i>
   </energy>
  </scstep>
  <structure>
   <crystal>
    <varray name="basis" >
     <v>       8.66718401       4.99690071       0.00000000 </v>
     <v>      -8.66981546       5.00142773       0.00000000 </v>
     <v>       0.00000000       0.00000000      30.00000000 </v>
    </varray>
    <i name="volume">   2600.11504453 </i>
    <varray name="rec_basis" >
     <v>       0.05770623       0.10003191       0.00000000 </v>
     <v>      -0.05765400       0.10000154       0.00000000 </v>
     <v>       0.00000000       0.00000000       0.03333333 </v>
    </varray>
   </crystal>
   <varray name="positions" >
    <v>       0.33334677       0.33389103       0.00009895 </v>
    <v>       0.66481183       0.66789061       0.00006561 </v>
    <v>       1.00045032       0.33336271      -0.00005803 </v>
    <v>       0.33520791      -0.00225540       0.00000730 </v>
    <v>       0.66269360      -0.00170008      -0.00017200 </v>
    <v>       0.33502192       0.67017934       0.00003177 </v>
    <v>       0.00003719       0.00023326       0.00009367 </v>
    <v>       0.00401989       0.66868985       0.00007468 </v>
    <v>       0.66443215       0.32937785      -0.00010951 </v>
    <v>       0.11238701       0.22553541       0.95308211 </v>
    <v>       0.22316469       0.11490843       0.04791428 </v>
    <v>       0.10808813       0.55125526       0.95192572 </v>
    <v>       0.22012050       0.43987736       0.04674369 </v>
    <v>       0.11013701       0.88841929       0.95074451 </v>
    <v>       0.22083107       0.77712012       0.04948112 </v>
    <v>       0.44311072       0.22515179       0.95202455 </v>
    <v>       0.55597109       0.11225961       0.04942454 </v>
    <v>       0.44652337       0.55324296       0.95310755 </v>
    <v>       0.55386405       0.44611469       0.04688776 </v>
    <v>       0.44446394       0.88888770       0.95043283 </v>
    <v>       0.55794663       0.77509740       0.04814195 </v>
    <v>       0.78177078       0.22502208       0.95188570 </v>
    <v>       0.89162342       0.11498690       0.04789476 </v>
    <v>       0.77579125       0.55736136       0.95233402 </v>
    <v>       0.89071573       0.44259395       0.04789491 </v>
    <v>       0.77659319       0.88488357       0.95198411 </v>
    <v>       0.88509028       0.77582740       0.04806338 </v>
   </varray>
  </structure>
  <varray name="forces" >
   <v>      -0.03377750       0.01559657       0.08420665 </v>
   <v>      -0.31368592       0.03311983      -0.07750892 </v>
   <v>       0.00394783      -0.01551106       0.08218701 </v>
   <v>       0.65700395      -0.10867342      -0.00633223 </v>
   <v>      -0.46044540      -0.42491757      -0.00556742 </v>
   <v>      -0.53368859       0.47547084      -0.00142863 </v>
   <v>       0.11387597      -0.08354706       0.10760080 </v>
   <v>       0.15793820       0.57867010      -0.08631632 </v>
   <v>       0.30241771      -0.48443112      -0.10888461 </v>
   <v>      -0.02316979       0.07049149      -0.42427419 </v>
   <v>      -0.03986568       0.07481165       0.33729317 </v>
   <v>       0.03619424      -0.08703370      -0.47463441 </v>
   <v>       0.03030508      -0.05929325       0.27225403 </v>
   <v>      -0.02647205       0.00239097      -0.55073629 </v>
   <v>       0.00119437      -0.01146278       0.87263951 </v>
   <v>      -0.08357017       0.00356487      -0.47581953 </v>
   <v>      -0.00317054       0.01988179       0.81137141 </v>
   <v>       0.07644642      -0.00926569      -0.34048838 </v>
   <v>      -0.03827618       0.00309146       0.30116129 </v>
   <v>       0.01011454      -0.00739831      -0.97819768 </v>
   <v>       0.10913557      -0.00035926       0.67863477 </v>
   <v>       0.03114975       0.08974148      -0.51211511 </v>
   <v>      -0.02630053       0.07382100       0.30665339 </v>
   <v>      -0.02862852       0.00245990      -0.09537200 </v>
   <v>       0.03569877       0.00089424       0.33557920 </v>
   <v>       0.05194809      -0.06793991      -0.44461867 </v>
   <v>      -0.00631962      -0.08417305       0.39271315 </v>
  </varray>
  <varray name="stress" >
   <v>     -10.13053771       0.01951590       0.01949515 </v>
   <v>       0.01951609      -9.82772790       0.02694809 </v>
   <v>       0.01949529       0.02694810       6.47609345 </v>
  </varray>
  <energy>
   <i name="e_fr_energy">   -189.81725769 </i>
   <i name="e_wo_entrp">   -189.69785243 </i>
   <i name="e_0_energy">     -0.23881052 </i>
  </energy>
  <time name="totalsc">  375.45  376.45</time>
 </calculation>
 <calculation>
  <scstep>
   <time name="dav">   21.64   21.69</time>
   <time name="total">   22.16   22.22</time>
   <energy>
    <i name="alphaZ">     85.80584450 </i>
    <i name="ewald">  42827.72435440 </i>
    <i name="hartreedc"> -48844.26781660 </i>
    <i name="XCdc">   -232.95456974 </i>
    <i name="pawpsdc">   4039.09757100 </i>
    <i name="pawaedc">  -3454.81420536 </i>
    <i name="eentropy">     -0.21084230 </i>
    <i name="bandstr">  -1373.23826847 </i>
    <i name="atom">   6761.44252427 </i>
    <i name="e_fr_energy">   -191.41540830 </i>
    <i name="e_wo_entrp">   -191.20456601 </i>
    <i name="e_0_energy">   -191.30998715 </i>
   </energy>
  </scstep>
  <scstep>
   <time name="dav">   31.95   32.03</time>
   <time name="total">   32.46   32.55</time>
   <energy>
    <i name="e_fr_energy">   -191.22589710 </i>
    <i name="e_wo_entrp">   -191.01532118 </i>
    <i name="e_0_energy">   -191.12060914 </i>
   </energy>
  </scstep>
  <scstep>
   <time name="dav">   29.94   30.01</time>
   <time name="total">   30.45   30.53</time>
   <energy>
    <i name="e_fr_energy">   -191.37564168 </i>
    <i name="e_wo_entrp">   -191.14328694 </i>
    <i name="e_0_energy">   -191.25946431 </i>
   </energy>
  </scstep>
  <scstep>
   <time name="dav">   30.11   30.18</time>
   <time name="total">   30.63   30.71</time>
   <energy>
    <i name="e_fr_energy">   -190.99837815 </i>
    <i name="e_wo_entrp">   -190.78500756 </i>
    <i name="e_0_energy">   -190.89169285 </i>
   </energy>
  </scstep>
  <scstep>
   <time name="dav">   30.28   30.36</time>
   <time name="total">   30.80   30.88</time>
   <energy>
    <i name="e_fr_energy">   -190.92068661 </i>
    <i name="e_wo_entrp">   -190.70814296 </i>
    <i name="e_0_energy">   -190.81441478 </i>
   </energy>
  </scstep>
  <scstep>
   <time name="dav">   30.30   30.38</time>
   <time name="total">   30.82   30.90</time>
   <energy>
    <i name="e_fr_energy">   -190.86909749 </i>
    <i name="e_wo_entrp">   -190.65145990 </i>
    <i name="e_0_energy">   -190.76027869 </i>
   </energy>
  </scstep>
  <scstep>
   <time name="dav">   30.80   30.87</time>
   <time name="total">   31.31   31.39</time>
   <energy>
    <i name="e_fr_energy">   -190.84622379 </i>
    <i name="e_wo_entrp">   -190.63036657 </i>
    <i name="e_0_energy">   -190.73829518 </i>
   </energy>
  </scstep>
  <scstep>
   <time name="dav">   28.52   28.59</time>
   <time name="total">   29.04   29.12</time>
   <energy>
    <i name="e_fr_energy">   -190.84448513 </i>
    <i name="e_wo_entrp">   -190.62860262 </i>
    <i name="e_0_energy">   -190.73654387 </i>
   </energy>
  </scstep>
  <scstep>
   <time name="dav">   27.13   27.20</time>
   <time name="total">   27.65   27.72</time>
   <energy>
    <i name="e_fr_energy">   -190.84366885 </i>
    <i name="e_wo_entrp">   -190.62779627 </i>
    <i name="e_0_energy">   -190.73573256 </i>
   </energy>
  </scstep>
  <scstep>
   <time name="dav">   27.88   27.95</time>
   <time name="total">   28.40   28.48</time>
   <energy>
    <i name="e_fr_energy">   -190.84388852 </i>
    <i name="e_wo_entrp">   -190.62802501 </i>
    <i name="e_0_energy">   -190.73595676 </i>
   </energy>
  </scstep>
  <scstep>
   <time name="dav">   25.97   26.03</time>
   <time name="total">   26.49   26.56</time>
   <energy>
    <i name="e_fr_energy">   -190.84370060 </i>
    <i name="e_wo_entrp">   -190.62777364 </i>
    <i name="e_0_energy">   -190.73573712 </i>
   </energy>
  </scstep>
  <scstep>
   <time name="dav">   19.33   19.38</time>
   <time name="total">   19.37   19.42</time>
   <energy>
    <i name="alphaZ">     85.80584450 </i>
    <i name="ewald">  42827.72435440 </i>
    <i name="hartreedc"> -48815.78765360 </i>
    <i name="XCdc">   -234.27330295 </i>
    <i name="pawpsdc">   4064.79786058 </i>
    <i name="pawaedc">  -3480.70993233 </i>
    <i name="eentropy">     -0.21593659 </i>
    <i name="bandstr">  -1399.62746578 </i>
    <i name="atom">   6761.44252427 </i>
    <i name="e_fr_energy">   -190.84370750 </i>
    <i name="e_wo_entrp">   -190.62777091 </i>
    <i name="e_0_energy">   -190.73573920 </i>
   </energy>
  </scstep>
  <structure>
   <crystal>
    <varray name="basis" >
     <v>       8.48666748       4.89777839       0.00000000 </v>
     <v>      -8.48846553       4.90086515       0.00000000 </v>
     <v>       0.00000000       0.00000000      30.00000000 </v>
    </varray>
    <i name="volume">   2494.99907825 </i>
    <varray name="rec_basis" >
     <v>       0.05892826       0.10206576       0.00000000 </v>
     <v>      -0.05889114       0.10204414       0.00000000 </v>
     <v>       0.00000000       0.00000000       0.03333333 </v>
    </varray>
   </crystal>
   <varray name="positions" >
    <v>       0.33330514       0.33404682       0.00026797 </v>
    <v>       0.66401621       0.66930060      -0.00010859 </v>
    <v>       1.00027652       0.33323516       0.00012400 </v>
    <v>       0.33687003      -0.00542908      -0.00000243 </v>
    <v>       0.65834229      -0.00261814      -0.00016256 </v>
    <v>       0.33597973       0.67522570       0.00002615 </v>
    <v>      -0.00010476      -0.00085098       0.00031122 </v>
    <v>       0.00824054       0.67185131      -0.00011550 </v>
    <v>       0.66254694       0.32523249      -0.00032532 </v>
    <v>       0.11297605       0.22649691       0.95181154 </v>
    <v>       0.22387412       0.11581305       0.04901777 </v>
    <v>       0.10776725       0.55028051       0.95051993 </v>
    <v>       0.21980653       0.43928180       0.04767075 </v>
    <v>       0.11032244       0.88869679       0.94913121 </v>
    <v>       0.22105236       0.77718278       0.05178254 </v>
    <v>       0.44242008       0.22539241       0.95061704 </v>
    <v>       0.55595053       0.11213012       0.05158563 </v>
    <v>       0.44680583       0.55282654       0.95203350 </v>
    <v>       0.55355214       0.44648967       0.04789546 </v>
    <v>       0.44444350       0.88877842       0.94792195 </v>
    <v>       0.55842800       0.77462528       0.04996531 </v>
    <v>       0.78277229       0.22539065       0.95039411 </v>
    <v>       0.89188691       0.11581705       0.04893316 </v>
    <v>       0.77551925       0.55767405       0.95174687 </v>
    <v>       0.89103034       0.44227730       0.04899902 </v>
    <v>       0.77602137       0.88399020       0.95065246 </v>
    <v>       0.88411279       0.77507705       0.04930669 </v>
   </varray>
  </structure>
  <varray name="forces" >
   <v>      -0.05597257       0.02536196       0.04621699 </v>
   <v>      -0.33782797       0.05498704      -0.07933872 </v>
   <v>      -0.00789506      -0.03469474       0.07694216 </v>
   <v>       0.63323681      -0.13488192      -0.00609741 </v>
   <v>      -0.46210221      -0.37033713       0.01952188 </v>
   <v>      -0.53277401       0.41527525      -0.00767144 </v>
   <v>       0.13522905      -0.09857760       0.07129503 </v>
   <v>       0.15779894       0.66028018      -0.05040399 </v>
   <v>       0.31876489      -0.54454014      -0.06543035 </v>
   <v>       0.00742874       0.02574723      -0.28942731 </v>
   <v>       0.08149364       0.03182577       0.19036009 </v>
   <v>       0.05829195       0.05144084      -0.32519932 </v>
   <v>      -0.04683759       0.08126785       0.19410269 </v>
   <v>       0.02553148       0.10492266      -0.40137108 </v>
   <v>       0.02509080       0.05000196       0.69571611 </v>
   <v>       0.01908484      -0.08435270      -0.31054011 </v>
   <v>       0.01259877      -0.06127622       0.60302765 </v>
   <v>      -0.06690197      -0.00177954      -0.24912000 </v>
   <v>       0.01337943      -0.00325300       0.21135356 </v>
   <v>       0.01782968       0.00022276      -0.78419229 </v>
   <v>      -0.04295323      -0.00856822       0.48832920 </v>
   <v>       0.08176093      -0.03185536      -0.39617530 </v>
   <v>      -0.04520125      -0.06311727       0.16104515 </v>
   <v>       0.05886523       0.00454607       0.07657889 </v>
   <v>      -0.02582885       0.00826322       0.12707051 </v>
   <v>      -0.05576702      -0.01329159      -0.28025116 </v>
   <v>       0.03367655      -0.06361737       0.28365857 </v>
  </varray>
  <varray name="stress" >
   <v>      -5.56433217      -0.07899179      -0.13520267 </v>
   <v>      -0.07899175      -5.68022024      -0.08345222 </v>
   <v>      -0.13520238      -0.08345234       4.48258585 </v>
  </varray>
  <energy>
   <i name="e_fr_energy">   -190.84370750 </i>
   <i name="e_wo_entrp">   -190.73573920 </i>
   <i name="e_0_energy">     -0.21593659 </i>
  </energy>
  <time name="totalsc">  381.53  382.55</time>
 </calculation>
 <calculation>
  <scstep>
   <time name="dav">   21.61   21.66</time>
   <time name="total">   22.11   22.17</time>
   <energy>
    <i name="alphaZ">     89.93636406 </i>
    <i name="ewald">  44563.76831072 </i>
    <i name="hartreedc"> -50604.31107206 </i>
    <i name="XCdc">   -231.95881249 </i>
    <i name="pawpsdc">   4064.75466434 </i>
    <i name="pawaedc">  -3480.66271760 </i>
    <i name="eentropy">     -0.21453256 </i>
    <i name="bandstr">  -1354.89976952 </i>
    <i name="atom">   6761.44252427 </i>
    <i name="e_fr_energy">   -192.14504084 </i>
    <i name="e_wo_entrp">   -191.93050828 </i>
    <i name="e_0_energy">   -192.03777456 </i>
   </energy>
  </scstep>
  <scstep>
   <time name="dav">   27.16   27.22</time>
   <time name="total">   27.66   27.73</time>
   <energy>
    <i name="e_fr_energy">   -191.92360530 </i>
    <i name="e_wo_entrp">   -191.70735045 </i>
    <i name="e_0_energy">   -191.81547787 </i>
   </energy>
  </scstep>
  <scstep>
   <time name="dav">   29.11   29.18</time>
   <time name="total">   29.62   29.70</time>
   <energy>
    <i name="e_fr_energy">   -191.79859221 </i>
    <i name="e_wo_entrp">   -191.57184085 </i>
    <i name="e_0_energy">   -191.68521653 </i>
   </energy>
  </scstep>
  <scstep>
   <time name="dav">   30.15   30.22</time>
   <time name="total">   30.65   30.74</time>
   <energy>
    <i name="e_fr_energy">   -191.82096920 </i>
    <i name="e_wo_entrp">   -191.61557102 </i>
    <i name="e_0_energy">   -191.71827011 </i>
   </energy>
  </scstep>
  <scstep>
   <time name="dav">   30.22   30.29</time>
   <time name="total">   30.73   30.80</time>
   <energy>
    <i name="e_fr_energy">   -191.55167693 </i>
    <i name="e_wo_entrp">   -191.32994564 </i>
    <i name="e_0_energy">   -191.44081128 </i>
   </energy>
  </scstep>
  <scstep>
   <time name="dav">   27.97   28.04</time>
   <time name="total">   28.49   28.78</time>
   <energy>
    <i name="e_fr_energy">   -191.54185571 </i>
    <i name="e_wo_entrp">   -191.32042149 </i>
    <i name="e_0_energy">   -191.43113860 </i>
   </energy>
  </scstep>
  <scstep>
   <time name="dav">   29.25   29.32</time>
   <time name="total">   29.75   29.83</time>
   <energy>
    <i name="e_fr_energy">   -191.54563463 </i>
    <i name="e_wo_entrp">   -191.32508767 </i>
    <i name="e_0_energy">   -191.43536115 </i>
   </energy>
  </scstep>
  <scstep>
   <time name="dav">   28.68   28.75</time>
   <time name="total">   29.19   29.27</time>
   <energy>
    <i name="e_fr_energy">   -191.53732563 </i>
    <i name="e_wo_entrp">   -191.31612554 </i>
    <i name="e_0_energy">   -191.42672559 </i>
   </energy>
  </scstep>
  <scstep>
   <time name="dav">   28.48   28.54</time>
   <time name="total">   28.98   29.06</time>
   <energy>
    <i name="e_fr_energy">   -191.53784681 </i>
    <i name="e_wo_entrp">   -191.31693157 </i>
    <i name="e_0_energy">   -191.42738919 </i>
   </energy>
  </scstep>
  <scstep>
   <time name="dav">   27.68   27.75</time>
   <time name="total">   28.19   28.26</time>
   <energy>
    <i name="e_fr_energy">   -191.53773506 </i>
    <i name="e_wo_entrp">   -191.31651221 </i>
    <i name="e_0_energy">   -191.42712363 </i>
   </energy>
  </scstep>
  <scstep>
   <time name="dav">   25.68   25.74</time>
   <time name="total">   26.19   26.26</time>
   <energy>
    <i name="e_fr_energy">   -191.53736499 </i>
    <i name="e_wo_entrp">   -191.31626934 </i>
    <i name="e_0_energy">   -191.42681717 </i>
   </energy>
  </scstep>
  <scstep>
   <time name="dav">   17.28   17.32</time>
   <time name="total">   17.32   17.37</time>
   <energy>
    <i name="alphaZ">     89.93636406 </i>
    <i name="ewald">  44563.76831072 </i>
    <i name="hartreedc"> -50572.71905199 </i>
    <i name="XCdc">   -233.38274478 </i>
    <i name="pawpsdc">   4087.39429975 </i>
    <i name="pawaedc">  -3503.43098237 </i>
    <i name="eentropy">     -0.22117998 </i>
    <i name="bandstr">  -1384.32487409 </i>
    <i name="atom">   6761.44252427 </i>
    <i name="e_fr_energy">   -191.53733440 </i>
    <i name="e_wo_entrp">   -191.31615442 </i>
    <i name="e_0_energy">   -191.42674441 </i>
   </energy>
  </scstep>
  <structure>
   <crystal>
    <varray name="basis" >
     <v>       8.29014684       4.77866864       0.00000000 </v>
     <v>      -8.29618372       4.78909703       0.00000000 </v>
     <v>       0.00000000       0.00000000      30.00000000 </v>
    </varray>
    <i name="volume">   2380.41091794 </i>
    <varray name="rec_basis" >
     <v>       0.06035635       0.10455569       0.00000000 </v>
     <v>      -0.06022492       0.10447961       0.00000000 </v>
     <v>       0.00000000       0.00000000       0.03333333 </v>
    </varray>
   </crystal>
   <varray name="positions" >
    <v>       0.33320856       0.33462596       0.00046013 </v>
    <v>       0.66248396       0.67228678      -0.00042957 </v>
    <v>       0.99975222       0.33287926       0.00043724 </v>
    <v>       0.33963663      -0.01147850      -0.00002245 </v>
    <v>       0.65066787      -0.00384788      -0.00007681 </v>
    <v>       0.33725140       0.68405239      -0.00000327 </v>
    <v>      -0.00037683      -0.00306755       0.00059964 </v>
    <v>       0.01705841       0.67859583      -0.00034112 </v>
    <v>       0.65840898       0.31667509      -0.00058985 </v>
    <v>       0.11362751       0.22732594       0.95019577 </v>
    <v>       0.22518802       0.11612898       0.05027063 </v>
    <v>       0.10864191       0.54996794       0.94872462 </v>
    <v>       0.22024253       0.44015109       0.04885777 </v>
    <v>       0.11182519       0.88983546       0.94698675 </v>
    <v>       0.22201489       0.77768095       0.05510318 </v>
    <v>       0.44114602       0.22440056       0.94887124 </v>
    <v>       0.55527679       0.11116856       0.05454885 </v>
    <v>       0.44651451       0.55303212       0.95062075 </v>
    <v>       0.55335772       0.44665351       0.04917778 </v>
    <v>       0.44453774       0.88862513       0.94426035 </v>
    <v>       0.55828006       0.77461016       0.05240706 </v>
    <v>       0.78345627       0.22460107       0.94833221 </v>
    <v>       0.89094673       0.11587335       0.05007013 </v>
    <v>       0.77569321       0.55761254       0.95153090 </v>
    <v>       0.89119211       0.44227387       0.05004266 </v>
    <v>       0.77512866       0.88372501       0.94903657 </v>
    <v>       0.88305336       0.77382681       0.05092871 </v>
   </varray>
  </structure>
  <varray name="forces" >
   <v>      -0.10994330       0.08791075       0.04480830 </v>
   <v>      -0.46238827       0.04573815       0.00138316 </v>
   <v>       0.00256319      -0.06565098       0.02155591 </v>
   <v>       0.00712636      -0.05267789      -0.03585390 </v>
   <v>      -0.09531017      -0.02356461      -0.06775694 </v>
   <v>      -0.05519606       0.02722885      -0.03398492 </v>
   <v>       0.19063531      -0.06788385       0.05162494 </v>
   <v>       0.09600377       0.53811697       0.06298547 </v>
   <v>       0.26298438      -0.52330933      -0.02755965 </v>
   <v>       0.01962121      -0.03411563       0.00880844 </v>
   <v>       0.19153132      -0.04141597      -0.09184603 </v>
   <v>       0.00613303       0.18310197      -0.02754635 </v>
   <v>      -0.12204475       0.19191230      -0.03227105 </v>
   <v>       0.06644099       0.21327789      -0.16886563 </v>
   <v>       0.01870194       0.08098354       0.30084598 </v>
   <v>       0.14094442      -0.18724173      -0.02792060 </v>
   <v>      -0.00369205      -0.14230766       0.25674963 </v>
   <v>      -0.21331459       0.01225631      -0.02429644 </v>
   <v>       0.09456983       0.02027626      -0.08318169 </v>
   <v>       0.02156394       0.02546648      -0.27872913 </v>
   <v>      -0.16234233      -0.01103691       0.12162438 </v>
   <v>       0.08418953      -0.13993538      -0.10556858 </v>
   <v>      -0.01013392      -0.20301552      -0.08871232 </v>
   <v>       0.21536445       0.01617992       0.42414384 </v>
   <v>      -0.13033353       0.02575032      -0.20796697 </v>
   <v>      -0.16509188       0.05922839       0.00237491 </v>
   <v>       0.11141719      -0.03527265       0.00515526 </v>
  </varray>
  <varray name="stress" >
   <v>       0.45924533      -0.23073856      -0.19558983 </v>
   <v>      -0.23073853       0.26902411      -0.28756202 </v>
   <v>      -0.19558983      -0.28756198      -0.68365212 </v>
  </varray>
  <energy>
   <i name="e_fr_energy">   -191.53733440 </i>
   <i name="e_wo_entrp">   -191.42674441 </i>
   <i name="e_0_energy">     -0.22117998 </i>
  </energy>
  <time name="totalsc">  370.98  372.17</time>
 </calculation>
 <calculation>
  <scstep>
   <time name="dav">   21.54   21.59</time>
   <time name="total">   22.05   22.10</time>
   <energy>
    <i name="alphaZ">     89.68804260 </i>
    <i name="ewald">  44440.52021407 </i>
    <i name="hartreedc"> -50447.19930915 </i>
    <i name="XCdc">   -233.60203878 </i>
    <i name="pawpsdc">   4087.24677819 </i>
    <i name="pawaedc">  -3503.27833555 </i>
    <i name="eentropy">     -0.22199593 </i>
    <i name="bandstr">  -1386.20673457 </i>
    <i name="atom">   6761.44252427 </i>
    <i name="e_fr_energy">   -191.61085484 </i>
    <i name="e_wo_entrp">   -191.38885891 </i>
    <i name="e_0_energy">   -191.49985688 </i>
   </energy>
  </scstep>
  <scstep>
   <time name="dav">   32.58   32.66</time>
   <time name="total">   33.09   33.18</time>
   <energy>
    <i name="e_fr_energy">   -191.66320839 </i>
    <i name="e_wo_entrp">   -191.43427995 </i>
    <i name="e_0_energy">   -191.54874417 </i>
   </energy>
  </scstep>
  <scstep>
   <time name="dav">   30.56   30.63</time>
   <time name="total">   31.06   31.15</time>
   <energy>
    <i name="e_fr_energy">   -191.62215780 </i>
    <i name="e_wo_entrp">   -191.39958093 </i>
    <i name="e_0_energy">   -191.51086937 </i>
   </energy>
  </scstep>
  <scstep>
   <time name="dav">   26.06   26.12</time>
   <time name="total">   26.56   26.64</time>
   <energy>
    <i name="e_fr_energy">   -191.62507758 </i>
    <i name="e_wo_entrp">   -191.40312960 </i>
    <i name="e_0_energy">   -191.51410359 </i>
   </energy>
  </scstep>
  <scstep>
   <time name="dav">   27.68   27.75</time>
   <time name="total">   28.19   28.26</time>
   <energy>
    <i name="e_fr_energy">   -191.61916140 </i>
    <i name="e_wo_entrp">   -191.39528628 </i>
    <i name="e_0_energy">   -191.50722384 </i>
   </energy>
  </scstep>
  <scstep>
   <time name="dav">   27.65   27.72</time>
   <time name="total">   28.16   28.23</time>
   <energy>
    <i name="e_fr_energy">   -191.61990331 </i>
    <i name="e_wo_entrp">   -191.39707725 </i>
    <i name="e_0_energy">   -191.50849028 </i>
   </energy>
  </scstep>
  <scstep>
   <time name="dav">   27.82   27.89</time>
   <time name="total">   28.32   28.40</time>
   <energy>
    <i name="e_fr_energy">   -191.61894911 </i>
    <i name="e_wo_entrp">   -191.39592465 </i>
    <i name="e_0_energy">   -191.50743688 </i>
   </energy>
  </scstep>
  <scstep>
   <time name="dav">   25.18   25.24</time>
   <time name="total">   25.68   25.75</time>
   <energy>
    <i name="e_fr_energy">   -191.61844770 </i>
    <i name="e_wo_entrp">   -191.39543051 </i>
    <i name="e_0_energy">   -191.50693911 </i>
   </energy>
  </scstep>
  <scstep>
   <time name="dav">   18.01   18.05</time>
   <time name="total">   18.04   18.09</time>
   <energy>
    <i name="alphaZ">     89.68804260 </i>
    <i name="ewald">  44440.52021407 </i>
    <i name="hartreedc"> -50450.21932188 </i>
    <i name="XCdc">   -233.49884572 </i>
    <i name="pawpsdc">   4083.94327019 </i>
    <i name="pawaedc">  -3499.93088526 </i>
    <i name="eentropy">     -0.22305775 </i>
    <i name="bandstr">  -1383.34039828 </i>
    <i name="atom">   6761.44252427 </i>
    <i name="e_fr_energy">   -191.61845775 </i>
    <i name="e_wo_entrp">   -191.39540000 </i>
    <i name="e_0_energy">   -191.50692887 </i>
   </energy>
  </scstep>
  <structure>
   <crystal>
    <varray name="basis" >
     <v>       8.30081164       4.77954663       0.00000000 </v>
     <v>      -8.31222736       4.79929482       0.00000000 </v>
     <v>       0.00000000       0.00000000      30.00000000 </v>
    </varray>
    <i name="volume">   2387.00161945 </i>
    <varray name="rec_basis" >
     <v>       0.06031787       0.10446864       0.00000000 </v>
     <v>      -0.06006967       0.10432517       0.00000000 </v>
     <v>       0.00000000       0.00000000       0.03333333 </v>
    </varray>
   </crystal>
   <varray name="positions" >
    <v>       0.33332812       0.33532367       0.00052055 </v>
    <v>       0.66148831       0.67365670      -0.00041563 </v>
    <v>       0.99946866       0.33257436       0.00045817 </v>
    <v>       0.33930676      -0.01152740      -0.00007594 </v>
    <v>       0.65057382      -0.00365534      -0.00018242 </v>
    <v>       0.33718402       0.68400889      -0.00005352 </v>
    <v>      -0.00016670      -0.00382612       0.00066692 </v>
    <v>       0.01955513       0.68063850      -0.00023718 </v>
    <v>       0.65679476       0.31378644      -0.00062168 </v>
    <v>       0.11348875       0.22706668       0.95027956 </v>
    <v>       0.22545872       0.11538670       0.05007397 </v>
    <v>       0.10949773       0.55084209       0.94876101 </v>
    <v>       0.22080728       0.44137139       0.04875544 </v>
    <v>       0.11296067       0.89062080       0.94682370 </v>
    <v>       0.22240994       0.77799331       0.05542239 </v>
    <v>       0.44070064       0.22316223       0.94890547 </v>
    <v>       0.55461787       0.11054355       0.05481426 </v>
    <v>       0.44599515       0.55367041       0.95064610 </v>
    <v>       0.55372548       0.44647817       0.04899446 </v>
    <v>       0.44471466       0.88869316       0.94398670 </v>
    <v>       0.55778307       0.77500653       0.05248915 </v>
    <v>       0.78298652       0.22373389       0.94826016 </v>
    <v>       0.88998846       0.11492580       0.04988241 </v>
    <v>       0.77635944       0.55709661       0.95219194 </v>
    <v>       0.89094587       0.44275838       0.04967729 </v>
    <v>       0.77499883       0.88447746       0.94911156 </v>
    <v>       0.88324247       0.77340760       0.05086504 </v>
   </varray>
  </structure>
  <varray name="forces" >
   <v>      -0.12252458       0.11600394       0.05985594 </v>
   <v>      -0.54827105       0.02363289      -0.00460568 </v>
   <v>      -0.01094877      -0.05953769       0.03397269 </v>
   <v>       0.11608768      -0.08213185      -0.02302975 </v>
   <v>      -0.16892791      -0.08485349      -0.01837288 </v>
   <v>      -0.10684107       0.10817735      -0.02937840 </v>
   <v>       0.24886745      -0.05667094       0.04867867 </v>
   <v>       0.10848210       0.57804243       0.00022437 </v>
   <v>       0.29275769      -0.56160773      -0.02700864 </v>
   <v>       0.01362294      -0.02488462       0.03985894 </v>
   <v>       0.08928973      -0.00520092      -0.07161219 </v>
   <v>      -0.01676518       0.10423302      -0.01498942 </v>
   <v>      -0.06791008       0.08998894      -0.03570859 </v>
   <v>       0.02954753       0.12106307      -0.15926689 </v>
   <v>       0.03890883       0.08411156       0.23419177 </v>
   <v>       0.06478301      -0.12855569      -0.05368451 </v>
   <v>       0.02771559      -0.10830829       0.19388007 </v>
   <v>      -0.11951460       0.01483247      -0.04251823 </v>
   <v>       0.07255195       0.02477577      -0.12117594 </v>
   <v>       0.00741381       0.00647690      -0.16313328 </v>
   <v>      -0.08533834       0.01055649       0.12467379 </v>
   <v>       0.06230235      -0.07964474      -0.10773044 </v>
   <v>       0.02694002      -0.11205451      -0.09896862 </v>
   <v>       0.15539496      -0.00145401       0.48371175 </v>
   <v>      -0.09698722       0.01348875      -0.21667507 </v>
   <v>      -0.08927098       0.04314781      -0.01231715 </v>
   <v>       0.07863412      -0.03362690      -0.01887233 </v>
  </varray>
  <varray name="stress" >
   <v>      -0.21883904      -0.03910265      -0.01364363 </v>
   <v>      -0.03910262      -0.03939757      -0.09409497 </v>
   <v>      -0.01364361      -0.09409497      -1.21446537 </v>
  </varray>
  <energy>
   <i name="e_fr_energy">   -191.61845775 </i>
   <i name="e_wo_entrp">   -191.50692887 </i>
   <i name="e_0_energy">     -0.22305775 </i>
  </energy>
  <time name="totalsc">  283.19  283.94</time>
 </calculation>
 <calculation>
  <scstep>
   <time name="dav">   21.60   21.65</time>
   <time name="total">   22.11   22.16</time>
   <energy>
    <i name="alphaZ">     89.76400603 </i>
    <i name="ewald">  44472.60408643 </i>
    <i name="hartreedc"> -50483.10535795 </i>
    <i name="XCdc">   -233.45940625 </i>
    <i name="pawpsdc">   4083.61098625 </i>
    <i name="pawaedc">  -3499.59524873 </i>
    <i name="eentropy">     -0.22152999 </i>
    <i name="bandstr">  -1382.73183089 </i>
    <i name="atom">   6761.44252427 </i>
    <i name="e_fr_energy">   -191.69177084 </i>
    <i name="e_wo_entrp">   -191.47024085 </i>
    <i name="e_0_energy">   -191.58100584 </i>
   </energy>
  </scstep>
  <scstep>
   <time name="dav">   31.79   31.87</time>
   <time name="total">   32.29   32.38</time>
   <energy>
    <i name="e_fr_energy">   -191.72636808 </i>
    <i name="e_wo_entrp">   -191.49786813 </i>
    <i name="e_0_energy">   -191.61211811 </i>
   </energy>
  </scstep>
  <scstep>
   <time name="dav">   30.47   30.54</time>
   <time name="total">   30.98   31.06</time>
   <energy>
    <i name="e_fr_energy">   -191.69905470 </i>
    <i name="e_wo_entrp">   -191.47711277 </i>
    <i name="e_0_energy">   -191.58808373 </i>
   </energy>
  </scstep>
  <scstep>
   <time name="dav">   27.43   27.50</time>
   <time name="total">   27.93   28.01</time>
   <energy>
    <i name="e_fr_energy">   -191.69962386 </i>
    <i name="e_wo_entrp">   -191.47862029 </i>
    <i name="e_0_energy">   -191.58912207 </i>
   </energy>
  </scstep>
  <scstep>
   <time name="dav">   27.80   27.86</time>
   <time name="total">   28.30   28.37</time>
   <energy>
    <i name="e_fr_energy">   -191.69638090 </i>
    <i name="e_wo_entrp">   -191.47315206 </i>
    <i name="e_0_energy">   -191.58476648 </i>
   </energy>
  </scstep>
  <scstep>
   <time name="dav">   28.30   28.36</time>
   <time name="total">   28.80   28.88</time>
   <energy>
    <i name="e_fr_energy">   -191.69644244 </i>
    <i name="e_wo_entrp">   -191.47387444 </i>
    <i name="e_0_energy">   -191.58515844 </i>
   </energy>
  </scstep>
  <scstep>
   <time name="dav">   26.53   26.59</time>
   <time name="total">   27.03   27.11</time>
   <energy>
    <i name="e_fr_energy">   -191.69644911 </i>
    <i name="e_wo_entrp">   -191.47369891 </i>
    <i name="e_0_energy">   -191.58507401 </i>
   </energy>
  </scstep>
  <scstep>
[...]
      <set comment="kpoint 31">
       <r>  -17.4830    1.0000 </r>
       <r>  -17.2781    1.0000 </r>
       <r>  -16.9101    1.0000 </r>
       <r>  -16.6191    1.0000 </r>
       <r>  -16.4826    1.0000 </r>
       <r>  -16.3929    1.0000 </r>
       <r>  -16.3162    1.0000 </r>
       <r>  -16.1934    1.0000 </r>
       <r>  -16.0976    1.0000 </r>
       <r>  -16.0151    1.0000 </r>
       <r>  -15.9646    1.0000 </r>
       <r>  -15.9055    1.0000 </r>
       <r>  -15.7941    1.0000 </r>
       <r>  -15.7609    1.0000 </r>
       <r>  -15.6073    1.0000 </r>
       <r>  -15.5077    1.0000 </r>
       <r>  -15.3888    1.0000 </r>
       <r>  -15.2890    1.0000 </r>
       <r>   -9.7058    1.0000 </r>
       <r>   -9.4099    1.0000 </r>
       <r>   -9.3091    1.0000 </r>
       <r>   -8.9367    1.0000 </r>
       <r>   -8.8309    1.0000 </r>
       <r>   -8.6964    1.0000 </r>
       <r>   -8.5274    1.0000 </r>
       <r>   -8.4506    1.0000 </r>
       <r>   -8.4127    1.0000 </r>
       <r>   -8.3203    1.0000 </r>
       <r>   -8.2602    1.0000 </r>
       <r>   -8.2332    1.0000 </r>
       <r>   -8.1294    1.0000 </r>
       <r>   -8.0755    1.0000 </r>
       <r>   -8.0104    1.0000 </r>
       <r>   -7.8916    1.0000 </r>
       <r>   -7.7988    1.0000 </r>
       <r>   -7.6362    1.0000 </r>
       <r>   -7.5697    1.0000 </r>
       <r>   -7.4757    1.0000 </r>
       <r>   -7.3020    1.0000 </r>
       <r>   -7.1989    1.0000 </r>
       <r>   -7.1528    1.0000 </r>
       <r>   -7.1203    1.0000 </r>
       <r>   -7.0373    1.0000 </r>
       <r>   -6.9835    1.0000 </r>
       <r>   -6.8785    1.0000 </r>
       <r>   -6.7706    1.0000 </r>
       <r>   -6.6584    1.0000 </r>
       <r>   -6.6173    1.0000 </r>
       <r>   -6.5611    1.0000 </r>
       <r>   -6.5006    1.0000 </r>
       <r>   -6.3923    1.0000 </r>
       <r>   -6.3254    1.0000 </r>
       <r>   -6.2971    1.0000 </r>
       <r>   -6.2326    1.0000 </r>
       <r>   -6.1727    1.0000 </r>
       <r>   -6.0994    1.0000 </r>
       <r>   -5.9830    1.0000 </r>
       <r>   -5.9107    1.0000 </r>
       <r>   -5.8736    1.0000 </r>
       <r>   -5.8211    1.0000 </r>
       <r>   -5.7442    1.0000 </r>
       <r>   -5.6486    1.0000 </r>
       <r>   -5.5711    1.0000 </r>
       <r>   -5.4116    1.0000 </r>
       <r>   -5.2285    1.0000 </r>
       <r>   -5.1936    1.0000 </r>
       <r>   -5.0819    1.0000 </r>
       <r>   -4.8984    1.0000 </r>
       <r>   -4.8020    1.0000 </r>
       <r>   -4.7518    1.0000 </r>
       <r>   -4.5362    1.0000 </r>
       <r>   -4.4218    1.0000 </r>
       <r>   -4.3283    1.0000 </r>
       <r>   -4.2565    1.0000 </r>
       <r>   -4.1602    1.0000 </r>
       <r>   -4.0385    1.0000 </r>
       <r>   -3.9017    1.0000 </r>
       <r>   -3.6828    0.9987 </r>
       <r>   -3.4659    0.9300 </r>
       <r>   -3.2898    0.5913 </r>
       <r>   -2.9623    0.0186 </r>
       <r>   -2.6727    0.0000 </r>
       <r>   -2.6072    0.0000 </r>
       <r>   -2.5440    0.0000 </r>
       <r>   -2.3742    0.0000 </r>
       <r>   -2.3265    0.0000 </r>
       <r>   -2.2869    0.0000 </r>
       <r>   -2.0948    0.0000 </r>
       <r>   -1.9851    0.0000 </r>
       <r>   -1.9372    0.0000 </r>
       <r>   -1.8900    0.0000 </r>
       <r>   -1.7870    0.0000 </r>
       <r>   -1.5092    0.0000 </r>
       <r>   -1.2799    0.0000 </r>
       <r>   -1.2176    0.0000 </r>
       <r>   -1.0921    0.0000 </r>
       <r>   -1.0605    0.0000 </r>
       <r>   -1.0284    0.0000 </r>
       <r>   -0.9441    0.0000 </r>
       <r>   -0.8900    0.0000 </r>
       <r>   -0.8726    0.0000 </r>
       <r>   -0.7489    0.0000 </r>
       <r>   -0.7267    0.0000 </r>
       <r>   -0.6075    0.0000 </r>
       <r>   -0.5246    0.0000 </r>
       <r>   -0.4190    0.0000 </r>
       <r>   -0.2419    0.0000 </r>
       <r>   -0.1744    0.0000 </r>
       <r>    0.0759    0.0000 </r>
       <r>    0.2043    0.0000 </r>
       <r>    0.4171    0.0000 </r>
       <r>    0.6014    0.0000 </r>
       <r>    0.7396    0.0000 </r>
       <r>    0.9767    0.0000 </r>
       <r>    1.0829    0.0000 </r>
       <r>    1.2316    0.0000 </r>
       <r>    1.4416    0.0000 </r>
       <r>    2.1156    0.0000 </r>
       <r>    2.2746    0.0000 </r>
       <r>    2.3758    0.0000 </r>
      </set>
      <set comment="kpoint 32">
       <r>  -17.5115    1.0000 </r>
       <r>  -17.1561    1.0000 </r>
       <r>  -17.0558    1.0000 </r>
       <r>  -16.6171    1.0000 </r>
       <r>  -16.4018    1.0000 </r>
       <r>  -16.3591    1.0000 </r>
       <r>  -16.3030    1.0000 </r>
       <r>  -16.2326    1.0000 </r>
       <r>  -16.0932    1.0000 </r>
       <r>  -16.0654    1.0000 </r>
       <r>  -15.9531    1.0000 </r>
       <r>  -15.9305    1.0000 </r>
       <r>  -15.7917    1.0000 </r>
       <r>  -15.7403    1.0000 </r>
       <r>  -15.6238    1.0000 </r>
       <r>  -15.5051    1.0000 </r>
       <r>  -15.3828    1.0000 </r>
       <r>  -15.2833    1.0000 </r>
       <r>   -9.6006    1.0000 </r>
       <r>   -9.5530    1.0000 </r>
       <r>   -9.3688    1.0000 </r>
       <r>   -8.9222    1.0000 </r>
       <r>   -8.7275    1.0000 </r>
       <r>   -8.5555    1.0000 </r>
       <r>   -8.5084    1.0000 </r>
       <r>   -8.4648    1.0000 </r>
       <r>   -8.3815    1.0000 </r>
       <r>   -8.3598    1.0000 </r>
       <r>   -8.2972    1.0000 </r>
       <r>   -8.2328    1.0000 </r>
       <r>   -8.1820    1.0000 </r>
       <r>   -8.1207    1.0000 </r>
       <r>   -8.0726    1.0000 </r>
       <r>   -7.9237    1.0000 </r>
       <r>   -7.7748    1.0000 </r>
       <r>   -7.6489    1.0000 </r>
       <r>   -7.5100    1.0000 </r>
       <r>   -7.4664    1.0000 </r>
       <r>   -7.3225    1.0000 </r>
       <r>   -7.2345    1.0000 </r>
       <r>   -7.1991    1.0000 </r>
       <r>   -7.0752    1.0000 </r>
       <r>   -7.0419    1.0000 </r>
       <r>   -6.9513    1.0000 </r>
       <r>   -6.8363    1.0000 </r>
       <r>   -6.7954    1.0000 </r>
       <r>   -6.6877    1.0000 </r>
       <r>   -6.6579    1.0000 </r>
       <r>   -6.5663    1.0000 </r>
       <r>   -6.4952    1.0000 </r>
       <r>   -6.3885    1.0000 </r>
       <r>   -6.3738    1.0000 </r>
       <r>   -6.2840    1.0000 </r>
       <r>   -6.2297    1.0000 </r>
       <r>   -6.0995    1.0000 </r>
       <r>   -6.0908    1.0000 </r>
       <r>   -5.9443    1.0000 </r>
       <r>   -5.9103    1.0000 </r>
       <r>   -5.8928    1.0000 </r>
       <r>   -5.7501    1.0000 </r>
       <r>   -5.7221    1.0000 </r>
       <r>   -5.5842    1.0000 </r>
       <r>   -5.5497    1.0000 </r>
       <r>   -5.4247    1.0000 </r>
       <r>   -5.3178    1.0000 </r>
       <r>   -5.2561    1.0000 </r>
       <r>   -5.0541    1.0000 </r>
       <r>   -4.9181    1.0000 </r>
       <r>   -4.8456    1.0000 </r>
       <r>   -4.7388    1.0000 </r>
       <r>   -4.5829    1.0000 </r>
       <r>   -4.3971    1.0000 </r>
       <r>   -4.3699    1.0000 </r>
       <r>   -4.2484    1.0000 </r>
       <r>   -4.1359    1.0000 </r>
       <r>   -4.0292    1.0000 </r>
       <r>   -3.8910    1.0000 </r>
       <r>   -3.7031    0.9992 </r>
       <r>   -3.4393    0.9012 </r>
       <r>   -3.2105    0.3709 </r>
       <r>   -3.0600    0.0817 </r>
       <r>   -2.6705    0.0000 </r>
       <r>   -2.5750    0.0000 </r>
       <r>   -2.5415    0.0000 </r>
       <r>   -2.3574    0.0000 </r>
       <r>   -2.3351    0.0000 </r>
       <r>   -2.2724    0.0000 </r>
       <r>   -2.1118    0.0000 </r>
       <r>   -1.9539    0.0000 </r>
       <r>   -1.9260    0.0000 </r>
       <r>   -1.8991    0.0000 </r>
       <r>   -1.8303    0.0000 </r>
       <r>   -1.5262    0.0000 </r>
       <r>   -1.2986    0.0000 </r>
       <r>   -1.1904    0.0000 </r>
       <r>   -1.1036    0.0000 </r>
       <r>   -1.0490    0.0000 </r>
       <r>   -1.0088    0.0000 </r>
       <r>   -0.9565    0.0000 </r>
       <r>   -0.9214    0.0000 </r>
       <r>   -0.8546    0.0000 </r>
       <r>   -0.7767    0.0000 </r>
       <r>   -0.6882    0.0000 </r>
       <r>   -0.6347    0.0000 </r>
       <r>   -0.5342    0.0000 </r>
       <r>   -0.4541    0.0000 </r>
       <r>   -0.2049    0.0000 </r>
       <r>   -0.0886    0.0000 </r>
       <r>    0.1039    0.0000 </r>
       <r>    0.2081    0.0000 </r>
       <r>    0.3693    0.0000 </r>
       <r>    0.6090    0.0000 </r>
       <r>    0.7078    0.0000 </r>
       <r>    0.9374    0.0000 </r>
       <r>    1.0502    0.0000 </r>
       <r>    1.2624    0.0000 </r>
       <r>    1.4403    0.0000 </r>
       <r>    2.0840    0.0000 </r>
       <r>    2.2452    0.0000 </r>
       <r>    2.5404    0.0000 </r>
      </set>
      <set comment="kpoint 33">
       <r>  -17.5069    1.0000 </r>
       <r>  -17.2315    1.0000 </r>
       <r>  -16.9309    1.0000 </r>
       <r>  -16.6203    1.0000 </r>
       <r>  -16.4961    1.0000 </r>
       <r>  -16.4026    1.0000 </r>
       <r>  -16.3109    1.0000 </r>
       <r>  -16.1687    1.0000 </r>
       <r>  -16.0889    1.0000 </r>
       <r>  -16.0199    1.0000 </r>
       <r>  -15.9558    1.0000 </r>
       <r>  -15.9268    1.0000 </r>
       <r>  -15.7957    1.0000 </r>
       <r>  -15.7548    1.0000 </r>
       <r>  -15.6072    1.0000 </r>
       <r>  -15.5144    1.0000 </r>
       <r>  -15.3826    1.0000 </r>
       <r>  -15.2927    1.0000 </r>
       <r>   -9.6827    1.0000 </r>
       <r>   -9.4223    1.0000 </r>
       <r>   -9.2914    1.0000 </r>
       <r>   -8.9367    1.0000 </r>
       <r>   -8.8594    1.0000 </r>
       <r>   -8.7466    1.0000 </r>
       <r>   -8.5414    1.0000 </r>
       <r>   -8.4246    1.0000 </r>
       <r>   -8.3764    1.0000 </r>
       <r>   -8.3263    1.0000 </r>
       <r>   -8.2763    1.0000 </r>
       <r>   -8.2386    1.0000 </r>
       <r>   -8.1132    1.0000 </r>
       <r>   -8.0786    1.0000 </r>
       <r>   -8.0000    1.0000 </r>
       <r>   -7.8625    1.0000 </r>
       <r>   -7.7939    1.0000 </r>
       <r>   -7.6496    1.0000 </r>
       <r>   -7.5852    1.0000 </r>
       <r>   -7.4694    1.0000 </r>
       <r>   -7.3081    1.0000 </r>
       <r>   -7.2138    1.0000 </r>
       <r>   -7.1366    1.0000 </r>
       <r>   -7.1106    1.0000 </r>
       <r>   -7.0371    1.0000 </r>
       <r>   -6.9926    1.0000 </r>
       <r>   -6.8802    1.0000 </r>
       <r>   -6.7672    1.0000 </r>
       <r>   -6.6566    1.0000 </r>
       <r>   -6.6000    1.0000 </r>
       <r>   -6.5681    1.0000 </r>
       <r>   -6.5074    1.0000 </r>
       <r>   -6.3797    1.0000 </r>
       <r>   -6.3335    1.0000 </r>
       <r>   -6.3047    1.0000 </r>
       <r>   -6.2455    1.0000 </r>
       <r>   -6.1648    1.0000 </r>
       <r>   -6.0899    1.0000 </r>
       <r>   -5.9843    1.0000 </r>
       <r>   -5.9281    1.0000 </r>
       <r>   -5.8668    1.0000 </r>
       <r>   -5.8314    1.0000 </r>
       <r>   -5.7374    1.0000 </r>
       <r>   -5.6426    1.0000 </r>
       <r>   -5.5629    1.0000 </r>
       <r>   -5.4031    1.0000 </r>
       <r>   -5.2305    1.0000 </r>
       <r>   -5.2036    1.0000 </r>
       <r>   -5.0771    1.0000 </r>
       <r>   -4.9102    1.0000 </r>
       <r>   -4.7867    1.0000 </r>
       <r>   -4.7574    1.0000 </r>
       <r>   -4.5579    1.0000 </r>
       <r>   -4.4128    1.0000 </r>
       <r>   -4.3280    1.0000 </r>
       <r>   -4.2593    1.0000 </r>
       <r>   -4.1535    1.0000 </r>
       <r>   -4.0409    1.0000 </r>
       <r>   -3.9067    1.0000 </r>
       <r>   -3.6829    0.9987 </r>
       <r>   -3.4592    0.9235 </r>
       <r>   -3.2911    0.5951 </r>
       <r>   -2.9731    0.0223 </r>
       <r>   -2.7054    0.0000 </r>
       <r>   -2.5609    0.0000 </r>
       <r>   -2.5391    0.0000 </r>
       <r>   -2.3864    0.0000 </r>
       <r>   -2.3071    0.0000 </r>
       <r>   -2.2779    0.0000 </r>
       <r>   -2.1004    0.0000 </r>
       <r>   -1.9824    0.0000 </r>
       <r>   -1.9374    0.0000 </r>
       <r>   -1.8921    0.0000 </r>
       <r>   -1.7790    0.0000 </r>
       <r>   -1.5109    0.0000 </r>
       <r>   -1.2703    0.0000 </r>
       <r>   -1.2193    0.0000 </r>
       <r>   -1.1225    0.0000 </r>
       <r>   -1.0803    0.0000 </r>
       <r>   -1.0286    0.0000 </r>
       <r>   -0.9563    0.0000 </r>
       <r>   -0.9162    0.0000 </r>
       <r>   -0.8497    0.0000 </r>
       <r>   -0.7780    0.0000 </r>
       <r>   -0.7223    0.0000 </r>
       <r>   -0.6299    0.0000 </r>
       <r>   -0.5120    0.0000 </r>
       <r>   -0.3992    0.0000 </r>
       <r>   -0.2360    0.0000 </r>
       <r>   -0.0940    0.0000 </r>
       <r>    0.1223    0.0000 </r>
       <r>    0.1861    0.0000 </r>
       <r>    0.3804    0.0000 </r>
       <r>    0.6040    0.0000 </r>
       <r>    0.6741    0.0000 </r>
       <r>    0.9451    0.0000 </r>
       <r>    1.0348    0.0000 </r>
       <r>    1.3078    0.0000 </r>
       <r>    1.4714    0.0000 </r>
       <r>    2.1155    0.0000 </r>
       <r>    2.2748    0.0000 </r>
       <r>    2.3744    0.0000 </r>
      </set>
      <set comment="kpoint 34">
       <r>  -17.4947    1.0000 </r>
       <r>  -17.2846    1.0000 </r>
       <r>  -16.7730    1.0000 </r>
       <r>  -16.6831    1.0000 </r>
       <r>  -16.5944    1.0000 </r>
       <r>  -16.4092    1.0000 </r>
       <r>  -16.3041    1.0000 </r>
       <r>  -16.1604    1.0000 </r>
       <r>  -16.0860    1.0000 </r>
       <r>  -15.9851    1.0000 </r>
       <r>  -15.9411    1.0000 </r>
       <r>  -15.9191    1.0000 </r>
       <r>  -15.7955    1.0000 </r>
       <r>  -15.7785    1.0000 </r>
       <r>  -15.5855    1.0000 </r>
       <r>  -15.5280    1.0000 </r>
       <r>  -15.3838    1.0000 </r>
       <r>  -15.3013    1.0000 </r>
       <r>   -9.7240    1.0000 </r>
       <r>   -9.2732    1.0000 </r>
       <r>   -9.2126    1.0000 </r>
       <r>   -9.0158    1.0000 </r>
       <r>   -8.9731    1.0000 </r>
       <r>   -8.8603    1.0000 </r>
       <r>   -8.5554    1.0000 </r>
       <r>   -8.4319    1.0000 </r>
       <r>   -8.3860    1.0000 </r>
       <r>   -8.2844    1.0000 </r>
       <r>   -8.2787    1.0000 </r>
       <r>   -8.2267    1.0000 </r>
       <r>   -8.1045    1.0000 </r>
       <r>   -8.0391    1.0000 </r>
       <r>   -7.9212    1.0000 </r>
       <r>   -7.8349    1.0000 </r>
       <r>   -7.8047    1.0000 </r>
       <r>   -7.6278    1.0000 </r>
       <r>   -7.5712    1.0000 </r>
       <r>   -7.4479    1.0000 </r>
       <r>   -7.4134    1.0000 </r>
       <r>   -7.1997    1.0000 </r>
       <r>   -7.1467    1.0000 </r>
       <r>   -7.1210    1.0000 </r>
       <r>   -7.0420    1.0000 </r>
       <r>   -6.9721    1.0000 </r>
       <r>   -6.8579    1.0000 </r>
       <r>   -6.7289    1.0000 </r>
       <r>   -6.6373    1.0000 </r>
       <r>   -6.6002    1.0000 </r>
       <r>   -6.5567    1.0000 </r>
       <r>   -6.4684    1.0000 </r>
       <r>   -6.3731    1.0000 </r>
       <r>   -6.3548    1.0000 </r>
       <r>   -6.2900    1.0000 </r>
       <r>   -6.2834    1.0000 </r>
       <r>   -6.2481    1.0000 </r>
       <r>   -6.1339    1.0000 </r>
       <r>   -5.9937    1.0000 </r>
       <r>   -5.9433    1.0000 </r>
       <r>   -5.8806    1.0000 </r>
       <r>   -5.8159    1.0000 </r>
       <r>   -5.7414    1.0000 </r>
       <r>   -5.6462    1.0000 </r>
       <r>   -5.6018    1.0000 </r>
       <r>   -5.4503    1.0000 </r>
       <r>   -5.2461    1.0000 </r>
       <r>   -5.0628    1.0000 </r>
       <r>   -4.9761    1.0000 </r>
       <r>   -4.9564    1.0000 </r>
       <r>   -4.8814    1.0000 </r>
       <r>   -4.6808    1.0000 </r>
       <r>   -4.5404    1.0000 </r>
       <r>   -4.4099    1.0000 </r>
       <r>   -4.2839    1.0000 </r>
       <r>   -4.2440    1.0000 </r>
       <r>   -4.2037    1.0000 </r>
       <r>   -4.0593    1.0000 </r>
       <r>   -3.9199    1.0000 </r>
       <r>   -3.6465    0.9971 </r>
       <r>   -3.5108    0.9636 </r>
       <r>   -3.3302    0.6974 </r>
       <r>   -2.8988    0.0056 </r>
       <r>   -2.7447    0.0001 </r>
       <r>   -2.5494    0.0000 </r>
       <r>   -2.5471    0.0000 </r>
       <r>   -2.4016    0.0000 </r>
       <r>   -2.2980    0.0000 </r>
       <r>   -2.2814    0.0000 </r>
       <r>   -2.0890    0.0000 </r>
       <r>   -2.0069    0.0000 </r>
       <r>   -1.9450    0.0000 </r>
       <r>   -1.8792    0.0000 </r>
       <r>   -1.7458    0.0000 </r>
       <r>   -1.4860    0.0000 </r>
       <r>   -1.2752    0.0000 </r>
       <r>   -1.2015    0.0000 </r>
       <r>   -1.1571    0.0000 </r>
       <r>   -1.1179    0.0000 </r>
       <r>   -1.0272    0.0000 </r>
       <r>   -0.9485    0.0000 </r>
       <r>   -0.8956    0.0000 </r>
       <r>   -0.8641    0.0000 </r>
       <r>   -0.7952    0.0000 </r>
       <r>   -0.7280    0.0000 </r>
       <r>   -0.6368    0.0000 </r>
       <r>   -0.4612    0.0000 </r>
       <r>   -0.3645    0.0000 </r>
       <r>   -0.2864    0.0000 </r>
       <r>   -0.1126    0.0000 </r>
       <r>    0.1203    0.0000 </r>
       <r>    0.1690    0.0000 </r>
       <r>    0.4067    0.0000 </r>
       <r>    0.5925    0.0000 </r>
       <r>    0.6633    0.0000 </r>
       <r>    0.9728    0.0000 </r>
       <r>    1.0238    0.0000 </r>
       <r>    1.3297    0.0000 </r>
       <r>    1.4947    0.0000 </r>
       <r>    2.2021    0.0000 </r>
       <r>    2.2195    0.0000 </r>
       <r>    2.3693    0.0000 </r>
      </set>
     </set>
    </set>
   </array>
  </eigenvalues>
  <separator name="orbital magnetization" >
   <v name="MAGDIPOLOUT">      0.00000000      0.00000000      0.00000000</v>
  </separator>
 </calculation>
 <structure name="finalpos" >
  <crystal>
   <varray name="basis" >
    <v>       8.38305281       4.82891360       0.00000000 </v>
    <v>      -8.39094590       4.84243025       0.00000000 </v>
    <v>       0.00000000       0.00000000      30.00000000 </v>
   </varray>
   <i name="volume">   2433.40503742 </i>
   <varray name="rec_basis" >
    <v>       0.05969944       0.10344697       0.00000000 </v>
    <v>      -0.05953280       0.10334966       0.00000000 </v>
    <v>       0.00000000       0.00000000       0.03333333 </v>
   </varray>
  </crystal>
  <varray name="positions" >
   <v>       0.33276253       0.35875477      -0.00032033 </v>
   <v>       0.64851627       0.68535601      -0.00062746 </v>
   <v>       1.01568645       0.36746200       0.00067055 </v>
   <v>       0.33470723      -0.02032936      -0.00001729 </v>
   <v>       0.63348712      -0.01359542       0.00016706 </v>
   <v>       0.33497341       0.67445689      -0.00001143 </v>
   <v>       0.02260177      -0.01723006       0.00178713 </v>
   <v>       0.03237693       0.68510707       0.00002793 </v>
   <v>       0.64382604       0.29332419      -0.00162108 </v>
   <v>       0.11141421       0.22662098       0.95385693 </v>
   <v>       0.23507033       0.12068176       0.04915377 </v>
   <v>       0.11134347       0.55422589       0.94588442 </v>
   <v>       0.21855667       0.44327073       0.05123668 </v>
   <v>       0.11650801       0.88615832       0.94406935 </v>
   <v>       0.22598529       0.77572001       0.05691042 </v>
   <v>       0.43228422       0.21831844       0.95056236 </v>
   <v>       0.55007257       0.10436697       0.05620090 </v>
   <v>       0.44809291       0.55887198       0.94820820 </v>
   <v>       0.55439419       0.44910648       0.04577259 </v>
   <v>       0.44071409       0.88303656       0.94313320 </v>
   <v>       0.55451630       0.77629883       0.05448833 </v>
   <v>       0.78146632       0.21890350       0.95004522 </v>
   <v>       0.89325352       0.11279942       0.04048830 </v>
   <v>       0.77419916       0.55419115       0.95978760 </v>
   <v>       0.88651043       0.44296616       0.04863609 </v>
   <v>       0.78033032       0.89001139       0.95160758 </v>
   <v>       0.88456473       0.76935979       0.04990288 </v>
  </varray>
 </structure>
</modeling>
