unknown system                          
           1
     8.854978    5.102762    0.000000
    -8.857832    5.107672    0.000000
     0.000000    0.000000   30.000000
   V    Mo   W    S 
   3   3   3  18
Direct configuration=     1
   0.33333334  0.33333334  0.00000000
   0.66666669  0.66666669  0.00000000
   1.00000000  0.33333334  0.00000000
   0.33333334  0.00000000  0.00000000
   0.66666669  0.00000000  0.00000000
   0.33333334  0.66666669  0.00000000
   0.00000000  0.00000000  0.00000000
   0.00000000  0.66666669  0.00000000
   0.66666669  0.33333334  0.00000000
   0.11068511  0.22244981  0.95539999
   0.22244981  0.11068511  0.04460000
   0.11068511  0.55578315  0.95539999
   0.22244981  0.44401845  0.04460000
   0.11068511  0.88911647  0.95539999
   0.22244981  0.77735180  0.04460000
   0.44401845  0.22244981  0.95539999
   0.55578315  0.11068511  0.04460000
   0.44401845  0.55578315  0.95539999
   0.55578315  0.44401845  0.04460000
   0.44401845  0.88911647  0.95539999
   0.55578315  0.77735180  0.04460000
   0.77735180  0.22244981  0.95539999
   0.88911647  0.11068511  0.04460000
   0.77735180  0.55578315  0.95539999
   0.88911647  0.44401845  0.04460000
   0.77735180  0.88911647  0.95539999
   0.88911647  0.77735180  0.04460000
unknown system                          
           1
     8.667184    4.996901    0.000000
    -8.669815    5.001428    0.000000
     0.000000    0.000000   30.000000
   V    Mo   W    S 
   3   3   3  18
Direct configuration=     2
   0.33334168  0.33378998  0.00004775
   0.66514511  0.66758161  0.00010028
   1.00041151  0.33338148 -0.00009659
   0.33473717 -0.00152567  0.00001314
   0.66382532 -0.00138099 -0.00015482
   0.33468148  0.66897178  0.00003080
   0.00004675  0.00038110  0.00002929
   0.00292228  0.66795103  0.00011584
   0.66498569  0.33046028 -0.00004146
   0.11244669  0.22568799  0.95305973
   0.22333603  0.11494131  0.04799458
   0.10826078  0.55123461  0.95191112
   0.22015523  0.43992819  0.04683283
   0.11033653  0.88850166  0.95073954
   0.22104225  0.77723318  0.04931845
   0.44290998  0.22500990  0.95201111
   0.55585162  0.11204587  0.04928752
   0.44650841  0.55327654  0.95305319
   0.55376652  0.44621835  0.04697446
   0.44445942  0.88889201  0.95066130
   0.55790220  0.77515189  0.04803793
   0.78181026  0.22484851  0.95188682
   0.89145632  0.11502152  0.04799129
   0.77569153  0.55745959  0.95212720
   0.89080044  0.44249730  0.04797897
   0.77643288  0.88485877  0.95196055
   0.88495039  0.77579669  0.04812911
unknown system                          
           1
     8.486667    4.897778    0.000000
    -8.488466    4.900865    0.000000
     0.000000    0.000000   30.000000
   V    Mo   W    S 
   3   3   3  18
Direct configuration=     3
   0.33334677  0.33389103  0.00009895
   0.66481183  0.66789061  0.00006561
   1.00045032  0.33336271 -0.00005803
   0.33520791 -0.00225540  0.00000730
   0.66269360 -0.00170008 -0.00017200
   0.33502192  0.67017934  0.00003177
   0.00003719  0.00023326  0.00009367
   0.00401989  0.66868985  0.00007468
   0.66443215  0.32937785 -0.00010951
   0.11238701  0.22553541  0.95308211
   0.22316469  0.11490843  0.04791428
   0.10808813  0.55125526  0.95192572
   0.22012050  0.43987736  0.04674369
   0.11013701  0.88841929  0.95074451
   0.22083107  0.77712012  0.04948112
   0.44311072  0.22515179  0.95202455
   0.55597109  0.11225961  0.04942454
   0.44652337  0.55324296  0.95310755
   0.55386405  0.44611469  0.04688776
   0.44446394  0.88888770  0.95043283
   0.55794663  0.77509740  0.04814195
   0.78177078  0.22502208  0.95188570
   0.89162342  0.11498690  0.04789476
   0.77579125  0.55736136  0.95233402
   0.89071573  0.44259395  0.04789491
   0.77659319  0.88488357  0.95198411
   0.88509028  0.77582740  0.04806338
unknown system                          
           1
     8.290147    4.778669    0.000000
    -8.296184    4.789097    0.000000
     0.000000    0.000000   30.000000
   V    Mo   W    S 
   3   3   3  18
Direct configuration=     4
   0.33330514  0.33404682  0.00026797
   0.66401621  0.66930060 -0.00010859
   1.00027652  0.33323516  0.00012400
   0.33687003 -0.00542908 -0.00000243
   0.65834229 -0.00261814 -0.00016256
   0.33597973  0.67522570  0.00002615
  -0.00010476 -0.00085098  0.00031122
   0.00824054  0.67185131 -0.00011550
   0.66254694  0.32523249 -0.00032532
   0.11297605  0.22649691  0.95181154
   0.22387412  0.11581305  0.04901777
   0.10776725  0.55028051  0.95051993
   0.21980653  0.43928180  0.04767075
   0.11032244  0.88869679  0.94913121
   0.22105236  0.77718278  0.05178254
   0.44242008  0.22539241  0.95061704
   0.55595053  0.11213012  0.05158563
   0.44680583  0.55282654  0.95203350
   0.55355214  0.44648967  0.04789546
   0.44444350  0.88877842  0.94792195
   0.55842800  0.77462528  0.04996531
   0.78277229  0.22539065  0.95039411
   0.89188691  0.11581705  0.04893316
   0.77551925  0.55767405  0.95174687
   0.89103034  0.44227730  0.04899902
   0.77602137  0.88399020  0.95065246
   0.88411279  0.77507705  0.04930669
unknown system                          
           1
     8.300812    4.779547    0.000000
    -8.312227    4.799295    0.000000
     0.000000    0.000000   30.000000
   V    Mo   W    S 
   3   3   3  18
Direct configuration=     5
   0.33320856  0.33462596  0.00046013
   0.66248396  0.67228678 -0.00042957
   0.99975222  0.33287926  0.00043724
   0.33963663 -0.01147850 -0.00002245
   0.65066787 -0.00384788 -0.00007681
   0.33725140  0.68405239 -0.00000327
  -0.00037683 -0.00306755  0.00059964
   0.01705841  0.67859583 -0.00034112
   0.65840898  0.31667509 -0.00058985
   0.11362751  0.22732594  0.95019577
   0.22518802  0.11612898  0.05027063
   0.10864191  0.54996794  0.94872462
   0.22024253  0.44015109  0.04885777
   0.11182519  0.88983546  0.94698675
   0.22201489  0.77768095  0.05510318
   0.44114602  0.22440056  0.94887124
   0.55527679  0.11116856  0.05454885
   0.44651451  0.55303212  0.95062075
   0.55335772  0.44665351  0.04917778
   0.44453774  0.88862513  0.94426035
   0.55828006  0.77461016  0.05240706
   0.78345627  0.22460107  0.94833221
   0.89094673  0.11587335  0.05007013
   0.77569321  0.55761254  0.95153090
   0.89119211  0.44227387  0.05004266
   0.77512866  0.88372501  0.94903657
   0.88305336  0.77382681  0.05092871
unknown system                          
           1
     8.295302    4.777550    0.000000
    -8.307685    4.798982    0.000000
     0.000000    0.000000   30.000000
   V    Mo   W    S 
   3   3   3  18
Direct configuration=     6
   0.33332812  0.33532367  0.00052055
   0.66148831  0.67365670 -0.00041563
   0.99946866  0.33257436  0.00045817
   0.33930676 -0.01152740 -0.00007594
   0.65057382 -0.00365534 -0.00018242
   0.33718402  0.68400889 -0.00005352
  -0.00016670 -0.00382612  0.00066692
   0.01955513  0.68063850 -0.00023718
   0.65679476  0.31378644 -0.00062168
   0.11348875  0.22706668  0.95027956
   0.22545872  0.11538670  0.05007397
   0.10949773  0.55084209  0.94876101
   0.22080728  0.44137139  0.04875544
   0.11296067  0.89062080  0.94682370
   0.22240994  0.77799331  0.05542239
   0.44070064  0.22316223  0.94890547
   0.55461787  0.11054355  0.05481426
   0.44599515  0.55367041  0.95064610
   0.55372548  0.44647817  0.04899446
   0.44471466  0.88869316  0.94398670
   0.55778307  0.77500653  0.05248915
   0.78298652  0.22373389  0.94826016
   0.88998846  0.11492580  0.04988241
   0.77635944  0.55709661  0.95219194
   0.89094587  0.44275838  0.04967729
   0.77499883  0.88447746  0.94911156
   0.88324247  0.77340760  0.05086504
unknown system                          
           1
     8.298996    4.779696    0.000000
    -8.313600    4.804985    0.000000
     0.000000    0.000000   30.000000
   V    Mo   W    S 
   3   3   3  18
Direct configuration=     7
   0.33351216  0.33609875  0.00060178
   0.66026319  0.67509708 -0.00042572
   0.99918855  0.33234788  0.00050680
   0.33927594 -0.01221225 -0.00010708
   0.64973017 -0.00361751 -0.00020728
   0.33738732  0.68481414 -0.00009293
   0.00018549 -0.00468107  0.00073521
   0.02231800  0.68285572 -0.00023783
   0.65511778  0.31066065 -0.00066091
   0.11342850  0.22694550  0.95030617
   0.22567358  0.11515032  0.04999912
   0.10990984  0.55131219  0.94871305
   0.22102928  0.44192788  0.04872736
   0.11356576  0.89107458  0.94658002
   0.22286429  0.77825681  0.05578249
   0.44030118  0.22245279  0.94880822
   0.55422051  0.11001363  0.05511637
   0.44576228  0.55402298  0.95056846
   0.55399811  0.44641063  0.04885598
   0.44476317  0.88870124  0.94371458
   0.55761563  0.77525416  0.05269004
   0.78281343  0.22323881  0.94808669
   0.88956508  0.11439510  0.04977094
   0.77673085  0.55672001  0.95282246
   0.89077307  0.44304639  0.04940919
   0.77494643  0.88486776  0.94907042
   0.88327487  0.77306029  0.05086629
unknown system                          
           1
     8.302300    4.781855    0.000000
    -8.322840    4.817453    0.000000
     0.000000    0.000000   30.000000
   V    Mo   W    S 
   3   3   3  18
Direct configuration=     8
   0.33374543  0.33699243  0.00068327
   0.65890323  0.67652286 -0.00044523
   0.99886706  0.33211310  0.00056326
   0.33905454 -0.01262449 -0.00012735
   0.64917178 -0.00356906 -0.00024112
   0.33764852  0.68522101 -0.00011546
   0.00075197 -0.00548806  0.00080838
   0.02461717  0.68467609 -0.00022752
   0.65365335  0.30791732 -0.00074012
   0.11338378  0.22682931  0.95039269
   0.22583383  0.11504330  0.04989583
   0.11025393  0.55174871  0.94870564
   0.22112122  0.44229597  0.04866880
   0.11407513  0.89148154  0.94635362
   0.22331997  0.77848376  0.05605042
   0.43994660  0.22186863  0.94875535
   0.55380963  0.10943876  0.05536480
   0.44561975  0.55434187  0.95050427
   0.55429448  0.44637943  0.04865524
   0.44481644  0.88872356  0.94354488
   0.55750007  0.77547608  0.05286137
   0.78265360  0.22279906  0.94796444
   0.88929833  0.11390929  0.04960872
   0.77702830  0.55635942  0.95354822
   0.89056437  0.44331304  0.04909181
   0.77496792  0.88523334  0.94907864
   0.88331407  0.77272819  0.05079705
unknown system                          
           1
     8.315047    4.788387    0.000000
    -8.336719    4.825944    0.000000
     0.000000    0.000000   30.000000
   V    Mo   W    S 
   3   3   3  18
Direct configuration=     9
   0.33454256  0.34001281  0.00089844
   0.65463821  0.68049673 -0.00051739
   0.99779202  0.33151733  0.00072867
   0.33812882 -0.01380796 -0.00016993
   0.64732940 -0.00361459 -0.00029622
   0.33871396  0.68618197 -0.00015692
   0.00329140 -0.00780179  0.00099200
   0.03051831  0.68911091 -0.00022177
   0.64990669  0.30075251 -0.00099371
   0.11329642  0.22651142  0.95074309
   0.22632629  0.11516714  0.04961508
   0.11110783  0.55289948  0.94874768
   0.22103087  0.44292416  0.04850275
   0.11521396  0.89239977  0.94572048
   0.22469618  0.77903552  0.05668058
   0.43892572  0.22047094  0.94864913
   0.55270625  0.10774786  0.05594719
   0.44540546  0.55522008  0.95026468
   0.55522404  0.44642669  0.04796773
   0.44486607  0.88877755  0.94321961
   0.55730508  0.77615185  0.05337397
   0.78225858  0.22159627  0.94766030
   0.88892297  0.11259117  0.04903720
   0.77756581  0.55542006  0.95581449
   0.88989054  0.44394445  0.04813110
   0.77521319  0.88626282  0.94918617
   0.88339785  0.77181930  0.05047551
unknown system                          
           1
     8.317014    4.788174    0.000000
    -8.340926    4.829609    0.000000
     0.000000    0.000000   30.000000
   V    Mo   W    S 
   3   3   3  18
Direct configuration=    10
   0.33482149  0.34122861  0.00089851
   0.65383250  0.68095790 -0.00055729
   0.99732315  0.33148355  0.00076634
   0.33758059 -0.01404503 -0.00015311
   0.64663456 -0.00381182 -0.00027217
   0.33913113  0.68618728 -0.00012119
   0.00492422 -0.00843599  0.00098984
   0.03092210  0.68913787 -0.00019960
   0.64962412  0.30022019 -0.00105938
   0.11334156  0.22647775  0.95086294
   0.22670271  0.11560158  0.04963562
   0.11131388  0.55309659  0.94872863
   0.22076239  0.44290685  0.04852208
   0.11539255  0.89249006  0.94548593
   0.22517000  0.77912490  0.05679918
   0.43853102  0.22021325  0.94862142
   0.55237211  0.10720655  0.05605639
   0.44537678  0.55548243  0.95010122
   0.55550332  0.44660381  0.04776595
   0.44475146  0.88874750  0.94315928
   0.55721913  0.77648369  0.05358229
   0.78217111  0.22118312  0.94756931
   0.88901947  0.11215152  0.04881172
   0.77740071  0.55533364  0.95644093
   0.88967044  0.44397911  0.04792159
   0.77537167  0.88664316  0.94927840
   0.88335029  0.77156639  0.05036503
unknown system                          
           1
     8.322242    4.790141    0.000000
    -8.345841    4.831023    0.000000
     0.000000    0.000000   30.000000
   V    Mo   W    S 
   3   3   3  18
Direct configuration=    11
   0.33528598  0.34341105  0.00090133
   0.65195706  0.68232155 -0.00059914
   0.99654550  0.33154154  0.00082351
   0.33669935 -0.01464979 -0.00015448
   0.64513094 -0.00408078 -0.00025060
   0.33993639  0.68644916 -0.00009498
   0.00770308 -0.00976394  0.00102866
   0.03295122  0.69029961 -0.00017837
   0.64829895  0.29772417 -0.00118940
   0.11336488  0.22634202  0.95112534
   0.22727053  0.11616510  0.04958158
   0.11171009  0.55351528  0.94875523
   0.22040407  0.44300273  0.04848253
   0.11571636  0.89251805  0.94515459
   0.22583716  0.77924153  0.05696407
   0.43801120  0.21972913  0.94866505
   0.55186135  0.10646420  0.05618077
   0.44534283  0.55602735  0.94990649
   0.55595700  0.44684737  0.04738392
   0.44455869  0.88870385  0.94312667
   0.55713349  0.77699398  0.05382608
   0.78186168  0.22046515  0.94749198
   0.88907905  0.11125693  0.04832250
   0.77727000  0.55508150  0.95757172
   0.88924832  0.44404791  0.04751592
   0.77567327  0.88733603  0.94952065
   0.88340601  0.77122377  0.05013827
unknown system                          
           1
     8.322593    4.790214    0.000000
    -8.346206    4.831121    0.000000
     0.000000    0.000000   30.000000
   V    Mo   W    S 
   3   3   3  18
Direct configuration=    12
   0.33529666  0.34396540  0.00083697
   0.65201042  0.68211973 -0.00059891
   0.99639445  0.33194054  0.00081992
   0.33641847 -0.01465576 -0.00013982
   0.64472213 -0.00422271 -0.00022435
   0.34008314  0.68627213 -0.00007482
   0.00870902 -0.01002955  0.00101382
   0.03264325  0.68983966 -0.00017171
   0.64843622  0.29807174 -0.00119106
   0.11339159  0.22632473  0.95117691
   0.22757569  0.11648334  0.04964833
   0.11171241  0.55340653  0.94873086
   0.22024215  0.44294724  0.04851390
   0.11566794  0.89223391  0.94507654
   0.22587238  0.77916747  0.05693831
   0.43793145  0.21979507  0.94870233
   0.55180215  0.10649079  0.05614805
   0.44535925  0.55613550  0.94984336
   0.55594569  0.44698693  0.04736364
   0.44438360  0.88863216  0.94314815
   0.55713659  0.77712542  0.05384685
   0.78175841  0.22033683  0.94751100
   0.88920123  0.11099511  0.04814474
   0.77709352  0.55517691  0.95760234
   0.88916196  0.44390741  0.04756423
   0.77582147  0.88752532  0.94964654
   0.88344321  0.77124261  0.05012378
unknown system                          
           1
     8.324725    4.790134    0.000000
    -8.348484    4.831282    0.000000
     0.000000    0.000000   30.000000
   V    Mo   W    S 
   3   3   3  18
Direct configuration=    13
   0.33529859  0.34405157  0.00083121
   0.65197359  0.68212931 -0.00059918
   0.99637818  0.33200375  0.00082090
   0.33638164 -0.01466687 -0.00013856
   0.64465225 -0.00423547 -0.00022221
   0.34010182  0.68625425 -0.00007335
   0.00885193 -0.01007784  0.00101493
   0.03266459  0.68982556 -0.00017102
   0.64841636  0.29804349 -0.00119430
   0.11339349  0.22631848  0.95118685
   0.22761426  0.11651978  0.04965276
   0.11171785  0.55340075  0.94872814
   0.22022305  0.44294353  0.04851567
   0.11567053  0.89220297  0.94506328
   0.22588401  0.77916144  0.05693881
   0.43791686  0.21979380  0.94870770
   0.55178749  0.10648319  0.05614840
   0.44536148  0.55615472  0.94983473
   0.55594933  0.44700203  0.04735572
   0.44436329  0.88862411  0.94314960
   0.55713725  0.77714493  0.05385243
   0.78173996  0.22031323  0.94751277
   0.88921311  0.11095411  0.04811630
   0.77708074  0.55517724  0.95762244
   0.88914474  0.44389654  0.04756332
   0.77584427  0.88755772  0.94966353
   0.88345377  0.77123815  0.05011901
unknown system                          
           1
     8.327914    4.792104    0.000000
    -8.351907    4.833659    0.000000
     0.000000    0.000000   30.000000
   V    Mo   W    S 
   3   3   3  18
Direct configuration=    14
   0.33538301  0.34512972  0.00077007
   0.65148120  0.68229382 -0.00060809
   0.99611634  0.33256188  0.00083292
   0.33592650 -0.01485442 -0.00012405
   0.64376343 -0.00436700 -0.00019946
   0.34035592  0.68613738 -0.00005389
   0.01063097 -0.01068403  0.00102512
   0.03305752  0.68982196 -0.00015604
   0.64805362  0.29753608 -0.00123945
   0.11345995  0.22624334  0.95131199
   0.22810822  0.11699043  0.04970084
   0.11184040  0.55339981  0.94869616
   0.21999610  0.44292860  0.04853559
   0.11572883  0.89186889  0.94487962
   0.22608486  0.77910377  0.05695772
   0.43770198  0.21974559  0.94877239
   0.55157075  0.10632530  0.05616060
   0.44534333  0.55639638  0.94971122
   0.55602402  0.44719269  0.04723347
   0.44411390  0.88853371  0.94316517
   0.55711247  0.77744590  0.05395165
   0.78147020  0.21995389  0.94751872
   0.88932183  0.11039354  0.04778110
   0.77692806  0.55515459  0.95794586
   0.88889629  0.44379524  0.04751673
   0.77613812  0.88800263  0.94986534
   0.88360665  0.77116476  0.05004860
unknown system                          
           1
     8.334060    4.793685    0.000000
    -8.358474    4.835955    0.000000
     0.000000    0.000000   30.000000
   V    Mo   W    S 
   3   3   3  18
Direct configuration=    15
   0.33534485  0.34489217  0.00079203
   0.65155795  0.68226955 -0.00060533
   0.99615546  0.33242458  0.00083618
   0.33602173 -0.01477515 -0.00012919
   0.64404973 -0.00433043 -0.00020666
   0.34032456  0.68613107 -0.00006077
   0.01016924 -0.01051386  0.00102709
   0.03292993  0.68973021 -0.00016257
   0.64822667  0.29768946 -0.00123350
   0.11339261  0.22628710  0.95128016
   0.22791025  0.11682457  0.04967635
   0.11178490  0.55339738  0.94872376
   0.22004555  0.44289643  0.04851291
   0.11569993  0.89200478  0.94495013
   0.22600938  0.77913118  0.05695138
   0.43777841  0.21974385  0.94874875
   0.55165035  0.10635416  0.05615546
   0.44536641  0.55631462  0.94976371
   0.55600347  0.44711679  0.04727196
   0.44421879  0.88857112  0.94315980
   0.55713459  0.77730803  0.05391084
   0.78163403  0.22011277  0.94752217
   0.88931229  0.11062210  0.04787979
   0.77697037  0.55517549  0.95785290
   0.88903063  0.44382086  0.04751898
   0.77600088  0.88782682  0.94979850
   0.88349148  0.77118881  0.05006508
unknown system                          
           1
     8.336081    4.793903    0.000000
    -8.360265    4.835764    0.000000
     0.000000    0.000000   30.000000
   V    Mo   W    S 
   3   3   3  18
Direct configuration=    16
   0.33544369  0.34606451  0.00072319
   0.65101866  0.68263601 -0.00061401
   0.99595481  0.33341713  0.00085423
   0.33552532 -0.01496377 -0.00011552
   0.64316724 -0.00469039 -0.00017847
   0.34072386  0.68593516 -0.00004052
   0.01173718 -0.01130025  0.00105962
   0.03323102  0.68959369 -0.00016488
   0.64797432  0.29731693 -0.00127128
   0.11331886  0.22613152  0.95142799
   0.22833714  0.11720434  0.04971707
   0.11182294  0.55332880  0.94869352
   0.21982066  0.44290464  0.04854001
   0.11572163  0.89159589  0.94480943
   0.22614422  0.77905781  0.05694417
   0.43765979  0.21971095  0.94882334
   0.55148904  0.10629582  0.05615359
   0.44549943  0.55663385  0.94968372
   0.55608883  0.44730793  0.04714715
   0.44395726  0.88844898  0.94318254
   0.55719243  0.77747691  0.05393498
   0.78144973  0.21986863  0.94755011
   0.88951014  0.11011717  0.04748635
   0.77680473  0.55521563  0.95813413
   0.88882263  0.44369113  0.04750984
   0.77622440  0.88809237  0.95004418
   0.88357452  0.77112308  0.04996542
unknown system                          
           1
     8.333903    4.793225    0.000000
    -8.358261    4.835394    0.000000
     0.000000    0.000000   30.000000
   V    Mo   W    S 
   3   3   3  18
Direct configuration=    17
   0.33536724  0.34687813  0.00065690
   0.65070753  0.68272631 -0.00061511
   0.99598008  0.33453017  0.00086191
   0.33523393 -0.01505403 -0.00009407
   0.64244746 -0.00483103 -0.00014983
   0.34074300  0.68562092 -0.00003027
   0.01309322 -0.01182944  0.00107734
   0.03338840  0.68937014 -0.00017005
   0.64779554  0.29710670 -0.00129280
   0.11331645  0.22600612  0.95154194
   0.22880736  0.11757758  0.04977270
   0.11185398  0.55318539  0.94862387
   0.21964065  0.44289320  0.04858995
   0.11579769  0.89122909  0.94464712
   0.22630236  0.77899719  0.05697225
   0.43746578  0.21969518  0.94886802
   0.55131861  0.10622864  0.05618397
   0.44553697  0.55684732  0.94957152
   0.55610549  0.44746971  0.04707274
   0.44370881  0.88833013  0.94316879
   0.55719691  0.77770332  0.05402125
   0.78120960  0.21959757  0.94757144
   0.88967484  0.10969747  0.04714251
   0.77669289  0.55519627  0.95830961
   0.88858680  0.44356665  0.04754551
   0.77653048  0.88847556  0.95020731
   0.88371237  0.77100023  0.04994538
unknown system                          
           1
     8.332864    4.793451    0.000000
    -8.358365    4.837615    0.000000
     0.000000    0.000000   30.000000
   V    Mo   W    S 
   3   3   3  18
Direct configuration=    18
   0.33545547  0.34680575  0.00067985
   0.65073921  0.68274521 -0.00062135
   0.99581613  0.33410483  0.00086728
   0.33519042 -0.01508103 -0.00009622
   0.64257668 -0.00480431 -0.00015672
   0.34084719  0.68576481 -0.00003444
   0.01292432 -0.01176951  0.00107476
   0.03338895  0.68946197 -0.00017374
   0.64784079  0.29712013 -0.00129621
   0.11331325  0.22602626  0.95152579
   0.22868394  0.11750196  0.04975082
   0.11188120  0.55328036  0.94866699
   0.21968466  0.44291518  0.04856256
   0.11576104  0.89132167  0.94467658
   0.22628849  0.77901122  0.05696349
   0.43751312  0.21969007  0.94886184
   0.55135146  0.10621493  0.05616456
   0.44553780  0.55682992  0.94959629
   0.55613099  0.44744120  0.04707173
   0.44375881  0.88837095  0.94317391
   0.55720867  0.77766422  0.05401466
   0.78126151  0.21964711  0.94756548
   0.88962997  0.10974243  0.04722193
   0.77670104  0.55521781  0.95831237
   0.88864760  0.44359285  0.04751344
   0.77644047  0.88837970  0.95017984
   0.88364128  0.77101874  0.04993440
unknown system                          
           1
     8.333377    4.792524    0.000000
    -8.357805    4.834811    0.000000
     0.000000    0.000000   30.000000
   V    Mo   W    S 
   3   3   3  18
Direct configuration=    19
   0.33569240  0.34651728  0.00073328
   0.65085261  0.68284597 -0.00062365
   0.99531911  0.33281743  0.00087199
   0.33511207 -0.01509321 -0.00011076
   0.64308581 -0.00475902 -0.00017187
   0.34115371  0.68613346 -0.00003506
   0.01222358 -0.01154296  0.00105050
   0.03334653  0.68966731 -0.00016780
   0.64798256  0.29722320 -0.00128525
   0.11330300  0.22609528  0.95145500
   0.22839645  0.11731456  0.04973343
   0.11192438  0.55345473  0.94875577
   0.21976827  0.44297957  0.04850854
   0.11570455  0.89158387  0.94472570
   0.22621877  0.77902791  0.05696556
   0.43760011  0.21968627  0.94881186
   0.55142102  0.10621187  0.05615212
   0.44556357  0.55680019  0.94965026
   0.55622375  0.44741393  0.04710415
   0.44389127  0.88848359  0.94315796
   0.55725776  0.77752660  0.05398523
   0.78146294  0.21980865  0.94751427
   0.88952838  0.10990399  0.04747173
   0.77671950  0.55529762  0.95826952
   0.88881989  0.44366620  0.04745327
   0.77621001  0.88810539  0.95008538
   0.88343244  0.77104477  0.04993874
unknown system                          
           1
     8.336740    4.793643    0.000000
    -8.361139    4.835871    0.000000
     0.000000    0.000000   30.000000
   V    Mo   W    S 
   3   3   3  18
Direct configuration=    20
   0.33566585  0.34748714  0.00066064
   0.65058382  0.68297129 -0.00061306
   0.99485168  0.33342829  0.00086197
   0.33470688 -0.01532848 -0.00009534
   0.64232506 -0.00475806 -0.00015036
   0.34132726  0.68605459 -0.00002453
   0.01376099 -0.01216890  0.00105854
   0.03364771  0.68965298 -0.00016577
   0.64771386  0.29688433 -0.00131005
   0.11327543  0.22588546  0.95160011
   0.22888631  0.11773024  0.04979337
   0.11203198  0.55331676  0.94873785
   0.21955238  0.44303777  0.04852726
   0.11575487  0.89110437  0.94454786
   0.22636292  0.77892585  0.05696992
   0.43745317  0.21973057  0.94887894
   0.55123267  0.10616557  0.05615313
   0.44556949  0.55705848  0.94950886
   0.55626272  0.44757338  0.04702138
   0.44362335  0.88840812  0.94317464
   0.55726543  0.77783611  0.05410783
   0.78117107  0.21948986  0.94751836
   0.88976772  0.10934139  0.04711608
   0.77661560  0.55527959  0.95847269
   0.88854039  0.44355335  0.04748528
   0.77664126  0.88860535  0.95025566
   0.88362459  0.77094906  0.04990866
unknown system                          
           1
     8.332777    4.793506    0.000000
    -8.357211    4.835815    0.000000
     0.000000    0.000000   30.000000
   V    Mo   W    S 
   3   3   3  18
Direct configuration=    21
   0.33552896  0.34769426  0.00062583
   0.65046605  0.68297184 -0.00061246
   0.99522911  0.33438855  0.00086459
   0.33475499 -0.01527482 -0.00008650
   0.64204349 -0.00488070 -0.00013644
   0.34117593  0.68575004 -0.00001932
   0.01412175 -0.01232764  0.00107648
   0.03362556  0.68941338 -0.00016738
   0.64766843  0.29687049 -0.00131373
   0.11325824  0.22585285  0.95164265
   0.22907987  0.11784690  0.04981390
   0.11197446  0.55318021  0.94866490
   0.21948474  0.44298280  0.04857212
   0.11580560  0.89095901  0.94450785
   0.22640141  0.77891198  0.05697888
   0.43737877  0.21971513  0.94889839
   0.55118592  0.10616955  0.05617743
   0.44559913  0.55710062  0.94948051
   0.55621893  0.44761962  0.04700319
   0.44353241  0.88832186  0.94316756
   0.55725682  0.77787849  0.05410850
   0.78110016  0.21941754  0.94754728
   0.88984344  0.10928085  0.04694962
   0.77658359  0.55525834  0.95849456
   0.88845466  0.44349701  0.04753253
   0.77674173  0.88871547  0.95032114
   0.88370030  0.77090083  0.04990781
unknown system                          
           1
     8.328111    4.791042    0.000000
    -8.352430    4.833153    0.000000
     0.000000    0.000000   30.000000
   V    Mo   W    S 
   3   3   3  18
Direct configuration=    22
   0.33574978  0.34703166  0.00071864
   0.65077305  0.68277336 -0.00061672
   0.99452258  0.33210468  0.00087137
   0.33480208 -0.01523773 -0.00010710
   0.64289615 -0.00443237 -0.00016656
   0.34131899  0.68628464 -0.00002711
   0.01313673 -0.01168165  0.00102685
   0.03355644  0.68979090 -0.00015312
   0.64783582  0.29701245 -0.00129982
   0.11337461  0.22603986  0.95151025
   0.22865795  0.11760024  0.04977922
   0.11209615  0.55347930  0.94880882
   0.21965880  0.44303019  0.04845945
   0.11573116  0.89141048  0.94459036
   0.22632866  0.77898148  0.05698443
   0.43750582  0.21974364  0.94883753
   0.55128566  0.10613528  0.05614994
   0.44543548  0.55687079  0.94955425
   0.55623663  0.44744769  0.04707031
   0.44376512  0.88852730  0.94316081
   0.55723727  0.77777518  0.05410871
   0.78131447  0.21961559  0.94747168
   0.88960967  0.10952835  0.04739124
   0.77668735  0.55525786  0.95838577
   0.88868845  0.44361564  0.04741669
   0.77647398  0.88846235  0.95013245
   0.88353561  0.77104728  0.04994156
unknown system                          
           1
     8.339934    4.794978    0.000000
    -8.364263    4.837080    0.000000
     0.000000    0.000000   30.000000
   V    Mo   W    S 
   3   3   3  18
Direct configuration=    23
   0.33599178  0.34727785  0.00074205
   0.65073292  0.68277082 -0.00059682
   0.99271076  0.32921172  0.00085747
   0.33443075 -0.01548340 -0.00013074
   0.64328402 -0.00390063 -0.00017612
   0.34200340  0.68707533  0.00000153
   0.01347933 -0.01149648  0.00094144
   0.03373408  0.69035227 -0.00013194
   0.64772872  0.29691568 -0.00128634
   0.11354060  0.22609002  0.95144137
   0.22871217  0.11778498  0.04982857
   0.11231454  0.55363384  0.94899665
   0.21955929  0.44314842  0.04832823
   0.11575646  0.89143975  0.94451929
   0.22635326  0.77896631  0.05701388
   0.43748808  0.21986147  0.94881272
   0.55113283  0.10608274  0.05616858
   0.44530447  0.55690389  0.94954199
   0.55628803  0.44741587  0.04708949
   0.44382508  0.88875342  0.94317787
   0.55727580  0.77791445  0.05411258
   0.78131511  0.21963239  0.94731057
   0.88953113  0.10912483  0.04763437
   0.77676734  0.55525652  0.95841795
   0.88868141  0.44360927  0.04728594
   0.77659386  0.88862368  0.95015726
   0.88367923  0.77124944  0.04994205
unknown system                          
           1
     8.342918    4.795135    0.000000
    -8.367017    4.836824    0.000000
     0.000000    0.000000   30.000000
   V    Mo   W    S 
   3   3   3  18
Direct configuration=    24
   0.33566827  0.34825567  0.00062678
   0.65033476  0.68297182 -0.00059696
   0.99343854  0.33210435  0.00084878
   0.33439325 -0.01544751 -0.00008979
   0.64229021 -0.00434696 -0.00012896
   0.34181730  0.68629226  0.00000718
   0.01485869 -0.01228388  0.00101037
   0.03373752  0.68969739 -0.00014789
   0.64753752  0.29678154 -0.00130941
   0.11338884  0.22583581  0.95162265
   0.22934334  0.11815417  0.04987689
   0.11215795  0.55318600  0.94881460
   0.21927210  0.44306619  0.04846456
   0.11591055  0.89082161  0.94435900
   0.22648376  0.77886963  0.05702799
   0.43728139  0.21982066  0.94888954
   0.55096760  0.10610130  0.05621597
   0.44553920  0.55724872  0.94942170
   0.55626285  0.44768210  0.04699640
   0.44350177  0.88848944  0.94315757