   27   27  100    1
  0.9710400E+02  0.1002848E-08  0.1002848E-08  0.3000000E-08  0.5000000E-15
  1.000000000000000E-004
  CAR 
 unknown system                          
    159     34    120
 
  0.0000000E+00  0.0000000E+00  0.0000000E+00  0.1562500E-01
    1      -17.819606   1.000000
    2      -16.753763   1.000000
    3      -16.627821   1.000000
    4      -16.617191   1.000000
    5      -16.492554   1.000000
    6      -16.475822   1.000000
    7      -16.403018   1.000000
    8      -16.313672   1.000000
    9      -16.186846   1.000000
   10      -16.143232   1.000000
   11      -16.077841   1.000000
   12      -15.941526   1.000000
   13      -15.915707   1.000000
   14      -15.761652   1.000000
   15      -15.554445   1.000000
   16      -15.474607   1.000000
   17      -15.341078   1.000000
   18      -15.198806   1.000000
   19       -9.344755   1.000000
   20       -8.955400   1.000000
   21       -8.908346   1.000000
   22       -8.886258   1.000000
   23       -8.771563   1.000000
   24       -8.740459   1.000000
   25       -8.633177   1.000000
   26       -8.579982   1.000000
   27       -8.469775   1.000000
   28       -8.437929   1.000000
   29       -8.399851   1.000000
   30       -8.364812   1.000000
   31       -8.274850   1.000000
   32       -8.228028   1.000000
   33       -8.183264   1.000000
   34       -8.130089   1.000000
   35       -7.851239   1.000000
   36       -7.766762   1.000000
   37       -7.681751   1.000000
   38       -7.548616   1.000000
   39       -7.470360   1.000000
   40       -7.417046   1.000000
   41       -7.339548   1.000000
   42       -7.194899   1.000000
   43       -7.132295   1.000000
   44       -7.010817   1.000000
   45       -6.827564   1.000000
   46       -6.756040   1.000000
   47       -6.743950   1.000000
   48       -6.648521   1.000000
   49       -6.603367   1.000000
   50       -6.468412   1.000000
   51       -6.435118   1.000000
   52       -6.382005   1.000000
   53       -6.273474   1.000000
   54       -6.188421   1.000000
   55       -6.142375   1.000000
   56       -6.103805   1.000000
   57       -5.985467   1.000000
   58       -5.902083   1.000000
   59       -5.850226   1.000000
   60       -5.625224   1.000000
   61       -5.481723   1.000000
   62       -5.402057   1.000000
   63       -5.233712   1.000000
   64       -5.183581   1.000000
   65       -5.047552   1.000000
   66       -5.001370   1.000000
   67       -4.949371   1.000000
   68       -4.916751   1.000000
   69       -4.769965   1.000000
   70       -4.716725   1.000000
   71       -4.634210   1.000000
   72       -4.594530   1.000000
   73       -4.421261   1.000000
   74       -4.316785   1.000000
   75       -4.216107   1.000000
   76       -3.952031   0.999996
   77       -3.771600   0.999285
   78       -3.562010   0.956048
   79       -3.458789   0.835637
   80       -3.380584   0.664103
   81       -3.269136   0.357792
   82       -2.890858   0.001186
   83       -2.756469   0.000033
   84       -2.666432   0.000002
   85       -2.592427   0.000000
   86       -2.449657   0.000000
   87       -2.367990   0.000000
   88       -2.285703   0.000000
   89       -2.180582   0.000000
   90       -1.910231   0.000000
   91       -1.782872   0.000000
   92       -1.504441   0.000000
   93       -1.360302   0.000000
   94       -1.295613   0.000000
   95       -1.164836   0.000000
   96       -1.005273   0.000000
   97       -0.992969   0.000000
   98       -0.947939   0.000000
   99       -0.857146   0.000000
  100       -0.692882   0.000000
  101       -0.624493   0.000000
  102       -0.540554   0.000000
  103       -0.477716   0.000000
  104       -0.307000   0.000000
  105       -0.158424   0.000000
  106       -0.117934   0.000000
  107       -0.075899   0.000000
  108       -0.007586   0.000000
  109        0.113622   0.000000
  110        0.157772   0.000000
  111        0.425363   0.000000
  112        0.538804   0.000000
  113        0.566827   0.000000
  114        0.732257   0.000000
  115        0.921312   0.000000
  116        0.982614   0.000000
  117        1.302482   0.000000
  118        1.637121   0.000000
  119        1.834932   0.000000
  120        2.152595   0.000000
 
  0.1250000E+00  0.2775558E-16  0.0000000E+00  0.3125000E-01
    1      -17.794496   1.000000
    2      -16.817477   1.000000
    3      -16.694874   1.000000
    4      -16.614467   1.000000
    5      -16.554505   1.000000
    6      -16.394676   1.000000
    7      -16.366208   1.000000
    8      -16.311434   1.000000
    9      -16.256240   1.000000
   10      -16.084217   1.000000
   11      -16.013010   1.000000
   12      -15.953335   1.000000
   13      -15.883170   1.000000
   14      -15.752452   1.000000
   15      -15.562378   1.000000
   16      -15.475052   1.000000
   17      -15.353590   1.000000
   18      -15.205820   1.000000
   19       -9.354021   1.000000
   20       -9.153191   1.000000
   21       -9.022145   1.000000
   22       -8.947070   1.000000
   23       -8.767571   1.000000
   24       -8.738565   1.000000
   25       -8.645634   1.000000
   26       -8.542847   1.000000
   27       -8.505719   1.000000
   28       -8.427490   1.000000
   29       -8.359282   1.000000
   30       -8.311024   1.000000
   31       -8.241078   1.000000
   32       -8.130491   1.000000
   33       -8.066636   1.000000
   34       -7.964293   1.000000
   35       -7.873072   1.000000
   36       -7.735881   1.000000
   37       -7.657574   1.000000
   38       -7.605879   1.000000
   39       -7.465801   1.000000
   40       -7.402359   1.000000
   41       -7.295641   1.000000
   42       -7.232855   1.000000
   43       -7.124098   1.000000
   44       -7.003795   1.000000
   45       -6.912386   1.000000
   46       -6.769701   1.000000
   47       -6.730027   1.000000
   48       -6.638943   1.000000
   49       -6.600304   1.000000
   50       -6.457503   1.000000
   51       -6.415568   1.000000
   52       -6.374095   1.000000
   53       -6.306193   1.000000
   54       -6.221628   1.000000
   55       -6.159064   1.000000
   56       -6.072083   1.000000
   57       -5.994741   1.000000
   58       -5.899367   1.000000
   59       -5.799829   1.000000
   60       -5.556426   1.000000
   61       -5.467644   1.000000
   62       -5.437156   1.000000
   63       -5.319182   1.000000
   64       -5.212899   1.000000
   65       -5.185068   1.000000
   66       -5.050067   1.000000
   67       -4.970842   1.000000
   68       -4.883685   1.000000
   69       -4.818537   1.000000
   70       -4.658786   1.000000
   71       -4.623092   1.000000
   72       -4.504001   1.000000
   73       -4.450296   1.000000
   74       -4.226296   1.000000
   75       -4.175489   1.000000
   76       -3.901343   0.999980
   77       -3.794383   0.999595
   78       -3.676546   0.994073
   79       -3.615987   0.981612
   80       -3.382762   0.669702
   81       -3.114313   0.072264
   82       -2.889126   0.001139
   83       -2.726359   0.000013
   84       -2.673438   0.000002
   85       -2.591064   0.000000
   86       -2.423579   0.000000
   87       -2.357485   0.000000
   88       -2.275635   0.000000
   89       -2.175560   0.000000
   90       -1.898006   0.000000
   91       -1.778570   0.000000
   92       -1.488077   0.000000
   93       -1.387868   0.000000
   94       -1.270380   0.000000
   95       -1.156755   0.000000
   96       -1.018237   0.000000
   97       -0.987157   0.000000
   98       -0.954828   0.000000
   99       -0.850917   0.000000
  100       -0.751868   0.000000
  101       -0.684130   0.000000
  102       -0.602919   0.000000
  103       -0.526747   0.000000
  104       -0.384754   0.000000
  105       -0.283127   0.000000
  106       -0.179590   0.000000
  107       -0.069872   0.000000
  108        0.036087   0.000000
  109        0.135325   0.000000
  110        0.190280   0.000000
  111        0.442844   0.000000
  112        0.588057   0.000000
  113        0.628726   0.000000
  114        0.735198   0.000000
  115        0.933320   0.000000
  116        0.989877   0.000000
  117        1.267431   0.000000
  118        1.680169   0.000000
  119        1.873337   0.000000
  120        2.187683   0.000000
 
  0.2500000E+00  0.5551115E-16  0.0000000E+00  0.3125000E-01
    1      -17.720430   1.000000
    2      -17.010025   1.000000
    3      -16.703328   1.000000
    4      -16.651048   1.000000
    5      -16.614859   1.000000
    6      -16.394043   1.000000
    7      -16.322272   1.000000
    8      -16.283081   1.000000
    9      -16.205050   1.000000
   10      -16.088736   1.000000
   11      -15.962280   1.000000
   12      -15.881762   1.000000
   13      -15.843886   1.000000
   14      -15.720794   1.000000
   15      -15.575145   1.000000
   16      -15.474471   1.000000
   17      -15.379324   1.000000
   18      -15.228065   1.000000
   19       -9.551399   1.000000
   20       -9.247385   1.000000
   21       -9.160525   1.000000
   22       -9.044301   1.000000
   23       -8.853381   1.000000
   24       -8.745643   1.000000
   25       -8.637512   1.000000
   26       -8.568885   1.000000
   27       -8.488730   1.000000
   28       -8.395712   1.000000
   29       -8.275879   1.000000
   30       -8.231134   1.000000
   31       -8.147045   1.000000
   32       -8.070276   1.000000
   33       -7.972611   1.000000
   34       -7.871867   1.000000
   35       -7.726846   1.000000
   36       -7.677903   1.000000
   37       -7.598767   1.000000
   38       -7.507934   1.000000
   39       -7.461372   1.000000
   40       -7.414797   1.000000
   41       -7.306717   1.000000
   42       -7.166952   1.000000
   43       -7.084234   1.000000
   44       -7.055095   1.000000
   45       -6.896452   1.000000
   46       -6.808935   1.000000
   47       -6.765633   1.000000
   48       -6.680217   1.000000
   49       -6.545325   1.000000
   50       -6.496910   1.000000
   51       -6.394621   1.000000
   52       -6.325780   1.000000
   53       -6.295200   1.000000
   54       -6.230069   1.000000
   55       -6.170887   1.000000
   56       -6.048930   1.000000
   57       -5.947488   1.000000
   58       -5.895383   1.000000
   59       -5.735701   1.000000
   60       -5.672742   1.000000
   61       -5.616020   1.000000
   62       -5.532358   1.000000
   63       -5.416354   1.000000
   64       -5.300531   1.000000
   65       -5.202073   1.000000
   66       -5.129606   1.000000
   67       -4.992556   1.000000
   68       -4.886091   1.000000
   69       -4.794167   1.000000
   70       -4.641703   1.000000
   71       -4.506840   1.000000
   72       -4.482047   1.000000
   73       -4.326703   1.000000
   74       -4.211684   1.000000
   75       -4.130307   1.000000
   76       -3.985293   0.999999
   77       -3.906662   0.999983
   78       -3.740655   0.998510
   79       -3.624333   0.984113
   80       -3.375783   0.651635
   81       -2.986237   0.009021
   82       -2.886552   0.001072
   83       -2.690696   0.000004
   84       -2.665374   0.000002
   85       -2.577204   0.000000
   86       -2.395349   0.000000
   87       -2.320953   0.000000
   88       -2.263961   0.000000
   89       -2.123705   0.000000
   90       -1.877125   0.000000
   91       -1.750317   0.000000
   92       -1.485291   0.000000
   93       -1.396646   0.000000
   94       -1.236941   0.000000
   95       -1.159416   0.000000
   96       -1.076285   0.000000
   97       -1.005543   0.000000
   98       -0.953110   0.000000
   99       -0.898708   0.000000
  100       -0.849654   0.000000
  101       -0.787808   0.000000
  102       -0.723156   0.000000
  103       -0.628005   0.000000
  104       -0.502788   0.000000
  105       -0.362163   0.000000
  106       -0.341063   0.000000
  107       -0.130841   0.000000
  108       -0.036931   0.000000
  109        0.208333   0.000000
  110        0.264435   0.000000
  111        0.469140   0.000000
  112        0.605638   0.000000
  113        0.682705   0.000000
  114        0.797232   0.000000
  115        0.961257   0.000000
  116        1.065302   0.000000
  117        1.243986   0.000000
  118        1.801929   0.000000
  119        1.984328   0.000000
  120        2.291936   0.000000
 
  0.3750000E+00  0.0000000E+00  0.0000000E+00  0.3125000E-01
    1      -17.602715   1.000000
    2      -17.219629   1.000000
    3      -16.705682   1.000000
    4      -16.679987   1.000000
    5      -16.648795   1.000000
    6      -16.437521   1.000000
    7      -16.276352   1.000000
    8      -16.244135   1.000000
    9      -16.173152   1.000000
   10      -16.064588   1.000000
   11      -15.915247   1.000000
   12      -15.857871   1.000000
   13      -15.816162   1.000000
   14      -15.688714   1.000000
   15      -15.596112   1.000000
   16      -15.448659   1.000000
   17      -15.388220   1.000000
   18      -15.265521   1.000000
   19       -9.759779   1.000000
   20       -9.351567   1.000000
   21       -9.207254   1.000000
   22       -8.999860   1.000000
   23       -8.921280   1.000000
   24       -8.798546   1.000000
   25       -8.621089   1.000000
   26       -8.543425   1.000000
   27       -8.496898   1.000000
   28       -8.343233   1.000000
   29       -8.274503   1.000000
   30       -8.206553   1.000000
   31       -8.125675   1.000000
   32       -8.030637   1.000000
   33       -7.932422   1.000000
   34       -7.795430   1.000000
   35       -7.732751   1.000000
   36       -7.682425   1.000000
   37       -7.619234   1.000000
   38       -7.499530   1.000000
   39       -7.345175   1.000000
   40       -7.293219   1.000000
   41       -7.164314   1.000000
   42       -7.121101   1.000000
   43       -7.054939   1.000000
   44       -6.989491   1.000000
   45       -6.882708   1.000000
   46       -6.816238   1.000000
   47       -6.739562   1.000000
   48       -6.656155   1.000000
   49       -6.560860   1.000000
   50       -6.435227   1.000000
   51       -6.381840   1.000000
   52       -6.319433   1.000000
   53       -6.244552   1.000000
   54       -6.203535   1.000000
   55       -6.145398   1.000000
   56       -6.036034   1.000000
   57       -6.013452   1.000000
   58       -5.940848   1.000000
   59       -5.916284   1.000000
   60       -5.807298   1.000000
   61       -5.669744   1.000000
   62       -5.633184   1.000000
   63       -5.529914   1.000000
   64       -5.295836   1.000000
   65       -5.237140   1.000000
   66       -5.084379   1.000000
   67       -4.985454   1.000000
   68       -4.867420   1.000000
   69       -4.750188   1.000000
   70       -4.718631   1.000000
   71       -4.542557   1.000000
   72       -4.464757   1.000000
   73       -4.349514   1.000000
   74       -4.209117   1.000000
   75       -4.126624   1.000000
   76       -4.024841   1.000000
   77       -3.864213   0.999939
   78       -3.721312   0.997694
   79       -3.539194   0.938855
   80       -3.405854   0.726538
   81       -2.917048   0.002159
   82       -2.867533   0.000677
   83       -2.704190   0.000007
   84       -2.663209   0.000002
   85       -2.532582   0.000000
   86       -2.387091   0.000000
   87       -2.280104   0.000000
   88       -2.239280   0.000000
   89       -2.055040   0.000000
   90       -1.849880   0.000000
   91       -1.701862   0.000000
   92       -1.521438   0.000000
   93       -1.380239   0.000000
   94       -1.243437   0.000000
   95       -1.220461   0.000000
   96       -1.123616   0.000000
   97       -1.073218   0.000000
   98       -1.002103   0.000000
   99       -0.928842   0.000000
  100       -0.899093   0.000000
  101       -0.828532   0.000000
  102       -0.798286   0.000000
  103       -0.704721   0.000000
  104       -0.582643   0.000000
  105       -0.520878   0.000000
  106       -0.367285   0.000000
  107       -0.206268   0.000000
  108       -0.072284   0.000000
  109        0.186632   0.000000
  110        0.299114   0.000000
  111        0.476704   0.000000
  112        0.564279   0.000000
  113        0.708225   0.000000
  114        0.876387   0.000000
  115        0.978105   0.000000
  116        1.164408   0.000000
  117        1.296199   0.000000
  118        1.986122   0.000000
  119        2.158714   0.000000
  120        2.462698   0.000000
 
  0.5000000E+00  0.1110223E-15  0.0000000E+00  0.1562500E-01
    1      -17.490465   1.000000
    2      -17.364780   1.000000
    3      -16.706738   1.000000
    4      -16.696795   1.000000
    5      -16.652193   1.000000
    6      -16.454014   1.000000
    7      -16.254202   1.000000
    8      -16.230919   1.000000
    9      -16.184121   1.000000
   10      -16.027707   1.000000
   11      -15.884337   1.000000
   12      -15.881596   1.000000
   13      -15.791403   1.000000
   14      -15.681944   1.000000
   15      -15.619437   1.000000
   16      -15.432759   1.000000
   17      -15.364735   1.000000
   18      -15.298484   1.000000
   19       -9.836381   1.000000
   20       -9.393495   1.000000
   21       -9.238110   1.000000
   22       -8.957786   1.000000
   23       -8.886828   1.000000
   24       -8.833555   1.000000
   25       -8.676421   1.000000
   26       -8.544479   1.000000
   27       -8.481780   1.000000
   28       -8.357360   1.000000
   29       -8.250780   1.000000
   30       -8.149166   1.000000
   31       -8.112982   1.000000
   32       -8.017287   1.000000
   33       -7.902720   1.000000
   34       -7.858820   1.000000
   35       -7.769468   1.000000
   36       -7.678764   1.000000
   37       -7.622431   1.000000
   38       -7.509975   1.000000
   39       -7.312918   1.000000
   40       -7.283184   1.000000
   41       -7.109421   1.000000
   42       -7.069312   1.000000
   43       -6.978372   1.000000
   44       -6.901166   1.000000
   45       -6.888968   1.000000
   46       -6.752461   1.000000
   47       -6.656271   1.000000
   48       -6.600760   1.000000
   49       -6.534677   1.000000
   50       -6.489898   1.000000
   51       -6.408185   1.000000
   52       -6.383091   1.000000
   53       -6.309728   1.000000
   54       -6.210028   1.000000
   55       -6.188322   1.000000
   56       -6.100048   1.000000
   57       -6.018379   1.000000
   58       -5.940284   1.000000
   59       -5.910575   1.000000
   60       -5.792472   1.000000
   61       -5.690833   1.000000
   62       -5.557978   1.000000
   63       -5.517393   1.000000
   64       -5.432287   1.000000
   65       -5.293348   1.000000
   66       -5.064851   1.000000
   67       -4.993493   1.000000
   68       -4.930061   1.000000
   69       -4.813712   1.000000
   70       -4.653422   1.000000
   71       -4.542595   1.000000
   72       -4.456273   1.000000
   73       -4.334914   1.000000
   74       -4.284425   1.000000
   75       -4.110881   1.000000
   76       -3.981403   0.999999
   77       -3.820427   0.999795
   78       -3.697712   0.996163
   79       -3.536163   0.936220
   80       -3.411164   0.738887
   81       -2.891201   0.001196
   82       -2.849888   0.000436
   83       -2.731171   0.000015
   84       -2.660073   0.000001
   85       -2.513052   0.000000
   86       -2.378686   0.000000
   87       -2.264384   0.000000
   88       -2.225487   0.000000
   89       -2.025722   0.000000
   90       -1.833768   0.000000
   91       -1.675457   0.000000
   92       -1.539021   0.000000
   93       -1.378801   0.000000
   94       -1.296442   0.000000
   95       -1.244826   0.000000
   96       -1.123949   0.000000
   97       -1.086529   0.000000
   98       -1.045953   0.000000
   99       -0.942346   0.000000
  100       -0.915479   0.000000
  101       -0.837650   0.000000
  102       -0.804837   0.000000
  103       -0.717032   0.000000
  104       -0.637499   0.000000
  105       -0.582920   0.000000
  106       -0.364949   0.000000
  107       -0.230307   0.000000
  108       -0.090865   0.000000
  109        0.164683   0.000000
  110        0.308133   0.000000
  111        0.467063   0.000000
  112        0.553030   0.000000
  113        0.718989   0.000000
  114        0.897903   0.000000
  115        0.988215   0.000000
  116        1.205330   0.000000
  117        1.330417   0.000000
  118        2.204400   0.000000
  119        2.241382   0.000000
  120        2.367115   0.000000
 
  0.0000000E+00  0.1250000E+00  0.0000000E+00  0.3125000E-01
    1      -17.795964   1.000000
    2      -16.793706   1.000000
    3      -16.692943   1.000000
    4      -16.634195   1.000000
    5      -16.558701   1.000000
    6      -16.460383   1.000000
    7      -16.348014   1.000000
    8      -16.285434   1.000000
    9      -16.176172   1.000000
   10      -16.127260   1.000000
   11      -16.037631   1.000000
   12      -15.929841   1.000000
   13      -15.891680   1.000000
   14      -15.752651   1.000000
   15      -15.571679   1.000000
   16      -15.486688   1.000000
   17      -15.342956   1.000000
   18      -15.202397   1.000000
   19       -9.344116   1.000000
   20       -9.096773   1.000000
   21       -9.013850   1.000000
   22       -8.949827   1.000000
   23       -8.850675   1.000000
   24       -8.781372   1.000000
   25       -8.629463   1.000000
   26       -8.578713   1.000000
   27       -8.458220   1.000000
   28       -8.443832   1.000000
   29       -8.360785   1.000000
   30       -8.288450   1.000000
   31       -8.196463   1.000000
   32       -8.113230   1.000000
   33       -8.082291   1.000000
   34       -8.020384   1.000000
   35       -7.808022   1.000000
   36       -7.735856   1.000000
   37       -7.658330   1.000000
   38       -7.566550   1.000000
   39       -7.525843   1.000000
   40       -7.438447   1.000000
   41       -7.291558   1.000000
   42       -7.198041   1.000000
   43       -7.127002   1.000000
   44       -7.043557   1.000000
   45       -6.899424   1.000000
   46       -6.772223   1.000000
   47       -6.722592   1.000000
   48       -6.663759   1.000000
   49       -6.526595   1.000000
   50       -6.459899   1.000000
   51       -6.428533   1.000000
   52       -6.369225   1.000000
   53       -6.319421   1.000000
   54       -6.217405   1.000000
   55       -6.128993   1.000000
   56       -6.089503   1.000000
   57       -6.017175   1.000000
   58       -5.891123   1.000000
   59       -5.806484   1.000000
   60       -5.603185   1.000000
   61       -5.461331   1.000000
   62       -5.433246   1.000000
   63       -5.350079   1.000000
   64       -5.263257   1.000000
   65       -5.122914   1.000000
   66       -5.038527   1.000000
   67       -4.915448   1.000000
   68       -4.869266   1.000000
   69       -4.842728   1.000000
   70       -4.695696   1.000000
   71       -4.588711   1.000000
   72       -4.530940   1.000000
   73       -4.441694   1.000000
   74       -4.200351   1.000000
   75       -4.154218   1.000000
   76       -4.002632   0.999999
   77       -3.780059   0.999420
   78       -3.671852   0.993491
   79       -3.576001   0.964502
   80       -3.306933   0.461321
   81       -3.203040   0.202778
   82       -2.869861   0.000717
   83       -2.729228   0.000014
   84       -2.661386   0.000002
   85       -2.565322   0.000000
   86       -2.461217   0.000000
   87       -2.336788   0.000000
   88       -2.267855   0.000000
   89       -2.153750   0.000000
   90       -1.926921   0.000000
   91       -1.759330   0.000000
   92       -1.510872   0.000000
   93       -1.373103   0.000000
   94       -1.288955   0.000000
   95       -1.153350   0.000000
   96       -1.022130   0.000000
   97       -0.998779   0.000000
   98       -0.954404   0.000000
   99       -0.848323   0.000000
  100       -0.781058   0.000000
  101       -0.693222   0.000000
  102       -0.631116   0.000000
  103       -0.552135   0.000000
  104       -0.322178   0.000000
  105       -0.222196   0.000000
  106       -0.126869   0.000000
  107       -0.073487   0.000000
  108        0.014556   0.000000
  109        0.090224   0.000000
  110        0.200187   0.000000
  111        0.402750   0.000000
  112        0.517289   0.000000
  113        0.631159   0.000000
  114        0.718004   0.000000
  115        0.934422   0.000000
  116        1.030992   0.000000
  117        1.313574   0.000000
  118        1.679701   0.000000
  119        1.874225   0.000000
  120        2.187309   0.000000
 
  0.1250000E+00  0.1250000E+00  0.0000000E+00  0.3125000E-01
    1      -17.748026   1.000000
    2      -16.898336   1.000000
    3      -16.792984   1.000000
    4      -16.678415   1.000000
    5      -16.509882   1.000000
    6      -16.418190   1.000000
    7      -16.326748   1.000000
    8      -16.260671   1.000000
    9      -16.242152   1.000000
   10      -16.054042   1.000000
   11      -15.967139   1.000000
   12      -15.940837   1.000000
   13      -15.846080   1.000000
   14      -15.728524   1.000000
   15      -15.596468   1.000000
   16      -15.493498   1.000000
   17      -15.358393   1.000000
   18      -15.208229   1.000000
   19       -9.421873   1.000000
   20       -9.267634   1.000000
   21       -9.169263   1.000000
   22       -9.058575   1.000000
   23       -8.812669   1.000000
   24       -8.758213   1.000000
   25       -8.631627   1.000000
   26       -8.532383   1.000000
   27       -8.447839   1.000000
   28       -8.397504   1.000000
   29       -8.283983   1.000000
   30       -8.264550   1.000000
   31       -8.162407   1.000000
   32       -8.077159   1.000000
   33       -7.985893   1.000000
   34       -7.907002   1.000000
   35       -7.779570   1.000000
   36       -7.751973   1.000000
   37       -7.591991   1.000000
   38       -7.532953   1.000000
   39       -7.497233   1.000000
   40       -7.386656   1.000000
   41       -7.299219   1.000000
   42       -7.241396   1.000000
   43       -7.069508   1.000000
   44       -7.016780   1.000000
   45       -6.943304   1.000000
   46       -6.795641   1.000000
   47       -6.722456   1.000000
   48       -6.681534   1.000000
   49       -6.516824   1.000000
   50       -6.439917   1.000000
   51       -6.418200   1.000000
   52       -6.333510   1.000000
   53       -6.311549   1.000000
   54       -6.230146   1.000000
   55       -6.170479   1.000000
   56       -6.101884   1.000000
   57       -6.018740   1.000000
   58       -5.881053   1.000000
   59       -5.776695   1.000000
   60       -5.625270   1.000000
   61       -5.579029   1.000000
   62       -5.442577   1.000000
   63       -5.387770   1.000000
   64       -5.307543   1.000000
   65       -5.220018   1.000000
   66       -5.094391   1.000000
   67       -4.992621   1.000000
   68       -4.906568   1.000000
   69       -4.761364   1.000000
   70       -4.635587   1.000000
   71       -4.560043   1.000000
   72       -4.468676   1.000000
   73       -4.398431   1.000000
   74       -4.170737   1.000000
   75       -4.122133   1.000000
   76       -3.991174   0.999999
   77       -3.871676   0.999951
   78       -3.711048   0.997114
   79       -3.635571   0.987017
   80       -3.362862   0.617290
   81       -3.063976   0.034757
   82       -2.841603   0.000353
   83       -2.685585   0.000004
   84       -2.660471   0.000002
   85       -2.570205   0.000000
   86       -2.412023   0.000000
   87       -2.326637   0.000000
   88       -2.234137   0.000000
   89       -2.139830   0.000000
   90       -1.913794   0.000000
   91       -1.735179   0.000000
   92       -1.490767   0.000000
   93       -1.410607   0.000000
   94       -1.269733   0.000000
   95       -1.150926   0.000000
   96       -1.055191   0.000000
   97       -1.015230   0.000000
   98       -0.964686   0.000000
   99       -0.886319   0.000000
  100       -0.850868   0.000000
  101       -0.782263   0.000000
  102       -0.718162   0.000000
  103       -0.621853   0.000000
  104       -0.420762   0.000000
  105       -0.308955   0.000000
  106       -0.205137   0.000000
  107       -0.129896   0.000000
  108        0.018039   0.000000
  109        0.129510   0.000000
  110        0.273553   0.000000
  111        0.408761   0.000000
  112        0.533468   0.000000
  113        0.645700   0.000000
  114        0.766556   0.000000
  115        0.961098   0.000000
  116        1.090939   0.000000
  117        1.270948   0.000000
  118        1.760375   0.000000
  119        1.948887   0.000000
  120        2.256404   0.000000
 
  0.2500000E+00  0.1250000E+00  0.0000000E+00  0.3125000E-01
    1      -17.653847   1.000000
    2      -17.093606   1.000000
    3      -16.872508   1.000000
    4      -16.672432   1.000000
    5      -16.500002   1.000000
    6      -16.381336   1.000000
    7      -16.319839   1.000000
    8      -16.263795   1.000000
    9      -16.193840   1.000000
   10      -16.068147   1.000000
   11      -15.950936   1.000000
   12      -15.847462   1.000000
   13      -15.816909   1.000000
   14      -15.683810   1.000000
   15      -15.632342   1.000000
   16      -15.479814   1.000000
   17      -15.381077   1.000000
   18      -15.227416   1.000000
   19       -9.646561   1.000000
   20       -9.387772   1.000000
   21       -9.268425   1.000000
   22       -9.057095   1.000000
   23       -8.843047   1.000000
   24       -8.705437   1.000000
   25       -8.581763   1.000000
   26       -8.508358   1.000000
   27       -8.452363   1.000000
   28       -8.370689   1.000000
   29       -8.263065   1.000000
   30       -8.203780   1.000000
   31       -8.149901   1.000000
   32       -8.060953   1.000000
   33       -8.015190   1.000000
   34       -7.901135   1.000000
   35       -7.789460   1.000000
   36       -7.590269   1.000000
   37       -7.574046   1.000000
   38       -7.474685   1.000000
   39       -7.401502   1.000000
   40       -7.369991   1.000000
   41       -7.235554   1.000000
   42       -7.140378   1.000000
   43       -7.057675   1.000000
   44       -7.014640   1.000000
   45       -6.851065   1.000000
   46       -6.820780   1.000000
   47       -6.758219   1.000000