       N       E                     dE             d eps       ncg     rms          rms(c)
DAV:   1     0.112373844180E+04    0.11237E+04   -0.35858E+04  8160   0.577E+02
DAV:   2    -0.308387620503E+01   -0.11268E+04   -0.10849E+04 11160   0.173E+02
DAV:   3    -0.199796940931E+03   -0.19671E+03   -0.18875E+03 10880   0.820E+01
DAV:   4    -0.209004176162E+03   -0.92072E+01   -0.89147E+01 12200   0.261E+01
DAV:   5    -0.209325478124E+03   -0.32130E+00   -0.32038E+00 11720   0.349E+00    0.275E+01
DAV:   6    -0.236783784213E+03   -0.27458E+02   -0.10607E+02 12640   0.604E+01    0.594E+01
DAV:   7    -0.196507121876E+03    0.40277E+02   -0.17669E+02 13240   0.152E+02    0.200E+01
DAV:   8    -0.189379375314E+03    0.71277E+01   -0.17371E+01 12040   0.127E+01    0.125E+01
DAV:   9    -0.188121108562E+03    0.12583E+01   -0.30191E+00 13280   0.651E+00    0.898E+00
DAV:  10    -0.187010173434E+03    0.11109E+01   -0.21622E+00 13440   0.713E+00    0.283E+00
DAV:  11    -0.186972184588E+03    0.37989E-01   -0.61943E-01 13320   0.261E+00    0.279E+00
DAV:  12    -0.187103866798E+03   -0.13168E+00   -0.85605E-01 12520   0.500E+00    0.510E+00
DAV:  13    -0.186888107635E+03    0.21576E+00   -0.58053E-01 12960   0.415E+00    0.218E+00
DAV:  14    -0.186863920233E+03    0.24187E-01   -0.14051E-01 13360   0.217E+00    0.179E+00
DAV:  15    -0.186839939478E+03    0.23981E-01   -0.75982E-02 12600   0.165E+00    0.819E-01
DAV:  16    -0.186833135545E+03    0.68039E-02   -0.11114E-02 12000   0.414E-01    0.461E-01
DAV:  17    -0.186831432033E+03    0.17035E-02   -0.79677E-03 12840   0.394E-01    0.240E-01
DAV:  18    -0.186830652619E+03    0.77941E-03   -0.29245E-03 12080   0.166E-01    0.201E-01
DAV:  19    -0.186830268148E+03    0.38447E-03   -0.10789E-03 11240   0.159E-01    0.472E-02
DAV:  20    -0.186831051069E+03   -0.78292E-03   -0.75167E-04  9160   0.606E-02    0.503E-02
DAV:  21    -0.186831661001E+03   -0.60993E-03   -0.21982E-04  8240   0.404E-02    0.404E-02
DAV:  22    -0.186832761972E+03   -0.11010E-02   -0.18090E-04  7400   0.519E-02    0.355E-02
DAV:  23    -0.186833991036E+03   -0.12291E-02   -0.13652E-04  7440   0.429E-02    0.123E-02
DAV:  24    -0.186834585153E+03   -0.59412E-03   -0.30569E-05  6760   0.142E-02    0.611E-03
DAV:  25    -0.186834940439E+03   -0.35529E-03   -0.15221E-05  5480   0.976E-03    0.469E-03
DAV:  26    -0.186835184957E+03   -0.24452E-03   -0.94790E-06  6800   0.741E-03    0.143E-03
DAV:  27    -0.186835283024E+03   -0.98067E-04   -0.36184E-06  7200   0.449E-03
   1 F= -.18683528E+03 E0= -.18666299E+03  d E =-.186835E+03
       N       E                     dE             d eps       ncg     rms          rms(c)
DAV:   1    -0.187450465733E+03   -0.61528E+00   -0.27134E+02  8160   0.350E+01    0.460E+00
DAV:   2    -0.189254783704E+03   -0.18043E+01   -0.20036E+01 12240   0.149E+01    0.793E+00
DAV:   3    -0.189356904385E+03   -0.10212E+00   -0.35843E+00 12480   0.116E+01    0.695E+00
DAV:   4    -0.188720790786E+03    0.63611E+00   -0.63891E-01 12760   0.490E+00    0.183E+00
DAV:   5    -0.188727976590E+03   -0.71858E-02   -0.30592E-01 10880   0.147E+00    0.234E+00
DAV:   6    -0.188649668659E+03    0.78308E-01   -0.29876E-01 11240   0.154E+00    0.118E+00
DAV:   7    -0.188657330357E+03   -0.76617E-02   -0.11990E-01 12360   0.182E+00    0.190E+00
DAV:   8    -0.188630080185E+03    0.27250E-01   -0.59017E-02 13360   0.142E+00    0.556E-01
DAV:   9    -0.188626687950E+03    0.33922E-02   -0.80160E-03 11640   0.377E-01    0.262E-01
DAV:  10    -0.188627781527E+03   -0.10936E-02   -0.51055E-03 13480   0.411E-01    0.463E-01
DAV:  11    -0.188626158224E+03    0.16233E-02   -0.38462E-03 12840   0.344E-01    0.125E-01
DAV:  12    -0.188626099437E+03    0.58787E-04   -0.96044E-04 11960   0.104E-01
   2 F= -.18862610E+03 E0= -.18848419E+03  d E =-.179082E+01
       N       E                     dE             d eps       ncg     rms          rms(c)
DAV:   1    -0.190541618799E+03   -0.19155E+01   -0.30738E+01  9280   0.141E+01    0.447E+00
DAV:   2    -0.190560937729E+03   -0.19319E-01   -0.28718E+00 11400   0.989E+00    0.762E+00
DAV:   3    -0.190007422612E+03    0.55352E+00   -0.13310E+00 12360   0.870E+00    0.407E+00
DAV:   4    -0.189807616961E+03    0.19981E+00   -0.67373E-01 12720   0.396E+00    0.249E+00
DAV:   5    -0.189731438266E+03    0.76179E-01   -0.30643E-01 11360   0.212E+00    0.148E+00
DAV:   6    -0.189711344301E+03    0.20094E-01   -0.81768E-02 11960   0.167E+00    0.924E-01
DAV:   7    -0.189703500950E+03    0.78434E-02   -0.16711E-02 12640   0.721E-01    0.193E-01
DAV:   8    -0.189703541548E+03   -0.40598E-04   -0.24952E-03 11080   0.170E-01    0.145E-01
DAV:   9    -0.189703798225E+03   -0.25668E-03   -0.11293E-03 10800   0.174E-01    0.183E-01
DAV:  10    -0.189704111810E+03   -0.31358E-03   -0.15253E-03 10600   0.271E-01    0.231E-01
DAV:  11    -0.189703576322E+03    0.53549E-03   -0.82806E-04  9680   0.177E-01    0.268E-02
DAV:  12    -0.189703600889E+03   -0.24567E-04   -0.81300E-05  6160   0.340E-02
   3 F= -.18970360E+03 E0= -.18958424E+03  d E =-.107750E+01
       N       E                     dE             d eps       ncg     rms          rms(c)
DAV:   1    -0.191208771735E+03   -0.15052E+01   -0.66292E+01  8160   0.187E+01    0.457E+00
DAV:   2    -0.191158237355E+03    0.50534E-01   -0.53347E+00 13520   0.881E+00    0.563E+00
DAV:   3    -0.191074560287E+03    0.83677E-01   -0.15369E+00 12040   0.918E+00    0.580E+00
DAV:   4    -0.190757817689E+03    0.31674E+00   -0.10804E+00 13080   0.642E+00    0.277E+00
DAV:   5    -0.190743148411E+03    0.14669E-01   -0.41471E-01 12200   0.411E+00    0.303E+00
DAV:   6    -0.190639193647E+03    0.10395E+00   -0.19016E-01 12240   0.314E+00    0.966E-01
DAV:   7    -0.190632856386E+03    0.63373E-02   -0.36211E-02 12520   0.102E+00    0.529E-01
DAV:   8    -0.190631621640E+03    0.12347E-02   -0.12824E-02 11480   0.753E-01    0.567E-01
DAV:   9    -0.190628573749E+03    0.30479E-02   -0.47897E-03 11640   0.499E-01    0.138E-01
DAV:  10    -0.190628935026E+03   -0.36128E-03   -0.12069E-03 10120   0.124E-01    0.124E-01
DAV:  11    -0.190628738752E+03    0.19627E-03   -0.76341E-04 10840   0.106E-01    0.457E-02
DAV:  12    -0.190628742486E+03   -0.37340E-05   -0.11298E-04  7120   0.431E-02
   4 F= -.19062874E+03 E0= -.19052891E+03  d E =-.925142E+00
       N       E                     dE             d eps       ncg     rms          rms(c)
DAV:   1    -0.192079911925E+03   -0.14512E+01   -0.14266E+02  8160   0.270E+01    0.591E+00
DAV:   2    -0.191884260563E+03    0.19565E+00   -0.99514E+00 12600   0.984E+00    0.529E+00
DAV:   3    -0.192169021184E+03   -0.28476E+00   -0.24622E+00 10920   0.114E+01    0.942E+00
DAV:   4    -0.191531382817E+03    0.63764E+00   -0.29803E+00 12120   0.118E+01    0.412E+00
DAV:   5    -0.191455400991E+03    0.75982E-01   -0.86022E-01 12240   0.624E+00    0.372E+00
DAV:   6    -0.191265112288E+03    0.19029E+00   -0.29159E-01 12280   0.401E+00    0.988E-01
DAV:   7    -0.191258436916E+03    0.66754E-02   -0.54266E-02 12160   0.113E+00    0.545E-01
DAV:   8    -0.191253443048E+03    0.49939E-02   -0.10785E-02 10560   0.490E-01    0.259E-01
DAV:   9    -0.191254408061E+03   -0.96501E-03   -0.43203E-03 12640   0.478E-01    0.373E-01
DAV:  10    -0.191253491009E+03    0.91705E-03   -0.33614E-03 11240   0.387E-01    0.108E-01
DAV:  11    -0.191253393656E+03    0.97353E-04   -0.70887E-04 10400   0.106E-01
   5 F= -.19125339E+03 E0= -.19116125E+03  d E =-.624651E+00
       N       E                     dE             d eps       ncg     rms          rms(c)
DAV:   1    -0.191313810947E+03   -0.60320E-01   -0.53274E+00  8160   0.488E+00    0.637E-01
DAV:   2    -0.191370399338E+03   -0.56588E-01   -0.23450E-01 13440   0.258E+00    0.220E+00
DAV:   3    -0.191323500279E+03    0.46899E-01   -0.11147E-01 11800   0.232E+00    0.527E-01
DAV:   4    -0.191323173344E+03    0.32694E-03   -0.13279E-02 11440   0.782E-01    0.536E-01
DAV:   5    -0.191320288617E+03    0.28847E-02   -0.64570E-03 11360   0.612E-01    0.220E-01
DAV:   6    -0.191319800273E+03    0.48834E-03   -0.17917E-03 11120   0.226E-01    0.121E-01
DAV:   7    -0.191320151860E+03   -0.35159E-03   -0.16846E-03 11640   0.273E-01    0.219E-01
DAV:   8    -0.191319665907E+03    0.48595E-03   -0.10248E-03  9560   0.246E-01    0.641E-02
DAV:   9    -0.191319628241E+03    0.37666E-04   -0.10808E-04  6160   0.625E-02
   6 F= -.19131963E+03 E0= -.19122420E+03  d E =-.662346E-01
       N       E                     dE             d eps       ncg     rms          rms(c)
DAV:   1    -0.191360338443E+03   -0.40673E-01   -0.22502E+00  8160   0.317E+00    0.406E-01
DAV:   2    -0.191382458674E+03   -0.22120E-01   -0.90959E-02 13600   0.167E+00    0.137E+00
DAV:   3    -0.191363540564E+03    0.18918E-01   -0.42103E-02 11880   0.144E+00    0.324E-01
DAV:   4    -0.191363676326E+03   -0.13576E-03   -0.54938E-03 11320   0.505E-01    0.357E-01
DAV:   5    -0.191362418716E+03    0.12576E-02   -0.27872E-03 11200   0.398E-01    0.139E-01
DAV:   6    -0.191362241529E+03    0.17719E-03   -0.76711E-04 10560   0.143E-01    0.772E-02
DAV:   7    -0.191362344780E+03   -0.10325E-03   -0.58599E-04  9640   0.154E-01    0.122E-01
DAV:   8    -0.191362195581E+03    0.14920E-03   -0.34707E-04  8520   0.145E-01    0.415E-02
DAV:   9    -0.191362183269E+03    0.12312E-04   -0.47225E-05  6400   0.434E-02
   7 F= -.19136218E+03 E0= -.19126482E+03  d E =-.425550E-01
       N       E                     dE             d eps       ncg     rms          rms(c)
DAV:   1    -0.191313699105E+03    0.48496E-01   -0.28324E+00  8160   0.357E+00    0.444E-01
DAV:   2    -0.191335146484E+03   -0.21447E-01   -0.10289E-01 13600   0.171E+00    0.125E+00
DAV:   3    -0.191316821116E+03    0.18325E-01   -0.33054E-02 11960   0.139E+00    0.319E-01
DAV:   4    -0.191317050802E+03   -0.22969E-03   -0.60126E-03 11160   0.495E-01    0.374E-01
DAV:   5    -0.191315773462E+03    0.12773E-02   -0.36168E-03 11280   0.451E-01    0.190E-01
DAV:   6    -0.191315413953E+03    0.35951E-03   -0.12476E-03 10440   0.205E-01    0.856E-02
DAV:   7    -0.191315375655E+03    0.38298E-04   -0.52779E-04 10240   0.104E-01
   8 F= -.19131538E+03 E0= -.19122024E+03  d E =0.468076E-01
       N       E                     dE             d eps       ncg     rms          rms(c)
DAV:   1    -0.191239863826E+03    0.75550E-01   -0.86036E+00  8160   0.622E+00    0.695E-01
DAV:   2    -0.191279275469E+03   -0.39412E-01   -0.25745E-01 13600   0.210E+00    0.152E+00
DAV:   3    -0.191252730508E+03    0.26545E-01   -0.69944E-02 12200   0.196E+00    0.698E-01
DAV:   4    -0.191250274212E+03    0.24563E-02   -0.18141E-02 12640   0.836E-01    0.504E-01
DAV:   5    -0.191248151007E+03    0.21232E-02   -0.86106E-03 11760   0.669E-01    0.381E-01
DAV:   6    -0.191246898806E+03    0.12522E-02   -0.43701E-03 11400   0.465E-01    0.192E-01
DAV:   7    -0.191246812894E+03    0.85912E-04   -0.18607E-03 11920   0.251E-01    0.159E-01
DAV:   8    -0.191246568269E+03    0.24462E-03   -0.84004E-04  9760   0.219E-01    0.100E-01
DAV:   9    -0.191246457497E+03    0.11077E-03   -0.21328E-04  7240   0.107E-01    0.234E-02
DAV:  10    -0.191246460882E+03   -0.33849E-05   -0.62686E-05  7480   0.318E-02
   9 F= -.19124646E+03 E0= -.19115519E+03  d E =0.689148E-01
       N       E                     dE             d eps       ncg     rms          rms(c)
DAV:   1    -0.191290145128E+03   -0.43688E-01   -0.35165E+00  8160   0.397E+00    0.485E-01
DAV:   2    -0.191317382231E+03   -0.27237E-01   -0.13015E-01 13520   0.166E+00    0.151E+00
DAV:   3    -0.191295756491E+03    0.21626E-01   -0.58236E-02 12120   0.166E+00    0.454E-01
DAV:   4    -0.191294747125E+03    0.10094E-02   -0.74242E-03 11080   0.537E-01    0.372E-01
DAV:   5    -0.191293427562E+03    0.13196E-02   -0.35191E-03 11120   0.455E-01    0.195E-01
DAV:   6    -0.191293138658E+03    0.28890E-03   -0.15359E-03 10520   0.234E-01    0.128E-01
DAV:   7    -0.191293254302E+03   -0.11564E-03   -0.12046E-03 10720   0.235E-01    0.172E-01
DAV:   8    -0.191292958342E+03    0.29596E-03   -0.63917E-04  8880   0.196E-01    0.527E-02
DAV:   9    -0.191292934084E+03    0.24259E-04   -0.74814E-05  6320   0.510E-02
  10 F= -.19129293E+03 E0= -.19119845E+03  d E =-.464732E-01
       N       E                     dE             d eps       ncg     rms          rms(c)
DAV:   1    -0.191316036942E+03   -0.23079E-01   -0.80947E-01  8160   0.192E+00    0.280E-01
DAV:   2    -0.191325397759E+03   -0.93608E-02   -0.38282E-02 13600   0.115E+00    0.909E-01
DAV:   3    -0.191316683433E+03    0.87143E-02   -0.17286E-02 11760   0.955E-01    0.196E-01
DAV:   4    -0.191316917778E+03   -0.23435E-03   -0.26125E-03 11360   0.349E-01    0.261E-01
DAV:   5    -0.191316273094E+03    0.64468E-03   -0.16196E-03 10080   0.300E-01    0.115E-01
DAV:   6    -0.191316127347E+03    0.14575E-03   -0.48604E-04  9040   0.122E-01    0.559E-02
DAV:   7    -0.191316177565E+03   -0.50217E-04   -0.32918E-04  7920   0.126E-01
  11 F= -.19131618E+03 E0= -.19121995E+03  d E =-.232435E-01
       N       E                     dE             d eps       ncg     rms          rms(c)
DAV:   1    -0.191373770727E+03   -0.57643E-01   -0.54913E+00  8160   0.497E+00    0.644E-01
DAV:   2    -0.191429074565E+03   -0.55304E-01   -0.22639E-01 13600   0.262E+00    0.226E+00
DAV:   3    -0.191381468101E+03    0.47606E-01   -0.11987E-01 12120   0.233E+00    0.540E-01
DAV:   4    -0.191381419846E+03    0.48255E-04   -0.14589E-02 11640   0.827E-01    0.575E-01
DAV:   5    -0.191378148145E+03    0.32717E-02   -0.75448E-03 11520   0.648E-01    0.238E-01
DAV:   6    -0.191377563336E+03    0.58481E-03   -0.23587E-03 10680   0.265E-01    0.145E-01
DAV:   7    -0.191378088911E+03   -0.52558E-03   -0.22901E-03 11920   0.343E-01    0.267E-01
DAV:   8    -0.191377310549E+03    0.77836E-03   -0.12674E-03 10200   0.269E-01    0.481E-02
DAV:   9    -0.191377291162E+03    0.19386E-04   -0.90528E-05  6120   0.483E-02
  12 F= -.19137729E+03 E0= -.19127746E+03  d E =-.611136E-01
       N       E                     dE             d eps       ncg     rms          rms(c)
DAV:   1    -0.191306115547E+03    0.71195E-01   -0.66815E+00  8160   0.548E+00    0.690E-01
DAV:   2    -0.191359542941E+03   -0.53427E-01   -0.24847E-01 13600   0.266E+00    0.196E+00
DAV:   3    -0.191313507575E+03    0.46035E-01   -0.80870E-02 12280   0.218E+00    0.499E-01
DAV:   4    -0.191313896878E+03   -0.38930E-03   -0.14441E-02 11400   0.772E-01    0.573E-01
DAV:   5    -0.191310871607E+03    0.30253E-02   -0.85455E-03 11400   0.687E-01    0.284E-01
DAV:   6    -0.191309998243E+03    0.87336E-03   -0.27832E-03 12120   0.304E-01    0.125E-01
DAV:   7    -0.191309937879E+03    0.60364E-04   -0.11785E-03 11000   0.164E-01    0.110E-01
DAV:   8    -0.191309826515E+03    0.11136E-03   -0.49917E-04  9240   0.164E-01    0.857E-02
DAV:   9    -0.191309749928E+03    0.76587E-04   -0.14731E-04  6240   0.938E-02
  13 F= -.19130975E+03 E0= -.19121386E+03  d E =0.675412E-01
       N       E                     dE             d eps       ncg     rms          rms(c)
DAV:   1    -0.191233758569E+03    0.76068E-01   -0.87467E+00  8160   0.628E+00    0.726E-01
DAV:   2    -0.191282536128E+03   -0.48778E-01   -0.27974E-01 13600   0.234E+00    0.177E+00
DAV:   3    -0.191246451679E+03    0.36084E-01   -0.86476E-02 12320   0.217E+00    0.696E-01
DAV:   4    -0.191244046002E+03    0.24057E-02   -0.19001E-02 12360   0.848E-01    0.528E-01
DAV:   5    -0.191241736553E+03    0.23094E-02   -0.89061E-03 11840   0.692E-01    0.370E-01
DAV:   6    -0.191240390918E+03    0.13456E-02   -0.40861E-03 11200   0.440E-01    0.177E-01
DAV:   7    -0.191240485361E+03   -0.94443E-04   -0.20764E-03 11840   0.266E-01    0.189E-01
DAV:   8    -0.191240137615E+03    0.34775E-03   -0.11132E-03 10240   0.252E-01    0.111E-01
DAV:   9    -0.191239994224E+03    0.14339E-03   -0.27196E-04  8320   0.113E-01    0.243E-02
DAV:  10    -0.191239997677E+03   -0.34531E-05   -0.57815E-05  7200   0.308E-02
  14 F= -.19124000E+03 E0= -.19114880E+03  d E =0.697523E-01
       N       E                     dE             d eps       ncg     rms          rms(c)
DAV:   1    -0.191282594455E+03   -0.42600E-01   -0.36685E+00  8160   0.405E+00    0.493E-01
DAV:   2    -0.191312817484E+03   -0.30223E-01   -0.13325E-01 13520   0.180E+00    0.159E+00
DAV:   3    -0.191287861576E+03    0.24956E-01   -0.62165E-02 12280   0.174E+00    0.434E-01
DAV:   4    -0.191287324404E+03    0.53717E-03   -0.78805E-03 11400   0.568E-01    0.402E-01
DAV:   5    -0.191285793802E+03    0.15306E-02   -0.38768E-03 11400   0.471E-01    0.193E-01
DAV:   6    -0.191285470422E+03    0.32338E-03   -0.13871E-03 10360   0.223E-01    0.123E-01
DAV:   7    -0.191285755589E+03   -0.28517E-03   -0.13450E-03 10600   0.266E-01    0.204E-01
DAV:   8    -0.191285310696E+03    0.44489E-03   -0.74766E-04  8920   0.212E-01    0.427E-02
DAV:   9    -0.191285300593E+03    0.10103E-04   -0.67838E-05  6160   0.420E-02
  15 F= -.19128530E+03 E0= -.19119050E+03  d E =-.453029E-01
       N       E                     dE             d eps       ncg     rms          rms(c)
DAV:   1    -0.191302329804E+03   -0.17019E-01   -0.49900E-01  8160   0.151E+00    0.220E-01
DAV:   2    -0.191308420660E+03   -0.60909E-02   -0.24198E-02 13600   0.917E-01    0.732E-01
DAV:   3    -0.191302739182E+03    0.56815E-02   -0.11079E-02 11800   0.766E-01    0.154E-01
DAV:   4    -0.191302877142E+03   -0.13796E-03   -0.15760E-03 10120   0.270E-01    0.199E-01
DAV:   5    -0.191302504079E+03    0.37306E-03   -0.95445E-04 10040   0.229E-01    0.888E-02
DAV:   6    -0.191302421331E+03    0.82748E-04   -0.27118E-04  7360   0.956E-02
  16 F= -.19130242E+03 E0= -.19120611E+03  d E =-.171207E-01
       N       E                     dE             d eps       ncg     rms          rms(c)
DAV:   1    -0.191362322033E+03   -0.59818E-01   -0.66169E+00  8160   0.546E+00    0.746E-01
DAV:   2    -0.191438185265E+03   -0.75863E-01   -0.29569E-01 13520   0.308E+00    0.271E+00
DAV:   3    -0.191370773973E+03    0.67411E-01   -0.16917E-01 12200   0.274E+00    0.611E-01
DAV:   4    -0.191371251979E+03   -0.47801E-03   -0.20380E-02 11640   0.994E-01    0.694E-01
DAV:   5    -0.191366329664E+03    0.49223E-02   -0.10587E-02 11680   0.757E-01    0.261E-01
DAV:   6    -0.191365659636E+03    0.67003E-03   -0.32493E-03 11080   0.309E-01    0.181E-01
DAV:   7    -0.191366267460E+03   -0.60782E-03   -0.32672E-03 11880   0.413E-01    0.304E-01
DAV:   8    -0.191365258249E+03    0.10092E-02   -0.16493E-03 10120   0.301E-01    0.532E-02
DAV:   9    -0.191365228851E+03    0.29398E-04   -0.11717E-04  6080   0.523E-02
  17 F= -.19136523E+03 E0= -.19126427E+03  d E =-.628075E-01
       N       E                     dE             d eps       ncg     rms          rms(c)
DAV:   1    -0.191382916920E+03   -0.17659E-01   -0.51317E-01  8160   0.152E+00    0.187E-01
DAV:   2    -0.191386853783E+03   -0.39369E-02   -0.18711E-02 13600   0.687E-01    0.571E-01
DAV:   3    -0.191383592086E+03    0.32617E-02   -0.79205E-03 11720   0.622E-01    0.162E-01
DAV:   4    -0.191383589917E+03    0.21691E-05   -0.11896E-03  9920   0.223E-01    0.160E-01
DAV:   5    -0.191383349041E+03    0.24088E-03   -0.64011E-04  8960   0.190E-01    0.774E-02
DAV:   6    -0.191383306726E+03    0.42315E-04   -0.20285E-04  6440   0.942E-02
  18 F= -.19138331E+03 E0= -.19128146E+03  d E =-.180779E-01
       N       E                     dE             d eps       ncg     rms          rms(c)
DAV:   1    -0.191382778477E+03    0.57056E-03   -0.58394E-02  8160   0.584E-01    0.164E-01
DAV:   2    -0.191385151798E+03   -0.23733E-02   -0.80646E-03 11800   0.607E-01    0.518E-01
DAV:   3    -0.191382295973E+03    0.28558E-02   -0.51544E-03 11280   0.553E-01    0.116E-01
DAV:   4    -0.191382202279E+03    0.93694E-04   -0.55853E-04  8480   0.139E-01
  19 F= -.19138220E+03 E0= -.19128034E+03  d E =0.110445E-02
       N       E                     dE             d eps       ncg     rms          rms(c)
DAV:   1    -0.191433881543E+03   -0.51586E-01   -0.38752E+00  8160   0.422E+00    0.657E-01
DAV:   2    -0.191498394393E+03   -0.64513E-01   -0.22477E-01 12520   0.281E+00    0.256E+00
DAV:   3    -0.191437838861E+03    0.60556E-01   -0.14117E-01 12160   0.251E+00    0.483E-01
DAV:   4    -0.191438735793E+03   -0.89693E-03   -0.14440E-02 11560   0.839E-01    0.599E-01
DAV:   5    -0.191435020007E+03    0.37158E-02   -0.81254E-03 11400   0.659E-01    0.226E-01
DAV:   6    -0.191434796562E+03    0.22345E-03   -0.29390E-03 11640   0.326E-01    0.218E-01
DAV:   7    -0.191434764689E+03    0.31872E-04   -0.25991E-03 11840   0.369E-01    0.210E-01
DAV:   8    -0.191434246876E+03    0.51781E-03   -0.88538E-04  9480   0.205E-01    0.409E-02
DAV:   9    -0.191434224962E+03    0.21914E-04   -0.10447E-04  6360   0.443E-02
  20 F= -.19143422E+03 E0= -.19133074E+03  d E =-.520227E-01
       N       E                     dE             d eps       ncg     rms          rms(c)
DAV:   1    -0.191443126218E+03   -0.88793E-02   -0.11727E-01  8160   0.730E-01    0.901E-02
DAV:   2    -0.191443895464E+03   -0.76925E-03   -0.44132E-03 13520   0.321E-01    0.245E-01
DAV:   3    -0.191443301091E+03    0.59437E-03   -0.15783E-03 10240   0.277E-01    0.815E-02
DAV:   4    -0.191443306154E+03   -0.50632E-05   -0.28630E-04  6840   0.116E-01
  21 F= -.19144331E+03 E0= -.19133975E+03  d E =-.908119E-02
       N       E                     dE             d eps       ncg     rms          rms(c)
DAV:   1    -0.191365821831E+03    0.77479E-01   -0.77619E+00  8160   0.594E+00    0.717E-01
DAV:   2    -0.191410996548E+03   -0.45175E-01   -0.27321E-01 13600   0.251E+00    0.173E+00
DAV:   3    -0.191375495117E+03    0.35501E-01   -0.74751E-02 12280   0.207E+00    0.530E-01
DAV:   4    -0.191374647662E+03    0.84746E-03   -0.14762E-02 11480   0.731E-01    0.526E-01
DAV:   5    -0.191372699395E+03    0.19483E-02   -0.10382E-02 11760   0.725E-01    0.389E-01
DAV:   6    -0.191371367426E+03    0.13320E-02   -0.42336E-03 11880   0.411E-01    0.164E-01
DAV:   7    -0.191371580536E+03   -0.21311E-03   -0.24011E-03 11840   0.303E-01    0.234E-01
DAV:   8    -0.191371025588E+03    0.55495E-03   -0.12925E-03  9800   0.266E-01    0.815E-02
DAV:   9    -0.191370952015E+03    0.73573E-04   -0.17288E-04  6360   0.808E-02
  22 F= -.19137095E+03 E0= -.19126951E+03  d E =0.723541E-01
       N       E                     dE             d eps       ncg     rms          rms(c)
DAV:   1    -0.191355426640E+03    0.15599E-01   -0.49195E-01  8160   0.150E+00    0.169E-01
DAV:   2    -0.191357095956E+03   -0.16693E-02   -0.14568E-02 13400   0.417E-01    0.292E-01
DAV:   3    -0.191356231119E+03    0.86484E-03   -0.37302E-03 11480   0.425E-01    0.197E-01
DAV:   4    -0.191355960542E+03    0.27058E-03   -0.11012E-03  9880   0.223E-01    0.115E-01
DAV:   5    -0.191355884802E+03    0.75741E-04   -0.56959E-04  8960   0.160E-01
  23 F= -.19135588E+03 E0= -.19125524E+03  d E =0.150672E-01
       N       E                     dE             d eps       ncg     rms          rms(c)
DAV:   1    -0.191376026791E+03   -0.20066E-01   -0.15639E+00  8160   0.263E+00    0.335E-01
DAV:   2    -0.191393392738E+03   -0.17366E-01   -0.67225E-02 13600   0.142E+00    0.127E+00
DAV:   3    -0.191378231380E+03    0.15161E-01   -0.33262E-02 12320   0.124E+00    0.236E-01
DAV:   4    -0.191378427215E+03   -0.19583E-03   -0.31080E-03 11320   0.347E-01    0.281E-01
DAV:   5    -0.191377701430E+03    0.72579E-03   -0.19934E-03 10280   0.336E-01    0.135E-01
DAV:   6    -0.191377594473E+03    0.10696E-03   -0.74204E-04  9720   0.165E-01    0.843E-02
DAV:   7    -0.191377658771E+03   -0.64297E-04   -0.50421E-04  9400   0.165E-01
  24 F= -.19137766E+03 E0= -.19127581E+03  d E =-.217740E-01
       N       E                     dE             d eps       ncg     rms          rms(c)
DAV:   1    -0.191403910661E+03   -0.26316E-01   -0.15372E+00  8160   0.268E+00    0.339E-01
DAV:   2    -0.191412084967E+03   -0.81743E-02   -0.54642E-02 13520   0.109E+00    0.775E-01
DAV:   3    -0.191405704939E+03    0.63800E-02   -0.17554E-02 12120   0.968E-01    0.290E-01
DAV:   4    -0.191405232169E+03    0.47277E-03   -0.36107E-03 11320   0.371E-01    0.246E-01
DAV:   5    -0.191404893974E+03    0.33819E-03   -0.26095E-03 10960   0.357E-01    0.219E-01
DAV:   6    -0.191404459445E+03    0.43453E-03   -0.14374E-03  9680   0.247E-01    0.951E-02
DAV:   7    -0.191404469135E+03   -0.96894E-05   -0.58043E-04  8640   0.144E-01
  25 F= -.19140447E+03 E0= -.19130118E+03  d E =-.268104E-01
       N       E                     dE             d eps       ncg     rms          rms(c)
DAV:   1    -0.191410343173E+03   -0.58837E-02   -0.55498E-02  8160   0.523E-01    0.916E-02
DAV:   2    -0.191411801416E+03   -0.14582E-02   -0.44078E-03 13120   0.391E-01    0.367E-01
DAV:   3    -0.191410353799E+03    0.14476E-02   -0.25927E-03 10000   0.363E-01    0.606E-02
DAV:   4    -0.191410367224E+03   -0.13426E-04   -0.16786E-04  6040   0.729E-02
  26 F= -.19141037E+03 E0= -.19130702E+03  d E =-.589809E-02
       N       E                     dE             d eps       ncg     rms          rms(c)
DAV:   1    -0.191352603345E+03    0.57750E-01   -0.70543E+00  8160   0.566E+00    0.740E-01
DAV:   2    -0.191413147861E+03   -0.60545E-01   -0.26270E-01 13600   0.279E+00    0.215E+00
DAV:   3    -0.191357970528E+03    0.55177E-01   -0.10139E-01 12040   0.242E+00    0.555E-01
DAV:   4    -0.191358128029E+03   -0.15750E-03   -0.17877E-02 11160   0.846E-01    0.624E-01
DAV:   5    -0.191354763006E+03    0.33650E-02   -0.10864E-02 12120   0.754E-01    0.362E-01
DAV:   6    -0.191353605458E+03    0.11575E-02   -0.48493E-03 11640   0.449E-01    0.236E-01
DAV:   7    -0.191353987038E+03   -0.38158E-03   -0.37030E-03 11960   0.418E-01    0.301E-01
DAV:   8    -0.191353053425E+03    0.93361E-03   -0.17989E-03  9760   0.298E-01    0.634E-02
DAV:   9    -0.191352994598E+03    0.58827E-04   -0.17571E-04  6560   0.635E-02
  27 F= -.19135299E+03 E0= -.19125224E+03  d E =0.573726E-01
       N       E                     dE             d eps       ncg     rms          rms(c)
DAV:   1    -0.191410981486E+03   -0.57928E-01   -0.62272E+00  8160   0.531E+00    0.748E-01
DAV:   2    -0.191489009882E+03   -0.78028E-01   -0.27668E-01 13560   0.310E+00    0.278E+00
DAV:   3    -0.191415272779E+03    0.73737E-01   -0.16601E-01 12360   0.281E+00    0.530E-01
DAV:   4    -0.191415692462E+03   -0.41968E-03   -0.17232E-02 12280   0.833E-01    0.645E-01
DAV:   5    -0.191412263496E+03    0.34290E-02   -0.11990E-02 12200   0.790E-01    0.364E-01
DAV:   6    -0.191411040774E+03    0.12227E-02   -0.47414E-03 11640   0.429E-01    0.226E-01
DAV:   7    -0.191411231656E+03   -0.19088E-03   -0.33635E-03 11880   0.411E-01    0.258E-01
DAV:   8    -0.191410483863E+03    0.74779E-03   -0.13333E-03  9880   0.262E-01    0.548E-02
DAV:   9    -0.191410433938E+03    0.49925E-04   -0.14969E-04  5880   0.584E-02
  28 F= -.19141043E+03 E0= -.19130684E+03  d E =-.574393E-01
       N       E                     dE             d eps       ncg     rms          rms(c)
DAV:   1    -0.191435424377E+03   -0.24941E-01   -0.11305E+00  8160   0.225E+00    0.280E-01
DAV:   2    -0.191445198709E+03   -0.97743E-02   -0.43235E-02 13600   0.107E+00    0.941E-01
DAV:   3    -0.191436798678E+03    0.84000E-02   -0.20143E-02 12160   0.966E-01    0.223E-01
DAV:   4    -0.191436903317E+03   -0.10464E-03   -0.24730E-03 11440   0.317E-01    0.247E-01
DAV:   5    -0.191436329091E+03    0.57423E-03   -0.15856E-03 10200   0.294E-01    0.118E-01
DAV:   6    -0.191436274786E+03    0.54305E-04   -0.60053E-04  8680   0.156E-01
  29 F= -.19143627E+03 E0= -.19133209E+03  d E =-.258408E-01
       N       E                     dE             d eps       ncg     rms          rms(c)
DAV:   1    -0.191389174368E+03    0.47155E-01   -0.35353E+00  8160   0.402E+00    0.546E-01
DAV:   2    -0.191421563247E+03   -0.32389E-01   -0.14985E-01 13600   0.203E+00    0.167E+00
DAV:   3    -0.191392790109E+03    0.28773E-01   -0.65438E-02 12320   0.183E+00    0.433E-01
DAV:   4    -0.191392025174E+03    0.76493E-03   -0.86417E-03 11120   0.576E-01    0.385E-01
DAV:   5    -0.191390820297E+03    0.12049E-02   -0.55498E-03 11520   0.547E-01    0.281E-01
DAV:   6    -0.191390140830E+03    0.67947E-03   -0.26730E-03 11480   0.343E-01    0.164E-01
DAV:   7    -0.191390342200E+03   -0.20137E-03   -0.19299E-03 10120   0.305E-01    0.216E-01
DAV:   8    -0.191389853419E+03    0.48878E-03   -0.89289E-04  8680   0.212E-01    0.443E-02
DAV:   9    -0.191389835066E+03    0.18352E-04   -0.95185E-05  6240   0.487E-02
  30 F= -.19138984E+03 E0= -.19128713E+03  d E =0.464397E-01
       N       E                     dE             d eps       ncg     rms          rms(c)
DAV:   1    -0.191456105270E+03   -0.66252E-01   -0.71632E+00  8160   0.575E+00    0.815E-01
DAV:   2    -0.191529744539E+03   -0.73639E-01   -0.32452E-01 13520   0.308E+00    0.274E+00
DAV:   3    -0.191462973759E+03    0.66771E-01   -0.17834E-01 12280   0.281E+00    0.652E-01
DAV:   4    -0.191464131168E+03   -0.11574E-02   -0.24860E-02 12240   0.107E+00    0.818E-01
DAV:   5    -0.191457732516E+03    0.63987E-02   -0.16855E-02 11960   0.951E-01    0.370E-01
DAV:   6    -0.191456879118E+03    0.85340E-03   -0.64424E-03 11600   0.494E-01    0.299E-01
DAV:   7    -0.191456700447E+03    0.17867E-03   -0.47155E-03 11800   0.492E-01    0.271E-01
DAV:   8    -0.191455834339E+03    0.86611E-03   -0.15356E-03  9760   0.271E-01    0.575E-02
DAV:   9    -0.191455777838E+03    0.56501E-04   -0.19742E-04  7080   0.608E-02
  31 F= -.19145578E+03 E0= -.19135121E+03  d E =-.659428E-01
       N       E                     dE             d eps       ncg     rms          rms(c)
DAV:   1    -0.191472387830E+03   -0.16553E-01   -0.45932E-01  8160   0.144E+00    0.168E-01
DAV:   2    -0.191474683427E+03   -0.22956E-02   -0.15173E-02 13520   0.520E-01    0.424E-01
DAV:   3    -0.191473070274E+03    0.16132E-02   -0.54043E-03 11800   0.499E-01    0.177E-01
DAV:   4    -0.191472875947E+03    0.19433E-03   -0.91101E-04  9640   0.174E-01    0.106E-01
DAV:   5    -0.191472837158E+03    0.38789E-04   -0.60615E-04  9040   0.174E-01
  32 F= -.19147284E+03 E0= -.19136844E+03  d E =-.170593E-01
       N       E                     dE             d eps       ncg     rms          rms(c)
DAV:   1    -0.191508160278E+03   -0.35284E-01   -0.20435E+00  8160   0.304E+00    0.364E-01
DAV:   2    -0.191520411829E+03   -0.12252E-01   -0.67148E-02 13560   0.123E+00    0.102E+00
DAV:   3    -0.191510651146E+03    0.97607E-02   -0.27437E-02 12400   0.115E+00    0.310E-01
DAV:   4    -0.191510493483E+03    0.15766E-03   -0.39083E-03 11520   0.388E-01    0.312E-01
DAV:   5    -0.191509682777E+03    0.81071E-03   -0.28363E-03 10760   0.392E-01    0.172E-01
DAV:   6    -0.191509543110E+03    0.13967E-03   -0.11776E-03  9760   0.208E-01    0.104E-01
DAV:   7    -0.191509520324E+03    0.22786E-04   -0.62711E-04 10040   0.178E-01
  33 F= -.19150952E+03 E0= -.19140585E+03  d E =-.366832E-01
       N       E                     dE             d eps       ncg     rms          rms(c)
DAV:   1    -0.191507101584E+03    0.24415E-02   -0.23790E-02  8160   0.370E-01    0.597E-02
DAV:   2    -0.191507545262E+03   -0.44368E-03   -0.15983E-03 12040   0.241E-01    0.205E-01
DAV:   3    -0.191507091495E+03    0.45377E-03   -0.80213E-04  8480   0.214E-01    0.397E-02
DAV:   4    -0.191507098986E+03   -0.74912E-05   -0.92015E-05  5520   0.567E-02
  34 F= -.19150710E+03 E0= -.19140295E+03  d E =0.242134E-02
       N       E                     dE             d eps       ncg     rms          rms(c)
DAV:   1    -0.191561739916E+03   -0.54648E-01   -0.51200E+00  8160   0.482E+00    0.546E-01
DAV:   2    -0.191587029363E+03   -0.25289E-01   -0.17114E-01 13120   0.178E+00    0.134E+00
DAV:   3    -0.191570332392E+03    0.16697E-01   -0.58152E-02 12400   0.167E+00    0.519E-01
DAV:   4    -0.191568757178E+03    0.15752E-02   -0.86403E-03 11280   0.570E-01    0.383E-01
DAV:   5    -0.191567669625E+03    0.10876E-02   -0.56442E-03 12000   0.544E-01    0.311E-01
DAV:   6    -0.191567147455E+03    0.52217E-03   -0.34365E-03 11800   0.388E-01    0.183E-01
DAV:   7    -0.191567022430E+03    0.12503E-03   -0.16045E-03 11040   0.265E-01    0.168E-01
DAV:   8    -0.191566685628E+03    0.33680E-03   -0.56585E-04  9080   0.190E-01    0.383E-02
DAV:   9    -0.191566676204E+03    0.94247E-05   -0.82592E-05  6160   0.500E-02
  35 F= -.19156668E+03 E0= -.19146483E+03  d E =-.595772E-01
       N       E                     dE             d eps       ncg     rms          rms(c)
DAV:   1    -0.191452123077E+03    0.11456E+00   -0.14946E+01  8160   0.827E+00    0.898E-01
DAV:   2    -0.191506462632E+03   -0.54340E-01   -0.47621E-01 13040   0.255E+00    0.180E+00
DAV:   3    -0.191481835013E+03    0.24628E-01   -0.13265E-01 12320   0.250E+00    0.105E+00
DAV:   4    -0.191472482598E+03    0.93524E-02   -0.28660E-02 12400   0.104E+00    0.519E-01
DAV:   5    -0.191470386281E+03    0.20963E-02   -0.14749E-02 11560   0.747E-01    0.560E-01
DAV:   6    -0.191469687117E+03    0.69916E-03   -0.13630E-02 12560   0.800E-01    0.443E-01
DAV:   7    -0.191467464159E+03    0.22230E-02   -0.47909E-03 11200   0.390E-01    0.882E-02
DAV:   8    -0.191467330155E+03    0.13400E-03   -0.62867E-04 10720   0.948E-02    0.435E-02
DAV:   9    -0.191467350093E+03   -0.19938E-04   -0.17781E-04  8240   0.915E-02
  36 F= -.19146735E+03 E0= -.19136258E+03  d E =0.993261E-01
       N       E                     dE             d eps       ncg     rms          rms(c)
DAV:   1    -0.191509412586E+03   -0.42082E-01   -0.31113E+00  8160   0.375E+00    0.425E-01
DAV:   2    -0.191526049300E+03   -0.16637E-01   -0.10457E-01 13520   0.140E+00    0.113E+00
DAV:   3    -0.191514668120E+03    0.11381E-01   -0.37769E-02 12400   0.131E+00    0.425E-01
DAV:   4    -0.191513745363E+03    0.92276E-03   -0.60060E-03 11120   0.461E-01    0.323E-01
DAV:   5    -0.191512975600E+03    0.76976E-03   -0.39303E-03 11920   0.452E-01    0.247E-01
DAV:   6    -0.191512530722E+03    0.44488E-03   -0.20772E-03 11200   0.294E-01    0.124E-01
DAV:   7    -0.191512464632E+03    0.66090E-04   -0.82290E-04 10360   0.158E-01
  37 F= -.19151246E+03 E0= -.19140860E+03  d E =-.451145E-01
       N       E                     dE             d eps       ncg     rms          rms(c)
DAV:   1    -0.191528451765E+03   -0.15921E-01   -0.40634E-01  8160   0.137E+00    0.164E-01
DAV:   2    -0.191530731842E+03   -0.22801E-02   -0.14639E-02 13600   0.522E-01    0.419E-01
DAV:   3    -0.191529091998E+03    0.16398E-02   -0.51423E-03 11720   0.496E-01    0.161E-01
DAV:   4    -0.191529008608E+03    0.83390E-04   -0.93144E-04  9640   0.181E-01
  38 F= -.19152901E+03 E0= -.19142512E+03  d E =-.165440E-01
       N       E                     dE             d eps       ncg     rms          rms(c)
DAV:   1    -0.191540796210E+03   -0.11704E-01   -0.27182E-01  8160   0.116E+00    0.196E-01
DAV:   2    -0.191544677511E+03   -0.38813E-02   -0.16320E-02 12960   0.678E-01    0.629E-01
DAV:   3    -0.191540864106E+03    0.38134E-02   -0.87006E-03 11400   0.644E-01    0.158E-01
DAV:   4    -0.191540862646E+03    0.14601E-05   -0.11773E-03  9640   0.198E-01    0.147E-01
DAV:   5    -0.191540737103E+03    0.12554E-03   -0.94640E-04 10560   0.226E-01    0.126E-01
DAV:   6    -0.191540589929E+03    0.14717E-03   -0.49072E-04  8480   0.146E-01    0.514E-02
DAV:   7    -0.191540585258E+03    0.46706E-05   -0.17403E-04  6040   0.850E-02
  39 F= -.19154059E+03 E0= -.19143759E+03  d E =-.115767E-01
       N       E                     dE             d eps       ncg     rms          rms(c)
DAV:   1    -0.191580499481E+03   -0.39910E-01   -0.18894E+00  8160   0.307E+00    0.521E-01
DAV:   2    -0.191584348389E+03   -0.38489E-02   -0.75176E-02 12600   0.117E+00    0.862E-01
DAV:   3    -0.191579740380E+03    0.46080E-02   -0.34642E-02 12240   0.132E+00    0.601E-01
DAV:   4    -0.191576342258E+03    0.33981E-02   -0.11688E-02 12320   0.714E-01    0.352E-01
DAV:   5    -0.191576146063E+03    0.19620E-03   -0.72065E-03 11600   0.603E-01    0.403E-01
DAV:   6    -0.191574684975E+03    0.14611E-02   -0.46421E-03 11440   0.472E-01    0.174E-01
DAV:   7    -0.191574451679E+03    0.23330E-03   -0.12802E-03  9640   0.233E-01    0.122E-01
DAV:   8    -0.191574319936E+03    0.13174E-03   -0.43452E-04  8720   0.152E-01    0.490E-02
DAV:   9    -0.191574278596E+03    0.41340E-04   -0.73626E-05  6720   0.509E-02
  40 F= -.19157428E+03 E0= -.19147193E+03  d E =-.336933E-01
       N       E                     dE             d eps       ncg     rms          rms(c)
DAV:   1    -0.191609963460E+03   -0.35644E-01   -0.19783E+00  8160   0.300E+00    0.322E-01
DAV:   2    -0.191615077931E+03   -0.51145E-02   -0.60019E-02 11920   0.859E-01    0.497E-01
DAV:   3    -0.191614179870E+03    0.89806E-03   -0.13338E-02 12480   0.806E-01    0.436E-01
DAV:   4    -0.191612516446E+03    0.16634E-02   -0.43742E-03 11240   0.454E-01    0.201E-01
DAV:   5    -0.191612329890E+03    0.18656E-03   -0.20279E-03 10160   0.325E-01    0.194E-01
DAV:   6    -0.191612169094E+03    0.16080E-03   -0.15018E-03 11160   0.272E-01    0.131E-01
DAV:   7    -0.191612030629E+03    0.13847E-03   -0.66888E-04  8800   0.177E-01    0.953E-02
DAV:   8    -0.191611935448E+03    0.95182E-04   -0.23582E-04  7160   0.116E-01
  41 F= -.19161194E+03 E0= -.19151147E+03  d E =-.376569E-01
       N       E                     dE             d eps       ncg     rms          rms(c)
DAV:   1    -0.191647002086E+03   -0.34971E-01   -0.18347E+00  8160   0.290E+00    0.313E-01
DAV:   2    -0.191650487656E+03   -0.34856E-02   -0.51972E-02 12320   0.670E-01    0.349E-01
DAV:   3    -0.191651270250E+03   -0.78259E-03   -0.11129E-02 12280   0.735E-01    0.477E-01
DAV:   4    -0.191649023183E+03    0.22471E-02   -0.48166E-03 11480   0.501E-01    0.162E-01
DAV:   5    -0.191648841109E+03    0.18207E-03   -0.14589E-03 10120   0.229E-01    0.159E-01
DAV:   6    -0.191648930193E+03   -0.89084E-04   -0.14991E-03 10360   0.286E-01    0.173E-01
DAV:   7    -0.191648594786E+03    0.33541E-03   -0.60611E-04  8360   0.172E-01    0.347E-02
DAV:   8    -0.191648591733E+03    0.30532E-05   -0.80944E-05  6200   0.574E-02
  42 F= -.19164859E+03 E0= -.19155000E+03  d E =-.366563E-01
       N       E                     dE             d eps       ncg     rms          rms(c)
DAV:   1    -0.191726439352E+03   -0.77845E-01   -0.11366E+01  8160   0.725E+00    0.764E-01
DAV:   2    -0.191747005956E+03   -0.20567E-01   -0.33086E-01 12000   0.154E+00    0.633E-01
DAV:   3    -0.191753546114E+03   -0.65402E-02   -0.50319E-02 11960   0.154E+00    0.109E+00
DAV:   4    -0.191740984022E+03    0.12562E-01   -0.27348E-02 12040   0.127E+00    0.365E-01
DAV:   5    -0.191739346080E+03    0.16379E-02   -0.66338E-03 12280   0.447E-01    0.238E-01
DAV:   6    -0.191740057231E+03   -0.71115E-03   -0.51763E-03 12000   0.502E-01    0.367E-01
DAV:   7    -0.191738671261E+03    0.13860E-02   -0.30440E-03 11040   0.421E-01    0.119E-01
DAV:   8    -0.191738575068E+03    0.96193E-04   -0.54989E-04  8600   0.168E-01
  43 F= -.19173858E+03 E0= -.19164470E+03  d E =-.899833E-01
       N       E                     dE             d eps       ncg     rms          rms(c)
DAV:   1    -0.191810054764E+03   -0.71384E-01   -0.13733E+01  8160   0.795E+00    0.836E-01
DAV:   2    -0.191840333544E+03   -0.30279E-01   -0.41949E-01 12000   0.180E+00    0.826E-01
DAV:   3    -0.191845443943E+03   -0.51104E-02   -0.58887E-02 12280   0.186E+00    0.118E+00
DAV:   4    -0.191831459851E+03    0.13984E-01   -0.28550E-02 12400   0.136E+00    0.457E-01
DAV:   5    -0.191830326908E+03    0.11329E-02   -0.98825E-03 12480   0.765E-01    0.434E-01
DAV:   6    -0.191829769407E+03    0.55750E-03   -0.80696E-03 12760   0.684E-01    0.326E-01
DAV:   7    -0.191828464017E+03    0.13054E-02   -0.32838E-03 11240   0.391E-01    0.161E-01
DAV:   8    -0.191828239597E+03    0.22442E-03   -0.85275E-04  9960   0.233E-01    0.788E-02
DAV:   9    -0.191828172304E+03    0.67293E-04   -0.21338E-04  6800   0.938E-02
  44 F= -.19182817E+03 E0= -.19173915E+03  d E =-.895972E-01
       N       E                     dE             d eps       ncg     rms          rms(c)
DAV:   1    -0.191874435505E+03   -0.46196E-01   -0.62992E+00  8160   0.542E+00    0.631E-01
DAV:   2    -0.191888054075E+03   -0.13619E-01   -0.22415E-01 12240   0.128E+00    0.539E-01
DAV:   3    -0.191892972335E+03   -0.49183E-02   -0.31035E-02 12200   0.131E+00    0.970E-01
DAV:   4    -0.191883548601E+03    0.94237E-02   -0.17188E-02 11800   0.107E+00    0.294E-01
DAV:   5    -0.191882538352E+03    0.10102E-02   -0.46970E-03 11400   0.376E-01    0.205E-01
DAV:   6    -0.191883022449E+03   -0.48410E-03   -0.45733E-03 11080   0.471E-01    0.298E-01
DAV:   7    -0.191881991329E+03    0.10311E-02   -0.20692E-03 11000   0.359E-01    0.766E-02
DAV:   8    -0.191881939464E+03    0.51865E-04   -0.24131E-04  7960   0.117E-01
  45 F= -.19188194E+03 E0= -.19179532E+03  d E =-.537672E-01
       N       E                     dE             d eps       ncg     rms          rms(c)
DAV:   1    -0.191895289187E+03   -0.13298E-01   -0.51990E-01  8160   0.155E+00    0.247E-01
DAV:   2    -0.191899279071E+03   -0.39899E-02   -0.27959E-02 11480   0.910E-01    0.541E-01
DAV:   3    -0.191895882124E+03    0.33969E-02   -0.64144E-03 12240   0.686E-01    0.157E-01
DAV:   4    -0.191895875986E+03    0.61381E-05   -0.14200E-03  9760   0.280E-01    0.190E-01
DAV:   5    -0.191895629245E+03    0.24674E-03   -0.11041E-03 10480   0.289E-01    0.133E-01
DAV:   6    -0.191895452083E+03    0.17716E-03   -0.52663E-04 10240   0.149E-01    0.432E-02
DAV:   7    -0.191895430044E+03    0.22040E-04   -0.12422E-04  6800   0.526E-02
  46 F= -.19189543E+03 E0= -.19180976E+03  d E =-.134906E-01
       N       E                     dE             d eps       ncg     rms          rms(c)
DAV:   1    -0.191913746033E+03   -0.18294E-01   -0.10251E+00  8160   0.219E+00    0.271E-01
DAV:   2    -0.191916510518E+03   -0.27645E-02   -0.38022E-02 12280   0.624E-01    0.332E-01
DAV:   3    -0.191916517603E+03   -0.70849E-05   -0.70049E-03 12240   0.674E-01    0.366E-01
DAV:   4    -0.191915044433E+03    0.14732E-02   -0.24612E-03 11960   0.412E-01    0.117E-01
DAV:   5    -0.191914966726E+03    0.77707E-04   -0.91893E-04 10320   0.193E-01
  47 F= -.19191497E+03 E0= -.19182987E+03  d E =-.195367E-01
       N       E                     dE             d eps       ncg     rms          rms(c)
DAV:   1    -0.191946539276E+03   -0.31495E-01   -0.57882E+00  8160   0.518E+00    0.591E-01
DAV:   2    -0.191963738241E+03   -0.17199E-01   -0.19646E-01 12240   0.146E+00    0.793E-01
DAV:   3    -0.191961153092E+03    0.25851E-02   -0.31594E-02 12280   0.147E+00    0.698E-01
DAV:   4    -0.191955828953E+03    0.53241E-02   -0.97515E-03 12240   0.816E-01    0.288E-01
DAV:   5    -0.191955773943E+03    0.55009E-04   -0.42284E-03 12320   0.564E-01    0.312E-01
DAV:   6    -0.191955072721E+03    0.70122E-03   -0.32942E-03 11960   0.434E-01    0.162E-01
DAV:   7    -0.191954801849E+03    0.27087E-03   -0.13383E-03 11000   0.250E-01    0.127E-01
DAV:   8    -0.191954626046E+03    0.17580E-03   -0.38560E-04  8760   0.167E-01    0.401E-02
DAV:   9    -0.191954609721E+03    0.16326E-04   -0.72386E-05  6520   0.481E-02
  48 F= -.19195461E+03 E0= -.19187151E+03  d E =-.396430E-01
       N       E                     dE             d eps       ncg     rms          rms(c)
DAV:   1    -0.191977774705E+03   -0.23149E-01   -0.89375E+00  8160   0.641E+00    0.701E-01
DAV:   2    -0.192005960590E+03   -0.28186E-01   -0.30755E-01 12240   0.182E+00    0.952E-01
DAV:   3    -0.192000228334E+03    0.57323E-02   -0.49128E-02 12280   0.174E+00    0.767E-01
DAV:   4    -0.191994141743E+03    0.60866E-02   -0.13817E-02 12240   0.981E-01    0.361E-01
DAV:   5    -0.191993129100E+03    0.10126E-02   -0.54674E-03 12560   0.602E-01    0.313E-01
DAV:   6    -0.191992891596E+03    0.23750E-03   -0.39183E-03 12000   0.523E-01    0.243E-01
DAV:   7    -0.191992141062E+03    0.75053E-03   -0.17801E-03 11560   0.294E-01    0.112E-01
DAV:   8    -0.191992042992E+03    0.98070E-04   -0.45564E-04  9360   0.176E-01
  49 F= -.19199204E+03 E0= -.19191109E+03  d E =-.374333E-01
       N       E                     dE             d eps       ncg     rms          rms(c)
DAV:   1    -0.192002909346E+03   -0.10768E-01   -0.28907E+00  8160   0.365E+00    0.419E-01
DAV:   2    -0.192012629576E+03   -0.97202E-02   -0.11208E-01 12000   0.109E+00    0.544E-01
DAV:   3    -0.192011906252E+03    0.72332E-03   -0.16553E-02 12320   0.106E+00    0.517E-01
DAV:   4    -0.192008872863E+03    0.30334E-02   -0.47692E-03 12320   0.597E-01    0.169E-01
DAV:   5    -0.192008836701E+03    0.36161E-04   -0.18052E-03 11680   0.311E-01    0.187E-01
DAV:   6    -0.192008744508E+03    0.92193E-04   -0.16596E-03 11480   0.325E-01    0.150E-01
DAV:   7    -0.192008467761E+03    0.27675E-03   -0.66032E-04  9760   0.188E-01    0.655E-02
DAV:   8    -0.192008428392E+03    0.39369E-04   -0.13177E-04  6960   0.105E-01
  50 F= -.19200843E+03 E0= -.19192822E+03  d E =-.163854E-01
       N       E                     dE             d eps       ncg     rms          rms(c)
DAV:   1    -0.192014828548E+03   -0.63608E-02   -0.64353E-01  8160   0.170E+00    0.182E-01
DAV:   2    -0.192016524432E+03   -0.16959E-02   -0.23301E-02 11560   0.443E-01    0.156E-01
DAV:   3    -0.192017024135E+03   -0.49970E-03   -0.24114E-03 12040   0.404E-01    0.271E-01
DAV:   4    -0.192016180265E+03    0.84387E-03   -0.11430E-03 10920   0.296E-01    0.603E-02
DAV:   5    -0.192016232255E+03   -0.51990E-04   -0.33970E-04  8480   0.101E-01
  51 F= -.19201623E+03 E0= -.19193681E+03  d E =-.780386E-02
       N       E                     dE             d eps       ncg     rms          rms(c)
DAV:   1    -0.192017691969E+03   -0.15117E-02   -0.67080E-02  8160   0.572E-01    0.902E-02
DAV:   2    -0.192018596830E+03   -0.90486E-03   -0.31269E-03 12480   0.373E-01    0.256E-01
DAV:   3    -0.192017722004E+03    0.87483E-03   -0.10800E-03 10200   0.311E-01    0.386E-02
DAV:   4    -0.192017744080E+03   -0.22076E-04   -0.84454E-05  6000   0.727E-02
  52 F= -.19201774E+03 E0= -.19193849E+03  d E =-.151182E-02
       N       E                     dE             d eps       ncg     rms          rms(c)
DAV:   1    -0.192017905419E+03   -0.18341E-03   -0.13039E-03 10400   0.111E-01    0.344E-02
DAV:   2    -0.192018055410E+03   -0.14999E-03   -0.33089E-04  9680   0.153E-01    0.113E-01
DAV:   3    -0.192017886006E+03    0.16940E-03   -0.18949E-04  7200   0.132E-01    0.151E-02
DAV:   4    -0.192017893557E+03   -0.75511E-05   -0.18519E-05  6120   0.330E-02
  53 F= -.19201789E+03 E0= -.19193860E+03  d E =-.149477E-03
       N       E                     dE             d eps       ncg     rms          rms(c)
DAV:   1    -0.192024039178E+03   -0.61532E-02   -0.46486E-01  8160   0.145E+00    0.153E-01
DAV:   2    -0.192025250692E+03   -0.12115E-02   -0.14787E-02 11400   0.389E-01    0.181E-01
DAV:   3    -0.192025263863E+03   -0.13171E-04   -0.19521E-03 12440   0.370E-01    0.193E-01
DAV:   4    -0.192024836310E+03    0.42755E-03   -0.68393E-04  9360   0.217E-01    0.629E-02
DAV:   5    -0.192024880595E+03   -0.44285E-04   -0.30808E-04  9080   0.138E-01
  54 F= -.19202488E+03 E0= -.19194636E+03  d E =-.698704E-02
       N       E                     dE             d eps       ncg     rms          rms(c)
DAV:   1    -0.192020097911E+03    0.47384E-02   -0.20975E-01  8160   0.993E-01    0.119E-01
DAV:   2    -0.192021071953E+03   -0.97404E-03   -0.78863E-03 12120   0.358E-01    0.233E-01
DAV:   3    -0.192020522618E+03    0.54933E-03   -0.16676E-03 11400   0.344E-01    0.117E-01
DAV:   4    -0.192020380120E+03    0.14250E-03   -0.38006E-04  8600   0.137E-01    0.522E-02
DAV:   5    -0.192020337874E+03    0.42247E-04   -0.11782E-04  6760   0.688E-02
  55 F= -.19202034E+03 E0= -.19194111E+03  d E =0.454272E-02
       N       E                     dE             d eps       ncg     rms          rms(c)
DAV:   1    -0.192005879225E+03    0.14501E-01   -0.18773E+00  8160   0.292E+00    0.336E-01
DAV:   2    -0.192012981424E+03   -0.71022E-02   -0.62429E-02 12640   0.978E-01    0.618E-01
DAV:   3    -0.192009559558E+03    0.34219E-02   -0.12566E-02 12360   0.918E-01    0.310E-01
DAV:   4    -0.192008423567E+03    0.11360E-02   -0.20301E-03 11240   0.326E-01    0.139E-01
DAV:   5    -0.192008661448E+03   -0.23788E-03   -0.13584E-03 11440   0.332E-01    0.192E-01
DAV:   6    -0.192008267475E+03    0.39397E-03   -0.88790E-04  9920   0.233E-01    0.591E-02
DAV:   7    -0.192008240109E+03    0.27367E-04   -0.16776E-04  6960   0.109E-01
  56 F= -.19200824E+03 E0= -.19192679E+03  d E =0.120978E-01
       N       E                     dE             d eps       ncg     rms          rms(c)
DAV:   1    -0.192011554953E+03   -0.32875E-02   -0.13360E-01  8160   0.785E-01    0.906E-02
DAV:   2    -0.192011984993E+03   -0.43004E-03   -0.50726E-03 11360   0.260E-01    0.130E-01
DAV:   3    -0.192011873139E+03    0.11185E-03   -0.66923E-04 10920   0.219E-01    0.948E-02
DAV:   4    -0.192011770690E+03    0.10245E-03   -0.22500E-04  7200   0.120E-01    0.475E-02
DAV:   5    -0.192011771203E+03   -0.51295E-06   -0.11974E-04  6480   0.984E-02
  57 F= -.19201177E+03 E0= -.19193075E+03  d E =-.353109E-02
       N       E                     dE             d eps       ncg     rms          rms(c)
DAV:   1    -0.192018777226E+03   -0.70065E-02   -0.87982E-01  8160   0.199E+00    0.228E-01
DAV:   2    -0.192022067454E+03   -0.32902E-02   -0.28001E-02 12320   0.719E-01    0.434E-01
DAV:   3    -0.192020221122E+03    0.18463E-02   -0.57548E-03 12400   0.627E-01    0.193E-01
DAV:   4    -0.192019770958E+03    0.45016E-03   -0.85510E-04 10000   0.205E-01    0.783E-02
DAV:   5    -0.192019946951E+03   -0.17599E-03   -0.58627E-04 11520   0.203E-01    0.139E-01
DAV:   6    -0.192019761336E+03    0.18561E-03   -0.40689E-04  8960   0.187E-01    0.542E-02
DAV:   7    -0.192019725135E+03    0.36201E-04   -0.79854E-05  6680   0.749E-02
  58 F= -.19201973E+03 E0= -.19194029E+03  d E =-.795393E-02
       N       E                     dE             d eps       ncg     rms          rms(c)
DAV:   1    -0.192021898096E+03   -0.21368E-02   -0.77465E-02  8160   0.591E-01    0.751E-02
DAV:   2    -0.192022261424E+03   -0.36333E-03   -0.38700E-03 10720   0.236E-01    0.115E-01
DAV:   3    -0.192022175963E+03    0.85461E-04   -0.50078E-04  9880   0.198E-01
  59 F= -.19202218E+03 E0= -.19194273E+03  d E =-.245083E-02
       N       E                     dE             d eps       ncg     rms          rms(c)
DAV:   1    -0.192025318614E+03   -0.30572E-02   -0.12018E-01  8160   0.744E-01    0.922E-02
DAV:   2    -0.192025557103E+03   -0.23849E-03   -0.38824E-03 11640   0.201E-01    0.871E-02
DAV:   3    -0.192025606689E+03   -0.49587E-04   -0.57403E-04 10400   0.194E-01
  60 F= -.19202561E+03 E0= -.19194660E+03  d E =-.343073E-02
       N       E                     dE             d eps       ncg     rms          rms(c)
DAV:   1    -0.192023550948E+03    0.20062E-02   -0.56242E-02  8160   0.543E-01    0.953E-02
DAV:   2    -0.192024803370E+03   -0.12524E-02   -0.43614E-03 11640   0.444E-01    0.314E-01
DAV:   3    -0.192023605830E+03    0.11975E-02   -0.15767E-03 10280   0.363E-01    0.405E-02
DAV:   4    -0.192023615848E+03   -0.10019E-04   -0.91212E-05  6040   0.786E-02
  61 F= -.19202362E+03 E0= -.19194434E+03  d E =0.199084E-02
       N       E                     dE             d eps       ncg     rms          rms(c)
DAV:   1    -0.192028461088E+03   -0.48553E-02   -0.33787E-01  8160   0.123E+00    0.125E-01
DAV:   2    -0.192029412309E+03   -0.95122E-03   -0.10439E-02 11880   0.349E-01    0.168E-01
DAV:   3    -0.192029277270E+03    0.13504E-03   -0.12979E-03 11520   0.311E-01    0.137E-01
DAV:   4    -0.192029069815E+03    0.20746E-03   -0.40432E-04  8520   0.164E-01    0.594E-02
DAV:   5    -0.192029085813E+03   -0.15999E-04   -0.22627E-04  8320   0.119E-01
  62 F= -.19202909E+03 E0= -.19195056E+03  d E =-.546996E-02
       N       E                     dE             d eps       ncg     rms          rms(c)
DAV:   1    -0.192023336349E+03    0.57335E-02   -0.41047E-01  8160   0.136E+00    0.153E-01
DAV:   2    -0.192025287450E+03   -0.19511E-02   -0.13082E-02 12720   0.537E-01    0.349E-01
DAV:   3    -0.192023935997E+03    0.13515E-02   -0.31916E-03 12440   0.468E-01    0.114E-01
DAV:   4    -0.192023786452E+03    0.14954E-03   -0.46444E-04  8880   0.128E-01    0.599E-02
DAV:   5    -0.192023782627E+03    0.38255E-05   -0.22067E-04  7560   0.109E-01
  63 F= -.19202378E+03 E0= -.19194421E+03  d E =0.530319E-02
       N       E                     dE             d eps       ncg     rms          rms(c)
DAV:   1    -0.192011531178E+03    0.12255E-01   -0.21848E+00  8160   0.313E+00    0.338E-01
DAV:   2    -0.192019581714E+03   -0.80505E-02   -0.61631E-02 12360   0.108E+00    0.689E-01
DAV:   3    -0.192014617831E+03    0.49639E-02   -0.14405E-02 12560   0.961E-01    0.264E-01
DAV:   4    -0.192013764025E+03    0.85381E-03   -0.17161E-03 11680   0.270E-01    0.117E-01
DAV:   5    -0.192014234993E+03   -0.47097E-03   -0.15512E-03 11520   0.316E-01    0.224E-01
DAV:   6    -0.192013747204E+03    0.48779E-03   -0.10655E-03 10360   0.291E-01    0.861E-02
DAV:   7    -0.192013645507E+03    0.10170E-03   -0.23167E-04  7560   0.107E-01    0.386E-02
DAV:   8    -0.192013634376E+03    0.11131E-04   -0.53001E-05  6840   0.628E-02
  64 F= -.19201363E+03 E0= -.19193163E+03  d E =0.101483E-01
       N       E                     dE             d eps       ncg     rms          rms(c)
DAV:   1    -0.192021500614E+03   -0.78551E-02   -0.13061E+00  8160   0.244E+00    0.290E-01
DAV:   2    -0.192026012495E+03   -0.45119E-02   -0.43676E-02 12240   0.904E-01    0.509E-01
DAV:   3    -0.192023532131E+03    0.24804E-02   -0.80144E-03 12440   0.759E-01    0.248E-01
DAV:   4    -0.192022835773E+03    0.69636E-03   -0.20180E-03 11400   0.327E-01    0.145E-01
DAV:   5    -0.192022906813E+03   -0.71040E-04   -0.13624E-03 11120   0.315E-01    0.172E-01
DAV:   6    -0.192022605338E+03    0.30147E-03   -0.76745E-04 10080   0.218E-01    0.596E-02
DAV:   7    -0.192022587208E+03    0.18130E-04   -0.15038E-04  6640   0.104E-01
  65 F= -.19202259E+03 E0= -.19194258E+03  d E =-.895283E-02
       N       E                     dE             d eps       ncg     rms          rms(c)
DAV:   1    -0.192024296206E+03   -0.16909E-02   -0.65035E-02  8160   0.548E-01    0.762E-02
DAV:   2    -0.192024731075E+03   -0.43487E-03   -0.34568E-03 12960   0.261E-01    0.158E-01
DAV:   3    -0.192024479837E+03    0.25124E-03   -0.67296E-04  9720   0.222E-01    0.656E-02
DAV:   4    -0.192024432691E+03    0.47146E-04   -0.83553E-05  6080   0.773E-02
  66 F= -.19202443E+03 E0= -.19194446E+03  d E =-.184548E-02
       N       E                     dE             d eps       ncg     rms          rms(c)
DAV:   1    -0.192029267122E+03   -0.47873E-02   -0.36665E-01  8160   0.129E+00    0.143E-01
DAV:   2    -0.192030289721E+03   -0.10226E-02   -0.11287E-02 11880   0.357E-01    0.196E-01
DAV:   3    -0.192030065677E+03    0.22404E-03   -0.16794E-03 12120   0.349E-01    0.156E-01
DAV:   4    -0.192029815505E+03    0.25017E-03   -0.49896E-04  8960   0.179E-01    0.729E-02
DAV:   5    -0.192029825794E+03   -0.10288E-04   -0.29755E-04  9520   0.149E-01
  67 F= -.19202983E+03 E0= -.19195058E+03  d E =-.539310E-02
       N       E                     dE             d eps       ncg     rms          rms(c)
DAV:   1    -0.192029997702E+03   -0.18220E-03   -0.72773E-04 10160   0.111E-01    0.319E-02
DAV:   2    -0.192030081721E+03   -0.84019E-04   -0.24976E-04  9200   0.107E-01
  68 F= -.19203008E+03 E0= -.19195093E+03  d E =-.255927E-03
       N       E                     dE             d eps       ncg     rms          rms(c)
DAV:   1    -0.192029459778E+03    0.53792E-03   -0.51832E-02  8160   0.493E-01    0.881E-02
DAV:   2    -0.192030460096E+03   -0.10003E-02   -0.35290E-03 12960   0.383E-01    0.281E-01
DAV:   3    -0.192029431679E+03    0.10284E-02   -0.16319E-03 10720   0.328E-01    0.542E-02
DAV:   4    -0.192029401923E+03    0.29756E-04   -0.11266E-04  5720   0.735E-02
  69 F= -.19202940E+03 E0= -.19195012E+03  d E =0.679798E-03
       N       E                     dE             d eps       ncg     rms          rms(c)
DAV:   1    -0.192033230668E+03   -0.37990E-02   -0.45937E-01  8160   0.146E+00    0.199E-01
DAV:   2    -0.192035315179E+03   -0.20845E-02   -0.17831E-02 12640   0.574E-01    0.362E-01
DAV:   3    -0.192033851429E+03    0.14638E-02   -0.48014E-03 12080   0.538E-01    0.176E-01
DAV:   4    -0.192033600138E+03    0.25129E-03   -0.11094E-03 10080   0.252E-01    0.110E-01
DAV:   5    -0.192033411021E+03    0.18912E-03   -0.46193E-04  9840   0.132E-01    0.622E-02
DAV:   6    -0.192033453154E+03   -0.42133E-04   -0.26399E-04  9080   0.148E-01
  70 F= -.19203345E+03 E0= -.19195475E+03  d E =-.405123E-02
       N       E                     dE             d eps       ncg     rms          rms(c)
DAV:   1    -0.192036875531E+03   -0.34645E-02   -0.32047E-01  8160   0.124E+00    0.228E-01
DAV:   2    -0.192042595286E+03   -0.57198E-02   -0.20432E-02 12400   0.966E-01    0.703E-01
DAV:   3    -0.192036483550E+03    0.61117E-02   -0.94883E-03 11840   0.823E-01    0.115E-01
DAV:   4    -0.192036428298E+03    0.55253E-04   -0.96789E-04  9880   0.159E-01
  71 F= -.19203643E+03 E0= -.19195848E+03  d E =-.297514E-02
       N       E                     dE             d eps       ncg     rms          rms(c)
DAV:   1    -0.192042806885E+03   -0.63233E-02   -0.62489E-01  8160   0.170E+00    0.248E-01
DAV:   2    -0.192046413812E+03   -0.36069E-02   -0.23482E-02 12280   0.782E-01    0.538E-01
DAV:   3    -0.192043134268E+03    0.32795E-02   -0.65770E-03 12280   0.704E-01    0.175E-01
DAV:   4    -0.192042906397E+03    0.22787E-03   -0.11157E-03 10120   0.238E-01    0.134E-01
DAV:   5    -0.192042805903E+03    0.10049E-03   -0.78844E-04 11560   0.255E-01    0.114E-01
DAV:   6    -0.192042698716E+03    0.10719E-03   -0.40399E-04  8960   0.155E-01    0.485E-02
DAV:   7    -0.192042658826E+03    0.39889E-04   -0.99941E-05  6880   0.599E-02
  72 F= -.19204266E+03 E0= -.19196621E+03  d E =-.623053E-02
       N       E                     dE             d eps       ncg     rms          rms(c)
DAV:   1    -0.192044964760E+03   -0.22660E-02   -0.52838E-02  8160   0.503E-01    0.738E-02
DAV:   2    -0.192045057063E+03   -0.92303E-04   -0.19421E-03 11560   0.168E-01    0.886E-02
DAV:   3    -0.192045029029E+03    0.28034E-04   -0.42415E-04 10040   0.171E-01
  73 F= -.19204503E+03 E0= -.19196864E+03  d E =-.237020E-02
       N       E                     dE             d eps       ncg     rms          rms(c)
DAV:   1    -0.192044450384E+03    0.60668E-03   -0.30749E-03  9240   0.161E-01    0.406E-02
DAV:   2    -0.192044728746E+03   -0.27836E-03   -0.63607E-04  9320   0.202E-01    0.150E-01
DAV:   3    -0.192044433932E+03    0.29481E-03   -0.36499E-04  8440   0.176E-01    0.192E-02
DAV:   4    -0.192044435916E+03   -0.19838E-05   -0.24761E-05  5800   0.282E-02
  74 F= -.19204444E+03 E0= -.19196806E+03  d E =0.593113E-03
       N       E                     dE             d eps       ncg     rms          rms(c)
DAV:   1    -0.192050575170E+03   -0.61412E-02   -0.46310E-01  8160   0.144E+00    0.152E-01
DAV:   2    -0.192051710515E+03   -0.11353E-02   -0.13522E-02 12080   0.397E-01    0.189E-01
DAV:   3    -0.192051591576E+03    0.11894E-03   -0.17579E-03 11880   0.357E-01    0.176E-01
DAV:   4    -0.192051283404E+03    0.30817E-03   -0.71499E-04  9920   0.218E-01    0.799E-02
DAV:   5    -0.192051250772E+03    0.32631E-04   -0.32593E-04  8920   0.133E-01
  75 F= -.19205125E+03 E0= -.19197585E+03  d E =-.681486E-02
       N       E                     dE             d eps       ncg     rms          rms(c)
DAV:   1    -0.192046997388E+03    0.42860E-02   -0.17416E-01  8160   0.895E-01    0.107E-01
DAV:   2    -0.192048163306E+03   -0.11659E-02   -0.59261E-03 13080   0.384E-01    0.270E-01
DAV:   3    -0.192047246904E+03    0.91640E-03   -0.16204E-03 11280   0.352E-01    0.796E-02
DAV:   4    -0.192047215209E+03    0.31695E-04   -0.27699E-04  7960   0.112E-01
  76 F= -.19204722E+03 E0= -.19197114E+03  d E =0.403556E-02
       N       E                     dE             d eps       ncg     rms          rms(c)
DAV:   1    -0.192050761537E+03   -0.35146E-02   -0.16413E-01  8160   0.872E-01    0.131E-01
DAV:   2    -0.192051754247E+03   -0.99271E-03   -0.70612E-03 12080   0.463E-01    0.287E-01
DAV:   3    -0.192050765840E+03    0.98841E-03   -0.19925E-03 11400   0.371E-01    0.795E-02
DAV:   4    -0.192050724032E+03    0.41808E-04   -0.31796E-04  9120   0.143E-01
  77 F= -.19205072E+03 E0= -.19197502E+03  d E =-.350882E-02
       N       E                     dE             d eps       ncg     rms          rms(c)
DAV:   1    -0.192055186647E+03   -0.44208E-02   -0.21208E-01  8160   0.984E-01    0.131E-01
DAV:   2    -0.192056790804E+03   -0.16042E-02   -0.74545E-03 12200   0.487E-01    0.340E-01
DAV:   3    -0.192055372484E+03    0.14183E-02   -0.20797E-03 11720   0.417E-01    0.752E-02
DAV:   4    -0.192055421342E+03   -0.48858E-04   -0.33715E-04  8400   0.143E-01
  78 F= -.19205542E+03 E0= -.19198051E+03  d E =-.469731E-02
       N       E                     dE             d eps       ncg     rms          rms(c)
DAV:   1    -0.192044562093E+03    0.10810E-01   -0.98511E-01  8160   0.210E+00    0.229E-01
DAV:   2    -0.192048055098E+03   -0.34930E-02   -0.29595E-02 12560   0.822E-01    0.439E-01
DAV:   3    -0.192045948702E+03    0.21064E-02   -0.48524E-03 12040   0.619E-01    0.161E-01
DAV:   4    -0.192045747610E+03    0.20109E-03   -0.11650E-03 10360   0.244E-01    0.135E-01
DAV:   5    -0.192045662786E+03    0.84824E-04   -0.93423E-04 10920   0.240E-01
  79 F= -.19204566E+03 E0= -.19196887E+03  d E =0.975856E-02
       N       E                     dE             d eps       ncg     rms          rms(c)
DAV:   1    -0.192022155203E+03    0.23592E-01   -0.56970E+00  8160   0.506E+00    0.567E-01
DAV:   2    -0.192037289100E+03   -0.15134E-01   -0.15518E-01 12600   0.164E+00    0.950E-01
DAV:   3    -0.192029912111E+03    0.73770E-02   -0.31190E-02 12480   0.147E+00    0.510E-01
DAV:   4    -0.192026661633E+03    0.32505E-02   -0.72242E-03 12680   0.609E-01    0.252E-01
DAV:   5    -0.192027419553E+03   -0.75792E-03   -0.49286E-03 11120   0.606E-01    0.361E-01
DAV:   6    -0.192026008267E+03    0.14113E-02   -0.29157E-03 11320   0.444E-01    0.108E-01
DAV:   7    -0.192025982008E+03    0.26259E-04   -0.57939E-04  9600   0.205E-01
  80 F= -.19202598E+03 E0= -.19194427E+03  d E =0.196808E-01
       N       E                     dE             d eps       ncg     rms          rms(c)
DAV:   1    -0.192025628296E+03    0.37997E-03   -0.14908E-03 10200   0.152E-01    0.272E-02
DAV:   2    -0.192025648075E+03   -0.19779E-04   -0.10644E-04  6840   0.702E-02
  81 F= -.19202565E+03 E0= -.19194389E+03  d E =0.333933E-03
       N       E                     dE             d eps       ncg     rms          rms(c)
DAV:   1    -0.192029853609E+03   -0.42253E-02   -0.36173E-01  8160   0.128E+00    0.199E-01
DAV:   2    -0.192034286553E+03   -0.44329E-02   -0.20975E-02 11560   0.862E-01    0.554E-01
DAV:   3    -0.192030436648E+03    0.38499E-02   -0.52312E-03 12240   0.650E-01    0.102E-01
DAV:   4    -0.192030510968E+03   -0.74321E-04   -0.87576E-04  9840   0.215E-01
  82 F= -.19203051E+03 E0= -.19194955E+03  d E =-.486289E-02
       N       E                     dE             d eps       ncg     rms          rms(c)
DAV:   1    -0.192034417663E+03   -0.39810E-02   -0.28773E-01  8160   0.117E+00    0.165E-01
DAV:   2    -0.192035118668E+03   -0.70100E-03   -0.10005E-02 11400   0.335E-01    0.211E-01
DAV:   3    -0.192034852016E+03    0.26665E-03   -0.22185E-03 12360   0.380E-01    0.194E-01
DAV:   4    -0.192034535147E+03    0.31687E-03   -0.97027E-04 10120   0.254E-01    0.918E-02
DAV:   5    -0.192034394866E+03    0.14028E-03   -0.36759E-04  8920   0.979E-02    0.335E-02
DAV:   6    -0.192034421932E+03   -0.27067E-04   -0.13721E-04  7440   0.785E-02
  83 F= -.19203442E+03 E0= -.19195429E+03  d E =-.391096E-02
       N       E                     dE             d eps       ncg     rms          rms(c)
DAV:   1    -0.192042100199E+03   -0.77053E-02   -0.12516E+00  8160   0.239E+00    0.290E-01
DAV:   2    -0.192046007534E+03   -0.39073E-02   -0.44518E-02 12360   0.813E-01    0.439E-01
DAV:   3    -0.192044601533E+03    0.14060E-02   -0.72664E-03 12440   0.735E-01    0.295E-01
DAV:   4    -0.192043574162E+03    0.10274E-02   -0.22333E-03 11600   0.355E-01    0.128E-01
DAV:   5    -0.192043693102E+03   -0.11894E-03   -0.12632E-03 11080   0.283E-01    0.167E-01
DAV:   6    -0.192043425324E+03    0.26778E-03   -0.74153E-04 10400   0.228E-01    0.643E-02
DAV:   7    -0.192043375824E+03    0.49501E-04   -0.15334E-04  6720   0.861E-02
  84 F= -.19204338E+03 E0= -.19196521E+03  d E =-.895389E-02
       N       E                     dE             d eps       ncg     rms          rms(c)
DAV:   1    -0.192045570005E+03   -0.21447E-02   -0.10129E-01  8160   0.676E-01    0.818E-02
DAV:   2    -0.192046216180E+03   -0.64618E-03   -0.31197E-03 12600   0.300E-01    0.213E-01
DAV:   3    -0.192045669972E+03    0.54621E-03   -0.89859E-04 10320   0.269E-01    0.498E-02
DAV:   4    -0.192045665351E+03    0.46204E-05   -0.77790E-05  6200   0.569E-02
  85 F= -.19204567E+03 E0= -.19196802E+03  d E =-.228953E-02
       N       E                     dE             d eps       ncg     rms          rms(c)
DAV:   1    -0.192049325363E+03   -0.36554E-02   -0.21399E-01  8160   0.983E-01    0.107E-01
DAV:   2    -0.192049816542E+03   -0.49118E-03   -0.58615E-03 12120   0.255E-01    0.138E-01
DAV:   3    -0.192049735231E+03    0.81310E-04   -0.89697E-04 11400   0.259E-01
  86 F= -.19204974E+03 E0= -.19197274E+03  d E =-.406988E-02
       N       E                     dE             d eps       ncg     rms          rms(c)
DAV:   1    -0.192041703285E+03    0.81133E-02   -0.72885E-01  8160   0.182E+00    0.206E-01
DAV:   2    -0.192046850308E+03   -0.51470E-02   -0.25639E-02 13000   0.830E-01    0.586E-01
DAV:   3    -0.192042716261E+03    0.41340E-02   -0.73564E-03 12360   0.713E-01    0.110E-01
DAV:   4    -0.192042627547E+03    0.88713E-04   -0.44405E-04  9080   0.144E-01
  87 F= -.19204263E+03 E0= -.19196439E+03  d E =0.710768E-02
       N       E                     dE             d eps       ncg     rms          rms(c)
DAV:   1    -0.192025404841E+03    0.17311E-01   -0.37661E+00  8160   0.411E+00    0.480E-01
DAV:   2    -0.192042929553E+03   -0.17525E-01   -0.11064E-01 12800   0.168E+00    0.110E+00
DAV:   3    -0.192029936448E+03    0.12993E-01   -0.29646E-02 12640   0.144E+00    0.332E-01
DAV:   4    -0.192028680881E+03    0.12556E-02   -0.34291E-03 12000   0.367E-01    0.192E-01
DAV:   5    -0.192029264674E+03   -0.58379E-03   -0.28576E-03 11400   0.482E-01    0.299E-01
DAV:   6    -0.192028502096E+03    0.76258E-03   -0.18951E-03 11440   0.377E-01    0.120E-01
DAV:   7    -0.192028290618E+03    0.21148E-03   -0.47389E-04  9320   0.163E-01    0.620E-02
DAV:   8    -0.192028253805E+03    0.36813E-04   -0.10880E-04  7000   0.891E-02
  88 F= -.19202825E+03 E0= -.19194691E+03  d E =0.143737E-01
       N       E                     dE             d eps       ncg     rms          rms(c)
DAV:   1    -0.192022607368E+03    0.56833E-02   -0.70547E-01  8160   0.178E+00    0.188E-01
DAV:   2    -0.192025364960E+03   -0.27576E-02   -0.20963E-02 12200   0.643E-01    0.391E-01
DAV:   3    -0.192023796616E+03    0.15683E-02   -0.44607E-03 12680   0.545E-01    0.149E-01
DAV:   4    -0.192023545221E+03    0.25139E-03   -0.51253E-04  9920   0.152E-01    0.620E-02
DAV:   5    -0.192023698944E+03   -0.15372E-03   -0.40696E-04  9440   0.174E-01    0.125E-01
DAV:   6    -0.192023561669E+03    0.13728E-03   -0.33727E-04  8720   0.168E-01    0.466E-02
DAV:   7    -0.192023527925E+03    0.33744E-04   -0.61589E-05  6000   0.482E-02
  89 F= -.19202353E+03 E0= -.19194104E+03  d E =0.472588E-02
       N       E                     dE             d eps       ncg     rms          rms(c)
DAV:   1    -0.192031261613E+03   -0.76999E-02   -0.19535E+00  8160   0.297E+00    0.383E-01
DAV:   2    -0.192047778348E+03   -0.16517E-01   -0.72169E-02 13120   0.163E+00    0.111E+00
DAV:   3    -0.192032876754E+03    0.14902E-01   -0.24521E-02 12360   0.134E+00    0.193E-01
DAV:   4    -0.192032484381E+03    0.39237E-03   -0.16299E-03 11560   0.224E-01    0.142E-01
DAV:   5    -0.192032732705E+03   -0.24832E-03   -0.15213E-03 11640   0.345E-01    0.213E-01
DAV:   6    -0.192032319842E+03    0.41286E-03   -0.10171E-03 10360   0.273E-01    0.785E-02
DAV:   7    -0.192032260595E+03    0.59247E-04   -0.26027E-04  8360   0.125E-01
  90 F= -.19203226E+03 E0= -.19195150E+03  d E =-.873267E-02
       N       E                     dE             d eps       ncg     rms          rms(c)
DAV:   1    -0.192020846304E+03    0.11474E-01   -0.33524E+00  8160   0.386E+00    0.376E-01
DAV:   2    -0.192029967302E+03   -0.91210E-02   -0.83013E-02 11720   0.114E+00    0.662E-01
DAV:   3    -0.192026252354E+03    0.37149E-02   -0.15398E-02 12320   0.101E+00    0.350E-01
DAV:   4    -0.192024703205E+03    0.15491E-02   -0.24631E-03 10760   0.351E-01    0.126E-01
DAV:   5    -0.192025443695E+03   -0.74049E-03   -0.19025E-03 12560   0.380E-01    0.267E-01
DAV:   6    -0.192024678466E+03    0.76523E-03   -0.14582E-03  9880   0.338E-01    0.801E-02
DAV:   7    -0.192024593559E+03    0.84907E-04   -0.18183E-04  6800   0.991E-02
  91 F= -.19202459E+03 E0= -.19194128E+03  d E =0.766704E-02
       N       E                     dE             d eps       ncg     rms          rms(c)
DAV:   1    -0.192026243566E+03   -0.15651E-02   -0.11551E-01  8160   0.723E-01    0.853E-02
DAV:   2    -0.192026678793E+03   -0.43523E-03   -0.43919E-03 10960   0.271E-01    0.143E-01
DAV:   3    -0.192026493762E+03    0.18503E-03   -0.79865E-04 11080   0.230E-01    0.814E-02
DAV:   4    -0.192026400646E+03    0.93115E-04   -0.11040E-04  5720   0.902E-02
  92 F= -.19202640E+03 E0= -.19194319E+03  d E =-.180709E-02
       N       E                     dE             d eps       ncg     rms          rms(c)
DAV:   1    -0.192026344851E+03    0.14891E-03   -0.32953E-01  8160   0.121E+00    0.124E-01
DAV:   2    -0.192027247159E+03   -0.90231E-03   -0.78758E-03 11440   0.350E-01    0.205E-01
DAV:   3    -0.192026787621E+03    0.45954E-03   -0.12952E-03 11840   0.311E-01    0.949E-02
DAV:   4    -0.192026677522E+03    0.11010E-03   -0.18336E-04  7120   0.991E-02    0.326E-02
DAV:   5    -0.192026713585E+03   -0.36063E-04   -0.12471E-04  6760   0.653E-02
  93 F= -.19202671E+03 E0= -.19194293E+03  d E =-.312938E-03
       N       E                     dE             d eps       ncg     rms          rms(c)
DAV:   1    -0.192027801007E+03   -0.11235E-02   -0.13997E-01  8160   0.805E-01    0.958E-02
DAV:   2    -0.192028377571E+03   -0.57656E-03   -0.54072E-03 12200   0.272E-01    0.154E-01
DAV:   3    -0.192028147464E+03    0.23011E-03   -0.79689E-04 11240   0.250E-01    0.896E-02
DAV:   4    -0.192028074548E+03    0.72916E-04   -0.16092E-04  6160   0.108E-01
  94 F= -.19202807E+03 E0= -.19194424E+03  d E =-.136096E-02
       N       E                     dE             d eps       ncg     rms          rms(c)
DAV:   1    -0.192029527401E+03   -0.13799E-02   -0.45529E-01  8160   0.144E+00    0.156E-01
DAV:   2    -0.192030453802E+03   -0.92640E-03   -0.13030E-02 12040   0.337E-01    0.153E-01
DAV:   3    -0.192030656664E+03   -0.20286E-03   -0.16127E-03 11520   0.351E-01    0.210E-01
DAV:   4    -0.192030155405E+03    0.50126E-03   -0.70549E-04  9760   0.237E-01    0.585E-02
DAV:   5    -0.192030212341E+03   -0.56935E-04   -0.36068E-04  8480   0.120E-01
  95 F= -.19203021E+03 E0= -.19194598E+03  d E =-.213779E-02
       N       E                     dE             d eps       ncg     rms          rms(c)
DAV:   1    -0.192030335073E+03   -0.17967E-03   -0.37710E-02  8160   0.422E-01    0.822E-02
DAV:   2    -0.192031087512E+03   -0.75244E-03   -0.25307E-03 11600   0.352E-01    0.249E-01
DAV:   3    -0.192030292549E+03    0.79496E-03   -0.11198E-03 10040   0.294E-01    0.492E-02
DAV:   4    -0.192030280358E+03    0.12191E-04   -0.11121E-04  5720   0.781E-02
  96 F= -.19203028E+03 E0= -.19194642E+03  d E =-.680172E-04
       N       E                     dE             d eps       ncg     rms          rms(c)
DAV:   1    -0.192031728700E+03   -0.14362E-02   -0.36461E-01  8160   0.129E+00    0.139E-01
DAV:   2    -0.192032513830E+03   -0.78513E-03   -0.11716E-02 11240   0.313E-01    0.123E-01
DAV:   3    -0.192032797781E+03   -0.28395E-03   -0.15530E-03 12280   0.321E-01    0.204E-01
DAV:   4    -0.192032291553E+03    0.50623E-03   -0.67151E-04  9320   0.223E-01    0.420E-02
DAV:   5    -0.192032371839E+03   -0.80286E-04   -0.20803E-04  7040   0.108E-01
  97 F= -.19203237E+03 E0= -.19194841E+03  d E =-.209148E-02
       N       E                     dE             d eps       ncg     rms          rms(c)
DAV:   1    -0.192032091573E+03    0.19998E-03   -0.14828E-02  8160   0.282E-01    0.445E-02
DAV:   2    -0.192032149157E+03   -0.57584E-04   -0.66000E-04 10640   0.108E-01
  98 F= -.19203215E+03 E0= -.19194809E+03  d E =0.222682E-03
       N       E                     dE             d eps       ncg     rms          rms(c)
DAV:   1    -0.192032968367E+03   -0.87679E-03   -0.83281E-02  8160   0.626E-01    0.911E-02
DAV:   2    -0.192033234609E+03   -0.26624E-03   -0.35447E-03 10600   0.223E-01    0.130E-01
DAV:   3    -0.192033093119E+03    0.14149E-03   -0.74055E-04 10680   0.227E-01    0.895E-02
DAV:   4    -0.192033008414E+03    0.84705E-04   -0.24512E-04  7280   0.120E-01
  99 F= -.19203301E+03 E0= -.19194878E+03  d E =-.859257E-03
