<?xml version="1.0" encoding="ISO-8859-1"?>
<modeling>
 <generator>
  <i name="program" type="string">vasp </i>
  <i name="version" type="string">5.4.1  </i>
  <i name="subversion" type="string">05Feb16 (build Jul 05 2020 17:13:04) complex                          parallel </i>
  <i name="platform" type="string">IFC91_ompi </i>
  <i name="date" type="string">2024 05 15 </i>
  <i name="time" type="string">01:59:55 </i>
 </generator>
 <incar>
  <i type="int" name="ISTART">     0</i>
  <i type="string" name="PREC">normal</i>
  <i type="string" name="ALGO"> Normal</i>
  <i type="int" name="ISPIN">     1</i>
  <i type="int" name="ICHARG">     2</i>
  <i type="int" name="IBRION">     1</i>
  <i type="int" name="NSW">   100</i>
  <i type="int" name="ISIF">     3</i>
  <i type="int" name="ISYM">     0</i>
  <i name="SYMPREC">      0.00000001</i>
  <i name="POTIM">      0.50000000</i>
  <i type="logical" name="LREAL"> F  </i>
  <i type="logical" name="LPLANE"> F  </i>
  <i type="int" name="ISMEAR">     0</i>
  <i type="logical" name="LWAVE"> F  </i>
  <i type="logical" name="LCHARG"> F  </i>
  <v type="int" name="KPOINT_BSE">    -1     0     0     0</v>
 </incar>
 <kpoints>
  <generation param="Gamma">
   <v type="int" name="divisions">       8        8        1 </v>
   <v name="usershift">      0.00000000       0.00000000       0.00000000 </v>
   <v name="genvec1">      0.12500000       0.00000000       0.00000000 </v>
   <v name="genvec2">     -0.00000000       0.12500000       0.00000000 </v>
   <v name="genvec3">      0.00000000       0.00000000       1.00000000 </v>
   <v name="shift">      0.00000000       0.00000000       0.00000000 </v>
  </generation>
  <varray name="kpointlist" >
   <v>       0.00000000       0.00000000       0.00000000 </v>
   <v>       0.12500000       0.00000000       0.00000000 </v>
   <v>       0.25000000       0.00000000       0.00000000 </v>
   <v>       0.37500000       0.00000000       0.00000000 </v>
   <v>       0.50000000       0.00000000       0.00000000 </v>
   <v>       0.00000000       0.12500000       0.00000000 </v>
   <v>       0.12500000       0.12500000       0.00000000 </v>
   <v>       0.25000000       0.12500000       0.00000000 </v>
   <v>       0.37500000       0.12500000       0.00000000 </v>
   <v>       0.50000000       0.12500000       0.00000000 </v>
   <v>      -0.37500000       0.12500000       0.00000000 </v>
   <v>      -0.25000000       0.12500000       0.00000000 </v>
   <v>      -0.12500000       0.12500000       0.00000000 </v>
   <v>       0.00000000       0.25000000       0.00000000 </v>
   <v>       0.12500000       0.25000000       0.00000000 </v>
   <v>       0.25000000       0.25000000       0.00000000 </v>
   <v>       0.37500000       0.25000000       0.00000000 </v>
   <v>       0.50000000       0.25000000       0.00000000 </v>
   <v>      -0.37500000       0.25000000       0.00000000 </v>
   <v>      -0.25000000       0.25000000       0.00000000 </v>
   <v>      -0.12500000       0.25000000       0.00000000 </v>
   <v>      -0.00000000       0.37500000       0.00000000 </v>
   <v>       0.12500000       0.37500000       0.00000000 </v>
   <v>       0.25000000       0.37500000       0.00000000 </v>
   <v>       0.37500000       0.37500000       0.00000000 </v>
   <v>       0.50000000       0.37500000       0.00000000 </v>
   <v>      -0.37500000       0.37500000       0.00000000 </v>
   <v>      -0.25000000       0.37500000       0.00000000 </v>
   <v>      -0.12500000       0.37500000       0.00000000 </v>
   <v>       0.00000000       0.50000000       0.00000000 </v>
   <v>       0.12500000       0.50000000       0.00000000 </v>
   <v>       0.25000000       0.50000000       0.00000000 </v>
   <v>       0.37500000       0.50000000       0.00000000 </v>
   <v>       0.50000000       0.50000000       0.00000000 </v>
  </varray>
  <varray name="weights" >
   <v>       0.01562500 </v>
   <v>       0.03125000 </v>
   <v>       0.03125000 </v>
   <v>       0.03125000 </v>
   <v>       0.01562500 </v>
   <v>       0.03125000 </v>
   <v>       0.03125000 </v>
   <v>       0.03125000 </v>
   <v>       0.03125000 </v>
   <v>       0.03125000 </v>
   <v>       0.03125000 </v>
   <v>       0.03125000 </v>
   <v>       0.03125000 </v>
   <v>       0.03125000 </v>
   <v>       0.03125000 </v>
   <v>       0.03125000 </v>
   <v>       0.03125000 </v>
   <v>       0.03125000 </v>
   <v>       0.03125000 </v>
   <v>       0.03125000 </v>
   <v>       0.03125000 </v>
   <v>       0.03125000 </v>
   <v>       0.03125000 </v>
   <v>       0.03125000 </v>
   <v>       0.03125000 </v>
   <v>       0.03125000 </v>
   <v>       0.03125000 </v>
   <v>       0.03125000 </v>
   <v>       0.03125000 </v>
   <v>       0.01562500 </v>
   <v>       0.03125000 </v>
   <v>       0.03125000 </v>
   <v>       0.03125000 </v>
   <v>       0.01562500 </v>
  </varray>
 </kpoints>
 <parameters>
  <separator name="general" >
   <i type="string" name="SYSTEM">unknown system</i>
   <i type="logical" name="LCOMPAT"> F  </i>
  </separator>
  <separator name="electronic" >
   <i type="string" name="PREC">normal</i>
   <i name="ENMAX">    280.00000000</i>
   <i name="ENAUG">    373.43800000</i>
   <i name="EDIFF">      0.00010000</i>
   <i type="int" name="IALGO">    38</i>
   <i type="int" name="IWAVPR">    11</i>
   <i type="int" name="NBANDS">   120</i>
   <i name="NELECT">    159.00000000</i>
   <i type="int" name="TURBO">     0</i>
   <i type="int" name="IRESTART">     0</i>
   <i type="int" name="NREBOOT">     0</i>
   <i type="int" name="NMIN">     0</i>
   <i name="EREF">      0.00000000</i>
   <separator name="electronic smearing" >
    <i type="int" name="ISMEAR">     0</i>
    <i name="SIGMA">      0.20000000</i>
    <i name="KSPACING">      0.50000000</i>
    <i type="logical" name="KGAMMA"> T  </i>
   </separator>
   <separator name="electronic projectors" >
    <i type="logical" name="LREAL"> F  </i>
    <v name="ROPT">      0.00000000      0.00000000      0.00000000      0.00000000</v>
    <i type="int" name="LMAXPAW">  -100</i>
    <i type="int" name="LMAXMIX">     2</i>
    <i type="logical" name="NLSPLINE"> F  </i>
   </separator>
   <separator name="electronic startup" >
    <i type="int" name="ISTART">     0</i>
    <i type="int" name="ICHARG">     2</i>
    <i type="int" name="INIWAV">     1</i>
   </separator>
   <separator name="electronic spin" >
    <i type="int" name="ISPIN">     1</i>
    <i type="logical" name="LNONCOLLINEAR"> F  </i>
    <v name="MAGMOM">      1.00000000      1.00000000      1.00000000      1.00000000      1.00000000      1.00000000      1.00000000      1.00000000      1.00000000      1.00000000      1.00000000      1.00000000      1.00000000      1.00000000      1.00000000      1.00000000      1.00000000      1.00000000      1.00000000      1.00000000
      1.00000000      1.00000000      1.00000000      1.00000000      1.00000000      1.00000000      1.00000000</v>
    <i name="NUPDOWN">     -1.00000000</i>
    <i type="logical" name="LSORBIT"> F  </i>
    <v name="SAXIS">      0.00000000      0.00000000      1.00000000</v>
    <i type="logical" name="LSPIRAL"> F  </i>
    <v name="QSPIRAL">      0.00000000      0.00000000      0.00000000</v>
    <i type="logical" name="LZEROZ"> F  </i>
   </separator>
   <separator name="electronic exchange-correlation" >
    <i type="logical" name="LASPH"> F  </i>
    <i type="logical" name="LMETAGGA"> F  </i>
   </separator>
   <separator name="electronic convergence" >
    <i type="int" name="NELM">    60</i>
    <i type="int" name="NELMDL">    -5</i>
    <i type="int" name="NELMIN">     2</i>
    <i name="ENINI">    280.00000000</i>
    <separator name="electronic convergence detail" >
     <i type="logical" name="LDIAG"> T  </i>
     <i type="logical" name="LSUBROT"> F  </i>
     <i name="WEIMIN">      0.00100000</i>
     <i name="EBREAK">      0.00000021</i>
     <i name="DEPER">      0.30000000</i>
     <i type="int" name="NRMM">     4</i>
     <i name="TIME">      0.40000000</i>
    </separator>
   </separator>
   <separator name="electronic mixer" >
    <i name="AMIX">      0.40000000</i>
    <i name="BMIX">      1.00000000</i>
    <i name="AMIN">      0.10000000</i>
    <i name="AMIX_MAG">      1.60000000</i>
    <i name="BMIX_MAG">      1.00000000</i>
    <separator name="electronic mixer details" >
     <i type="int" name="IMIX">     4</i>
     <i type="logical" name="MIXFIRST"> F  </i>
     <i type="int" name="MAXMIX">   -45</i>
     <i name="WC">    100.00000000</i>
     <i type="int" name="INIMIX">     1</i>
     <i type="int" name="MIXPRE">     1</i>
     <i type="int" name="MREMOVE">     5</i>
    </separator>
   </separator>
   <separator name="electronic dipolcorrection" >
    <i type="logical" name="LDIPOL"> F  </i>
    <i type="logical" name="LMONO"> F  </i>
    <i type="int" name="IDIPOL">     0</i>
    <i name="EPSILON">      1.00000000</i>
    <v name="DIPOL">   -100.00000000   -100.00000000   -100.00000000</v>
    <i name="EFIELD">      0.00000000</i>
   </separator>
  </separator>
  <separator name="grids" >
   <i type="int" name="NGX">    42</i>
   <i type="int" name="NGY">    42</i>
   <i type="int" name="NGZ">   126</i>
   <i type="int" name="NGXF">    84</i>
   <i type="int" name="NGYF">    84</i>
   <i type="int" name="NGZF">   252</i>
   <i type="logical" name="ADDGRID"> F  </i>
  </separator>
  <separator name="ionic" >
   <i type="int" name="NSW">   100</i>
   <i type="int" name="IBRION">     1</i>
   <i type="int" name="ISIF">     3</i>
   <i name="PSTRESS">      0.00000000</i>
   <i name="EDIFFG">      0.00100000</i>
   <i type="int" name="NFREE">     0</i>
   <i name="POTIM">      0.50000000</i>
   <i name="SMASS">     -3.00000000</i>
   <i name="SCALEE">      1.00000000</i>
  </separator>
  <separator name="ionic md" >
   <i name="TEBEG">      0.00010000</i>
   <i name="TEEND">      0.00010000</i>
   <i type="int" name="NBLOCK">     1</i>
   <i type="int" name="KBLOCK">   100</i>
   <i type="int" name="NPACO">   256</i>
   <i name="APACO">     16.00000000</i>
  </separator>
  <separator name="symmetry" >
   <i type="int" name="ISYM">     0</i>
   <i name="SYMPREC">      0.00000001</i>
  </separator>
  <separator name="dos" >
   <i type="logical" name="LORBIT"> F  </i>
   <v name="RWIGS">     -1.00000000     -1.00000000     -1.00000000     -1.00000000</v>
   <i type="int" name="NEDOS">   301</i>
   <i name="EMIN">     10.00000000</i>
   <i name="EMAX">    -10.00000000</i>
   <i name="EFERMI">      0.00000000</i>
  </separator>
  <separator name="writing" >
   <i type="int" name="NWRITE">     2</i>
   <i type="logical" name="LWAVE"> F  </i>
   <i type="logical" name="LCHARG"> F  </i>
   <i type="logical" name="LPARD"> F  </i>
   <i type="logical" name="LVTOT"> F  </i>
   <i type="logical" name="LVHAR"> F  </i>
   <i type="logical" name="LELF"> F  </i>
   <i type="logical" name="LOPTICS"> F  </i>
   <v name="STM">      0.00000000      0.00000000      0.00000000      0.00000000      0.00000000      0.00000000      0.00000000</v>
  </separator>
  <separator name="performance" >
   <i type="int" name="NPAR">    40</i>
   <i type="int" name="NSIM">     4</i>
   <i type="int" name="NBLK">    -1</i>
   <i type="logical" name="LPLANE"> F  </i>
   <i type="logical" name="LSCALAPACK"> T  </i>
   <i type="logical" name="LSCAAWARE"> F  </i>
   <i type="logical" name="LSCALU"> F  </i>
   <i type="logical" name="LASYNC"> F  </i>
   <i type="logical" name="LORBITALREAL"> F  </i>
  </separator>
  <separator name="miscellaneous" >
   <i type="int" name="IDIOT">     3</i>
   <i type="logical" name="LMUSIC"> F  </i>
   <v name="POMASS">     50.94100000     95.94000000    183.85000000     32.06600000</v>
   <v name="DARWINR">      0.00000000      0.00000000      0.00000000      0.00000000</v>
   <v name="DARWINV">      1.00000000      1.00000000      1.00000000      1.00000000</v>
   <i type="logical" name="LCORR"> T  </i>
  </separator>
  <i type="logical" name="GGA_COMPAT"> T  </i>
  <i type="logical" name="LBERRY"> F  </i>
  <i type="int" name="ICORELEVEL">     0</i>
  <i type="logical" name="LDAU"> F  </i>
  <i type="int" name="I_CONSTRAINED_M">     0</i>
  <separator name="electronic exchange-correlation" >
   <i type="string" name="GGA">--</i>
   <i type="int" name="VOSKOWN">     0</i>
   <i type="logical" name="LHFCALC"> F  </i>
   <i type="string" name="PRECFOCK"></i>
   <i type="logical" name="LSYMGRAD"> F  </i>
   <i type="logical" name="LHFONE"> F  </i>
   <i type="logical" name="LRHFCALC"> F  </i>
   <i type="logical" name="LTHOMAS"> F  </i>
   <i type="logical" name="LMODELHF"> F  </i>
   <i name="ENCUT4O">     -1.00000000</i>
   <i type="int" name="EXXOEP">     0</i>
   <i type="int" name="FOURORBIT">     0</i>
   <i name="AEXX">      0.00000000</i>
   <i name="HFALPHA">      0.00000000</i>
   <i name="MCALPHA">      0.00000000</i>
   <i name="ALDAX">      1.00000000</i>
   <i name="AGGAX">      1.00000000</i>
   <i name="ALDAC">      1.00000000</i>
   <i name="AGGAC">      1.00000000</i>
   <i type="int" name="NKREDX">     1</i>
   <i type="int" name="NKREDY">     1</i>
   <i type="int" name="NKREDZ">     1</i>
   <i type="logical" name="SHIFTRED"> F  </i>
   <i type="logical" name="ODDONLY"> F  </i>
   <i type="logical" name="EVENONLY"> F  </i>
   <i type="int" name="LMAXFOCK">     0</i>
   <i type="int" name="NMAXFOCKAE">     0</i>
   <i type="logical" name="LFOCKAEDFT"> F  </i>
   <i name="HFSCREEN">      0.00000000</i>
   <i name="HFSCREENC">      0.00000000</i>
   <i type="int" name="NBANDSGWLOW">     0</i>
  </separator>
  <separator name="vdW DFT" >
   <i type="logical" name="LUSE_VDW"> F  </i>
   <i name="Zab_VDW">     -0.84910000</i>
   <i name="PARAM1">      0.12340000</i>
   <i name="PARAM2">      1.00000000</i>
   <i name="PARAM3">      0.00000000</i>
  </separator>
  <separator name="model GW" >
   <i type="int" name="MODEL_GW">     0</i>
   <i name="MODEL_EPS0">     58.26239943</i>
   <i name="MODEL_ALPHA">      1.00000000</i>
  </separator>
  <separator name="linear response parameters" >
   <i type="logical" name="LEPSILON"> F  </i>
   <i type="logical" name="LRPA"> F  </i>
   <i type="logical" name="LNABLA"> F  </i>
   <i type="logical" name="LVEL"> F  </i>
   <i type="int" name="KINTER">     0</i>
   <i name="CSHIFT">      0.10000000</i>
   <i name="OMEGAMAX">     -1.00000000</i>
   <i name="DEG_THRESHOLD">      0.00200000</i>
  </separator>
  <separator name="orbital magnetization" >
   <i type="logical" name="NUCIND"> F  </i>
   <v name="MAGPOS">      0.00000000      0.00000000      0.00000000</v>
   <i type="logical" name="LNICSALL"> T  </i>
   <i type="logical" name="ORBITALMAG"> F  </i>
   <i type="logical" name="LMAGBLOCH"> F  </i>
   <i type="logical" name="LCHIMAG"> F  </i>
   <i type="logical" name="LGAUGE"> T  </i>
   <i type="int" name="MAGATOM">     0</i>
   <v name="MAGDIPOL">      0.00000000      0.00000000      0.00000000</v>
   <v name="AVECCONST">      0.00000000      0.00000000      0.00000000</v>
  </separator>
  <separator name="response functions" >
   <i type="logical" name="LADDER"> F  </i>
   <i type="logical" name="LFXC"> F  </i>
   <i type="logical" name="LHARTREE"> T  </i>
   <i type="int" name="IBSE">     0</i>
   <v type="int" name="KPOINT">    -1     0     0     0</v>
   <i type="logical" name="LTCTE"> F  </i>
   <i type="logical" name="LTETE"> F  </i>
   <i type="logical" name="LTRIPLET"> F  </i>
   <i type="logical" name="LFXCEPS"> F  </i>
   <i type="logical" name="LFXHEG"> F  </i>
   <i type="int" name="NATURALO">     0</i>
   <i type="logical" name="L2ORDER"> F  </i>
   <i type="logical" name="LUSEW"> F  </i>
   <i name="ENCUTGW">     -2.00000000</i>
   <i name="ENCUTGWSOFT">     -2.00000000</i>
   <i name="ENCUTLF">     -1.00000000</i>
   <i type="int" name="LMAXMP2">    -1</i>
   <i name="SCISSOR">      0.00000000</i>
   <i type="int" name="NOMEGA">     0</i>
   <i type="int" name="NOMEGAR">     0</i>
   <i type="int" name="NBANDSGW">    -1</i>
   <i type="int" name="NBANDSO">    -1</i>
   <i type="int" name="NBANDSV">    -1</i>
   <i type="int" name="NELM">     1</i>
   <i type="int" name="NELMHF">     1</i>
   <i type="int" name="DIM">     3</i>
   <i type="int" name="ANTIRES">     0</i>
   <i name="OMEGAMAX">    -30.00000000</i>
   <i name="OMEGAMIN">    -30.00000000</i>
   <i name="OMEGATL">   -200.00000000</i>
   <i type="int" name="OMEGAGRID">     0</i>
   <i name="CSHIFT">     -0.10000000</i>
   <i type="logical" name="SELFENERGY"> F  </i>
   <i type="logical" name="LSPECTRAL"> F  </i>
   <i type="logical" name="LSPECTRALGW"> F  </i>
   <i type="logical" name="LSINGLES"> F  </i>
   <i type="logical" name="LFERMIGW"> F  </i>
   <i type="logical" name="ODDONLYGW"> F  </i>
   <i type="logical" name="EVENONLYGW"> F  </i>
   <i type="int" name="NKREDLFX">     1</i>
   <i type="int" name="NKREDLFY">     1</i>
   <i type="int" name="NKREDLFZ">     1</i>
   <i type="int" name="MAXMEM">  1800</i>
   <i type="int" name="TELESCOPE">     0</i>
   <i type="int" name="TAUPAR">     1</i>
   <i type="int" name="OMEGAPAR">    -1</i>
   <i name="LAMBDA">      1.00000000</i>
  </separator>
  <separator name="External order field" >
   <i name="OFIELD_KAPPA">      0.00000000</i>
   <v name="OFIELD_K">      0.00000000      0.00000000      0.00000000</v>
   <i name="OFIELD_Q6_NEAR">      0.00000000</i>
   <i name="OFIELD_Q6_FAR">      0.00000000</i>
   <i name="OFIELD_A">      0.00000000</i>
  </separator>
 </parameters>
 <atominfo>
  <atoms>      27 </atoms>
  <types>       4 </types>
  <array name="atoms" >
   <dimension dim="1">ion</dimension>
   <field type="string">element</field>
   <field type="int">atomtype</field>
   <set>
    <rc><c>V </c><c>   1</c></rc>
    <rc><c>V </c><c>   1</c></rc>
    <rc><c>V </c><c>   1</c></rc>
    <rc><c>Mo</c><c>   2</c></rc>
    <rc><c>Mo</c><c>   2</c></rc>
    <rc><c>Mo</c><c>   2</c></rc>
    <rc><c>W </c><c>   3</c></rc>
    <rc><c>W </c><c>   3</c></rc>
    <rc><c>W </c><c>   3</c></rc>
    <rc><c>S </c><c>   4</c></rc>
    <rc><c>S </c><c>   4</c></rc>
    <rc><c>S </c><c>   4</c></rc>
    <rc><c>S </c><c>   4</c></rc>
    <rc><c>S </c><c>   4</c></rc>
    <rc><c>S </c><c>   4</c></rc>
    <rc><c>S </c><c>   4</c></rc>
    <rc><c>S </c><c>   4</c></rc>
    <rc><c>S </c><c>   4</c></rc>
    <rc><c>S </c><c>   4</c></rc>
    <rc><c>S </c><c>   4</c></rc>
    <rc><c>S </c><c>   4</c></rc>
    <rc><c>S </c><c>   4</c></rc>
    <rc><c>S </c><c>   4</c></rc>
    <rc><c>S </c><c>   4</c></rc>
    <rc><c>S </c><c>   4</c></rc>
    <rc><c>S </c><c>   4</c></rc>
    <rc><c>S </c><c>   4</c></rc>
   </set>
  </array>
  <array name="atomtypes" >
   <dimension dim="1">type</dimension>
   <field type="int">atomspertype</field>
   <field type="string">element</field>
   <field>mass</field>
   <field>valence</field>
   <field type="string">pseudopotential</field>
   <set>
    <rc><c>   3</c><c>V </c><c>     50.94100000</c><c>      5.00000000</c><c> PAW_PBE V 08Apr2002                    </c></rc>
    <rc><c>   3</c><c>Mo</c><c>     95.94000000</c><c>      6.00000000</c><c> PAW_PBE Mo 08Apr2002                   </c></rc>
    <rc><c>   3</c><c>W </c><c>    183.85000000</c><c>      6.00000000</c><c> PAW_PBE W 08Apr2002                    </c></rc>
    <rc><c>  18</c><c>S </c><c>     32.06600000</c><c>      6.00000000</c><c>  PAW_PBE S 17Jan2003                   </c></rc>
   </set>
  </array>
 </atominfo>
 <structure name="initialpos" >
  <crystal>
   <varray name="basis" >
    <v>       8.66999996       5.03999989       0.00000000 </v>
    <v>      -8.66999982       5.04000013       0.00000000 </v>
    <v>       0.00000000       0.00000000      30.00000000 </v>
   </varray>
   <i name="volume">   2621.80797419 </i>
   <varray name="rec_basis" >
    <v>       0.05767013       0.09920635       0.00000000 </v>
    <v>      -0.05767013       0.09920635       0.00000000 </v>
    <v>       0.00000000       0.00000000       0.03333333 </v>
   </varray>
  </crystal>
  <varray name="positions" >
   <v>       0.33333334       0.33333334       0.00000000 </v>
   <v>       1.00000000       0.33333334       0.00000000 </v>
   <v>       0.66666669       0.66666669       0.00000000 </v>
   <v>       0.00000000       0.00000000       0.00000000 </v>
   <v>       0.66666669       0.00000000       0.00000000 </v>
   <v>       0.66666669       0.33333334       0.00000000 </v>
   <v>       0.00000000       0.66666669       0.00000000 </v>
   <v>       0.33333334       0.00000000       0.00000000 </v>
   <v>       0.33333334       0.66666669       0.00000000 </v>
   <v>       0.11068511       0.22244981       0.95539999 </v>
   <v>       0.22244981       0.11068511       0.04460000 </v>
   <v>       0.11068511       0.55578315       0.95539999 </v>
   <v>       0.22244981       0.44401845       0.04460000 </v>
   <v>       0.11068511       0.88911647       0.95539999 </v>
   <v>       0.22244981       0.77735180       0.04460000 </v>
   <v>       0.44401845       0.22244981       0.95539999 </v>
   <v>       0.55578315       0.11068511       0.04460000 </v>
   <v>       0.44401845       0.55578315       0.95539999 </v>
   <v>       0.55578315       0.44401845       0.04460000 </v>
   <v>       0.44401845       0.88911647       0.95539999 </v>
   <v>       0.55578315       0.77735180       0.04460000 </v>
   <v>       0.77735180       0.22244981       0.95539999 </v>
   <v>       0.88911647       0.11068511       0.04460000 </v>
   <v>       0.77735180       0.55578315       0.95539999 </v>
   <v>       0.88911647       0.44401845       0.04460000 </v>
   <v>       0.77735180       0.88911647       0.95539999 </v>
   <v>       0.88911647       0.77735180       0.04460000 </v>
  </varray>
 </structure>
 <calculation>
  <scstep>
   <time name="dav">   32.37   32.45</time>
   <time name="total">   32.43   32.52</time>
   <energy>
    <i name="alphaZ">     81.65567618 </i>
    <i name="ewald">  41890.23011081 </i>
    <i name="hartreedc"> -47722.87379857 </i>
    <i name="XCdc">   -242.92724137 </i>
    <i name="pawpsdc">   3467.42045192 </i>
    <i name="pawaedc">  -2871.19716117 </i>
    <i name="eentropy">     -0.52366584 </i>
    <i name="bandstr">   -239.48845443 </i>
    <i name="atom">   6761.44252427 </i>
    <i name="e_fr_energy">   1123.73844180 </i>
    <i name="e_wo_entrp">   1124.26210764 </i>
    <i name="e_0_energy">   1124.00027472 </i>
   </energy>
  </scstep>
  <scstep>
   <time name="dav">   41.66   41.76</time>
   <time name="total">   41.66   41.77</time>
   <energy>
    <i name="e_fr_energy">     -3.08387621 </i>
    <i name="e_wo_entrp">     -2.89053454 </i>
    <i name="e_0_energy">     -2.98720537 </i>
   </energy>
  </scstep>
  <scstep>
   <time name="dav">   40.65   40.75</time>
   <time name="total">   40.65   40.76</time>
   <energy>
    <i name="e_fr_energy">   -199.79694093 </i>
    <i name="e_wo_entrp">   -199.53767038 </i>
    <i name="e_0_energy">   -199.66730566 </i>
   </energy>
  </scstep>
  <scstep>
   <time name="dav">   44.15   44.26</time>
   <time name="total">   44.16   44.27</time>
   <energy>
    <i name="e_fr_energy">   -209.00417616 </i>
    <i name="e_wo_entrp">   -208.70529033 </i>
    <i name="e_0_energy">   -208.85473325 </i>
   </energy>
  </scstep>
  <scstep>
   <time name="dav">   42.88   42.98</time>
   <time name="total">   43.47   43.59</time>
   <energy>
    <i name="e_fr_energy">   -209.32547812 </i>
    <i name="e_wo_entrp">   -209.02946741 </i>
    <i name="e_0_energy">   -209.17747277 </i>
   </energy>
  </scstep>
  <scstep>
   <time name="dav">   45.59   45.70</time>
   <time name="total">   46.23   46.35</time>
   <energy>
    <i name="e_fr_energy">   -236.78378421 </i>
    <i name="e_wo_entrp">   -236.50612777 </i>
    <i name="e_0_energy">   -236.64495599 </i>
   </energy>
  </scstep>
  <scstep>
   <time name="dav">   47.39   47.50</time>
   <time name="total">   48.06   48.19</time>
   <energy>
    <i name="e_fr_energy">   -196.50712188 </i>
    <i name="e_wo_entrp">   -196.19241585 </i>
    <i name="e_0_energy">   -196.34976886 </i>
   </energy>
  </scstep>
  <scstep>
   <time name="dav">   43.90   44.01</time>
   <time name="total">   44.58   44.70</time>
   <energy>
    <i name="e_fr_energy">   -189.37937531 </i>
    <i name="e_wo_entrp">   -189.08284701 </i>
    <i name="e_0_energy">   -189.23111116 </i>
   </energy>
  </scstep>
  <scstep>
   <time name="dav">   47.60   47.71</time>
   <time name="total">   48.29   48.41</time>
   <energy>
    <i name="e_fr_energy">   -188.12110856 </i>
    <i name="e_wo_entrp">   -187.78713822 </i>
    <i name="e_0_energy">   -187.95412339 </i>
   </energy>
  </scstep>
  <scstep>
   <time name="dav">   48.50   48.61</time>
   <time name="total">   49.20   49.34</time>
   <energy>
    <i name="e_fr_energy">   -187.01017343 </i>
    <i name="e_wo_entrp">   -186.66472648 </i>
    <i name="e_0_energy">   -186.83744996 </i>
   </energy>
  </scstep>
  <scstep>
   <time name="dav">   47.72   47.83</time>
   <time name="total">   48.42   48.54</time>
   <energy>
    <i name="e_fr_energy">   -186.97218459 </i>
    <i name="e_wo_entrp">   -186.62090862 </i>
    <i name="e_0_energy">   -186.79654660 </i>
   </energy>
  </scstep>
  <scstep>
   <time name="dav">   45.28   45.39</time>
   <time name="total">   45.98   46.10</time>
   <energy>
    <i name="e_fr_energy">   -187.10386680 </i>
    <i name="e_wo_entrp">   -186.76396414 </i>
    <i name="e_0_energy">   -186.93391547 </i>
   </energy>
  </scstep>
  <scstep>
   <time name="dav">   46.58   46.70</time>
   <time name="total">   47.28   47.41</time>
   <energy>
    <i name="e_fr_energy">   -186.88810764 </i>
    <i name="e_wo_entrp">   -186.55248978 </i>
    <i name="e_0_energy">   -186.72029871 </i>
   </energy>
  </scstep>
  <scstep>
   <time name="dav">   47.83   47.95</time>
   <time name="total">   48.53   48.66</time>
   <energy>
    <i name="e_fr_energy">   -186.86392023 </i>
    <i name="e_wo_entrp">   -186.52038642 </i>
    <i name="e_0_energy">   -186.69215333 </i>
   </energy>
  </scstep>
  <scstep>
   <time name="dav">   45.52   45.63</time>
   <time name="total">   46.22   46.34</time>
   <energy>
    <i name="e_fr_energy">   -186.83993948 </i>
    <i name="e_wo_entrp">   -186.49352965 </i>
    <i name="e_0_energy">   -186.66673456 </i>
   </energy>
  </scstep>
  <scstep>
   <time name="dav">   44.11   44.22</time>
   <time name="total">   44.81   44.93</time>
   <energy>
    <i name="e_fr_energy">   -186.83313554 </i>
    <i name="e_wo_entrp">   -186.48667721 </i>
    <i name="e_0_energy">   -186.65990638 </i>
   </energy>
  </scstep>
  <scstep>
   <time name="dav">   46.34   46.45</time>
   <time name="total">   47.05   47.17</time>
   <energy>
    <i name="e_fr_energy">   -186.83143203 </i>
    <i name="e_wo_entrp">   -186.48700692 </i>
    <i name="e_0_energy">   -186.65921948 </i>
   </energy>
  </scstep>
  <scstep>
   <time name="dav">   43.95   44.06</time>
   <time name="total">   44.66   44.78</time>
   <energy>
    <i name="e_fr_energy">   -186.83065262 </i>
    <i name="e_wo_entrp">   -186.48631701 </i>
    <i name="e_0_energy">   -186.65848482 </i>
   </energy>
  </scstep>
  <scstep>
   <time name="dav">   41.34   41.44</time>
   <time name="total">   42.05   42.16</time>
   <energy>
    <i name="e_fr_energy">   -186.83026815 </i>
    <i name="e_wo_entrp">   -186.48540252 </i>
    <i name="e_0_energy">   -186.65783533 </i>
   </energy>
  </scstep>
  <scstep>
   <time name="dav">   35.30   35.38</time>
   <time name="total">   36.00   36.10</time>
   <energy>
    <i name="e_fr_energy">   -186.83105107 </i>
    <i name="e_wo_entrp">   -186.48648703 </i>
    <i name="e_0_energy">   -186.65876905 </i>
   </energy>
  </scstep>
  <scstep>
   <time name="dav">   32.48   32.56</time>
   <time name="total">   33.18   33.27</time>
   <energy>
    <i name="e_fr_energy">   -186.83166100 </i>
    <i name="e_wo_entrp">   -186.48715395 </i>
    <i name="e_0_energy">   -186.65940747 </i>
   </energy>
  </scstep>
  <scstep>
   <time name="dav">   30.02   30.09</time>
   <time name="total">   30.73   30.81</time>
   <energy>
    <i name="e_fr_energy">   -186.83276197 </i>
    <i name="e_wo_entrp">   -186.48811380 </i>
    <i name="e_0_energy">   -186.66043789 </i>
   </energy>
  </scstep>
  <scstep>
   <time name="dav">   30.33   30.40</time>
   <time name="total">   31.04   31.12</time>
   <energy>
    <i name="e_fr_energy">   -186.83399104 </i>
    <i name="e_wo_entrp">   -186.48945255 </i>
    <i name="e_0_energy">   -186.66172179 </i>
   </energy>
  </scstep>
  <scstep>
   <time name="dav">   28.01   28.08</time>
   <time name="total">   28.72   28.80</time>
   <energy>
    <i name="e_fr_energy">   -186.83458515 </i>
    <i name="e_wo_entrp">   -186.49002157 </i>
    <i name="e_0_energy">   -186.66230336 </i>
   </energy>
  </scstep>
  <scstep>
   <time name="dav">   24.17   24.23</time>
   <time name="total">   24.89   24.96</time>
   <energy>
    <i name="e_fr_energy">   -186.83494044 </i>
    <i name="e_wo_entrp">   -186.49034263 </i>
    <i name="e_0_energy">   -186.66264153 </i>
   </energy>
  </scstep>
  <scstep>
   <time name="dav">   28.32   28.39</time>
   <time name="total">   29.02   29.10</time>
   <energy>
    <i name="e_fr_energy">   -186.83518496 </i>
    <i name="e_wo_entrp">   -186.49060406 </i>
    <i name="e_0_energy">   -186.66289451 </i>
   </energy>
  </scstep>
  <scstep>
   <time name="dav">   29.60   29.67</time>
   <time name="total">   29.65   29.73</time>
   <energy>
    <i name="alphaZ">     81.65567618 </i>
    <i name="ewald">  41890.23011081 </i>
    <i name="hartreedc"> -47832.84024424 </i>
    <i name="XCdc">   -231.61126016 </i>
    <i name="pawpsdc">   4192.05625741 </i>
    <i name="pawaedc">  -3610.05803926 </i>
    <i name="eentropy">     -0.34458482 </i>
    <i name="bandstr">  -1437.36572321 </i>
    <i name="atom">   6761.44252427 </i>
    <i name="e_fr_energy">   -186.83528302 </i>
    <i name="e_wo_entrp">   -186.49069820 </i>
    <i name="e_0_energy">   -186.66299061 </i>
   </energy>
  </scstep>
  <structure>
   <crystal>
    <varray name="basis" >
     <v>       8.66999996       5.03999989       0.00000000 </v>
     <v>      -8.66999982       5.04000013       0.00000000 </v>
     <v>       0.00000000       0.00000000      30.00000000 </v>
    </varray>
    <i name="volume">   2621.80797419 </i>
    <varray name="rec_basis" >
     <v>       0.05767013       0.09920635       0.00000000 </v>
     <v>      -0.05767013       0.09920635       0.00000000 </v>
     <v>       0.00000000       0.00000000       0.03333333 </v>
    </varray>
   </crystal>
   <varray name="positions" >
    <v>       0.33333334       0.33333334       0.00000000 </v>
    <v>       1.00000000       0.33333334       0.00000000 </v>
    <v>       0.66666669       0.66666669       0.00000000 </v>
    <v>       0.00000000       0.00000000       0.00000000 </v>
    <v>       0.66666669       0.00000000       0.00000000 </v>
    <v>       0.66666669       0.33333334       0.00000000 </v>
    <v>       0.00000000       0.66666669       0.00000000 </v>
    <v>       0.33333334       0.00000000       0.00000000 </v>
    <v>       0.33333334       0.66666669       0.00000000 </v>
    <v>       0.11068511       0.22244981       0.95539999 </v>
    <v>       0.22244981       0.11068511       0.04460000 </v>
    <v>       0.11068511       0.55578315       0.95539999 </v>
    <v>       0.22244981       0.44401845       0.04460000 </v>
    <v>       0.11068511       0.88911647       0.95539999 </v>
    <v>       0.22244981       0.77735180       0.04460000 </v>
    <v>       0.44401845       0.22244981       0.95539999 </v>
    <v>       0.55578315       0.11068511       0.04460000 </v>
    <v>       0.44401845       0.55578315       0.95539999 </v>
    <v>       0.55578315       0.44401845       0.04460000 </v>
    <v>       0.44401845       0.88911647       0.95539999 </v>
    <v>       0.55578315       0.77735180       0.04460000 </v>
    <v>       0.77735180       0.22244981       0.95539999 </v>
    <v>       0.88911647       0.11068511       0.04460000 </v>
    <v>       0.77735180       0.55578315       0.95539999 </v>
    <v>       0.88911647       0.44401845       0.04460000 </v>
    <v>       0.77735180       0.88911647       0.95539999 </v>
    <v>       0.88911647       0.77735180       0.04460000 </v>
   </varray>
  </structure>
  <varray name="forces" >
   <v>       0.13470478      -0.06387565       0.02914756 </v>
   <v>       0.08714060      -0.44463069      -0.11635657 </v>
   <v>       0.00275911       0.16206896       0.12051837 </v>
   <v>      -0.30353600      -0.11850895      -0.07194074 </v>
   <v>       0.01820380       0.28758332      -0.14581538 </v>
   <v>       0.19314950      -0.13116441       0.07027801 </v>
   <v>      -0.27539140      -0.20769136       0.11836306 </v>
   <v>      -0.04009316       0.33325679       0.00518730 </v>
   <v>       0.13585546       0.22835460       0.01332338 </v>
   <v>      -0.34657016       0.65984057      -1.43214092 </v>
   <v>      -0.35467709       0.68706104       2.15546711 </v>
   <v>       0.49129996      -0.59075981      -2.15314824 </v>
   <v>       0.23382228      -0.51844107       1.38887477 </v>
   <v>       0.28365213       0.02680481      -2.85464970 </v>
   <v>      -0.15461257      -0.00551459       2.92850582 </v>
   <v>      -0.65536737      -0.16151453      -2.13851261 </v>
   <v>      -0.21835438      -0.16484487       2.88470734 </v>
   <v>       0.73762361      -0.00384865      -1.46378325 </v>
   <v>      -0.89922623       0.01124912       1.44091139 </v>
   <v>       0.05375217      -0.11643612      -2.91865185 </v>
   <v>       0.69480478      -0.16296583       2.11611826 </v>
   <v>       0.54452189       0.70731856      -2.20015863 </v>
   <v>      -0.51030108       0.70040685       2.18083844 </v>
   <v>      -0.65627024       0.13991802      -2.11224557 </v>
   <v>       0.65269126       0.16577071       2.09466648 </v>
   <v>       0.51033021      -0.68903642      -2.14484270 </v>
   <v>      -0.35991184      -0.73040042       2.20533886 </v>
  </varray>
  <varray name="stress" >
   <v>       7.30037772      -0.03625082      -1.53304635 </v>
   <v>      -0.03625099       4.44108298       0.00830862 </v>
   <v>      -1.53304623       0.00830853      30.32672457 </v>
  </varray>
  <energy>
   <i name="e_fr_energy">   -186.83528302 </i>
   <i name="e_wo_entrp">   -186.66299061 </i>
   <i name="e_0_energy">     -0.34458482 </i>
  </energy>
  <time name="totalsc"> 1159.31 1162.39</time>
 </calculation>
 <calculation>
  <scstep>
   <time name="dav">   32.29   32.37</time>
   <time name="total">   33.00   33.08</time>
   <energy>
    <i name="alphaZ">     78.92429268 </i>
    <i name="ewald">  39380.89757122 </i>
    <i name="hartreedc"> -45338.32893064 </i>
    <i name="XCdc">   -239.06901214 </i>
    <i name="pawpsdc">   4192.03063683 </i>
    <i name="pawaedc">  -3610.03271628 </i>
    <i name="eentropy">     -0.28628675 </i>
    <i name="bandstr">  -1413.02854494 </i>
    <i name="atom">   6761.44252427 </i>
    <i name="e_fr_energy">   -187.45046573 </i>
    <i name="e_wo_entrp">   -187.16417899 </i>
    <i name="e_0_energy">   -187.30732236 </i>
   </energy>
  </scstep>
  <scstep>
   <time name="dav">   44.56   44.66</time>
   <time name="total">   45.26   45.38</time>
   <energy>
    <i name="e_fr_energy">   -189.25478370 </i>
    <i name="e_wo_entrp">   -188.94033037 </i>
    <i name="e_0_energy">   -189.09755704 </i>
   </energy>
  </scstep>
  <scstep>
   <time name="dav">   45.04   45.15</time>
   <time name="total">   45.75   45.87</time>
   <energy>
    <i name="e_fr_energy">   -189.35690438 </i>
    <i name="e_wo_entrp">   -189.07916053 </i>
    <i name="e_0_energy">   -189.21803246 </i>
   </energy>
  </scstep>
  <scstep>
   <time name="dav">   45.75   45.86</time>
   <time name="total">   46.45   46.57</time>
   <energy>
    <i name="e_fr_energy">   -188.72079079 </i>
    <i name="e_wo_entrp">   -188.43472454 </i>
    <i name="e_0_energy">   -188.57775766 </i>
   </energy>
  </scstep>
  <scstep>
   <time name="dav">   40.45   40.55</time>
   <time name="total">   41.15   41.27</time>
   <energy>
    <i name="e_fr_energy">   -188.72797659 </i>
    <i name="e_wo_entrp">   -188.44090796 </i>
    <i name="e_0_energy">   -188.58444228 </i>
   </energy>
  </scstep>
  <scstep>
   <time name="dav">   41.67   41.77</time>
   <time name="total">   42.38   42.49</time>
   <energy>
    <i name="e_fr_energy">   -188.64966866 </i>
    <i name="e_wo_entrp">   -188.36445494 </i>
    <i name="e_0_energy">   -188.50706180 </i>
   </energy>
  </scstep>
  <scstep>
   <time name="dav">   45.09   45.20</time>
   <time name="total">   45.80   45.92</time>
   <energy>
    <i name="e_fr_energy">   -188.65733036 </i>
    <i name="e_wo_entrp">   -188.36922807 </i>
    <i name="e_0_energy">   -188.51327921 </i>
   </energy>
  </scstep>
  <scstep>
   <time name="dav">   47.73   47.84</time>
   <time name="total">   48.44   48.56</time>
   <energy>
    <i name="e_fr_energy">   -188.63008018 </i>
    <i name="e_wo_entrp">   -188.34559282 </i>
    <i name="e_0_energy">   -188.48783650 </i>
   </energy>
  </scstep>
  <scstep>
   <time name="dav">   42.82   42.93</time>
   <time name="total">   43.54   43.66</time>
   <energy>
    <i name="e_fr_energy">   -188.62668795 </i>
    <i name="e_wo_entrp">   -188.34191883 </i>
    <i name="e_0_energy">   -188.48430339 </i>
   </energy>
  </scstep>
  <scstep>
   <time name="dav">   48.14   48.25</time>
   <time name="total">   48.84   48.97</time>
   <energy>
    <i name="e_fr_energy">   -188.62778153 </i>
    <i name="e_wo_entrp">   -188.34337014 </i>
    <i name="e_0_energy">   -188.48557583 </i>
   </energy>
  </scstep>
  <scstep>
   <time name="dav">   46.51   46.63</time>
   <time name="total">   47.24   47.58</time>
   <energy>
    <i name="e_fr_energy">   -188.62615822 </i>
    <i name="e_wo_entrp">   -188.34187806 </i>
    <i name="e_0_energy">   -188.48401814 </i>
   </energy>
  </scstep>
  <scstep>
   <time name="dav">   43.51   43.62</time>
   <time name="total">   43.56   43.68</time>
   <energy>
    <i name="alphaZ">     78.92429268 </i>
    <i name="ewald">  39380.89757122 </i>
    <i name="hartreedc"> -45349.39598655 </i>
    <i name="XCdc">   -237.97615710 </i>
    <i name="pawpsdc">   3952.87780729 </i>
    <i name="pawaedc">  -3367.40924808 </i>
    <i name="eentropy">     -0.28382698 </i>
    <i name="bandstr">  -1407.70307619 </i>
    <i name="atom">   6761.44252427 </i>
    <i name="e_fr_energy">   -188.62609944 </i>
    <i name="e_wo_entrp">   -188.34227245 </i>
    <i name="e_0_energy">   -188.48418595 </i>
   </energy>
  </scstep>
  <structure>
   <crystal>
    <varray name="basis" >
     <v>       8.85452985       5.10452604       0.00000000 </v>
     <v>      -8.85559812       5.10636419       0.00000000 </v>
     <v>       0.00000000       0.00000000      30.00000000 </v>
    </varray>
    <i name="volume">   2712.54256029 </i>
    <varray name="rec_basis" >
     <v>       0.05647503       0.09794056       0.00000000 </v>
     <v>      -0.05645470       0.09792875       0.00000000 </v>
     <v>       0.00000000       0.00000000       0.03333333 </v>
    </varray>
   </crystal>
   <varray name="positions" >
    <v>       0.33340241       0.33265287       0.00004687 </v>
    <v>       0.99811445       0.33096291      -0.00018711 </v>
    <v>       0.66745002       0.66743467       0.00019380 </v>
    <v>      -0.00141167       0.00027730      -0.00011569 </v>
    <v>       0.66809370       0.00132572      -0.00023448 </v>
    <v>       0.66657631       0.33216822       0.00011301 </v>
    <v>      -0.00176019       0.66643886       0.00019034 </v>
    <v>       0.33481676       0.00170651       0.00000834 </v>
    <v>       0.33480421       0.66738161       0.00002143 </v>
    <v>       0.11287888       0.22657201       0.95309698 </v>
    <v>       0.22475130       0.11496014       0.04806618 </v>
    <v>       0.10922462       0.55158891       0.95193754 </v>
    <v>       0.22061909       0.44088668       0.04683343 </v>
    <v>       0.11160256       0.88845559       0.95080946 </v>
    <v>       0.22199326       0.77775556       0.04930930 </v>
    <v>       0.44142211       0.22350014       0.95196107 </v>
    <v>       0.55438671       0.11050366       0.04923886 </v>
    <v>       0.44605222       0.55371255       0.95304610 </v>
    <v>       0.55333520       0.44657408       0.04691711 </v>
    <v>       0.44361074       0.88840966       0.95070654 </v>
    <v>       0.55693626       0.77463879       0.04800290 </v>
    <v>       0.78225195       0.22432007       0.95186194 </v>
    <v>       0.89104886       0.11545698       0.04810698 </v>
    <v>       0.77619559       0.55827865       0.95200331 </v>
    <v>       0.89172573       0.44299594       0.04796841 </v>
    <v>       0.77547390       0.88439893       0.95195089 </v>
    <v>       0.88461945       0.77485745       0.04814638 </v>
   </varray>
  </structure>
  <varray name="forces" >
   <v>       0.17147817      -0.08428367       0.09062914 </v>
   <v>       0.03407053      -0.44285619      -0.04613185 </v>
   <v>       0.04870198       0.21126941       0.03830823 </v>
   <v>      -0.12450307      -0.20106301      -0.08475975 </v>
   <v>      -0.15272502       0.19460050      -0.04403064 </v>
   <v>       0.29001996      -0.23287729       0.07411964 </v>
   <v>      -0.23741683      -0.04590011      -0.04892850 </v>
   <v>       0.13347027       0.25324321       0.01116015 </v>
   <v>      -0.15538823       0.29943729       0.01006464 </v>
   <v>      -0.01786850       0.04225578       0.02938420 </v>
   <v>       0.08913561       0.05097350      -0.05365928 </v>
   <v>      -0.04982013       0.05539213       0.22008126 </v>
   <v>      -0.05981221       0.07403510      -0.22332613 </v>
   <v>       0.12852926      -0.00636354       0.10085531 </v>
   <v>      -0.00637465       0.00438703      -0.10133273 </v>
   <v>       0.01070460      -0.08963665      -0.07170763 </v>
   <v>      -0.03253572      -0.10872950       0.14020811 </v>
   <v>      -0.09397989       0.00293992       0.15745327 </v>
   <v>      -0.02997639      -0.00620410      -0.12454966 </v>
   <v>      -0.07277399      -0.08669559      -0.04723244 </v>
   <v>      -0.01022954      -0.09425995       0.00213141 </v>
   <v>       0.03942986       0.08369421      -0.20254265 </v>
   <v>      -0.02990119       0.07873643       0.11501951 </v>
   <v>       0.01518090       0.08855347       0.05206721 </v>
   <v>      -0.00056554       0.11537785      -0.01262360 </v>
   <v>       0.02895117      -0.07861474      -0.08485649 </v>
   <v>       0.08419859      -0.07741149       0.10419928 </v>
  </varray>
  <varray name="stress" >
   <v>     -19.99835075       0.01839221       0.01705545 </v>
   <v>       0.01839240     -19.60198946       0.02502043 </v>
   <v>       0.01705572       0.02502025      -1.83564796 </v>
  </varray>
  <energy>
   <i name="e_fr_energy">   -188.62609944 </i>
   <i name="e_wo_entrp">   -188.48418595 </i>
   <i name="e_0_energy">     -0.28382698 </i>
  </energy>
  <time name="totalsc">  593.96  595.72</time>
 </calculation>
 <calculation>
  <scstep>
   <time name="dav">   35.38   35.47</time>
   <time name="total">   36.08   36.17</time>
   <energy>
    <i name="alphaZ">     82.35488913 </i>
    <i name="ewald">  41307.28564465 </i>
    <i name="hartreedc"> -47306.36572445 </i>
    <i name="XCdc">   -233.85093005 </i>
    <i name="pawpsdc">   3950.49512353 </i>
    <i name="pawaedc">  -3364.99918578 </i>
    <i name="eentropy">     -0.23580779 </i>
    <i name="bandstr">  -1386.66815231 </i>
    <i name="atom">   6761.44252427 </i>
    <i name="e_fr_energy">   -190.54161880 </i>
    <i name="e_wo_entrp">   -190.30581101 </i>
    <i name="e_0_energy">   -190.42371491 </i>
   </energy>
  </scstep>
  <scstep>
   <time name="dav">   41.94   42.04</time>
   <time name="total">   42.63   42.74</time>
   <energy>
    <i name="e_fr_energy">   -190.56093773 </i>
    <i name="e_wo_entrp">   -190.32308740 </i>
    <i name="e_0_energy">   -190.44201257 </i>
   </energy>
  </scstep>
  <scstep>
   <time name="dav">   44.76   44.87</time>
   <time name="total">   45.46   45.57</time>
   <energy>
    <i name="e_fr_energy">   -190.00742261 </i>
    <i name="e_wo_entrp">   -189.76006388 </i>
    <i name="e_0_energy">   -189.88374325 </i>
   </energy>
  </scstep>
  <scstep>
   <time name="dav">   45.69   45.80</time>
   <time name="total">   46.39   46.52</time>
   <energy>
    <i name="e_fr_energy">   -189.80761696 </i>
    <i name="e_wo_entrp">   -189.57157550 </i>
    <i name="e_0_energy">   -189.68959623 </i>
   </energy>
  </scstep>
  <scstep>
   <time name="dav">   41.53   41.63</time>
   <time name="total">   42.23   42.34</time>
   <energy>
    <i name="e_fr_energy">   -189.73143827 </i>
    <i name="e_wo_entrp">   -189.48899890 </i>
    <i name="e_0_energy">   -189.61021858 </i>
   </energy>
  </scstep>
  <scstep>
   <time name="dav">   43.10   43.20</time>
   <time name="total">   43.80   43.91</time>
   <energy>
    <i name="e_fr_energy">   -189.71134430 </i>
    <i name="e_wo_entrp">   -189.47306101 </i>
    <i name="e_0_energy">   -189.59220265 </i>
   </energy>
  </scstep>
  <scstep>
   <time name="dav">   45.72   45.83</time>
   <time name="total">   46.42   46.54</time>
   <energy>
    <i name="e_fr_energy">   -189.70350095 </i>
    <i name="e_wo_entrp">   -189.46466132 </i>
    <i name="e_0_energy">   -189.58408114 </i>
   </energy>
  </scstep>
  <scstep>
   <time name="dav">   40.62   40.72</time>
   <time name="total">   41.32   41.43</time>
   <energy>
    <i name="e_fr_energy">   -189.70354155 </i>
    <i name="e_wo_entrp">   -189.46493564 </i>
    <i name="e_0_energy">   -189.58423859 </i>
   </energy>
  </scstep>
  <scstep>
   <time name="dav">   40.17   40.27</time>
   <time name="total">   40.87   40.98</time>
   <energy>
    <i name="e_fr_energy">   -189.70379822 </i>
    <i name="e_wo_entrp">   -189.46497222 </i>
    <i name="e_0_energy">   -189.58438522 </i>
   </energy>
  </scstep>
  <scstep>
   <time name="dav">   39.44   39.53</time>
   <time name="total">   40.13   40.24</time>
   <energy>
    <i name="e_fr_energy">   -189.70411181 </i>
    <i name="e_wo_entrp">   -189.46537414 </i>
    <i name="e_0_energy">   -189.58474297 </i>
   </energy>
  </scstep>
  <scstep>
   <time name="dav">   36.79   36.88</time>
   <time name="total">   37.48   37.59</time>
   <energy>
    <i name="e_fr_energy">   -189.70357632 </i>
    <i name="e_wo_entrp">   -189.46475884 </i>
    <i name="e_0_energy">   -189.58416758 </i>
   </energy>
  </scstep>
  <scstep>
   <time name="dav">   26.16   26.22</time>
   <time name="total">   26.20   26.28</time>
   <energy>
    <i name="alphaZ">     82.35488913 </i>
    <i name="ewald">  41307.28564465 </i>
    <i name="hartreedc"> -47279.63367068 </i>
    <i name="XCdc">   -235.24816863 </i>
    <i name="pawpsdc">   4038.69972705 </i>
    <i name="pawaedc">  -3454.39745304 </i>
    <i name="eentropy">     -0.23872021 </i>
    <i name="bandstr">  -1409.96837343 </i>
    <i name="atom">   6761.44252427 </i>
    <i name="e_fr_energy">   -189.70360089 </i>
    <i name="e_wo_entrp">   -189.46488068 </i>
    <i name="e_0_energy">   -189.58424078 </i>
   </energy>
  </scstep>
  <structure>
   <crystal>
    <varray name="basis" >
     <v>       8.66637937       4.99832614       0.00000000 </v>
     <v>      -8.66722528       4.99977970       0.00000000 </v>
     <v>       0.00000000       0.00000000      30.00000000 </v>
    </varray>
    <i name="volume">   2599.54818963 </i>
    <varray name="rec_basis" >
     <v>       0.05769979       0.10002383       0.00000000 </v>
     <v>      -0.05768302       0.10001406       0.00000000 </v>
     <v>       0.00000000       0.00000000       0.03333333 </v>
    </varray>
   </crystal>
   <varray name="positions" >
    <v>       0.33342664       0.33234880       0.00009809 </v>
    <v>       0.99741171       0.33019503      -0.00021318 </v>
    <v>       0.66784746       0.66773882       0.00021545 </v>
    <v>      -0.00186474       0.00006265      -0.00016359 </v>
    <v>       0.66827060       0.00179499      -0.00025937 </v>
    <v>       0.66646731       0.33150399       0.00015490 </v>
    <v>      -0.00206373       0.66658990       0.00016269 </v>
    <v>       0.33536506       0.00199921       0.00001465 </v>
    <v>       0.33515265       0.66802750       0.00002711 </v>
    <v>       0.11293194       0.22665926       0.95311359 </v>
    <v>       0.22492129       0.11495945       0.04803586 </v>
    <v>       0.10926890       0.55172857       0.95206191 </v>
    <v>       0.22068476       0.44106684       0.04670722 </v>
    <v>       0.11171506       0.88832200       0.95086646 </v>
    <v>       0.22199444       0.77776895       0.04925203 </v>
    <v>       0.44128352       0.22334107       0.95192055 </v>
    <v>       0.55417502       0.11035428       0.04931810 </v>
    <v>       0.44596712       0.55380738       0.95313508 </v>
    <v>       0.55329620       0.44659247       0.04684672 </v>
    <v>       0.44339710       0.88833537       0.95067985 </v>
    <v>       0.55676995       0.77449208       0.04800411 </v>
    <v>       0.78242868       0.22442129       0.95174748 </v>
    <v>       0.89115097       0.11561633       0.04817198 </v>
    <v>       0.77635717       0.55841114       0.95203274 </v>
    <v>       0.89191677       0.44318804       0.04796127 </v>
    <v>       0.77537109       0.88424070       0.95190294 </v>
    <v>       0.88457153       0.77464833       0.04820527 </v>
   </varray>
  </structure>
  <varray name="forces" >
   <v>       0.19294482      -0.09750445       0.08548703 </v>
   <v>       0.00667906      -0.43847729      -0.01435132 </v>
   <v>       0.05571309       0.25153986       0.01123509 </v>
   <v>      -0.06253149      -0.23278308      -0.05888238 </v>
   <v>      -0.20792087       0.14018163      -0.00777275 </v>
   <v>       0.31489448      -0.26217179       0.05186195 </v>
   <v>      -0.22628554       0.02704215      -0.07512007 </v>
   <v>       0.20146617       0.20370321       0.00805045 </v>
   <v>      -0.24620610       0.32260317       0.00848955 </v>
   <v>      -0.05006958       0.11485355      -0.41989954 </v>
   <v>      -0.03486941       0.10089958       0.43068094 </v>
   <v>       0.02646995      -0.06617909      -0.26913621 </v>
   <v>       0.00956166      -0.05717012       0.21433013 </v>
   <v>       0.05473607       0.00395518      -0.43801959 </v>
   <v>      -0.01690392       0.00765818       0.46185136 </v>
   <v>      -0.10792060      -0.00864145      -0.57901938 </v>
   <v>       0.02378449      -0.04023960       0.70590769 </v>
   <v>       0.06663873       0.00357215      -0.29083347 </v>
   <v>      -0.10481720      -0.00433551       0.31463374 </v>
   <v>      -0.03441333      -0.01073494      -0.61863631 </v>
   <v>       0.09758043      -0.00272340       0.50076800 </v>
   <v>       0.07417105       0.14718912      -0.71933989 </v>
   <v>      -0.06606429       0.13698371       0.59880491 </v>
   <v>      -0.09923369      -0.00150892      -0.43457380 </v>
   <v>       0.12129487       0.04862084       0.48352573 </v>
   <v>       0.06020366      -0.15453343      -0.57571614 </v>
   <v>      -0.04890250      -0.13179924       0.62567426 </v>
  </varray>
  <varray name="stress" >
   <v>     -10.13595108       0.01125756      -0.00494901 </v>
   <v>       0.01125741      -9.82586398       0.03221461 </v>
   <v>      -0.00494923       0.03221453       6.51434696 </v>
  </varray>
  <energy>
   <i name="e_fr_energy">   -189.70360089 </i>
   <i name="e_wo_entrp">   -189.58424078 </i>
   <i name="e_0_energy">     -0.23872021 </i>
  </energy>
  <time name="totalsc">  551.48  552.92</time>
 </calculation>
 <calculation>
  <scstep>
   <time name="dav">   31.25   31.32</time>
   <time name="total">   31.95   32.03</time>
   <energy>
    <i name="alphaZ">     85.79615129 </i>
    <i name="ewald">  42819.22203015 </i>
    <i name="hartreedc"> -48835.76554572 </i>
    <i name="XCdc">   -232.99618862 </i>
    <i name="pawpsdc">   4038.77700868 </i>
    <i name="pawaedc">  -3454.47234778 </i>
    <i name="eentropy">     -0.19389996 </i>
    <i name="bandstr">  -1373.01850406 </i>
    <i name="atom">   6761.44252427 </i>
    <i name="e_fr_energy">   -191.20877174 </i>
    <i name="e_wo_entrp">   -191.01487177 </i>
    <i name="e_0_energy">   -191.11182175 </i>
   </energy>
  </scstep>
  <scstep>
   <time name="dav">   46.20   46.31</time>
   <time name="total">   46.91   47.03</time>
   <energy>
    <i name="e_fr_energy">   -191.15823735 </i>
    <i name="e_wo_entrp">   -190.95726408 </i>
    <i name="e_0_energy">   -191.05775072 </i>
   </energy>
  </scstep>
  <scstep>
   <time name="dav">   41.75   41.85</time>
   <time name="total">   42.45   42.56</time>
   <energy>
    <i name="e_fr_energy">   -191.07456029 </i>
    <i name="e_wo_entrp">   -190.86327032 </i>
    <i name="e_0_energy">   -190.96891531 </i>
   </energy>
  </scstep>
  <scstep>
   <time name="dav">   44.88   44.99</time>
   <time name="total">   45.59   45.71</time>
   <energy>
    <i name="e_fr_energy">   -190.75781769 </i>
    <i name="e_wo_entrp">   -190.55834790 </i>
    <i name="e_0_energy">   -190.65808280 </i>
   </energy>
  </scstep>
  <scstep>
   <time name="dav">   42.33   42.43</time>
   <time name="total">   43.05   43.16</time>
   <energy>
    <i name="e_fr_energy">   -190.74314841 </i>
    <i name="e_wo_entrp">   -190.54585430 </i>
    <i name="e_0_energy">   -190.64450136 </i>
   </energy>
  </scstep>
  <scstep>
   <time name="dav">   42.30   42.40</time>
   <time name="total">   43.00   43.12</time>
   <energy>
    <i name="e_fr_energy">   -190.63919365 </i>
    <i name="e_wo_entrp">   -190.43773664 </i>
    <i name="e_0_energy">   -190.53846514 </i>
   </energy>
  </scstep>
  <scstep>
   <time name="dav">   43.41   43.51</time>
   <time name="total">   44.11   44.23</time>
   <energy>
    <i name="e_fr_energy">   -190.63285639 </i>
    <i name="e_wo_entrp">   -190.43340688 </i>
    <i name="e_0_energy">   -190.53313163 </i>
   </energy>
  </scstep>
  <scstep>
   <time name="dav">   40.39   40.49</time>
   <time name="total">   41.09   41.20</time>
   <energy>
    <i name="e_fr_energy">   -190.63162164 </i>
    <i name="e_wo_entrp">   -190.43199387 </i>
    <i name="e_0_energy">   -190.53180776 </i>
   </energy>
  </scstep>
  <scstep>
   <time name="dav">   40.86   40.96</time>
   <time name="total">   41.56   41.67</time>
   <energy>
    <i name="e_fr_energy">   -190.62857375 </i>
    <i name="e_wo_entrp">   -190.42889933 </i>
    <i name="e_0_energy">   -190.52873654 </i>
   </energy>
  </scstep>
  <scstep>
   <time name="dav">   36.58   36.67</time>
   <time name="total">   37.30   37.40</time>
   <energy>
    <i name="e_fr_energy">   -190.62893503 </i>
    <i name="e_wo_entrp">   -190.42910647 </i>
    <i name="e_0_energy">   -190.52902075 </i>
   </energy>
  </scstep>
  <scstep>
   <time name="dav">   38.72   38.82</time>
   <time name="total">   39.43   39.53</time>
   <energy>
    <i name="e_fr_energy">   -190.62873875 </i>
    <i name="e_wo_entrp">   -190.42902371 </i>
    <i name="e_0_energy">   -190.52888123 </i>
   </energy>
  </scstep>
  <scstep>
   <time name="dav">   27.68   27.75</time>
   <time name="total">   27.73   27.80</time>
   <energy>
    <i name="alphaZ">     85.79615129 </i>
    <i name="ewald">  42819.22203015 </i>
    <i name="hartreedc"> -48807.45242692 </i>
    <i name="XCdc">   -234.32301916 </i>
    <i name="pawpsdc">   4062.11606763 </i>
    <i name="pawaedc">  -3477.96729456 </i>
    <i name="eentropy">     -0.19966654 </i>
    <i name="bandstr">  -1399.26310864 </i>
    <i name="atom">   6761.44252427 </i>
    <i name="e_fr_energy">   -190.62874249 </i>
    <i name="e_wo_entrp">   -190.42907594 </i>
    <i name="e_0_energy">   -190.52890921 </i>
   </energy>
  </scstep>
  <structure>
   <crystal>
    <varray name="basis" >
     <v>       8.48674004       4.89973102       0.00000000 </v>
     <v>      -8.48728259       4.90066034       0.00000000 </v>
     <v>       0.00000000       0.00000000      30.00000000 </v>
    </varray>
    <i name="volume">   2495.28096222 </i>
    <varray name="rec_basis" >
     <v>       0.05891914       0.10204000       0.00000000 </v>
     <v>      -0.05890797       0.10203348       0.00000000 </v>
     <v>       0.00000000       0.00000000       0.03333333 </v>
    </varray>
   </crystal>
   <varray name="positions" >
    <v>       0.33351086       0.33098123       0.00027023 </v>
    <v>       0.99466843       0.32748198      -0.00021605 </v>
    <v>       0.66972921       0.66919888       0.00021585 </v>
    <v>      -0.00353435      -0.00133289      -0.00026335 </v>
    <v>       0.66818358       0.00336390      -0.00024489 </v>
    <v>       0.66592750       0.32862383       0.00024322 </v>
    <v>      -0.00251406       0.66773870      -0.00001443 </v>
    <v>       0.33733813       0.00232621       0.00002865 </v>
    <v>       0.33620831       0.67111649       0.00004331 </v>
    <v>       0.11360260       0.22778255       0.95186857 </v>
    <v>       0.22537254       0.11601563       0.04933264 </v>
    <v>       0.10875899       0.55081036       0.95109449 </v>
    <v>       0.22013649       0.44025187       0.04751810 </v>
    <v>       0.11185732       0.88828022       0.94950861 </v>
    <v>       0.22197443       0.77790079       0.05067953 </v>
    <v>       0.44087173       0.22404542       0.95029822 </v>
    <v>       0.55425911       0.11010632       0.05125152 </v>
    <v>       0.44646027       0.55336213       0.95215733 </v>
    <v>       0.55278921       0.44705440       0.04786594 </v>
    <v>       0.44344862       0.88852549       0.94892178 </v>
    <v>       0.55748482       0.77419614       0.04945761 </v>
    <v>       0.78382209       0.22518093       0.94982750 </v>
    <v>       0.89186108       0.11690564       0.04981535 </v>
    <v>       0.77560412       0.55869966       0.95072598 </v>
    <v>       0.89266635       0.44271583       0.04937709 </v>
    <v>       0.77447950       0.88282618       0.95030127 </v>
    <v>       0.88324757       0.77405654       0.04993583 </v>
   </varray>
  </structure>
  <varray name="forces" >
   <v>       0.19763509      -0.09874131       0.04709352 </v>
   <v>      -0.00266443      -0.41829253       0.04601203 </v>
   <v>       0.06781422       0.28786037      -0.04490812 </v>
   <v>      -0.01724511      -0.27611133      -0.01104714 </v>
   <v>      -0.29290614       0.06331320       0.02496075 </v>
   <v>       0.33903653      -0.30937728      -0.00377176 </v>
   <v>      -0.24655261       0.09624632      -0.05506861 </v>
   <v>       0.30625333       0.19046652       0.00314718 </v>
   <v>      -0.27297524       0.34141496       0.01115270 </v>
   <v>      -0.00223400       0.00883215      -0.32275018 </v>
   <v>      -0.01648563       0.00137804       0.26114600 </v>
   <v>       0.02366997      -0.03282976      -0.13256815 </v>
   <v>      -0.03139229      -0.00767917       0.08524558 </v>
   <v>      -0.01583923       0.04891151      -0.28169889 </v>
   <v>      -0.06382968       0.01984909       0.34259446 </v>
   <v>      -0.01353712       0.02182867      -0.38297359 </v>
   <v>       0.03502291       0.01381145       0.54318531 </v>
   <v>       0.01100492       0.02148898      -0.15240990 </v>
   <v>       0.01692989       0.00679332       0.23955806 </v>
   <v>      -0.00367427       0.08166979      -0.49948198 </v>
   <v>       0.01402924       0.05874646       0.33008273 </v>
   <v>       0.03615718       0.03187844      -0.56217727 </v>
   <v>      -0.01661491       0.02715863       0.39475766 </v>
   <v>      -0.01818743      -0.07265306      -0.22894480 </v>
   <v>       0.03754116      -0.00256242       0.27030721 </v>
   <v>      -0.01827744      -0.05724743      -0.40289914 </v>
   <v>      -0.05267891      -0.04615361       0.48145632 </v>
  </varray>
  <varray name="stress" >
   <v>      -5.90213880      -0.00617361      -0.06953586 </v>
   <v>      -0.00617377      -5.90553061       0.01626928 </v>
   <v>      -0.06953601       0.01626922       4.45563439 </v>
  </varray>
  <energy>
   <i name="e_fr_energy">   -190.62874249 </i>
   <i name="e_wo_entrp">   -190.52890921 </i>
   <i name="e_0_energy">     -0.19966654 </i>
  </energy>
  <time name="totalsc">  544.66  546.31</time>
 </calculation>
 <calculation>
  <scstep>
   <time name="dav">   30.88   30.95</time>
   <time name="total">   31.58   31.66</time>
   <energy>
    <i name="alphaZ">     90.38546809 </i>
    <i name="ewald">  44759.63129411 </i>
    <i name="hartreedc"> -50805.94355403 </i>
    <i name="XCdc">   -231.68993922 </i>
    <i name="pawpsdc">   4062.06858124 </i>
    <i name="pawaedc">  -3477.91567051 </i>
    <i name="eentropy">     -0.17567346 </i>
    <i name="bandstr">  -1349.88294242 </i>
    <i name="atom">   6761.44252427 </i>
    <i name="e_fr_energy">   -192.07991193 </i>
    <i name="e_wo_entrp">   -191.90423847 </i>
    <i name="e_0_energy">   -191.99207520 </i>
   </energy>
  </scstep>
  <scstep>
   <time name="dav">   43.55   43.65</time>
   <time name="total">   44.24   44.36</time>
   <energy>
    <i name="e_fr_energy">   -191.88426056 </i>
    <i name="e_wo_entrp">   -191.69806940 </i>
    <i name="e_0_energy">   -191.79116498 </i>
   </energy>
  </scstep>
  <scstep>
   <time name="dav">   38.85   38.94</time>
   <time name="total">   39.54   39.65</time>
   <energy>
    <i name="e_fr_energy">   -192.16902118 </i>
    <i name="e_wo_entrp">   -191.96807692 </i>
    <i name="e_0_energy">   -192.06854905 </i>
   </energy>
  </scstep>
  <scstep>
   <time name="dav">   41.93   42.03</time>
   <time name="total">   42.62   42.74</time>
   <energy>
    <i name="e_fr_energy">   -191.53138282 </i>
    <i name="e_wo_entrp">   -191.34879090 </i>
    <i name="e_0_energy">   -191.44008686 </i>
   </energy>
  </scstep>
  <scstep>
   <time name="dav">   42.45   42.55</time>
   <time name="total">   43.15   43.27</time>
   <energy>
    <i name="e_fr_energy">   -191.45540099 </i>
    <i name="e_wo_entrp">   -191.27634954 </i>
    <i name="e_0_energy">   -191.36587526 </i>
   </energy>
  </scstep>
  <scstep>
   <time name="dav">   42.43   42.53</time>
   <time name="total">   43.13   43.24</time>
   <energy>
    <i name="e_fr_energy">   -191.26511229 </i>
    <i name="e_wo_entrp">   -191.08004578 </i>
    <i name="e_0_energy">   -191.17257903 </i>
   </energy>
  </scstep>
  <scstep>
   <time name="dav">   42.37   42.47</time>
   <time name="total">   43.07   43.19</time>
   <energy>
    <i name="e_fr_energy">   -191.25843692 </i>
    <i name="e_wo_entrp">   -191.07435793 </i>
    <i name="e_0_energy">   -191.16639742 </i>
   </energy>
  </scstep>
  <scstep>
   <time name="dav">   37.83   37.92</time>
   <time name="total">   38.52   38.62</time>
   <energy>
    <i name="e_fr_energy">   -191.25344305 </i>
    <i name="e_wo_entrp">   -191.06930182 </i>
    <i name="e_0_energy">   -191.16137243 </i>
   </energy>
  </scstep>
  <scstep>
   <time name="dav">   43.51   43.62</time>
   <time name="total">   44.21   44.32</time>
   <energy>
    <i name="e_fr_energy">   -191.25440806 </i>
    <i name="e_wo_entrp">   -191.07026606 </i>
    <i name="e_0_energy">   -191.16233706 </i>
   </energy>
  </scstep>
  <scstep>
   <time name="dav">   39.57   39.67</time>
   <time name="total">   40.27   40.37</time>
   <energy>
    <i name="e_fr_energy">   -191.25349101 </i>
    <i name="e_wo_entrp">   -191.06933985 </i>
    <i name="e_0_energy">   -191.16141543 </i>
   </energy>
  </scstep>
  <scstep>
   <time name="dav">   37.20   37.29</time>
   <time name="total">   37.26   37.35</time>
   <energy>
    <i name="alphaZ">     90.38546809 </i>
    <i name="ewald">  44759.63129411 </i>
    <i name="hartreedc"> -50769.57901564 </i>
    <i name="XCdc">   -233.33135072 </i>
    <i name="pawpsdc">   4083.41471444 </i>
    <i name="pawaedc">  -3499.33226064 </i>
    <i name="eentropy">     -0.18428851 </i>
    <i name="bandstr">  -1383.70047907 </i>
    <i name="atom">   6761.44252427 </i>
    <i name="e_fr_energy">   -191.25339366 </i>
    <i name="e_wo_entrp">   -191.06910515 </i>
    <i name="e_0_energy">   -191.16124940 </i>
   </energy>
  </scstep>
  <structure>
   <crystal>
    <varray name="basis" >
     <v>       8.26802228       4.77348732       0.00000000 </v>
     <v>      -8.26897848       4.77513348       0.00000000 </v>
     <v>       0.00000000       0.00000000      30.00000000 </v>
    </varray>
    <i name="volume">   2368.58321867 </i>
    <varray name="rec_basis" >
     <v>       0.06048088       0.10473322       0.00000000 </v>
     <v>      -0.06046003       0.10472111       0.00000000 </v>
     <v>       0.00000000       0.00000000       0.03333333 </v>
    </varray>
   </crystal>
   <varray name="positions" >
    <v>       0.33370101       0.32820693       0.00048135 </v>
    <v>       0.98927491       0.32220488      -0.00002654 </v>
    <v>       0.67394222       0.67241679       0.00003341 </v>
    <v>      -0.00712614      -0.00479713      -0.00030913 </v>
    <v>       0.66679739       0.00629600      -0.00012244 </v>
    <v>       0.66449683       0.32218205       0.00023575 </v>
    <v>      -0.00295931       0.67083002      -0.00028065 </v>
    <v>       0.34189015       0.00235907       0.00004121 </v>
    <v>       0.33844869       0.67762435       0.00008636 </v>
    <v>       0.11399899       0.22842057       0.95001429 </v>
    <v>       0.22535866       0.11671428       0.05100859 </v>
    <v>       0.10822490       0.54965668       0.94996422 </v>
    <v>       0.21948696       0.43973778       0.04839506 </v>
    <v>       0.11225734       0.88902861       0.94769867 </v>
    <v>       0.22177588       0.77858087       0.05274593 </v>
    <v>       0.44093983       0.22491691       0.94807939 </v>
    <v>       0.55489219       0.11005128       0.05417520 </v>
    <v>       0.44712158       0.55318824       0.95098614 </v>
    <v>       0.55273252       0.44725617       0.04935306 </v>
    <v>       0.44456463       0.88962300       0.94619750 </v>
    <v>       0.55877716       0.77473739       0.05143433 </v>
    <v>       0.78498489       0.22561531       0.94687880 </v>
    <v>       0.89233934       0.11785355       0.05206314 </v>
    <v>       0.77411693       0.55804263       0.94916076 </v>
    <v>       0.89309331       0.44199737       0.05112759 </v>
    <v>       0.77335198       0.88169958       0.94802995 </v>
    <v>       0.88173159       0.77377128       0.05254796 </v>
   </varray>
  </structure>
  <varray name="forces" >
   <v>       0.14936443      -0.09481487       0.02804863 </v>
   <v>       0.07562052      -0.33205743      -0.00855373 </v>
   <v>       0.05607225       0.26146795      -0.02387671 </v>
   <v>       0.02206070      -0.22282759      -0.01388536 </v>
   <v>      -0.23270060      -0.09032005      -0.00735597 </v>
   <v>       0.18403318      -0.25195684      -0.03157729 </v>
   <v>      -0.24272532       0.21506725       0.01966139 </v>
   <v>       0.31915318       0.11517123       0.02601315 </v>
   <v>      -0.20361120       0.30781359       0.01303536 </v>
   <v>       0.02488779      -0.10978639      -0.01698482 </v>
   <v>       0.10097174      -0.11505835      -0.05142134 </v>
   <v>      -0.02858871       0.03311409       0.15992388 </v>
   <v>      -0.09767246       0.06149877      -0.18469687 </v>
   <v>      -0.06242285       0.13644883      -0.02740183 </v>
   <v>      -0.10946112       0.04311949       0.12570675 </v>
   <v>       0.10796521      -0.00775990      -0.07644847 </v>
   <v>       0.02045643       0.02025338       0.25250052 </v>
   <v>      -0.07486228       0.05716963       0.10632104 </v>
   <v>       0.16365315       0.03978544      -0.05852480 </v>
   <v>      -0.00258696       0.13844463      -0.26356449 </v>
   <v>      -0.07901565       0.08203078       0.02778835 </v>
   <v>       0.00032485      -0.08656424      -0.16267472 </v>
   <v>       0.02775363      -0.11899109       0.09814496 </v>
   <v>       0.09243084      -0.11343464       0.07413283 </v>
   <v>      -0.07646495      -0.03289556      -0.10461504 </v>
   <v>      -0.12854650       0.04088822      -0.07025812 </v>
   <v>      -0.00608928       0.02419369       0.17056267 </v>
  </varray>
  <varray name="stress" >
   <v>      -0.03834200      -0.10903124       0.01659678 </v>
   <v>      -0.10903118      -0.13946280      -0.09762220 </v>
   <v>       0.01659684      -0.09762208      -0.44173747 </v>
  </varray>
  <energy>
   <i name="e_fr_energy">   -191.25339366 </i>
   <i name="e_wo_entrp">   -191.16124940 </i>
   <i name="e_0_energy">     -0.18428851 </i>
  </energy>
  <time name="totalsc">  507.60  508.93</time>
 </calculation>
 <calculation>
  <scstep>
   <time name="dav">   30.74   30.81</time>
   <time name="total">   31.44   31.52</time>
   <energy>
    <i name="alphaZ">     90.44387710 </i>
    <i name="ewald">  44771.60358903 </i>
    <i name="hartreedc"> -50782.87917082 </i>
    <i name="XCdc">   -233.35379495 </i>
    <i name="pawpsdc">   4083.87473484 </i>
    <i name="pawaedc">  -3499.79001801 </i>
    <i name="eentropy">     -0.18955872 </i>
    <i name="bandstr">  -1382.46599368 </i>
    <i name="atom">   6761.44252427 </i>
    <i name="e_fr_energy">   -191.31381095 </i>
    <i name="e_wo_entrp">   -191.12425223 </i>
    <i name="e_0_energy">   -191.21903159 </i>
   </energy>
  </scstep>
  <scstep>
   <time name="dav">   46.10   46.21</time>
   <time name="total">   46.80   46.92</time>
   <energy>
    <i name="e_fr_energy">   -191.37039934 </i>
    <i name="e_wo_entrp">   -191.17339453 </i>
    <i name="e_0_energy">   -191.27189693 </i>
   </energy>
  </scstep>
  <scstep>
   <time name="dav">   41.23   41.33</time>
   <time name="total">   41.93   42.04</time>
   <energy>
    <i name="e_fr_energy">   -191.32350028 </i>
    <i name="e_wo_entrp">   -191.13315263 </i>
    <i name="e_0_energy">   -191.22832645 </i>
   </energy>
  </scstep>
  <scstep>
   <time name="dav">   40.30   40.40</time>
   <time name="total">   41.00   41.11</time>
   <energy>
    <i name="e_fr_energy">   -191.32317334 </i>
    <i name="e_wo_entrp">   -191.13295950 </i>
    <i name="e_0_energy">   -191.22806642 </i>
   </energy>
  </scstep>
  <scstep>
   <time name="dav">   40.05   40.14</time>
   <time name="total">   40.74   40.85</time>
   <energy>
    <i name="e_fr_energy">   -191.32028862 </i>
    <i name="e_wo_entrp">   -191.12942533 </i>
    <i name="e_0_energy">   -191.22485697 </i>
   </energy>
  </scstep>
  <scstep>
   <time name="dav">   39.57   39.66</time>
   <time name="total">   40.26   40.37</time>
   <energy>
    <i name="e_fr_energy">   -191.31980027 </i>
    <i name="e_wo_entrp">   -191.12895653 </i>
    <i name="e_0_energy">   -191.22437840 </i>
   </energy>
  </scstep>
  <scstep>
   <time name="dav">   41.07   41.17</time>
   <time name="total">   41.77   41.88</time>
   <energy>
    <i name="e_fr_energy">   -191.32015186 </i>
    <i name="e_wo_entrp">   -191.12926939 </i>
    <i name="e_0_energy">   -191.22471062 </i>
   </energy>
  </scstep>
  <scstep>
   <time name="dav">   34.98   35.07</time>
   <time name="total">   35.68   35.78</time>
   <energy>
    <i name="e_fr_energy">   -191.31966591 </i>
    <i name="e_wo_entrp">   -191.12877506 </i>
    <i name="e_0_energy">   -191.22422048 </i>
   </energy>
  </scstep>
  <scstep>
   <time name="dav">   25.12   25.18</time>
   <time name="total">   25.18   25.25</time>
   <energy>
    <i name="alphaZ">     90.44387710 </i>
    <i name="ewald">  44771.60358903 </i>
    <i name="hartreedc"> -50783.42322599 </i>
    <i name="XCdc">   -233.35634340 </i>
    <i name="pawpsdc">   4082.68772262 </i>
    <i name="pawaedc">  -3498.57668280 </i>
    <i name="eentropy">     -0.19085502 </i>
    <i name="bandstr">  -1381.95023405 </i>
    <i name="atom">   6761.44252427 </i>
    <i name="e_fr_energy">   -191.31962824 </i>
    <i name="e_wo_entrp">   -191.12877322 </i>
    <i name="e_0_energy">   -191.22420073 </i>
   </energy>
  </scstep>
  <structure>
   <crystal>
    <varray name="basis" >
     <v>       8.26507578       4.76889943       0.00000000 </v>
     <v>      -8.26880900       4.77535458       0.00000000 </v>
     <v>       0.00000000       0.00000000      30.00000000 </v>
    </varray>
    <i name="volume">   2367.05357837 </i>
    <varray name="rec_basis" >
     <v>       0.06052277       0.10479876       0.00000000 </v>
     <v>      -0.06044096       0.10475144       0.00000000 </v>
     <v>       0.00000000       0.00000000       0.03333333 </v>
    </varray>
   </crystal>
   <varray name="positions" >
    <v>       0.33365840       0.32726846       0.00052808 </v>
    <v>       0.98777467       0.32026056      -0.00003937 </v>
    <v>       0.67546377       0.67360259      -0.00000633 </v>
    <v>      -0.00821688      -0.00601735      -0.00033191 </v>
    <v>       0.66564404       0.00653656      -0.00013363 </v>
    <v>       0.66374626       0.32032041       0.00018450 </v>
    <v>      -0.00257943       0.67265798      -0.00025035 </v>
    <v>       0.34344166       0.00200657       0.00008349 </v>
    <v>       0.33943057       0.67982921       0.00010774 </v>
    <v>       0.11351579       0.22779298       0.94997469 </v>
    <v>       0.22506958       0.11583641       0.05093648 </v>
    <v>       0.10830559       0.54990128       0.95021544 </v>
    <v>       0.21950823       0.44033363       0.04810204 </v>
    <v>       0.11277104       0.88991205       0.94764198 </v>
    <v>       0.22167242       0.77912644       0.05296356 </v>
    <v>       0.44121812       0.22456614       0.94794090 </v>
    <v>       0.55505986       0.11009411       0.05460339 </v>
    <v>       0.44719737       0.55369775       0.95115030 </v>
    <v>       0.55341591       0.44697929       0.04926803 </v>
    <v>       0.44526936       0.89034252       0.94575252 </v>
    <v>       0.55897143       0.77539073       0.05149246 </v>
    <v>       0.78455267       0.22517651       0.94659641 </v>
    <v>       0.89181795       0.11717222       0.05223693 </v>
    <v>       0.77380103       0.55718919       0.94927026 </v>
    <v>       0.89270349       0.44204932       0.05096971 </v>
    <v>       0.77317483       0.88227824       0.94790131 </v>
    <v>       0.88182674       0.77391065       0.05284128 </v>
   </varray>
  </structure>
  <varray name="forces" >
   <v>       0.15039091      -0.10398291       0.05409313 </v>
   <v>       0.13660781      -0.35322686       0.01028902 </v>
   <v>       0.06168428       0.25277934      -0.03429871 </v>
   <v>      -0.00800202      -0.22701913      -0.00088736 </v>
   <v>      -0.21497772      -0.07997216       0.02320913 </v>
   <v>       0.17425508      -0.29404846      -0.00358133 </v>
   <v>      -0.27582769       0.25570720      -0.02557602 </v>
   <v>       0.31866300       0.11803761       0.02126703 </v>
   <v>      -0.21463229       0.33374051      -0.00679295 </v>
   <v>       0.00992176      -0.07933722      -0.00753071 </v>
   <v>       0.08393068      -0.08624807      -0.07092077 </v>
   <v>      -0.03575519       0.02820795       0.19762562 </v>
   <v>      -0.08317362       0.04945143      -0.21585564 </v>
   <v>      -0.04260954       0.11790650      -0.01102993 </v>
   <v>      -0.07285125       0.03866196       0.11430993 </v>
   <v>       0.07386226      -0.02172338      -0.07063100 </v>
   <v>       0.02006004       0.00915070       0.20713602 </v>
   <v>      -0.06027286       0.04803683       0.13211067 </v>
   <v>       0.10651480       0.03759761      -0.09783329 </v>
   <v>      -0.00793990       0.08971887      -0.23600620 </v>
   <v>      -0.04831919       0.05662053       0.03846446 </v>
   <v>       0.00943992      -0.06228591      -0.14263379 </v>
   <v>       0.01422191      -0.09356596       0.05893769 </v>
   <v>       0.06512766      -0.05943946       0.10516294 </v>
   <v>      -0.04969120       0.00006358      -0.14886049 </v>
   <v>      -0.09304156       0.01129739      -0.06051017 </v>
   <v>      -0.01758607       0.01387153       0.17034270 </v>
  </varray>
  <varray name="stress" >
   <v>       0.03268545      -0.03069460       0.03808519 </v>
   <v>      -0.03069444       0.01403996      -0.05481016 </v>
   <v>       0.03808544      -0.05481027      -1.01516201 </v>
  </varray>
  <energy>
   <i name="e_fr_energy">   -191.31962824 </i>
   <i name="e_wo_entrp">   -191.22420073 </i>
   <i name="e_0_energy">     -0.19085502 </i>
  </energy>
  <time name="totalsc">  404.94  406.00</time>
 </calculation>
 <calculation>
  <scstep>
   <time name="dav">   30.78   30.86</time>
   <time name="total">   31.48   31.56</time>
   <energy>
    <i name="alphaZ">     90.42921171 </i>
    <i name="ewald">  44762.38422682 </i>
    <i name="hartreedc"> -50774.16952928 </i>
    <i name="XCdc">   -233.37717567 </i>
    <i name="pawpsdc">   4082.68977784 </i>
    <i name="pawaedc">  -3498.57904297 </i>
    <i name="eentropy">     -0.19373368 </i>
    <i name="bandstr">  -1381.98659747 </i>
    <i name="atom">   6761.44252427 </i>
    <i name="e_fr_energy">   -191.36033844 </i>
    <i name="e_wo_entrp">   -191.16660476 </i>
    <i name="e_0_energy">   -191.26347160 </i>
   </energy>
  </scstep>
  <scstep>
   <time name="dav">   46.43   46.54</time>
   <time name="total">   47.13   47.25</time>
   <energy>
    <i name="e_fr_energy">   -191.38245867 </i>
    <i name="e_wo_entrp">   -191.18265812 </i>
    <i name="e_0_energy">   -191.28255840 </i>
   </energy>
  </scstep>
  <scstep>
   <time name="dav">   41.47   41.57</time>
   <time name="total">   42.17   42.28</time>
   <energy>
    <i name="e_fr_energy">   -191.36354056 </i>
    <i name="e_wo_entrp">   -191.16928831 </i>
    <i name="e_0_energy">   -191.26641444 </i>
   </energy>
  </scstep>
  <scstep>
   <time name="dav">   40.00   40.09</time>
   <time name="total">   40.69   40.79</time>
   <energy>
    <i name="e_fr_energy">   -191.36367633 </i>
    <i name="e_wo_entrp">   -191.16944216 </i>
    <i name="e_0_energy">   -191.26655925 </i>
   </energy>
  </scstep>
  <scstep>
   <time name="dav">   39.71   39.81</time>
   <time name="total">   40.41   40.51</time>
   <energy>
    <i name="e_fr_energy">   -191.36241872 </i>
    <i name="e_wo_entrp">   -191.16765655 </i>
    <i name="e_0_energy">   -191.26503763 </i>
   </energy>
  </scstep>
  <scstep>
   <time name="dav">   37.95   38.05</time>
   <time name="total">   38.66   38.75</time>
   <energy>
    <i name="e_fr_energy">   -191.36224153 </i>
    <i name="e_wo_entrp">   -191.16751505 </i>
    <i name="e_0_energy">   -191.26487829 </i>
   </energy>
  </scstep>
  <scstep>
   <time name="dav">   35.20   35.28</time>
   <time name="total">   35.91   35.99</time>
   <energy>
    <i name="e_fr_energy">   -191.36234478 </i>
    <i name="e_wo_entrp">   -191.16762856 </i>
    <i name="e_0_energy">   -191.26498667 </i>
   </energy>
  </scstep>
  <scstep>
   <time name="dav">   31.81   31.89</time>
   <time name="total">   32.51   32.60</time>
   <energy>
    <i name="e_fr_energy">   -191.36219558 </i>
    <i name="e_wo_entrp">   -191.16747052 </i>
    <i name="e_0_energy">   -191.26483305 </i>
   </energy>
  </scstep>
  <scstep>
   <time name="dav">   25.98   26.05</time>
   <time name="total">   26.03   26.11</time>
   <energy>
    <i name="alphaZ">     90.42921171 </i>
    <i name="ewald">  44762.38422682 </i>
    <i name="hartreedc"> -50774.82445356 </i>
    <i name="XCdc">   -233.35846710 </i>
[...]
      <set comment="kpoint 31">
       <r>  -17.5605    1.0000 </r>
       <r>  -17.2196    1.0000 </r>
       <r>  -16.9296    1.0000 </r>
       <r>  -16.6765    1.0000 </r>
       <r>  -16.4982    1.0000 </r>
       <r>  -16.4376    1.0000 </r>
       <r>  -16.3100    1.0000 </r>
       <r>  -16.2235    1.0000 </r>
       <r>  -16.0960    1.0000 </r>
       <r>  -16.0246    1.0000 </r>
       <r>  -15.9624    1.0000 </r>
       <r>  -15.8857    1.0000 </r>
       <r>  -15.7656    1.0000 </r>
       <r>  -15.6991    1.0000 </r>
       <r>  -15.6121    1.0000 </r>
       <r>  -15.5203    1.0000 </r>
       <r>  -15.3733    1.0000 </r>
       <r>  -15.2271    1.0000 </r>
       <r>   -9.7218    1.0000 </r>
       <r>   -9.4264    1.0000 </r>
       <r>   -9.3703    1.0000 </r>
       <r>   -9.0292    1.0000 </r>
       <r>   -8.9367    1.0000 </r>
       <r>   -8.7195    1.0000 </r>
       <r>   -8.6061    1.0000 </r>
       <r>   -8.3833    1.0000 </r>
       <r>   -8.3394    1.0000 </r>
       <r>   -8.3220    1.0000 </r>
       <r>   -8.2660    1.0000 </r>
       <r>   -8.2190    1.0000 </r>
       <r>   -8.1928    1.0000 </r>
       <r>   -8.0795    1.0000 </r>
       <r>   -8.0124    1.0000 </r>
       <r>   -7.9204    1.0000 </r>
       <r>   -7.7830    1.0000 </r>
       <r>   -7.7257    1.0000 </r>
       <r>   -7.5880    1.0000 </r>
       <r>   -7.4180    1.0000 </r>
       <r>   -7.3443    1.0000 </r>
       <r>   -7.2847    1.0000 </r>
       <r>   -7.1323    1.0000 </r>
       <r>   -7.0643    1.0000 </r>
       <r>   -6.9980    1.0000 </r>
       <r>   -6.9647    1.0000 </r>
       <r>   -6.8792    1.0000 </r>
       <r>   -6.7618    1.0000 </r>
       <r>   -6.6631    1.0000 </r>
       <r>   -6.5842    1.0000 </r>
       <r>   -6.5632    1.0000 </r>
       <r>   -6.4907    1.0000 </r>
       <r>   -6.3826    1.0000 </r>
       <r>   -6.3191    1.0000 </r>
       <r>   -6.2551    1.0000 </r>
       <r>   -6.1937    1.0000 </r>
       <r>   -6.1693    1.0000 </r>
       <r>   -6.0793    1.0000 </r>
       <r>   -6.0044    1.0000 </r>
       <r>   -5.9072    1.0000 </r>
       <r>   -5.8500    1.0000 </r>
       <r>   -5.8185    1.0000 </r>
       <r>   -5.7031    1.0000 </r>
       <r>   -5.6456    1.0000 </r>
       <r>   -5.5242    1.0000 </r>
       <r>   -5.4091    1.0000 </r>
       <r>   -5.2657    1.0000 </r>
       <r>   -5.1664    1.0000 </r>
       <r>   -5.1156    1.0000 </r>
       <r>   -4.9073    1.0000 </r>
       <r>   -4.7925    1.0000 </r>
       <r>   -4.7132    1.0000 </r>
       <r>   -4.5249    1.0000 </r>
       <r>   -4.4521    1.0000 </r>
       <r>   -4.2917    1.0000 </r>
       <r>   -4.2074    1.0000 </r>
       <r>   -4.1155    1.0000 </r>
       <r>   -3.9922    1.0000 </r>
       <r>   -3.8544    0.9999 </r>
       <r>   -3.6677    0.9929 </r>
       <r>   -3.5712    0.9618 </r>
       <r>   -3.2442    0.2943 </r>
       <r>   -3.1003    0.0596 </r>
       <r>   -2.7980    0.0001 </r>
       <r>   -2.6715    0.0000 </r>
       <r>   -2.5596    0.0000 </r>
       <r>   -2.5194    0.0000 </r>
       <r>   -2.3265    0.0000 </r>
       <r>   -2.2430    0.0000 </r>
       <r>   -2.1110    0.0000 </r>
       <r>   -1.9882    0.0000 </r>
       <r>   -1.8805    0.0000 </r>
       <r>   -1.6996    0.0000 </r>
       <r>   -1.5769    0.0000 </r>
       <r>   -1.4393    0.0000 </r>
       <r>   -1.3836    0.0000 </r>
       <r>   -1.2617    0.0000 </r>
       <r>   -1.1959    0.0000 </r>
       <r>   -1.1335    0.0000 </r>
       <r>   -1.0446    0.0000 </r>
       <r>   -1.0357    0.0000 </r>
       <r>   -0.9331    0.0000 </r>
       <r>   -0.9051    0.0000 </r>
       <r>   -0.7434    0.0000 </r>
       <r>   -0.6820    0.0000 </r>
       <r>   -0.5594    0.0000 </r>
       <r>   -0.4157    0.0000 </r>
       <r>   -0.3794    0.0000 </r>
       <r>   -0.2102    0.0000 </r>
       <r>   -0.0836    0.0000 </r>
       <r>    0.0636    0.0000 </r>
       <r>    0.2342    0.0000 </r>
       <r>    0.3633    0.0000 </r>
       <r>    0.5108    0.0000 </r>
       <r>    0.6522    0.0000 </r>
       <r>    0.8373    0.0000 </r>
       <r>    1.0134    0.0000 </r>
       <r>    1.2933    0.0000 </r>
       <r>    1.4457    0.0000 </r>
       <r>    2.1147    0.0000 </r>
       <r>    2.2963    0.0000 </r>
       <r>    2.3774    0.0000 </r>
      </set>
      <set comment="kpoint 32">
       <r>  -17.5580    1.0000 </r>
       <r>  -17.1540    1.0000 </r>
       <r>  -17.0542    1.0000 </r>
       <r>  -16.6686    1.0000 </r>
       <r>  -16.4549    1.0000 </r>
       <r>  -16.3225    1.0000 </r>
       <r>  -16.3113    1.0000 </r>
       <r>  -16.2462    1.0000 </r>
       <r>  -16.1831    1.0000 </r>
       <r>  -16.0620    1.0000 </r>
       <r>  -15.9876    1.0000 </r>
       <r>  -15.8806    1.0000 </r>
       <r>  -15.7464    1.0000 </r>
       <r>  -15.6780    1.0000 </r>
       <r>  -15.5808    1.0000 </r>
       <r>  -15.5059    1.0000 </r>
       <r>  -15.3881    1.0000 </r>
       <r>  -15.2370    1.0000 </r>
       <r>   -9.6602    1.0000 </r>
       <r>   -9.5540    1.0000 </r>
       <r>   -9.4391    1.0000 </r>
       <r>   -8.9901    1.0000 </r>
       <r>   -8.7786    1.0000 </r>
       <r>   -8.6293    1.0000 </r>
       <r>   -8.4894    1.0000 </r>
       <r>   -8.4711    1.0000 </r>
       <r>   -8.4326    1.0000 </r>
       <r>   -8.3400    1.0000 </r>
       <r>   -8.2902    1.0000 </r>
       <r>   -8.2243    1.0000 </r>
       <r>   -8.1961    1.0000 </r>
       <r>   -8.1140    1.0000 </r>
       <r>   -8.0479    1.0000 </r>
       <r>   -7.9378    1.0000 </r>
       <r>   -7.8127    1.0000 </r>
       <r>   -7.6625    1.0000 </r>
       <r>   -7.6168    1.0000 </r>
       <r>   -7.4385    1.0000 </r>
       <r>   -7.3458    1.0000 </r>
       <r>   -7.2760    1.0000 </r>
       <r>   -7.1519    1.0000 </r>
       <r>   -7.0840    1.0000 </r>
       <r>   -7.0306    1.0000 </r>
       <r>   -6.9759    1.0000 </r>
       <r>   -6.8513    1.0000 </r>
       <r>   -6.7434    1.0000 </r>
       <r>   -6.6707    1.0000 </r>
       <r>   -6.6302    1.0000 </r>
       <r>   -6.5193    1.0000 </r>
       <r>   -6.4938    1.0000 </r>
       <r>   -6.3571    1.0000 </r>
       <r>   -6.2984    1.0000 </r>
       <r>   -6.2662    1.0000 </r>
       <r>   -6.1948    1.0000 </r>
       <r>   -6.1462    1.0000 </r>
       <r>   -6.0652    1.0000 </r>
       <r>   -5.9823    1.0000 </r>
       <r>   -5.8736    1.0000 </r>
       <r>   -5.7970    1.0000 </r>
       <r>   -5.7046    1.0000 </r>
       <r>   -5.6699    1.0000 </r>
       <r>   -5.6084    1.0000 </r>
       <r>   -5.5487    1.0000 </r>
       <r>   -5.4528    1.0000 </r>
       <r>   -5.3222    1.0000 </r>
       <r>   -5.2128    1.0000 </r>
       <r>   -5.0972    1.0000 </r>
       <r>   -5.0108    1.0000 </r>
       <r>   -4.7766    1.0000 </r>
       <r>   -4.6740    1.0000 </r>
       <r>   -4.5407    1.0000 </r>
       <r>   -4.4105    1.0000 </r>
       <r>   -4.3743    1.0000 </r>
       <r>   -4.2601    1.0000 </r>
       <r>   -4.1026    1.0000 </r>
       <r>   -3.9813    1.0000 </r>
       <r>   -3.8427    0.9999 </r>
       <r>   -3.6733    0.9937 </r>
       <r>   -3.5198    0.9204 </r>
       <r>   -3.2123    0.2218 </r>
       <r>   -3.1393    0.0998 </r>
       <r>   -2.8393    0.0003 </r>
       <r>   -2.6721    0.0000 </r>
       <r>   -2.5717    0.0000 </r>
       <r>   -2.5329    0.0000 </r>
       <r>   -2.3711    0.0000 </r>
       <r>   -2.2317    0.0000 </r>
       <r>   -2.1347    0.0000 </r>
       <r>   -1.9966    0.0000 </r>
       <r>   -1.8757    0.0000 </r>
       <r>   -1.7406    0.0000 </r>
       <r>   -1.5482    0.0000 </r>
       <r>   -1.4048    0.0000 </r>
       <r>   -1.3231    0.0000 </r>
       <r>   -1.2314    0.0000 </r>
       <r>   -1.1694    0.0000 </r>
       <r>   -1.1297    0.0000 </r>
       <r>   -1.0331    0.0000 </r>
       <r>   -1.0099    0.0000 </r>
       <r>   -0.9543    0.0000 </r>
       <r>   -0.8758    0.0000 </r>
       <r>   -0.7810    0.0000 </r>
       <r>   -0.7093    0.0000 </r>
       <r>   -0.5663    0.0000 </r>
       <r>   -0.4878    0.0000 </r>
       <r>   -0.3266    0.0000 </r>
       <r>   -0.2464    0.0000 </r>
       <r>   -0.0928    0.0000 </r>
       <r>    0.1226    0.0000 </r>
       <r>    0.2024    0.0000 </r>
       <r>    0.3312    0.0000 </r>
       <r>    0.6080    0.0000 </r>
       <r>    0.6988    0.0000 </r>
       <r>    0.8669    0.0000 </r>
       <r>    0.9777    0.0000 </r>
       <r>    1.2328    0.0000 </r>
       <r>    1.4156    0.0000 </r>
       <r>    2.0928    0.0000 </r>
       <r>    2.2658    0.0000 </r>
       <r>    2.5595    0.0000 </r>
      </set>
      <set comment="kpoint 33">
       <r>  -17.5311    1.0000 </r>
       <r>  -17.2747    1.0000 </r>
       <r>  -16.9064    1.0000 </r>
       <r>  -16.6607    1.0000 </r>
       <r>  -16.4784    1.0000 </r>
       <r>  -16.4720    1.0000 </r>
       <r>  -16.2829    1.0000 </r>
       <r>  -16.2291    1.0000 </r>
       <r>  -16.1361    1.0000 </r>
       <r>  -16.0750    1.0000 </r>
       <r>  -15.9936    1.0000 </r>
       <r>  -15.8600    1.0000 </r>
       <r>  -15.7296    1.0000 </r>
       <r>  -15.6638    1.0000 </r>
       <r>  -15.5780    1.0000 </r>
       <r>  -15.4870    1.0000 </r>
       <r>  -15.3892    1.0000 </r>
       <r>  -15.2696    1.0000 </r>
       <r>   -9.7519    1.0000 </r>
       <r>   -9.4644    1.0000 </r>
       <r>   -9.3483    1.0000 </r>
       <r>   -8.9479    1.0000 </r>
       <r>   -8.8665    1.0000 </r>
       <r>   -8.7379    1.0000 </r>
       <r>   -8.6089    1.0000 </r>
       <r>   -8.5519    1.0000 </r>
       <r>   -8.4280    1.0000 </r>
       <r>   -8.3182    1.0000 </r>
       <r>   -8.2667    1.0000 </r>
       <r>   -8.1564    1.0000 </r>
       <r>   -8.1234    1.0000 </r>
       <r>   -8.0477    1.0000 </r>
       <r>   -8.0243    1.0000 </r>
       <r>   -7.8743    1.0000 </r>
       <r>   -7.8125    1.0000 </r>
       <r>   -7.6868    1.0000 </r>
       <r>   -7.5850    1.0000 </r>
       <r>   -7.5153    1.0000 </r>
       <r>   -7.4073    1.0000 </r>
       <r>   -7.2895    1.0000 </r>
       <r>   -7.1441    1.0000 </r>
       <r>   -7.0417    1.0000 </r>
       <r>   -7.0356    1.0000 </r>
       <r>   -6.9531    1.0000 </r>
       <r>   -6.8655    1.0000 </r>
       <r>   -6.7695    1.0000 </r>
       <r>   -6.6394    1.0000 </r>
       <r>   -6.5909    1.0000 </r>
       <r>   -6.5155    1.0000 </r>
       <r>   -6.4715    1.0000 </r>
       <r>   -6.4027    1.0000 </r>
       <r>   -6.3260    1.0000 </r>
       <r>   -6.2719    1.0000 </r>
       <r>   -6.1622    1.0000 </r>
       <r>   -6.1001    1.0000 </r>
       <r>   -6.0326    1.0000 </r>
       <r>   -6.0010    1.0000 </r>
       <r>   -5.9325    1.0000 </r>
       <r>   -5.8396    1.0000 </r>
       <r>   -5.7363    1.0000 </r>
       <r>   -5.6598    1.0000 </r>
       <r>   -5.6034    1.0000 </r>
       <r>   -5.5379    1.0000 </r>
       <r>   -5.4262    1.0000 </r>
       <r>   -5.3590    1.0000 </r>
       <r>   -5.1967    1.0000 </r>
       <r>   -5.0934    1.0000 </r>
       <r>   -4.8848    1.0000 </r>
       <r>   -4.7584    1.0000 </r>
       <r>   -4.7164    1.0000 </r>
       <r>   -4.5679    1.0000 </r>
       <r>   -4.4080    1.0000 </r>
       <r>   -4.3464    1.0000 </r>
       <r>   -4.2655    1.0000 </r>
       <r>   -4.1197    1.0000 </r>
       <r>   -3.9985    1.0000 </r>
       <r>   -3.8468    0.9999 </r>
       <r>   -3.7055    0.9967 </r>
       <r>   -3.4805    0.8707 </r>
       <r>   -3.2826    0.3938 </r>
       <r>   -3.0741    0.0407 </r>
       <r>   -2.8946    0.0013 </r>
       <r>   -2.7143    0.0000 </r>
       <r>   -2.5690    0.0000 </r>
       <r>   -2.5127    0.0000 </r>
       <r>   -2.4111    0.0000 </r>
       <r>   -2.2466    0.0000 </r>
       <r>   -2.1800    0.0000 </r>
       <r>   -1.9544    0.0000 </r>
       <r>   -1.8623    0.0000 </r>
       <r>   -1.7597    0.0000 </r>
       <r>   -1.5151    0.0000 </r>
       <r>   -1.3681    0.0000 </r>
       <r>   -1.3072    0.0000 </r>
       <r>   -1.1740    0.0000 </r>
       <r>   -1.1549    0.0000 </r>
       <r>   -1.1259    0.0000 </r>
       <r>   -1.0272    0.0000 </r>
       <r>   -1.0013    0.0000 </r>
       <r>   -0.9376    0.0000 </r>
       <r>   -0.8514    0.0000 </r>
       <r>   -0.8216    0.0000 </r>
       <r>   -0.7407    0.0000 </r>
       <r>   -0.5991    0.0000 </r>
       <r>   -0.5523    0.0000 </r>
       <r>   -0.3900    0.0000 </r>
       <r>   -0.1968    0.0000 </r>
       <r>   -0.0743    0.0000 </r>
       <r>    0.0934    0.0000 </r>
       <r>    0.2081    0.0000 </r>
       <r>    0.3176    0.0000 </r>
       <r>    0.6369    0.0000 </r>
       <r>    0.7886    0.0000 </r>
       <r>    0.8812    0.0000 </r>
       <r>    1.0520    0.0000 </r>
       <r>    1.1832    0.0000 </r>
       <r>    1.3988    0.0000 </r>
       <r>    2.1306    0.0000 </r>
       <r>    2.2964    0.0000 </r>
       <r>    2.3934    0.0000 </r>
      </set>
      <set comment="kpoint 34">
       <r>  -17.5037    1.0000 </r>
       <r>  -17.3415    1.0000 </r>
       <r>  -16.7374    1.0000 </r>
       <r>  -16.6745    1.0000 </r>
       <r>  -16.6406    1.0000 </r>
       <r>  -16.4867    1.0000 </r>
       <r>  -16.2685    1.0000 </r>
       <r>  -16.2166    1.0000 </r>
       <r>  -16.1425    1.0000 </r>
       <r>  -16.0383    1.0000 </r>
       <r>  -16.0025    1.0000 </r>
       <r>  -15.8449    1.0000 </r>
       <r>  -15.7238    1.0000 </r>
       <r>  -15.6592    1.0000 </r>
       <r>  -15.5783    1.0000 </r>
       <r>  -15.4815    1.0000 </r>
       <r>  -15.3803    1.0000 </r>
       <r>  -15.2956    1.0000 </r>
       <r>   -9.7941    1.0000 </r>
       <r>   -9.4042    1.0000 </r>
       <r>   -9.1911    1.0000 </r>
       <r>   -9.0404    1.0000 </r>
       <r>   -8.9335    1.0000 </r>
       <r>   -8.8485    1.0000 </r>
       <r>   -8.6470    1.0000 </r>
       <r>   -8.5618    1.0000 </r>
       <r>   -8.4386    1.0000 </r>
       <r>   -8.3235    1.0000 </r>
       <r>   -8.2504    1.0000 </r>
       <r>   -8.1440    1.0000 </r>
       <r>   -8.0984    1.0000 </r>
       <r>   -7.9909    1.0000 </r>
       <r>   -7.9172    1.0000 </r>
       <r>   -7.8640    1.0000 </r>
       <r>   -7.7422    1.0000 </r>
       <r>   -7.6860    1.0000 </r>
       <r>   -7.6253    1.0000 </r>
       <r>   -7.5987    1.0000 </r>
       <r>   -7.4522    1.0000 </r>
       <r>   -7.3097    1.0000 </r>
       <r>   -7.1549    1.0000 </r>
       <r>   -7.0589    1.0000 </r>
       <r>   -6.9612    1.0000 </r>
       <r>   -6.9237    1.0000 </r>
       <r>   -6.8470    1.0000 </r>
       <r>   -6.7247    1.0000 </r>
       <r>   -6.6229    1.0000 </r>
       <r>   -6.5686    1.0000 </r>
       <r>   -6.5505    1.0000 </r>
       <r>   -6.4749    1.0000 </r>
       <r>   -6.4059    1.0000 </r>
       <r>   -6.3458    1.0000 </r>
       <r>   -6.2792    1.0000 </r>
       <r>   -6.2601    1.0000 </r>
       <r>   -6.1385    1.0000 </r>
       <r>   -6.0093    1.0000 </r>
       <r>   -5.9701    1.0000 </r>
       <r>   -5.9512    1.0000 </r>
       <r>   -5.8322    1.0000 </r>
       <r>   -5.7115    1.0000 </r>
       <r>   -5.6745    1.0000 </r>
       <r>   -5.6239    1.0000 </r>
       <r>   -5.5193    1.0000 </r>
       <r>   -5.4798    1.0000 </r>
       <r>   -5.3738    1.0000 </r>
       <r>   -5.1177    1.0000 </r>
       <r>   -5.0692    1.0000 </r>
       <r>   -4.8889    1.0000 </r>
       <r>   -4.8095    1.0000 </r>
       <r>   -4.6451    1.0000 </r>
       <r>   -4.4797    1.0000 </r>
       <r>   -4.4558    1.0000 </r>
       <r>   -4.3262    1.0000 </r>
       <r>   -4.2714    1.0000 </r>
       <r>   -4.1623    1.0000 </r>
       <r>   -3.9830    1.0000 </r>
       <r>   -3.8922    1.0000 </r>
       <r>   -3.7129    0.9972 </r>
       <r>   -3.4682    0.8516 </r>
       <r>   -3.3040    0.4532 </r>
       <r>   -3.0280    0.0192 </r>
       <r>   -2.9384    0.0034 </r>
       <r>   -2.7405    0.0000 </r>
       <r>   -2.5682    0.0000 </r>
       <r>   -2.4915    0.0000 </r>
       <r>   -2.4298    0.0000 </r>
       <r>   -2.2695    0.0000 </r>
       <r>   -2.1865    0.0000 </r>
       <r>   -1.9282    0.0000 </r>
       <r>   -1.8647    0.0000 </r>
       <r>   -1.7554    0.0000 </r>
       <r>   -1.4947    0.0000 </r>
       <r>   -1.3646    0.0000 </r>
       <r>   -1.2953    0.0000 </r>
       <r>   -1.1658    0.0000 </r>
       <r>   -1.1356    0.0000 </r>
       <r>   -1.1285    0.0000 </r>
       <r>   -1.0472    0.0000 </r>
       <r>   -1.0015    0.0000 </r>
       <r>   -0.8917    0.0000 </r>
       <r>   -0.8610    0.0000 </r>
       <r>   -0.8060    0.0000 </r>
       <r>   -0.7465    0.0000 </r>
       <r>   -0.6269    0.0000 </r>
       <r>   -0.6213    0.0000 </r>
       <r>   -0.4156    0.0000 </r>
       <r>   -0.1348    0.0000 </r>
       <r>   -0.0846    0.0000 </r>
       <r>    0.0565    0.0000 </r>
       <r>    0.2269    0.0000 </r>
       <r>    0.3026    0.0000 </r>
       <r>    0.6287    0.0000 </r>
       <r>    0.8490    0.0000 </r>
       <r>    0.8966    0.0000 </r>
       <r>    1.1129    0.0000 </r>
       <r>    1.1458    0.0000 </r>
       <r>    1.3981    0.0000 </r>
       <r>    2.2197    0.0000 </r>
       <r>    2.2399    0.0000 </r>
       <r>    2.3919    0.0000 </r>
      </set>
     </set>
    </set>
   </array>
  </eigenvalues>
  <separator name="orbital magnetization" >
   <v name="MAGDIPOLOUT">      0.00000000      0.00000000      0.00000000</v>
  </separator>
 </calculation>
 <structure name="finalpos" >
  <crystal>
   <varray name="basis" >
    <v>       8.32322550       4.82231108       0.00000000 </v>
    <v>      -8.33221410       4.83795487       0.00000000 </v>
    <v>       0.00000000       0.00000000      30.00000000 </v>
   </varray>
   <i name="volume">   2413.43753170 </i>
   <varray name="rec_basis" >
    <v>       0.06013773       0.10357278       0.00000000 </v>
    <v>      -0.05994327       0.10346104       0.00000000 </v>
    <v>       0.00000000       0.00000000       0.03333333 </v>
   </varray>
  </crystal>
  <varray name="positions" >
   <v>       0.32133318       0.29886005      -0.00037374 </v>
   <v>       0.97833722       0.29870742      -0.00118363 </v>
   <v>       0.68254185       0.69684047       0.00094494 </v>
   <v>      -0.02426189      -0.01067635      -0.00002409 </v>
   <v>       0.66678563       0.00556919       0.00032669 </v>
   <v>       0.65409845       0.30249958      -0.00018253 </v>
   <v>      -0.01961100       0.68463954      -0.00008447 </v>
   <v>       0.36598524       0.01297599       0.00063879 </v>
   <v>       0.36690962       0.69967956      -0.00008785 </v>
   <v>       0.10943792       0.22170037       0.94861152 </v>
   <v>       0.22084910       0.10299588       0.05015807 </v>
   <v>       0.10880505       0.55485460       0.95829476 </v>
   <v>       0.22371830       0.44230034       0.04219897 </v>
   <v>       0.11763798       0.89709388       0.95082676 </v>
   <v>       0.22370679       0.77983851       0.05029552 </v>
   <v>       0.44246011       0.22120625       0.94564074 </v>
   <v>       0.56068210       0.10864662       0.05746565 </v>
   <v>       0.44822460       0.55407410       0.95369998 </v>
   <v>       0.55203580       0.44581654       0.04372137 </v>
   <v>       0.45200818       0.89818378       0.94370112 </v>
   <v>       0.56376966       0.78054986       0.05497955 </v>
   <v>       0.78265492       0.22383379       0.94519280 </v>
   <v>       0.89135334       0.11511641       0.05441877 </v>
   <v>       0.76655293       0.55571034       0.95170479 </v>
   <v>       0.89282447       0.44342186       0.04711594 </v>
   <v>       0.77168176       0.88677279       0.94574294 </v>
   <v>       0.87769315       0.77700308       0.05625657 </v>
  </varray>
 </structure>
</modeling>
