   27   27  100    1
  0.9710400E+02  0.1002848E-08  0.1002848E-08  0.3000000E-08  0.5000000E-15
  1.000000000000000E-004
  CAR 
 unknown system                          
    159     34    120
 
  0.0000000E+00  0.0000000E+00  0.0000000E+00  0.1562500E-01
    1      -17.805483   1.000000
    2      -16.715815   1.000000
    3      -16.678827   1.000000
    4      -16.528436   1.000000
    5      -16.502323   1.000000
    6      -16.495963   1.000000
    7      -16.407040   1.000000
    8      -16.350626   1.000000
    9      -16.141898   1.000000
   10      -16.121075   1.000000
   11      -16.100848   1.000000
   12      -16.019181   1.000000
   13      -15.862677   1.000000
   14      -15.654727   1.000000
   15      -15.631005   1.000000
   16      -15.501528   1.000000
   17      -15.295115   1.000000
   18      -15.248935   1.000000
   19       -9.431404   1.000000
   20       -8.987379   1.000000
   21       -8.870503   1.000000
   22       -8.846246   1.000000
   23       -8.763816   1.000000
   24       -8.717533   1.000000
   25       -8.623650   1.000000
   26       -8.576684   1.000000
   27       -8.511325   1.000000
   28       -8.396344   1.000000
   29       -8.356829   1.000000
   30       -8.344256   1.000000
   31       -8.321299   1.000000
   32       -8.122236   1.000000
   33       -8.000366   1.000000
   34       -7.977380   1.000000
   35       -7.883807   1.000000
   36       -7.799665   1.000000
   37       -7.757569   1.000000
   38       -7.549236   1.000000
   39       -7.453607   1.000000
   40       -7.435497   1.000000
   41       -7.303818   1.000000
   42       -7.281173   1.000000
   43       -7.107403   1.000000
   44       -6.980627   1.000000
   45       -6.821787   1.000000
   46       -6.816897   1.000000
   47       -6.712807   1.000000
   48       -6.613503   1.000000
   49       -6.583677   1.000000
   50       -6.533454   1.000000
   51       -6.419493   1.000000
   52       -6.380325   1.000000
   53       -6.277549   1.000000
   54       -6.248435   1.000000
   55       -6.243010   1.000000
   56       -6.197644   1.000000
   57       -6.032458   1.000000
   58       -5.902644   1.000000
   59       -5.700886   1.000000
   60       -5.591897   1.000000
   61       -5.509606   1.000000
   62       -5.432293   1.000000
   63       -5.231945   1.000000
   64       -5.220245   1.000000
   65       -5.134251   1.000000
   66       -4.998831   1.000000
   67       -4.984153   1.000000
   68       -4.823579   1.000000
   69       -4.810212   1.000000
   70       -4.731655   1.000000
   71       -4.648832   1.000000
   72       -4.579437   1.000000
   73       -4.448233   1.000000
   74       -4.225404   1.000000
   75       -4.148761   1.000000
   76       -4.045453   1.000000
   77       -3.801932   0.999868
   78       -3.558643   0.973040
   79       -3.503293   0.937742
   80       -3.432222   0.849326
   81       -3.300250   0.539973
   82       -2.868759   0.001585
   83       -2.690590   0.000013
   84       -2.615965   0.000001
   85       -2.480855   0.000000
   86       -2.429517   0.000000
   87       -2.307069   0.000000
   88       -2.193076   0.000000
   89       -2.143581   0.000000
   90       -2.043126   0.000000
   91       -1.940923   0.000000
   92       -1.819798   0.000000
   93       -1.295656   0.000000
   94       -1.279476   0.000000
   95       -1.118246   0.000000
   96       -1.057147   0.000000
   97       -1.028329   0.000000
   98       -0.816672   0.000000
   99       -0.747684   0.000000
  100       -0.688495   0.000000
  101       -0.624221   0.000000
  102       -0.458229   0.000000
  103       -0.431753   0.000000
  104       -0.361565   0.000000
  105       -0.264061   0.000000
  106       -0.061833   0.000000
  107       -0.023895   0.000000
  108        0.017882   0.000000
  109        0.099053   0.000000
  110        0.312552   0.000000
  111        0.352639   0.000000
  112        0.438712   0.000000
  113        0.525965   0.000000
  114        0.870519   0.000000
  115        0.943939   0.000000
  116        1.045180   0.000000
  117        1.091833   0.000000
  118        1.622413   0.000000
  119        1.823403   0.000000
  120        2.132113   0.000000
 
  0.1250000E+00  0.2775558E-16  0.0000000E+00  0.3125000E-01
    1      -17.781281   1.000000
    2      -16.793533   1.000000
    3      -16.686491   1.000000
    4      -16.618526   1.000000
    5      -16.542441   1.000000
    6      -16.418441   1.000000
    7      -16.354886   1.000000
    8      -16.333148   1.000000
    9      -16.192074   1.000000
   10      -16.105226   1.000000
   11      -16.040787   1.000000
   12      -15.968641   1.000000
   13      -15.856909   1.000000
   14      -15.675540   1.000000
   15      -15.624983   1.000000
   16      -15.501257   1.000000
   17      -15.293669   1.000000
   18      -15.262629   1.000000
   19       -9.427019   1.000000
   20       -9.082770   1.000000
   21       -9.013822   1.000000
   22       -8.943256   1.000000
   23       -8.795645   1.000000
   24       -8.712848   1.000000
   25       -8.645439   1.000000
   26       -8.591285   1.000000
   27       -8.475206   1.000000
   28       -8.396464   1.000000
   29       -8.377856   1.000000
   30       -8.305530   1.000000
   31       -8.112572   1.000000
   32       -8.058617   1.000000
   33       -8.016345   1.000000
   34       -7.910208   1.000000
   35       -7.800639   1.000000
   36       -7.729264   1.000000
   37       -7.681265   1.000000
   38       -7.574627   1.000000
   39       -7.545925   1.000000
   40       -7.369193   1.000000
   41       -7.324894   1.000000
   42       -7.242310   1.000000
   43       -7.117262   1.000000
   44       -6.996218   1.000000
   45       -6.936478   1.000000
   46       -6.841759   1.000000
   47       -6.713692   1.000000
   48       -6.604963   1.000000
   49       -6.525866   1.000000
   50       -6.487007   1.000000
   51       -6.423894   1.000000
   52       -6.397670   1.000000
   53       -6.334638   1.000000
   54       -6.248232   1.000000
   55       -6.209391   1.000000
   56       -6.179099   1.000000
   57       -5.972469   1.000000
   58       -5.929983   1.000000
   59       -5.683415   1.000000
   60       -5.589760   1.000000
   61       -5.543425   1.000000
   62       -5.458272   1.000000
   63       -5.309171   1.000000
   64       -5.225742   1.000000
   65       -5.174518   1.000000
   66       -5.023586   1.000000
   67       -4.967707   1.000000
   68       -4.950581   1.000000
   69       -4.781081   1.000000
   70       -4.715715   1.000000
   71       -4.685279   1.000000
   72       -4.504513   1.000000
   73       -4.399330   1.000000
   74       -4.219347   1.000000
   75       -4.045061   1.000000
   76       -4.016872   1.000000
   77       -3.856983   0.999973
   78       -3.768429   0.999676
   79       -3.555667   0.971703
   80       -3.313449   0.576793
   81       -3.207738   0.289861
   82       -2.835251   0.000717
   83       -2.677078   0.000008
   84       -2.629369   0.000002
   85       -2.475794   0.000000
   86       -2.401891   0.000000
   87       -2.290760   0.000000
   88       -2.197486   0.000000
   89       -2.129977   0.000000
   90       -2.045845   0.000000
   91       -1.935401   0.000000
   92       -1.816841   0.000000
   93       -1.300585   0.000000
   94       -1.280213   0.000000
   95       -1.118765   0.000000
   96       -1.057673   0.000000
   97       -1.012209   0.000000
   98       -0.851977   0.000000
   99       -0.784075   0.000000
  100       -0.694228   0.000000
  101       -0.656594   0.000000
  102       -0.555032   0.000000
  103       -0.464507   0.000000
  104       -0.411548   0.000000
  105       -0.261298   0.000000
  106       -0.118582   0.000000
  107       -0.033625   0.000000
  108       -0.004591   0.000000
  109        0.057105   0.000000
  110        0.283063   0.000000
  111        0.389189   0.000000
  112        0.474465   0.000000
  113        0.623280   0.000000
  114        0.817017   0.000000
  115        0.977603   0.000000
  116        1.055295   0.000000
  117        1.101405   0.000000
  118        1.665249   0.000000
  119        1.861370   0.000000
  120        2.166758   0.000000
 
  0.2500000E+00  0.5551115E-16  0.0000000E+00  0.3125000E-01
    1      -17.710578   1.000000
    2      -16.982354   1.000000
    3      -16.703758   1.000000
    4      -16.671885   1.000000
    5      -16.593516   1.000000
    6      -16.388934   1.000000
    7      -16.298289   1.000000
    8      -16.284345   1.000000
    9      -16.189898   1.000000
   10      -16.096380   1.000000
   11      -15.983083   1.000000
   12      -15.884384   1.000000
   13      -15.813959   1.000000
   14      -15.708760   1.000000
   15      -15.622874   1.000000
   16      -15.502651   1.000000
   17      -15.320157   1.000000
   18      -15.267738   1.000000
   19       -9.503817   1.000000
   20       -9.268395   1.000000
   21       -9.120052   1.000000
   22       -9.061211   1.000000
   23       -8.875830   1.000000
   24       -8.791839   1.000000
   25       -8.635365   1.000000
   26       -8.556388   1.000000
   27       -8.453123   1.000000
   28       -8.375475   1.000000
   29       -8.239123   1.000000
   30       -8.202641   1.000000
   31       -8.166068   1.000000
   32       -8.020919   1.000000
   33       -7.901042   1.000000
   34       -7.812982   1.000000
   35       -7.765157   1.000000
   36       -7.689443   1.000000
   37       -7.564920   1.000000
   38       -7.531520   1.000000
   39       -7.438792   1.000000
   40       -7.381959   1.000000
   41       -7.249026   1.000000
   42       -7.157309   1.000000
   43       -7.082048   1.000000
   44       -7.053257   1.000000
   45       -6.974000   1.000000
   46       -6.821105   1.000000
   47       -6.728688   1.000000
   48       -6.673092   1.000000
   49       -6.574072   1.000000
   50       -6.461492   1.000000
   51       -6.428375   1.000000
   52       -6.361263   1.000000
   53       -6.339211   1.000000
   54       -6.211877   1.000000
   55       -6.158112   1.000000
   56       -6.096740   1.000000
   57       -5.959046   1.000000
   58       -5.880499   1.000000
   59       -5.775142   1.000000
   60       -5.677937   1.000000
   61       -5.646493   1.000000
   62       -5.540740   1.000000
   63       -5.448106   1.000000
   64       -5.332195   1.000000
   65       -5.159298   1.000000
   66       -5.128037   1.000000
   67       -5.001966   1.000000
   68       -4.957013   1.000000
   69       -4.834064   1.000000
   70       -4.620322   1.000000
   71       -4.589874   1.000000
   72       -4.404766   1.000000
   73       -4.318354   1.000000
   74       -4.250382   1.000000
   75       -4.151397   1.000000
   76       -4.033268   1.000000
   77       -3.985952   1.000000
   78       -3.749340   0.999473
   79       -3.560991   0.974057
   80       -3.199835   0.271039
   81       -3.090407   0.083264
   82       -2.779281   0.000170
   83       -2.659967   0.000005
   84       -2.607492   0.000001
   85       -2.469059   0.000000
   86       -2.394796   0.000000
   87       -2.292982   0.000000
   88       -2.176623   0.000000
   89       -2.109304   0.000000
   90       -2.013747   0.000000
   91       -1.923636   0.000000
   92       -1.771100   0.000000
   93       -1.325800   0.000000
   94       -1.291329   0.000000
   95       -1.132255   0.000000
   96       -1.033134   0.000000
   97       -1.011276   0.000000
   98       -0.949590   0.000000
   99       -0.891420   0.000000
  100       -0.757983   0.000000
  101       -0.706123   0.000000
  102       -0.626148   0.000000
  103       -0.531276   0.000000
  104       -0.474011   0.000000
  105       -0.419344   0.000000
  106       -0.162721   0.000000
  107       -0.144218   0.000000
  108       -0.039774   0.000000
  109        0.045601   0.000000
  110        0.215261   0.000000
  111        0.413765   0.000000
  112        0.572039   0.000000
  113        0.693968   0.000000
  114        0.786737   0.000000
  115        0.990430   0.000000
  116        1.083230   0.000000
  117        1.212984   0.000000
  118        1.784653   0.000000
  119        1.971625   0.000000
  120        2.269097   0.000000
 
  0.3750000E+00  0.0000000E+00  0.0000000E+00  0.3125000E-01
    1      -17.602572   1.000000
    2      -17.181230   1.000000
    3      -16.747890   1.000000
    4      -16.666383   1.000000
    5      -16.627790   1.000000
    6      -16.401073   1.000000
    7      -16.273586   1.000000
    8      -16.254974   1.000000
    9      -16.129298   1.000000
   10      -16.070401   1.000000
   11      -15.954754   1.000000
   12      -15.867308   1.000000
   13      -15.770507   1.000000
   14      -15.694612   1.000000
   15      -15.623742   1.000000
   16      -15.499454   1.000000
   17      -15.381816   1.000000
   18      -15.248545   1.000000
   19       -9.678325   1.000000
   20       -9.296553   1.000000
   21       -9.239055   1.000000
   22       -9.065021   1.000000
   23       -8.970062   1.000000
   24       -8.823794   1.000000
   25       -8.607246   1.000000
   26       -8.471918   1.000000
   27       -8.442218   1.000000
   28       -8.294111   1.000000
   29       -8.243313   1.000000
   30       -8.225713   1.000000
   31       -8.106684   1.000000
   32       -8.046670   1.000000
   33       -7.919047   1.000000
   34       -7.846130   1.000000
   35       -7.763446   1.000000
   36       -7.674294   1.000000
   37       -7.536183   1.000000
   38       -7.485697   1.000000
   39       -7.361177   1.000000
   40       -7.208428   1.000000
   41       -7.171484   1.000000
   42       -7.119536   1.000000
   43       -7.067837   1.000000
   44       -6.968626   1.000000
   45       -6.848583   1.000000
   46       -6.792574   1.000000
   47       -6.769795   1.000000
   48       -6.610404   1.000000
   49       -6.516951   1.000000
   50       -6.492288   1.000000
   51       -6.406778   1.000000
   52       -6.332650   1.000000
   53       -6.268130   1.000000
   54       -6.213499   1.000000
   55       -6.133057   1.000000
   56       -6.074856   1.000000
   57       -5.944455   1.000000
   58       -5.893053   1.000000
   59       -5.879729   1.000000
   60       -5.864792   1.000000
   61       -5.771249   1.000000
   62       -5.692151   1.000000
   63       -5.622179   1.000000
   64       -5.339871   1.000000
   65       -5.191470   1.000000
   66       -5.102453   1.000000
   67       -5.026998   1.000000
   68       -4.936113   1.000000
   69       -4.833500   1.000000
   70       -4.710360   1.000000
   71       -4.505492   1.000000
   72       -4.403896   1.000000
   73       -4.340139   1.000000
   74       -4.253901   1.000000
   75       -4.222446   1.000000
   76       -4.066868   1.000000
   77       -3.957012   0.999999
   78       -3.632182   0.992807
   79       -3.563390   0.975063
   80       -3.090236   0.083079
   81       -3.004350   0.023188
   82       -2.763439   0.000110
   83       -2.627850   0.000002
   84       -2.564625   0.000000
   85       -2.482093   0.000000
   86       -2.462650   0.000000
   87       -2.259164   0.000000
   88       -2.156657   0.000000
   89       -2.082096   0.000000
   90       -1.982887   0.000000
   91       -1.916668   0.000000
   92       -1.648404   0.000000
   93       -1.368250   0.000000
   94       -1.330203   0.000000
   95       -1.174423   0.000000
   96       -1.090109   0.000000
   97       -1.013412   0.000000
   98       -0.997216   0.000000
   99       -0.910617   0.000000
  100       -0.884248   0.000000
  101       -0.774302   0.000000
  102       -0.670001   0.000000
  103       -0.586165   0.000000
  104       -0.525758   0.000000
  105       -0.483561   0.000000
  106       -0.268831   0.000000
  107       -0.185622   0.000000
  108       -0.114055   0.000000
  109       -0.001335   0.000000
  110        0.174691   0.000000
  111        0.407581   0.000000
  112        0.625722   0.000000
  113        0.707829   0.000000
  114        0.827177   0.000000
  115        0.979714   0.000000
  116        1.124536   0.000000
  117        1.356793   0.000000
  118        1.963478   0.000000
  119        2.143847   0.000000
  120        2.421268   0.000000
 
  0.5000000E+00  0.1110223E-15  0.0000000E+00  0.1562500E-01
    1      -17.518225   1.000000
    2      -17.298161   1.000000
    3      -16.763669   1.000000
    4      -16.664201   1.000000
    5      -16.638172   1.000000
    6      -16.408365   1.000000
    7      -16.269513   1.000000
    8      -16.249861   1.000000
    9      -16.089539   1.000000
   10      -16.031761   1.000000
   11      -15.994540   1.000000
   12      -15.818112   1.000000
   13      -15.802190   1.000000
   14      -15.673523   1.000000
   15      -15.616654   1.000000
   16      -15.483023   1.000000
   17      -15.426869   1.000000
   18      -15.237955   1.000000
   19       -9.749927   1.000000
   20       -9.301309   1.000000
   21       -9.290727   1.000000
   22       -9.028978   1.000000
   23       -9.014765   1.000000
   24       -8.832229   1.000000
   25       -8.604018   1.000000
   26       -8.448332   1.000000
   27       -8.379202   1.000000
   28       -8.369061   1.000000
   29       -8.195856   1.000000
   30       -8.162383   1.000000
   31       -8.152763   1.000000
   32       -8.071382   1.000000
   33       -7.903560   1.000000
   34       -7.822804   1.000000
   35       -7.802104   1.000000
   36       -7.766671   1.000000
   37       -7.517793   1.000000
   38       -7.482196   1.000000
   39       -7.259048   1.000000
   40       -7.251867   1.000000
   41       -7.128826   1.000000
   42       -7.044861   1.000000
   43       -6.970085   1.000000
   44       -6.907547   1.000000
   45       -6.855136   1.000000
   46       -6.803838   1.000000
   47       -6.753959   1.000000
   48       -6.560353   1.000000
   49       -6.551215   1.000000
   50       -6.438844   1.000000
   51       -6.326217   1.000000
   52       -6.312317   1.000000
   53       -6.227292   1.000000
   54       -6.168892   1.000000
   55       -6.148490   1.000000
   56       -6.114710   1.000000
   57       -6.098671   1.000000
   58       -5.976494   1.000000
   59       -5.906428   1.000000
   60       -5.841003   1.000000
   61       -5.816075   1.000000
   62       -5.736343   1.000000
   63       -5.552414   1.000000
   64       -5.365933   1.000000
   65       -5.313035   1.000000
   66       -5.169394   1.000000
   67       -5.079890   1.000000
   68       -4.912863   1.000000
   69       -4.774215   1.000000
   70       -4.741803   1.000000
   71       -4.477487   1.000000
   72       -4.453894   1.000000
   73       -4.340447   1.000000
   74       -4.246668   1.000000
   75       -4.209650   1.000000
   76       -4.055803   1.000000
   77       -3.929588   0.999997
   78       -3.591114   0.984501
   79       -3.575329   0.979596
   80       -3.027822   0.033926
   81       -2.975810   0.014126
   82       -2.768723   0.000127
   83       -2.574133   0.000000
   84       -2.561173   0.000000
   85       -2.542070   0.000000
   86       -2.478715   0.000000
   87       -2.226836   0.000000
   88       -2.154716   0.000000
   89       -2.062159   0.000000
   90       -1.974440   0.000000
   91       -1.919116   0.000000
   92       -1.568719   0.000000
   93       -1.385782   0.000000
   94       -1.366900   0.000000
   95       -1.228703   0.000000
   96       -1.064571   0.000000
   97       -1.029761   0.000000
   98       -1.025518   0.000000
   99       -0.936260   0.000000
  100       -0.910109   0.000000
  101       -0.794355   0.000000
  102       -0.727855   0.000000
  103       -0.598671   0.000000
  104       -0.524784   0.000000
  105       -0.497891   0.000000
  106       -0.316846   0.000000
  107       -0.214174   0.000000
  108       -0.123275   0.000000
  109       -0.039516   0.000000
  110        0.159766   0.000000
  111        0.400740   0.000000
  112        0.641405   0.000000
  113        0.714837   0.000000
  114        0.847002   0.000000
  115        0.976757   0.000000
  116        1.142478   0.000000
  117        1.415089   0.000000
  118        2.151996   0.000000
  119        2.240983   0.000000
  120        2.357645   0.000000
 
  0.0000000E+00  0.1250000E+00  0.0000000E+00  0.3125000E-01
    1      -17.781651   1.000000
    2      -16.789569   1.000000
    3      -16.712795   1.000000
    4      -16.572473   1.000000
    5      -16.549176   1.000000
    6      -16.442750   1.000000
    7      -16.382596   1.000000
    8      -16.291267   1.000000
    9      -16.176819   1.000000
   10      -16.115228   1.000000
   11      -16.052221   1.000000
   12      -15.981136   1.000000
   13      -15.838616   1.000000
   14      -15.671400   1.000000
   15      -15.630308   1.000000
   16      -15.508965   1.000000
   17      -15.299920   1.000000
   18      -15.254246   1.000000
   19       -9.452703   1.000000
   20       -9.076706   1.000000
   21       -8.965966   1.000000
   22       -8.957869   1.000000
   23       -8.774980   1.000000
   24       -8.727446   1.000000
   25       -8.679685   1.000000
   26       -8.533035   1.000000
   27       -8.458603   1.000000
   28       -8.443031   1.000000
   29       -8.386557   1.000000
   30       -8.233852   1.000000
   31       -8.184330   1.000000
   32       -8.049710   1.000000
   33       -8.004346   1.000000
   34       -7.872591   1.000000
   35       -7.832931   1.000000
   36       -7.758368   1.000000
   37       -7.699605   1.000000
   38       -7.568486   1.000000
   39       -7.504843   1.000000
   40       -7.434334   1.000000
   41       -7.275077   1.000000
   42       -7.241733   1.000000
   43       -7.148071   1.000000
   44       -7.022180   1.000000
   45       -6.883550   1.000000
   46       -6.832196   1.000000
   47       -6.725005   1.000000
   48       -6.632990   1.000000
   49       -6.556269   1.000000
   50       -6.474420   1.000000
   51       -6.443025   1.000000
   52       -6.380752   1.000000
   53       -6.309418   1.000000
   54       -6.250711   1.000000
   55       -6.236025   1.000000
   56       -6.156376   1.000000
   57       -5.952765   1.000000
   58       -5.917140   1.000000
   59       -5.705964   1.000000
   60       -5.592793   1.000000
   61       -5.544466   1.000000
   62       -5.450235   1.000000
   63       -5.352523   1.000000
   64       -5.230082   1.000000
   65       -5.176394   1.000000
   66       -5.051020   1.000000
   67       -4.987767   1.000000
   68       -4.854071   1.000000
   69       -4.780426   1.000000
   70       -4.705439   1.000000
   71       -4.622271   1.000000
   72       -4.495736   1.000000
   73       -4.426168   1.000000
   74       -4.205050   1.000000
   75       -4.065538   1.000000
   76       -4.046852   1.000000
   77       -3.924315   0.999997
   78       -3.701800   0.998358
   79       -3.509085   0.942608
   80       -3.414447   0.818023
   81       -3.176470   0.219202
   82       -2.839050   0.000787
   83       -2.669474   0.000007
   84       -2.616780   0.000001
   85       -2.469617   0.000000
   86       -2.420066   0.000000
   87       -2.279043   0.000000
   88       -2.188811   0.000000
   89       -2.121702   0.000000
   90       -2.037163   0.000000
   91       -1.931403   0.000000
   92       -1.838793   0.000000
   93       -1.299877   0.000000
   94       -1.288996   0.000000
   95       -1.098792   0.000000
   96       -1.060072   0.000000
   97       -1.029723   0.000000
   98       -0.847968   0.000000
   99       -0.767850   0.000000
  100       -0.723928   0.000000
  101       -0.679216   0.000000
  102       -0.539817   0.000000
  103       -0.509559   0.000000
  104       -0.415370   0.000000
  105       -0.253776   0.000000
  106       -0.119695   0.000000
  107       -0.028954   0.000000
  108       -0.002647   0.000000
  109        0.088770   0.000000
  110        0.290889   0.000000
  111        0.386823   0.000000
  112        0.469221   0.000000
  113        0.586830   0.000000
  114        0.862776   0.000000
  115        0.950999   0.000000
  116        1.074884   0.000000
  117        1.120409   0.000000
  118        1.666718   0.000000
  119        1.862135   0.000000
  120        2.167054   0.000000
 
  0.1250000E+00  0.1250000E+00  0.0000000E+00  0.3125000E-01
    1      -17.734210   1.000000
    2      -16.906462   1.000000
    3      -16.774353   1.000000
    4      -16.651363   1.000000
    5      -16.493899   1.000000
    6      -16.422449   1.000000
    7      -16.320171   1.000000
    8      -16.306440   1.000000
    9      -16.175012   1.000000
   10      -16.098479   1.000000
   11      -16.017024   1.000000
   12      -15.906304   1.000000
   13      -15.820735   1.000000
   14      -15.689242   1.000000
   15      -15.634389   1.000000
   16      -15.506548   1.000000
   17      -15.303267   1.000000
   18      -15.271871   1.000000
   19       -9.478369   1.000000
   20       -9.229181   1.000000
   21       -9.151457   1.000000
   22       -9.016087   1.000000
   23       -8.803260   1.000000
   24       -8.713285   1.000000
   25       -8.660259   1.000000
   26       -8.557160   1.000000
   27       -8.446078   1.000000
   28       -8.389378   1.000000
   29       -8.314897   1.000000
   30       -8.239138   1.000000
   31       -8.125513   1.000000
   32       -8.043425   1.000000
   33       -7.930727   1.000000
   34       -7.831543   1.000000
   35       -7.774145   1.000000
   36       -7.676191   1.000000
   37       -7.636257   1.000000
   38       -7.503038   1.000000
   39       -7.439758   1.000000
   40       -7.352204   1.000000
   41       -7.333683   1.000000
   42       -7.230230   1.000000
   43       -7.126452   1.000000
   44       -7.028761   1.000000
   45       -6.958878   1.000000
   46       -6.841503   1.000000
   47       -6.732984   1.000000
   48       -6.633415   1.000000
   49       -6.571466   1.000000
   50       -6.480521   1.000000
   51       -6.422173   1.000000
   52       -6.352907   1.000000
   53       -6.327408   1.000000
   54       -6.237385   1.000000
   55       -6.169133   1.000000
   56       -6.141414   1.000000
   57       -5.961914   1.000000
   58       -5.887835   1.000000
   59       -5.737175   1.000000
   60       -5.663803   1.000000
   61       -5.589605   1.000000
   62       -5.495998   1.000000
   63       -5.400654   1.000000
   64       -5.301469   1.000000
   65       -5.209089   1.000000
   66       -5.099621   1.000000
   67       -5.024843   1.000000
   68       -4.917358   1.000000
   69       -4.761377   1.000000
   70       -4.673638   1.000000
   71       -4.592355   1.000000
   72       -4.425422   1.000000
   73       -4.355335   1.000000
   74       -4.194912   1.000000
   75       -4.148638   1.000000
   76       -4.031872   1.000000
   77       -3.936136   0.999998
   78       -3.821560   0.999924
   79       -3.526814   0.955661
   80       -3.305552   0.554823
   81       -3.090229   0.083071
   82       -2.787968   0.000214
   83       -2.649247   0.000003
   84       -2.620302   0.000001
   85       -2.462947   0.000000
   86       -2.393276   0.000000
   87       -2.275527   0.000000
   88       -2.171575   0.000000
   89       -2.107967   0.000000
   90       -2.024889   0.000000
   91       -1.925400   0.000000
   92       -1.819701   0.000000
   93       -1.318178   0.000000
   94       -1.287666   0.000000
   95       -1.121467   0.000000
   96       -1.040496   0.000000
   97       -1.019908   0.000000
   98       -0.906399   0.000000
   99       -0.862632   0.000000
  100       -0.765888   0.000000
  101       -0.669914   0.000000
  102       -0.643805   0.000000
  103       -0.543354   0.000000
  104       -0.468608   0.000000
  105       -0.360560   0.000000
  106       -0.176989   0.000000
  107       -0.102584   0.000000
  108        0.008258   0.000000
  109        0.067261   0.000000
  110        0.244190   0.000000
  111        0.416834   0.000000
  112        0.532367   0.000000
  113        0.647301   0.000000
  114        0.808825   0.000000
  115        1.013412   0.000000
  116        1.087484   0.000000
  117        1.165101   0.000000
  118        1.747746   0.000000
  119        1.935913   0.000000
  120        2.235656   0.000000
 
  0.2500000E+00  0.1250000E+00  0.0000000E+00  0.3125000E-01
    1      -17.643982   1.000000
    2      -17.078913   1.000000
    3      -16.870485   1.000000
    4      -16.648589   1.000000
    5      -16.499280   1.000000
    6      -16.383917   1.000000
    7      -16.308461   1.000000
    8      -16.270984   1.000000
    9      -16.149274   1.000000
   10      -16.088990   1.000000
   11      -15.956911   1.000000
   12      -15.889342   1.000000
   13      -15.776360   1.000000
   14      -15.699534   1.000000
   15      -15.629203   1.000000
   16      -15.502222   1.000000
   17      -15.348224   1.000000
   18      -15.260005   1.000000
   19       -9.597188   1.000000
   20       -9.388794   1.000000
   21       -9.249350   1.000000
   22       -9.066228   1.000000
   23       -8.836166   1.000000
   24       -8.729124   1.000000
   25       -8.597237   1.000000
   26       -8.491114   1.000000
   27       -8.435035   1.000000
   28       -8.337472   1.000000
   29       -8.276386   1.000000
   30       -8.202904   1.000000
   31       -8.135256   1.000000
   32       -8.049989   1.000000
   33       -7.956781   1.000000
   34       -7.878052   1.000000
   35       -7.786278   1.000000
   36       -7.631665   1.000000
   37       -7.525203   1.000000
   38       -7.456502   1.000000
   39       -7.406005   1.000000
   40       -7.271047   1.000000
   41       -7.223363   1.000000
   42       -7.144529   1.000000
   43       -7.048087   1.000000
   44       -6.999708   1.000000
   45       -6.886217   1.000000
   46       -6.789302   1.000000
   47       -6.744369   1.000000