       N       E                     dE             d eps       ncg     rms          rms(c)
DAV:   1     0.112410750119E+04    0.11241E+04   -0.35868E+04  8160   0.577E+02
DAV:   2    -0.459653610389E+01   -0.11287E+04   -0.10890E+04 11120   0.173E+02
DAV:   3    -0.199909078735E+03   -0.19531E+03   -0.18751E+03 10920   0.818E+01
DAV:   4    -0.208970833610E+03   -0.90618E+01   -0.87818E+01 12160   0.259E+01
DAV:   5    -0.209291535962E+03   -0.32070E+00   -0.31981E+00 11160   0.355E+00    0.275E+01
DAV:   6    -0.236994473198E+03   -0.27703E+02   -0.11095E+02 12480   0.603E+01    0.595E+01
DAV:   7    -0.196522087289E+03    0.40472E+02   -0.17630E+02 13480   0.152E+02    0.201E+01
DAV:   8    -0.189548247564E+03    0.69738E+01   -0.17421E+01 11960   0.128E+01    0.127E+01
DAV:   9    -0.188241028536E+03    0.13072E+01   -0.36086E+00 12560   0.611E+00    0.931E+00
DAV:  10    -0.187049068701E+03    0.11920E+01   -0.18852E+00 13400   0.763E+00    0.289E+00
DAV:  11    -0.187022495761E+03    0.26573E-01   -0.65287E-01 13600   0.283E+00    0.323E+00
DAV:  12    -0.187177434893E+03   -0.15494E+00   -0.11015E+00 12320   0.545E+00    0.492E+00
DAV:  13    -0.186927991149E+03    0.24944E+00   -0.48417E-01 12880   0.387E+00    0.215E+00
DAV:  14    -0.186878884612E+03    0.49107E-01   -0.10475E-01 13080   0.144E+00    0.819E-01
DAV:  15    -0.186879880555E+03   -0.99594E-03   -0.44492E-02 11680   0.125E+00    0.117E+00
DAV:  16    -0.186870940909E+03    0.89396E-02   -0.21069E-02 12880   0.829E-01    0.548E-01
DAV:  17    -0.186867661798E+03    0.32791E-02   -0.98165E-03 12640   0.519E-01    0.222E-01
DAV:  18    -0.186867112588E+03    0.54921E-03   -0.15492E-03 12640   0.173E-01    0.519E-02
DAV:  19    -0.186867668700E+03   -0.55611E-03   -0.77113E-04 10760   0.690E-02    0.841E-02
DAV:  20    -0.186868007062E+03   -0.33836E-03   -0.40215E-04  8240   0.562E-02    0.553E-02
DAV:  21    -0.186868843401E+03   -0.83634E-03   -0.24159E-04  7640   0.508E-02    0.322E-02
DAV:  22    -0.186869628246E+03   -0.78485E-03   -0.12367E-04  7440   0.351E-02    0.288E-02
DAV:  23    -0.186870868267E+03   -0.12400E-02   -0.13896E-04  7480   0.327E-02    0.745E-03
DAV:  24    -0.186871443709E+03   -0.57544E-03   -0.22447E-05  6760   0.124E-02    0.838E-03
DAV:  25    -0.186871874380E+03   -0.43067E-03   -0.17165E-05  5480   0.151E-02    0.540E-03
DAV:  26    -0.186872068983E+03   -0.19460E-03   -0.82411E-06  6840   0.777E-03    0.163E-03
DAV:  27    -0.186872153351E+03   -0.84367E-04   -0.36305E-06  7080   0.455E-03
   1 F= -.18687215E+03 E0= -.18670001E+03  d E =-.186872E+03
       N       E                     dE             d eps       ncg     rms          rms(c)
DAV:   1    -0.187510806000E+03   -0.63874E+00   -0.27178E+02  8160   0.350E+01    0.468E+00
DAV:   2    -0.189611307400E+03   -0.21005E+01   -0.20492E+01 12240   0.159E+01    0.106E+01
DAV:   3    -0.189328278238E+03    0.28303E+00   -0.54527E+00 12360   0.130E+01    0.606E+00
DAV:   4    -0.188796088964E+03    0.53219E+00   -0.56458E-01 11600   0.433E+00    0.240E+00
DAV:   5    -0.188888821742E+03   -0.92733E-01   -0.48196E-01 12440   0.397E+00    0.491E+00
DAV:   6    -0.188758296156E+03    0.13053E+00   -0.62099E-01 12720   0.389E+00    0.226E+00
DAV:   7    -0.188718621888E+03    0.39674E-01   -0.21315E-01 11440   0.189E+00    0.174E+00
DAV:   8    -0.188711291895E+03    0.73300E-02   -0.11265E-01 12920   0.203E+00    0.185E+00
DAV:   9    -0.188683938190E+03    0.27354E-01   -0.49692E-02 11480   0.124E+00    0.499E-01
DAV:  10    -0.188682113446E+03    0.18247E-02   -0.52309E-03 11000   0.276E-01    0.238E-01
DAV:  11    -0.188681618387E+03    0.49506E-03   -0.26075E-03 12680   0.214E-01    0.134E-01
DAV:  12    -0.188681659723E+03   -0.41336E-04   -0.94335E-04 11160   0.978E-02
   2 F= -.18868166E+03 E0= -.18854149E+03  d E =-.180951E+01
       N       E                     dE             d eps       ncg     rms          rms(c)
DAV:   1    -0.190608994925E+03   -0.19274E+01   -0.31294E+01  9280   0.142E+01    0.445E+00
DAV:   2    -0.190561178238E+03    0.47817E-01   -0.27969E+00 11280   0.950E+00    0.723E+00
DAV:   3    -0.190088096248E+03    0.47308E+00   -0.13283E+00 12280   0.863E+00    0.422E+00
DAV:   4    -0.189877311969E+03    0.21078E+00   -0.72734E-01 12800   0.425E+00    0.247E+00
DAV:   5    -0.189787704026E+03    0.89608E-01   -0.28549E-01 11840   0.191E+00    0.820E-01
DAV:   6    -0.189774138417E+03    0.13566E-01   -0.39068E-02 10560   0.723E-01    0.371E-01
DAV:   7    -0.189774797601E+03   -0.65918E-03   -0.90738E-03 12240   0.505E-01    0.388E-01
DAV:   8    -0.189773703024E+03    0.10946E-02   -0.25816E-03 11760   0.285E-01    0.133E-01
DAV:   9    -0.189774114170E+03   -0.41115E-03   -0.10783E-03 10800   0.149E-01    0.171E-01
DAV:  10    -0.189774204217E+03   -0.90047E-04   -0.12764E-03 11240   0.239E-01    0.204E-01
DAV:  11    -0.189773850470E+03    0.35375E-03   -0.65446E-04  9040   0.168E-01    0.439E-02
DAV:  12    -0.189773846461E+03    0.40096E-05   -0.91397E-05  6240   0.399E-02
   3 F= -.18977385E+03 E0= -.18965527E+03  d E =-.109219E+01
       N       E                     dE             d eps       ncg     rms          rms(c)
DAV:   1    -0.191331974533E+03   -0.15581E+01   -0.75610E+01  8160   0.198E+01    0.460E+00
DAV:   2    -0.191200757360E+03    0.13122E+00   -0.54237E+00 13200   0.807E+00    0.496E+00
DAV:   3    -0.191304216491E+03   -0.10346E+00   -0.16241E+00 11760   0.914E+00    0.712E+00
DAV:   4    -0.190974761213E+03    0.32946E+00   -0.17396E+00 12200   0.818E+00    0.441E+00
DAV:   5    -0.190943569250E+03    0.31192E-01   -0.96100E-01 11200   0.596E+00    0.360E+00
DAV:   6    -0.190760508654E+03    0.18306E+00   -0.22211E-01 11840   0.299E+00    0.680E-01
DAV:   7    -0.190755648322E+03    0.48603E-02   -0.40987E-02 11200   0.730E-01    0.461E-01
DAV:   8    -0.190752793665E+03    0.28547E-02   -0.81073E-03 10240   0.393E-01    0.207E-01
DAV:   9    -0.190753029889E+03   -0.23622E-03   -0.20894E-03 11880   0.304E-01    0.244E-01
DAV:  10    -0.190752943708E+03    0.86181E-04   -0.15383E-03 10400   0.264E-01    0.152E-01
DAV:  11    -0.190752767991E+03    0.17572E-03   -0.82727E-04 10400   0.129E-01    0.519E-02
DAV:  12    -0.190752757531E+03    0.10460E-04   -0.16177E-04  6680   0.492E-02
   4 F= -.19075276E+03 E0= -.19064961E+03  d E =-.978911E+00
       N       E                     dE             d eps       ncg     rms          rms(c)
DAV:   1    -0.192105046842E+03   -0.13523E+01   -0.15868E+02  8160   0.281E+01    0.570E+00
DAV:   2    -0.191924287145E+03    0.18076E+00   -0.95341E+00 11920   0.899E+00    0.489E+00
DAV:   3    -0.192368636822E+03   -0.44435E+00   -0.27008E+00 12240   0.113E+01    0.958E+00
DAV:   4    -0.191589251079E+03    0.77939E+00   -0.26606E+00 12200   0.110E+01    0.330E+00
DAV:   5    -0.191413663407E+03    0.17559E+00   -0.44693E-01 12120   0.294E+00    0.124E+00
DAV:   6    -0.191416125711E+03   -0.24623E-02   -0.16419E-01 12520   0.236E+00    0.180E+00
DAV:   7    -0.191395021226E+03    0.21104E-01   -0.11869E-01 12160   0.217E+00    0.807E-01
DAV:   8    -0.191385602377E+03    0.94188E-02   -0.12295E-02 11640   0.620E-01    0.178E-01
DAV:   9    -0.191386227940E+03   -0.62556E-03   -0.30446E-03 12160   0.219E-01    0.192E-01
DAV:  10    -0.191386240276E+03   -0.12336E-04   -0.21864E-03 11520   0.313E-01    0.214E-01
DAV:  11    -0.191385851843E+03    0.38843E-03   -0.98079E-04 10080   0.218E-01    0.667E-02
DAV:  12    -0.191385808037E+03    0.43807E-04   -0.12964E-04  6160   0.552E-02
   5 F= -.19138581E+03 E0= -.19128471E+03  d E =-.633051E+00
       N       E                     dE             d eps       ncg     rms          rms(c)
DAV:   1    -0.191422664542E+03   -0.36813E-01   -0.27859E+00  8160   0.354E+00    0.461E-01
DAV:   2    -0.191447965040E+03   -0.25300E-01   -0.16772E-01 12680   0.192E+00    0.123E+00
DAV:   3    -0.191432812481E+03    0.15153E-01   -0.41463E-02 12240   0.139E+00    0.367E-01
DAV:   4    -0.191433175015E+03   -0.36253E-03   -0.87667E-03 11080   0.580E-01    0.493E-01
DAV:   5    -0.191431123913E+03    0.20511E-02   -0.53742E-03 10960   0.500E-01    0.199E-01
DAV:   6    -0.191430825492E+03    0.29842E-03   -0.14536E-03 10960   0.183E-01    0.881E-02
DAV:   7    -0.191430703237E+03    0.12225E-03   -0.65953E-04  9840   0.905E-02    0.354E-02
DAV:   8    -0.191430701599E+03    0.16381E-05   -0.10464E-04  6880   0.528E-02
   6 F= -.19143070E+03 E0= -.19132776E+03  d E =-.448936E-01
       N       E                     dE             d eps       ncg     rms          rms(c)
DAV:   1    -0.191477006114E+03   -0.46303E-01   -0.55260E+00  8160   0.499E+00    0.582E-01
DAV:   2    -0.191495729932E+03   -0.18724E-01   -0.17812E-01 13080   0.150E+00    0.102E+00
DAV:   3    -0.191488865373E+03    0.68646E-02   -0.55844E-02 11920   0.154E+00    0.752E-01
DAV:   4    -0.191484653595E+03    0.42118E-02   -0.16313E-02 11800   0.779E-01    0.486E-01
DAV:   5    -0.191483275811E+03    0.13778E-02   -0.83156E-03 11120   0.650E-01    0.361E-01
DAV:   6    -0.191481988557E+03    0.12873E-02   -0.34682E-03 11080   0.359E-01    0.118E-01
DAV:   7    -0.191481887836E+03    0.10072E-03   -0.10891E-03 10240   0.145E-01    0.775E-02
DAV:   8    -0.191481896770E+03   -0.89346E-05   -0.43364E-04  8840   0.142E-01
   7 F= -.19148190E+03 E0= -.19137757E+03  d E =-.511952E-01
       N       E                     dE             d eps       ncg     rms          rms(c)
DAV:   1    -0.191506741752E+03   -0.24854E-01   -0.10528E+00  8160   0.222E+00    0.303E-01
DAV:   2    -0.191510719409E+03   -0.39777E-02   -0.41128E-02 13080   0.854E-01    0.539E-01
DAV:   3    -0.191508152595E+03    0.25668E-02   -0.10409E-02 12280   0.745E-01    0.266E-01
DAV:   4    -0.191507205546E+03    0.94705E-03   -0.22616E-03 11520   0.267E-01    0.115E-01
DAV:   5    -0.191507149520E+03    0.56026E-04   -0.11957E-03  9920   0.171E-01    0.139E-01
DAV:   6    -0.191507152435E+03   -0.29154E-05   -0.11601E-03  9080   0.229E-01    0.141E-01
DAV:   7    -0.191506955705E+03    0.19673E-03   -0.37679E-04  7320   0.129E-01    0.275E-02
DAV:   8    -0.191506964821E+03   -0.91162E-05   -0.65492E-05  6120   0.485E-02
   8 F= -.19150696E+03 E0= -.19140235E+03  d E =-.250681E-01
       N       E                     dE             d eps       ncg     rms          rms(c)
DAV:   1    -0.191496184865E+03    0.10771E-01   -0.21247E-01  8160   0.980E-01    0.104E-01
DAV:   2    -0.191496910355E+03   -0.72549E-03   -0.63937E-03 13480   0.292E-01    0.187E-01
DAV:   3    -0.191496581970E+03    0.32838E-03   -0.13795E-03 10200   0.267E-01    0.109E-01
DAV:   4    -0.191496471530E+03    0.11044E-03   -0.32755E-04  7440   0.115E-01    0.567E-02
DAV:   5    -0.191496481036E+03   -0.95056E-05   -0.20525E-04  6240   0.991E-02
   9 F= -.19149648E+03 E0= -.19139205E+03  d E =0.104838E-01
       N       E                     dE             d eps       ncg     rms          rms(c)
DAV:   1    -0.191510287601E+03   -0.13816E-01   -0.41506E-01  8160   0.137E+00    0.147E-01
DAV:   2    -0.191511852405E+03   -0.15648E-02   -0.12553E-02 13600   0.449E-01    0.326E-01
DAV:   3    -0.191511023100E+03    0.82930E-03   -0.38247E-03 11400   0.410E-01    0.175E-01
DAV:   4    -0.191510764228E+03    0.25887E-03   -0.80599E-04  8520   0.168E-01    0.838E-02
DAV:   5    -0.191510759028E+03    0.51995E-05   -0.35701E-04  8040   0.130E-01
  10 F= -.19151076E+03 E0= -.19140647E+03  d E =-.142780E-01
       N       E                     dE             d eps       ncg     rms          rms(c)
DAV:   1    -0.191522252289E+03   -0.11488E-01   -0.33859E-01  8160   0.124E+00    0.176E-01
DAV:   2    -0.191527276086E+03   -0.50238E-02   -0.17645E-02 13320   0.718E-01    0.694E-01
DAV:   3    -0.191522666033E+03    0.46101E-02   -0.85212E-03 11360   0.639E-01    0.113E-01
DAV:   4    -0.191522727098E+03   -0.61065E-04   -0.82631E-04  9760   0.171E-01
  11 F= -.19152273E+03 E0= -.19141866E+03  d E =-.119681E-01
       N       E                     dE             d eps       ncg     rms          rms(c)
DAV:   1    -0.191561853951E+03   -0.39188E-01   -0.23950E+00  8160   0.337E+00    0.410E-01
DAV:   2    -0.191566408590E+03   -0.45546E-02   -0.75259E-02 13600   0.911E-01    0.456E-01
DAV:   3    -0.191566858820E+03   -0.45023E-03   -0.14482E-02 12200   0.890E-01    0.518E-01
DAV:   4    -0.191563715635E+03    0.31432E-02   -0.67553E-03 12360   0.557E-01    0.210E-01
DAV:   5    -0.191564303241E+03   -0.58761E-03   -0.43003E-03 11000   0.417E-01    0.351E-01
DAV:   6    -0.191563284912E+03    0.10183E-02   -0.33317E-03 11120   0.382E-01    0.120E-01
DAV:   7    -0.191563107989E+03    0.17692E-03   -0.44658E-04  8160   0.121E-01    0.553E-02
DAV:   8    -0.191563103881E+03    0.41080E-05   -0.18271E-04  7040   0.937E-02
  12 F= -.19156310E+03 E0= -.19145973E+03  d E =-.403768E-01
       N       E                     dE             d eps       ncg     rms          rms(c)
DAV:   1    -0.191572247072E+03   -0.91391E-02   -0.14159E-01  8160   0.810E-01    0.892E-02
DAV:   2    -0.191572653064E+03   -0.40599E-03   -0.40007E-03 13040   0.219E-01    0.161E-01
DAV:   3    -0.191572478700E+03    0.17436E-03   -0.94745E-04 10280   0.214E-01    0.102E-01
DAV:   4    -0.191572431086E+03    0.47614E-04   -0.30279E-04  7120   0.117E-01
  13 F= -.19157243E+03 E0= -.19146954E+03  d E =-.932721E-02
       N       E                     dE             d eps       ncg     rms          rms(c)
DAV:   1    -0.191592800652E+03   -0.20322E-01   -0.11050E+00  8160   0.227E+00    0.289E-01
DAV:   2    -0.191596918704E+03   -0.41181E-02   -0.38010E-02 12280   0.721E-01    0.576E-01
DAV:   3    -0.191594592068E+03    0.23266E-02   -0.13461E-02 11600   0.773E-01    0.357E-01
DAV:   4    -0.191593501278E+03    0.10908E-02   -0.34414E-03 10920   0.355E-01    0.188E-01
DAV:   5    -0.191593393605E+03    0.10767E-03   -0.19114E-03  9880   0.315E-01    0.183E-01
DAV:   6    -0.191593095198E+03    0.29841E-03   -0.12288E-03  9960   0.216E-01    0.939E-02
DAV:   7    -0.191593148407E+03   -0.53209E-04   -0.65233E-04  8240   0.172E-01
  14 F= -.19159315E+03 E0= -.19149150E+03  d E =-.207173E-01
       N       E                     dE             d eps       ncg     rms          rms(c)
DAV:   1    -0.191624828136E+03   -0.31733E-01   -0.13159E+00  8160   0.254E+00    0.350E-01
DAV:   2    -0.191626037275E+03   -0.12091E-02   -0.40516E-02 13560   0.650E-01    0.415E-01
DAV:   3    -0.191627219377E+03   -0.11821E-02   -0.14604E-02 12200   0.822E-01    0.579E-01
DAV:   4    -0.191623802347E+03    0.34170E-02   -0.70636E-03 11280   0.564E-01    0.151E-01
DAV:   5    -0.191623954609E+03   -0.15226E-03   -0.19919E-03 10920   0.279E-01    0.227E-01
DAV:   6    -0.191623487839E+03    0.46677E-03   -0.15676E-03  9800   0.284E-01    0.104E-01
DAV:   7    -0.191623453492E+03    0.34347E-04   -0.43326E-04  7720   0.141E-01
  15 F= -.19162345E+03 E0= -.19152358E+03  d E =-.303051E-01
       N       E                     dE             d eps       ncg     rms          rms(c)
DAV:   1    -0.191672316821E+03   -0.48829E-01   -0.30640E+00  8160   0.377E+00    0.387E-01
DAV:   2    -0.191677933556E+03   -0.56167E-02   -0.86107E-02 12760   0.850E-01    0.360E-01
DAV:   3    -0.191680424290E+03   -0.24907E-02   -0.12640E-02 11480   0.833E-01    0.616E-01
DAV:   4    -0.191676398871E+03    0.40254E-02   -0.62359E-03 11080   0.607E-01    0.209E-01
DAV:   5    -0.191676738712E+03   -0.33984E-03   -0.28846E-03  9800   0.395E-01    0.276E-01
DAV:   6    -0.191676125559E+03    0.61315E-03   -0.22219E-03 10800   0.311E-01    0.112E-01
DAV:   7    -0.191675976270E+03    0.14929E-03   -0.60147E-04  8560   0.151E-01    0.893E-02
DAV:   8    -0.191675902624E+03    0.73646E-04   -0.20917E-04  6600   0.105E-01
  16 F= -.19167590E+03 E0= -.19157936E+03  d E =-.524491E-01
       N       E                     dE             d eps       ncg     rms          rms(c)
DAV:   1    -0.191545314223E+03    0.13066E+00   -0.15883E+01  8160   0.856E+00    0.901E-01
DAV:   2    -0.191575376164E+03   -0.30062E-01   -0.44690E-01 12520   0.192E+00    0.984E-01
DAV:   3    -0.191590825774E+03   -0.15450E-01   -0.91812E-02 11800   0.210E+00    0.167E+00
DAV:   4    -0.191563221521E+03    0.27604E-01   -0.46465E-02 11680   0.143E+00    0.286E-01
DAV:   5    -0.191564207281E+03   -0.98576E-03   -0.93540E-03 11640   0.484E-01    0.409E-01
DAV:   6    -0.191563892980E+03    0.31430E-03   -0.99728E-03 12080   0.677E-01    0.436E-01
DAV:   7    -0.191561935886E+03    0.19571E-02   -0.40098E-03 11680   0.410E-01    0.948E-02
DAV:   8    -0.191561970792E+03   -0.34906E-04   -0.66734E-04  9120   0.159E-01
  17 F= -.19156197E+03 E0= -.19145917E+03  d E =0.113932E+00
       N       E                     dE             d eps       ncg     rms          rms(c)
DAV:   1    -0.191519809789E+03    0.42126E-01   -0.40812E+00  8160   0.432E+00    0.425E-01
DAV:   2    -0.191527061302E+03   -0.72515E-02   -0.98609E-02 13280   0.960E-01    0.531E-01
DAV:   3    -0.191528777507E+03   -0.17162E-02   -0.21587E-02 12320   0.987E-01    0.695E-01
DAV:   4    -0.191524111080E+03    0.46664E-02   -0.91327E-03 11240   0.630E-01    0.191E-01
DAV:   5    -0.191524546816E+03   -0.43574E-03   -0.30327E-03 10040   0.387E-01    0.293E-01
DAV:   6    -0.191524047039E+03    0.49978E-03   -0.27512E-03 11800   0.384E-01    0.178E-01
DAV:   7    -0.191523730417E+03    0.31662E-03   -0.10203E-03  9560   0.204E-01    0.124E-01
DAV:   8    -0.191523586612E+03    0.14381E-03   -0.34210E-04  8160   0.121E-01    0.247E-02
DAV:   9    -0.191523589134E+03   -0.25221E-05   -0.39702E-05  6480   0.279E-02
  18 F= -.19152359E+03 E0= -.19141880E+03  d E =0.383817E-01
       N       E                     dE             d eps       ncg     rms          rms(c)
DAV:   1    -0.191540430313E+03   -0.16844E-01   -0.11354E+00  8160   0.227E+00    0.247E-01
DAV:   2    -0.191544250369E+03   -0.38201E-02   -0.41550E-02 12360   0.746E-01    0.418E-01
DAV:   3    -0.191543147299E+03    0.11031E-02   -0.77305E-03 12040   0.587E-01    0.277E-01
DAV:   4    -0.191542678472E+03    0.46883E-03   -0.29317E-03  9800   0.354E-01    0.220E-01
DAV:   5    -0.191542381244E+03    0.29723E-03   -0.14511E-03  9760   0.284E-01    0.149E-01
DAV:   6    -0.191542219591E+03    0.16165E-03   -0.69702E-04 10080   0.159E-01    0.608E-02
DAV:   7    -0.191542186609E+03    0.32982E-04   -0.22895E-04  6960   0.931E-02
  19 F= -.19154219E+03 E0= -.19143761E+03  d E =-.185975E-01
       N       E                     dE             d eps       ncg     rms          rms(c)
DAV:   1    -0.191563170509E+03   -0.20951E-01   -0.11163E+00  8160   0.228E+00    0.269E-01
DAV:   2    -0.191565452578E+03   -0.22821E-02   -0.32049E-02 13600   0.645E-01    0.372E-01
DAV:   3    -0.191564997957E+03    0.45462E-03   -0.66219E-03 12000   0.616E-01    0.327E-01
DAV:   4    -0.191564027453E+03    0.97050E-03   -0.25883E-03 11520   0.360E-01    0.201E-01
DAV:   5    -0.191563972235E+03    0.55219E-04   -0.20548E-03  9960   0.310E-01    0.196E-01
DAV:   6    -0.191563609540E+03    0.36269E-03   -0.10857E-03  9520   0.194E-01    0.532E-02
DAV:   7    -0.191563572632E+03    0.36908E-04   -0.15579E-04  5480   0.645E-02
  20 F= -.19156357E+03 E0= -.19145985E+03  d E =-.213860E-01
       N       E                     dE             d eps       ncg     rms          rms(c)
DAV:   1    -0.191597582255E+03   -0.33973E-01   -0.20957E+00  8160   0.312E+00    0.353E-01
DAV:   2    -0.191602053644E+03   -0.44714E-02   -0.65584E-02 12480   0.801E-01    0.421E-01
DAV:   3    -0.191603177756E+03   -0.11241E-02   -0.12699E-02 12120   0.819E-01    0.549E-01
DAV:   4    -0.191600238577E+03    0.29392E-02   -0.56485E-03 11880   0.540E-01    0.220E-01
DAV:   5    -0.191600168945E+03    0.69632E-04   -0.25454E-03  9800   0.360E-01    0.217E-01
DAV:   6    -0.191599797045E+03    0.37190E-03   -0.17527E-03  9960   0.254E-01    0.990E-02
DAV:   7    -0.191599757828E+03    0.39216E-04   -0.66573E-04  8560   0.162E-01
  21 F= -.19159976E+03 E0= -.19149773E+03  d E =-.361852E-01
       N       E                     dE             d eps       ncg     rms          rms(c)
DAV:   1    -0.191589051262E+03    0.10746E-01   -0.16804E-01  8160   0.886E-01    0.930E-02
DAV:   2    -0.191589676223E+03   -0.62496E-03   -0.55465E-03 13000   0.251E-01    0.196E-01
DAV:   3    -0.191589370574E+03    0.30565E-03   -0.13333E-03  9960   0.245E-01    0.997E-02
DAV:   4    -0.191589260643E+03    0.10993E-03   -0.19502E-04  6200   0.852E-02    0.324E-02
DAV:   5    -0.191589314458E+03   -0.53815E-04   -0.16788E-04  7160   0.893E-02
  22 F= -.19158931E+03 E0= -.19148648E+03  d E =0.104434E-01
       N       E                     dE             d eps       ncg     rms          rms(c)
DAV:   1    -0.191587063870E+03    0.21968E-02   -0.14351E-01  8160   0.847E-01    0.180E-01
DAV:   2    -0.191589123676E+03   -0.20598E-02   -0.12291E-02 11440   0.586E-01    0.494E-01
DAV:   3    -0.191586809255E+03    0.23144E-02   -0.64747E-03 11560   0.540E-01    0.145E-01
DAV:   4    -0.191586584039E+03    0.22522E-03   -0.90012E-04 10040   0.173E-01    0.869E-02
DAV:   5    -0.191586649323E+03   -0.65284E-04   -0.57047E-04  9240   0.181E-01
  23 F= -.19158665E+03 E0= -.19148316E+03  d E =0.266514E-02
       N       E                     dE             d eps       ncg     rms          rms(c)
DAV:   1    -0.191627179925E+03   -0.40596E-01   -0.32747E+00  8160   0.389E+00    0.451E-01
DAV:   2    -0.191641756599E+03   -0.14577E-01   -0.12588E-01 13560   0.134E+00    0.955E-01
DAV:   3    -0.191634532119E+03    0.72245E-02   -0.30918E-02 12160   0.121E+00    0.473E-01
DAV:   4    -0.191632554079E+03    0.19780E-02   -0.59479E-03 10920   0.513E-01    0.257E-01
DAV:   5    -0.191632380918E+03    0.17316E-03   -0.34713E-03 12360   0.448E-01    0.263E-01
DAV:   6    -0.191631864380E+03    0.51654E-03   -0.22489E-03 11800   0.317E-01    0.122E-01
DAV:   7    -0.191631669081E+03    0.19530E-03   -0.73616E-04  9800   0.148E-01    0.929E-02
DAV:   8    -0.191631596797E+03    0.72284E-04   -0.27250E-04  7400   0.110E-01
  24 F= -.19163160E+03 E0= -.19153178E+03  d E =-.449475E-01
       N       E                     dE             d eps       ncg     rms          rms(c)
DAV:   1    -0.191622325044E+03    0.93440E-02   -0.61366E-01  8160   0.169E+00    0.250E-01
DAV:   2    -0.191628268797E+03   -0.59438E-02   -0.32664E-02 13480   0.904E-01    0.744E-01
DAV:   3    -0.191622722392E+03    0.55464E-02   -0.13884E-02 11520   0.789E-01    0.170E-01
DAV:   4    -0.191622454808E+03    0.26758E-03   -0.14412E-03 10480   0.190E-01    0.105E-01
DAV:   5    -0.191622373635E+03    0.81173E-04   -0.74440E-04 11240   0.168E-01
  25 F= -.19162237E+03 E0= -.19152110E+03  d E =0.922316E-02
       N       E                     dE             d eps       ncg     rms          rms(c)
DAV:   1    -0.191666408101E+03   -0.43953E-01   -0.29720E+00  8160   0.373E+00    0.434E-01
DAV:   2    -0.191675784254E+03   -0.93762E-02   -0.98335E-02 13480   0.114E+00    0.754E-01
DAV:   3    -0.191672724561E+03    0.30597E-02   -0.20257E-02 12240   0.109E+00    0.536E-01
DAV:   4    -0.191670233023E+03    0.24915E-02   -0.60588E-03 11280   0.569E-01    0.292E-01
DAV:   5    -0.191669790024E+03    0.44300E-03   -0.37975E-03 10960   0.460E-01    0.243E-01
DAV:   6    -0.191669253335E+03    0.53669E-03   -0.23437E-03 11040   0.287E-01    0.973E-02
DAV:   7    -0.191669135321E+03    0.11801E-03   -0.66579E-04  9400   0.136E-01    0.810E-02
DAV:   8    -0.191669081296E+03    0.54026E-04   -0.28950E-04  7560   0.114E-01
  26 F= -.19166908E+03 E0= -.19157144E+03  d E =-.467077E-01
       N       E                     dE             d eps       ncg     rms          rms(c)
DAV:   1    -0.191678882471E+03   -0.97471E-02   -0.15860E-01  8160   0.855E-01    0.974E-02
DAV:   2    -0.191679511208E+03   -0.62874E-03   -0.52714E-03 13200   0.299E-01    0.201E-01
DAV:   3    -0.191679141895E+03    0.36931E-03   -0.14361E-03 10920   0.256E-01    0.905E-02
DAV:   4    -0.191679107048E+03    0.34848E-04   -0.32255E-04  7040   0.116E-01
  27 F= -.19167911E+03 E0= -.19158223E+03  d E =-.100258E-01
       N       E                     dE             d eps       ncg     rms          rms(c)
DAV:   1    -0.191727100261E+03   -0.47958E-01   -0.31331E+00  8160   0.381E+00    0.407E-01
DAV:   2    -0.191732958352E+03   -0.58581E-02   -0.90959E-02 12800   0.917E-01    0.406E-01
DAV:   3    -0.191733967803E+03   -0.10095E-02   -0.13274E-02 12320   0.848E-01    0.512E-01
DAV:   4    -0.191730924212E+03    0.30436E-02   -0.68652E-03 11360   0.599E-01    0.202E-01
DAV:   5    -0.191731306044E+03   -0.38183E-03   -0.34600E-03 11480   0.391E-01    0.283E-01
DAV:   6    -0.191730726756E+03    0.57929E-03   -0.29322E-03 11520   0.382E-01    0.146E-01
DAV:   7    -0.191730397451E+03    0.32930E-03   -0.55234E-04  8520   0.136E-01    0.240E-02
DAV:   8    -0.191730421322E+03   -0.23870E-04   -0.84815E-05  6760   0.597E-02
  28 F= -.19173042E+03 E0= -.19163836E+03  d E =-.513143E-01
       N       E                     dE             d eps       ncg     rms          rms(c)
DAV:   1    -0.191742283759E+03   -0.11886E-01   -0.16061E-01  8160   0.876E-01    0.105E-01
DAV:   2    -0.191742579947E+03   -0.29619E-03   -0.52036E-03 12360   0.214E-01    0.120E-01
DAV:   3    -0.191742707597E+03   -0.12765E-03   -0.96971E-04 10920   0.246E-01    0.170E-01
DAV:   4    -0.191742394701E+03    0.31290E-03   -0.40562E-04  8240   0.164E-01    0.373E-02
DAV:   5    -0.191742416929E+03   -0.22228E-04   -0.13236E-04  5560   0.735E-02
  29 F= -.19174242E+03 E0= -.19165120E+03  d E =-.119956E-01
       N       E                     dE             d eps       ncg     rms          rms(c)
DAV:   1    -0.191797664884E+03   -0.55270E-01   -0.38968E+00  8160   0.427E+00    0.446E-01
DAV:   2    -0.191805159265E+03   -0.74944E-02   -0.11479E-01 12200   0.926E-01    0.414E-01
DAV:   3    -0.191808111034E+03   -0.29518E-02   -0.16962E-02 10920   0.975E-01    0.695E-01
DAV:   4    -0.191802859384E+03    0.52517E-02   -0.88429E-03 11120   0.725E-01    0.198E-01
DAV:   5    -0.191803564780E+03   -0.70540E-03   -0.34973E-03 10360   0.452E-01    0.319E-01
DAV:   6    -0.191802560145E+03    0.10046E-02   -0.23470E-03 10720   0.370E-01    0.114E-01
DAV:   7    -0.191802436550E+03    0.12360E-03   -0.58449E-04  9160   0.169E-01    0.973E-02
DAV:   8    -0.191802349412E+03    0.87138E-04   -0.24646E-04  8040   0.118E-01
  30 F= -.19180235E+03 E0= -.19171530E+03  d E =-.599325E-01
       N       E                     dE             d eps       ncg     rms          rms(c)
DAV:   1    -0.191821351538E+03   -0.18915E-01   -0.41312E-01  8160   0.138E+00    0.145E-01
DAV:   2    -0.191822451034E+03   -0.10995E-02   -0.12187E-02 12800   0.383E-01    0.215E-01
DAV:   3    -0.191822139813E+03    0.31122E-03   -0.20059E-03 12000   0.341E-01    0.145E-01
DAV:   4    -0.191821932995E+03    0.20682E-03   -0.46487E-04  8720   0.165E-01    0.842E-02
DAV:   5    -0.191821943446E+03   -0.10451E-04   -0.32621E-04  8520   0.152E-01
  31 F= -.19182194E+03 E0= -.19173598E+03  d E =-.195940E-01
       N       E                     dE             d eps       ncg     rms          rms(c)
DAV:   1    -0.191845216070E+03   -0.23283E-01   -0.65328E-01  8160   0.174E+00    0.203E-01
DAV:   2    -0.191847962173E+03   -0.27461E-02   -0.21460E-02 12440   0.655E-01    0.414E-01
DAV:   3    -0.191846094381E+03    0.18678E-02   -0.48528E-03 12240   0.534E-01    0.140E-01
DAV:   4    -0.191845995819E+03    0.98562E-04   -0.80389E-04  9520   0.201E-01
  32 F= -.19184600E+03 E0= -.19176113E+03  d E =-.240524E-01
       N       E                     dE             d eps       ncg     rms          rms(c)
DAV:   1    -0.191879808344E+03   -0.33714E-01   -0.13689E+00  8160   0.252E+00    0.291E-01
DAV:   2    -0.191882999534E+03   -0.31912E-02   -0.40797E-02 12240   0.674E-01    0.390E-01
DAV:   3    -0.191882552413E+03    0.44712E-03   -0.84104E-03 11440   0.690E-01    0.346E-01
DAV:   4    -0.191881177560E+03    0.13749E-02   -0.25505E-03 10920   0.369E-01    0.132E-01
DAV:   5    -0.191881431830E+03   -0.25427E-03   -0.15063E-03 10480   0.299E-01    0.202E-01
DAV:   6    -0.191881057777E+03    0.37405E-03   -0.10946E-03 10120   0.253E-01    0.843E-02
DAV:   7    -0.191880993967E+03    0.63810E-04   -0.23971E-04  7880   0.121E-01
  33 F= -.19188099E+03 E0= -.19179715E+03  d E =-.349981E-01
       N       E                     dE             d eps       ncg     rms          rms(c)
DAV:   1    -0.191970319545E+03   -0.89262E-01   -0.13646E+01  8160   0.792E+00    0.785E-01
DAV:   2    -0.191994672785E+03   -0.24353E-01   -0.38165E-01 12240   0.163E+00    0.599E-01
DAV:   3    -0.192003894430E+03   -0.92216E-02   -0.47115E-02 12480   0.159E+00    0.113E+00
DAV:   4    -0.191989206488E+03    0.14688E-01   -0.27566E-02 12200   0.131E+00    0.311E-01
DAV:   5    -0.191990029967E+03   -0.82348E-03   -0.84576E-03 11880   0.624E-01    0.413E-01
DAV:   6    -0.191988914087E+03    0.11159E-02   -0.70728E-03 12040   0.655E-01    0.285E-01
DAV:   7    -0.191987670726E+03    0.12434E-02   -0.20525E-03 11520   0.289E-01    0.399E-02
DAV:   8    -0.191987674290E+03   -0.35636E-05   -0.23774E-04  7320   0.568E-02
  34 F= -.19198767E+03 E0= -.19190271E+03  d E =-.106680E+00
       N       E                     dE             d eps       ncg     rms          rms(c)
DAV:   1    -0.192028096054E+03   -0.40425E-01   -0.23531E+00  8160   0.329E+00    0.369E-01
DAV:   2    -0.192031268478E+03   -0.31724E-02   -0.68751E-02 12240   0.725E-01    0.269E-01
DAV:   3    -0.192033188116E+03   -0.19196E-02   -0.81890E-03 12280   0.706E-01    0.522E-01
DAV:   4    -0.192030106690E+03    0.30814E-02   -0.46837E-03 11560   0.596E-01    0.165E-01
DAV:   5    -0.192030451794E+03   -0.34510E-03   -0.19930E-03 10120   0.332E-01    0.241E-01
DAV:   6    -0.192029866327E+03    0.58547E-03   -0.15401E-03 10040   0.313E-01    0.899E-02
DAV:   7    -0.192029753428E+03    0.11290E-03   -0.27128E-04  7880   0.106E-01    0.364E-02
DAV:   8    -0.192029752712E+03    0.71607E-06   -0.90379E-05  7320   0.732E-02
  35 F= -.19202975E+03 E0= -.19194314E+03  d E =-.420784E-01
       N       E                     dE             d eps       ncg     rms          rms(c)
DAV:   1    -0.192079765726E+03   -0.50012E-01   -0.43846E+00  8160   0.443E+00    0.428E-01
DAV:   2    -0.192086474874E+03   -0.67091E-02   -0.11027E-01 12240   0.915E-01    0.313E-01
DAV:   3    -0.192089537816E+03   -0.30629E-02   -0.13457E-02 12840   0.847E-01    0.624E-01
DAV:   4    -0.192085072263E+03    0.44656E-02   -0.77859E-03 11760   0.710E-01    0.162E-01
DAV:   5    -0.192085118886E+03   -0.46623E-04   -0.20606E-03 10840   0.214E-01    0.145E-01
DAV:   6    -0.192085076906E+03    0.41980E-04   -0.11833E-03 10320   0.265E-01    0.175E-01
DAV:   7    -0.192084729883E+03    0.34702E-03   -0.47834E-04  8560   0.189E-01    0.289E-02
DAV:   8    -0.192084748512E+03   -0.18629E-04   -0.62125E-05  5720   0.551E-02
  36 F= -.19208475E+03 E0= -.19199652E+03  d E =-.549958E-01
       N       E                     dE             d eps       ncg     rms          rms(c)
DAV:   1    -0.192102923835E+03   -0.18194E-01   -0.51924E-01  8160   0.153E+00    0.179E-01
DAV:   2    -0.192104200950E+03   -0.12771E-02   -0.15664E-02 12240   0.492E-01    0.271E-01
DAV:   3    -0.192103607739E+03    0.59321E-03   -0.28971E-03 12240   0.419E-01    0.159E-01
DAV:   4    -0.192103317936E+03    0.28980E-03   -0.70846E-04  9720   0.191E-01    0.973E-02
DAV:   5    -0.192103364908E+03   -0.46972E-04   -0.53668E-04  8880   0.196E-01
  37 F= -.19210336E+03 E0= -.19201449E+03  d E =-.186164E-01
       N       E                     dE             d eps       ncg     rms          rms(c)
DAV:   1    -0.192066825021E+03    0.36493E-01   -0.20232E+00  8160   0.303E+00    0.350E-01
DAV:   2    -0.192072777338E+03   -0.59523E-02   -0.59281E-02 12200   0.100E+00    0.626E-01
DAV:   3    -0.192069503194E+03    0.32741E-02   -0.11374E-02 12320   0.897E-01    0.340E-01
DAV:   4    -0.192068465537E+03    0.10377E-02   -0.27828E-03 11400   0.416E-01    0.221E-01
DAV:   5    -0.192068188048E+03    0.27749E-03   -0.21152E-03 10520   0.374E-01    0.177E-01
DAV:   6    -0.192067905550E+03    0.28250E-03   -0.10489E-03  9720   0.221E-01    0.700E-02
DAV:   7    -0.192067866487E+03    0.39063E-04   -0.31426E-04  8440   0.123E-01
  38 F= -.19206787E+03 E0= -.19198039E+03  d E =0.354984E-01
       N       E                     dE             d eps       ncg     rms          rms(c)
DAV:   1    -0.192051626165E+03    0.16279E-01   -0.82648E-01  8160   0.191E+00    0.220E-01
DAV:   2    -0.192056152198E+03   -0.45260E-02   -0.25035E-02 13600   0.800E-01    0.574E-01
DAV:   3    -0.192052745416E+03    0.34068E-02   -0.59230E-03 12240   0.680E-01    0.161E-01
DAV:   4    -0.192052706145E+03    0.39271E-04   -0.83838E-04  9560   0.221E-01
  39 F= -.19205271E+03 E0= -.19196599E+03  d E =0.151603E-01
       N       E                     dE             d eps       ncg     rms          rms(c)
DAV:   1    -0.192040579088E+03    0.12166E-01   -0.19767E+00  8160   0.298E+00    0.359E-01
DAV:   2    -0.192050739025E+03   -0.10160E-01   -0.62163E-02 13600   0.134E+00    0.838E-01
DAV:   3    -0.192042298343E+03    0.84407E-02   -0.16371E-02 12120   0.101E+00    0.217E-01
DAV:   4    -0.192042454062E+03   -0.15572E-03   -0.25063E-03 11440   0.370E-01    0.274E-01
DAV:   5    -0.192041891450E+03    0.56261E-03   -0.23159E-03 10440   0.413E-01    0.178E-01
DAV:   6    -0.192041660993E+03    0.23046E-03   -0.93109E-04 10000   0.197E-01    0.731E-02
DAV:   7    -0.192041619337E+03    0.41656E-04   -0.32535E-04  8200   0.130E-01
  40 F= -.19204162E+03 E0= -.19195597E+03  d E =0.110868E-01
       N       E                     dE             d eps       ncg     rms          rms(c)
DAV:   1    -0.192080072470E+03   -0.38411E-01   -0.27355E+00  8160   0.355E+00    0.447E-01
DAV:   2    -0.192086238981E+03   -0.61665E-02   -0.92158E-02 12240   0.111E+00    0.627E-01
DAV:   3    -0.192084027136E+03    0.22118E-02   -0.18861E-02 11960   0.105E+00    0.458E-01
DAV:   4    -0.192081501381E+03    0.25258E-02   -0.59537E-03 12120   0.564E-01    0.257E-01
DAV:   5    -0.192081510269E+03   -0.88879E-05   -0.39033E-03 11120   0.494E-01    0.279E-01
DAV:   6    -0.192080678987E+03    0.83128E-03   -0.20931E-03 11080   0.330E-01    0.823E-02
DAV:   7    -0.192080643078E+03    0.35909E-04   -0.40764E-04  8400   0.146E-01
  41 F= -.19208064E+03 E0= -.19199268E+03  d E =-.390237E-01
       N       E                     dE             d eps       ncg     rms          rms(c)
DAV:   1    -0.192090341924E+03   -0.96629E-02   -0.81082E+00  8160   0.604E+00    0.659E-01
DAV:   2    -0.192123408609E+03   -0.33067E-01   -0.32686E-01 12240   0.196E+00    0.102E+00
DAV:   3    -0.192114421640E+03    0.89870E-02   -0.47399E-02 12120   0.167E+00    0.633E-01
DAV:   4    -0.192109714425E+03    0.47072E-02   -0.10181E-02 12400   0.738E-01    0.300E-01
DAV:   5    -0.192109935777E+03   -0.22135E-03   -0.47043E-03 11360   0.577E-01    0.365E-01
DAV:   6    -0.192109089385E+03    0.84639E-03   -0.38030E-03 12040   0.468E-01    0.190E-01
DAV:   7    -0.192108435337E+03    0.65405E-03   -0.13801E-03 10880   0.177E-01    0.318E-02
DAV:   8    -0.192108444486E+03   -0.91494E-05   -0.14118E-04  6840   0.542E-02
  42 F= -.19210844E+03 E0= -.19201963E+03  d E =-.278014E-01
       N       E                     dE             d eps       ncg     rms          rms(c)
DAV:   1    -0.192127842023E+03   -0.19407E-01   -0.31042E+00  8160   0.375E+00    0.451E-01
DAV:   2    -0.192144212157E+03   -0.16370E-01   -0.10558E-01 13600   0.170E+00    0.108E+00
DAV:   3    -0.192131469178E+03    0.12743E-01   -0.26895E-02 12240   0.133E+00    0.292E-01
DAV:   4    -0.192131495145E+03   -0.25967E-04   -0.39447E-03 12200   0.506E-01    0.352E-01
DAV:   5    -0.192130390508E+03    0.11046E-02   -0.34164E-03 10320   0.503E-01    0.201E-01
DAV:   6    -0.192130064282E+03    0.32623E-03   -0.16119E-03 10840   0.218E-01    0.772E-02
DAV:   7    -0.192129913075E+03    0.15121E-03   -0.32974E-04  9200   0.714E-02    0.207E-02
DAV:   8    -0.192129907584E+03    0.54905E-05   -0.45728E-05  8120   0.240E-02
  43 F= -.19212991E+03 E0= -.19204009E+03  d E =-.214631E-01
       N       E                     dE             d eps       ncg     rms          rms(c)
DAV:   1    -0.192153667855E+03   -0.23755E-01   -0.16746E+00  8160   0.273E+00    0.274E-01
DAV:   2    -0.192157207683E+03   -0.35398E-02   -0.45891E-02 12240   0.695E-01    0.341E-01
DAV:   3    -0.192157156109E+03    0.51575E-04   -0.69719E-03 12240   0.651E-01    0.342E-01
DAV:   4    -0.192155828313E+03    0.13278E-02   -0.22786E-03 11000   0.372E-01    0.130E-01
DAV:   5    -0.192155980243E+03   -0.15193E-03   -0.13318E-03 10160   0.275E-01    0.176E-01
DAV:   6    -0.192155697501E+03    0.28274E-03   -0.79603E-04 10080   0.221E-01    0.621E-02
DAV:   7    -0.192155625823E+03    0.71678E-04   -0.13410E-04  6320   0.749E-02
  44 F= -.19215563E+03 E0= -.19206535E+03  d E =-.257182E-01
       N       E                     dE             d eps       ncg     rms          rms(c)
DAV:   1    -0.192185199335E+03   -0.29502E-01   -0.26827E+00  8160   0.345E+00    0.365E-01
DAV:   2    -0.192193005263E+03   -0.78059E-02   -0.71752E-02 12240   0.111E+00    0.666E-01
DAV:   3    -0.192188939211E+03    0.40661E-02   -0.14697E-02 12160   0.949E-01    0.314E-01
DAV:   4    -0.192188226091E+03    0.71312E-03   -0.33624E-03 12280   0.412E-01    0.244E-01
DAV:   5    -0.192187831180E+03    0.39491E-03   -0.26791E-03 10520   0.401E-01    0.177E-01
DAV:   6    -0.192187560145E+03    0.27104E-03   -0.92968E-04 10400   0.199E-01    0.555E-02
DAV:   7    -0.192187508373E+03    0.51772E-04   -0.13844E-04  6560   0.745E-02
  45 F= -.19218751E+03 E0= -.19209706E+03  d E =-.318825E-01
       N       E                     dE             d eps       ncg     rms          rms(c)
DAV:   1    -0.192246085369E+03   -0.58525E-01   -0.17859E+01  8160   0.891E+00    0.920E-01
DAV:   2    -0.192298106501E+03   -0.52021E-01   -0.46654E-01 12360   0.283E+00    0.171E+00
DAV:   3    -0.192272248027E+03    0.25858E-01   -0.95028E-02 12160   0.244E+00    0.788E-01
DAV:   4    -0.192267476383E+03    0.47716E-02   -0.22509E-02 12400   0.104E+00    0.635E-01
DAV:   5    -0.192264489672E+03    0.29867E-02   -0.19299E-02 11840   0.102E+00    0.453E-01
DAV:   6    -0.192262590140E+03    0.18995E-02   -0.67697E-03 12400   0.515E-01    0.132E-01
DAV:   7    -0.192262171892E+03    0.41825E-03   -0.97252E-04 10760   0.134E-01    0.509E-02
DAV:   8    -0.192262223717E+03   -0.51824E-04   -0.25562E-04  9000   0.120E-01
  46 F= -.19226222E+03 E0= -.19217325E+03  d E =-.747153E-01
       N       E                     dE             d eps       ncg     rms          rms(c)
DAV:   1    -0.192296405346E+03   -0.34233E-01   -0.10860E+01  8160   0.695E+00    0.716E-01
DAV:   2    -0.192327061885E+03   -0.30657E-01   -0.30915E-01 12240   0.219E+00    0.115E+00
DAV:   3    -0.192316475154E+03    0.10587E-01   -0.47650E-02 12320   0.180E+00    0.645E-01
DAV:   4    -0.192311659023E+03    0.48161E-02   -0.96921E-03 12600   0.757E-01    0.373E-01
DAV:   5    -0.192312304412E+03   -0.64539E-03   -0.99212E-03 12280   0.761E-01    0.458E-01
DAV:   6    -0.192310153517E+03    0.21509E-02   -0.54016E-03 11520   0.492E-01    0.879E-02
DAV:   7    -0.192310021941E+03    0.13158E-03   -0.64644E-04 10480   0.122E-01    0.670E-02
DAV:   8    -0.192310004473E+03    0.17469E-04   -0.20248E-04  8920   0.109E-01
  47 F= -.19231000E+03 E0= -.19222328E+03  d E =-.477808E-01
       N       E                     dE             d eps       ncg     rms          rms(c)
DAV:   1    -0.192329841202E+03   -0.19819E-01   -0.45665E+00  8160   0.451E+00    0.461E-01
DAV:   2    -0.192342764007E+03   -0.12923E-01   -0.13601E-01 12520   0.144E+00    0.693E-01
DAV:   3    -0.192338974610E+03    0.37894E-02   -0.18691E-02 12400   0.111E+00    0.408E-01
DAV:   4    -0.192336587216E+03    0.23874E-02   -0.34598E-03 11600   0.442E-01    0.144E-01
DAV:   5    -0.192337905414E+03   -0.13182E-02   -0.32782E-03 12200   0.438E-01    0.368E-01
DAV:   6    -0.192336495805E+03    0.14096E-02   -0.25015E-03 11000   0.410E-01    0.753E-02
DAV:   7    -0.192336392477E+03    0.10333E-03   -0.19531E-04  6280   0.741E-02    0.213E-02
DAV:   8    -0.192336404337E+03   -0.11860E-04   -0.90719E-05  7600   0.483E-02
  48 F= -.19233640E+03 E0= -.19225121E+03  d E =-.263999E-01
       N       E                     dE             d eps       ncg     rms          rms(c)
DAV:   1    -0.192350686407E+03   -0.14294E-01   -0.31234E+00  8160   0.372E+00    0.371E-01
DAV:   2    -0.192358679954E+03   -0.79935E-02   -0.88319E-02 12840   0.113E+00    0.523E-01
DAV:   3    -0.192356926100E+03    0.17539E-02   -0.12330E-02 12240   0.882E-01    0.361E-01
DAV:   4    -0.192355318584E+03    0.16075E-02   -0.33307E-03 10560   0.405E-01    0.167E-01
DAV:   5    -0.192355825799E+03   -0.50722E-03   -0.24645E-03 11600   0.393E-01    0.270E-01
DAV:   6    -0.192355131664E+03    0.69414E-03   -0.16440E-03 11200   0.313E-01    0.701E-02
DAV:   7    -0.192355043529E+03    0.88135E-04   -0.19472E-04  6560   0.805E-02
  49 F= -.19235504E+03 E0= -.19227145E+03  d E =-.186392E-01
       N       E                     dE             d eps       ncg     rms          rms(c)
DAV:   1    -0.192365552608E+03   -0.10421E-01   -0.61397E+00  8160   0.521E+00    0.519E-01
DAV:   2    -0.192383970814E+03   -0.18418E-01   -0.20102E-01 11760   0.153E+00    0.712E-01
DAV:   3    -0.192383131431E+03    0.83938E-03   -0.32047E-02 12440   0.132E+00    0.655E-01
DAV:   4    -0.192378195436E+03    0.49360E-02   -0.84221E-03 11640   0.679E-01    0.216E-01
DAV:   5    -0.192378847518E+03   -0.65208E-03   -0.32094E-03 11560   0.483E-01    0.316E-01
DAV:   6    -0.192377953588E+03    0.89393E-03   -0.25533E-03 12080   0.397E-01    0.108E-01
DAV:   7    -0.192377711291E+03    0.24230E-03   -0.50703E-04 10480   0.109E-01    0.268E-02
DAV:   8    -0.192377705105E+03    0.61860E-05   -0.69235E-05  8120   0.285E-02
  50 F= -.19237771E+03 E0= -.19229640E+03  d E =-.226616E-01
       N       E                     dE             d eps       ncg     rms          rms(c)
DAV:   1    -0.192385921675E+03   -0.82104E-02   -0.43642E+00  8160   0.440E+00    0.413E-01
DAV:   2    -0.192395075410E+03   -0.91537E-02   -0.10298E-01 12760   0.122E+00    0.581E-01
DAV:   3    -0.192393003301E+03    0.20721E-02   -0.14258E-02 12000   0.978E-01    0.416E-01
DAV:   4    -0.192391053746E+03    0.19496E-02   -0.40650E-03 10840   0.475E-01    0.219E-01
DAV:   5    -0.192391330553E+03   -0.27681E-03   -0.29701E-03 11720   0.455E-01    0.274E-01
DAV:   6    -0.192390615389E+03    0.71516E-03   -0.16834E-03 11440   0.314E-01    0.725E-02
DAV:   7    -0.192390523138E+03    0.92251E-04   -0.23767E-04  7400   0.897E-02
  51 F= -.19239052E+03 E0= -.19231167E+03  d E =-.128180E-01
       N       E                     dE             d eps       ncg     rms          rms(c)
DAV:   1    -0.192394405851E+03   -0.37905E-02   -0.16486E+00  8160   0.271E+00    0.269E-01
DAV:   2    -0.192399309017E+03   -0.49032E-02   -0.54449E-02 11840   0.788E-01    0.351E-01
DAV:   3    -0.192399390991E+03   -0.81975E-04   -0.76628E-03 12400   0.690E-01    0.364E-01
DAV:   4    -0.192397855104E+03    0.15359E-02   -0.20336E-03 11360   0.359E-01    0.843E-02
DAV:   5    -0.192397995224E+03   -0.14012E-03   -0.64832E-04 10480   0.140E-01    0.109E-01
DAV:   6    -0.192397966291E+03    0.28933E-04   -0.53139E-04 10040   0.200E-01
  52 F= -.19239797E+03 E0= -.19232093E+03  d E =-.744315E-02
       N       E                     dE             d eps       ncg     rms          rms(c)
DAV:   1    -0.192400184584E+03   -0.21894E-02   -0.42574E-01  8160   0.138E+00    0.141E-01
DAV:   2    -0.192401337050E+03   -0.11525E-02   -0.14555E-02 11600   0.367E-01    0.143E-01
DAV:   3    -0.192401548114E+03   -0.21106E-03   -0.17745E-03 11480   0.329E-01    0.200E-01
DAV:   4    -0.192401086747E+03    0.46137E-03   -0.65644E-04  9320   0.213E-01    0.586E-02
DAV:   5    -0.192401151640E+03   -0.64894E-04   -0.24929E-04  8120   0.135E-01
  53 F= -.19240115E+03 E0= -.19232464E+03  d E =-.318535E-02
       N       E                     dE             d eps       ncg     rms          rms(c)
DAV:   1    -0.192401481078E+03   -0.39433E-03   -0.22387E-02  8240   0.326E-01    0.515E-02
DAV:   2    -0.192401552656E+03   -0.71578E-04   -0.10501E-03 11760   0.131E-01    0.675E-02
DAV:   3    -0.192401517145E+03    0.35511E-04   -0.25375E-04  9440   0.122E-01
  54 F= -.19240152E+03 E0= -.19232533E+03  d E =-.365505E-03
       N       E                     dE             d eps       ncg     rms          rms(c)
DAV:   1    -0.192402895910E+03   -0.13433E-02   -0.12477E-01  8160   0.754E-01    0.792E-02
DAV:   2    -0.192403177318E+03   -0.28141E-03   -0.40050E-03 11640   0.196E-01    0.744E-02
DAV:   3    -0.192403248923E+03   -0.71605E-04   -0.49609E-04 10080   0.172E-01
  55 F= -.19240325E+03 E0= -.19232751E+03  d E =-.173178E-02
       N       E                     dE             d eps       ncg     rms          rms(c)
DAV:   1    -0.192404413710E+03   -0.12364E-02   -0.11584E-01  8160   0.733E-01    0.898E-02
DAV:   2    -0.192404690266E+03   -0.27656E-03   -0.37373E-03 12160   0.213E-01    0.107E-01
DAV:   3    -0.192404684641E+03    0.56247E-05   -0.67313E-04 10840   0.204E-01
  56 F= -.19240468E+03 E0= -.19232922E+03  d E =-.143572E-02
       N       E                     dE             d eps       ncg     rms          rms(c)
DAV:   1    -0.192406423624E+03   -0.17334E-02   -0.49635E-01  8160   0.150E+00    0.166E-01
DAV:   2    -0.192407793266E+03   -0.13696E-02   -0.15687E-02 12120   0.461E-01    0.223E-01
DAV:   3    -0.192407563399E+03    0.22987E-03   -0.24180E-03 12520   0.397E-01    0.187E-01
DAV:   4    -0.192407222744E+03    0.34066E-03   -0.78728E-04 10400   0.226E-01    0.953E-02
DAV:   5    -0.192407233099E+03   -0.10355E-04   -0.44735E-04  9080   0.180E-01
  57 F= -.19240723E+03 E0= -.19233296E+03  d E =-.254846E-02
       N       E                     dE             d eps       ncg     rms          rms(c)
DAV:   1    -0.192408023298E+03   -0.80055E-03   -0.92609E-02  8160   0.656E-01    0.864E-02
DAV:   2    -0.192408429226E+03   -0.40593E-03   -0.37051E-03 12360   0.233E-01    0.141E-01
DAV:   3    -0.192408216608E+03    0.21262E-03   -0.73626E-04 10280   0.214E-01    0.801E-02
DAV:   4    -0.192408171857E+03    0.44752E-04   -0.19991E-04  8000   0.109E-01
  58 F= -.19240817E+03 E0= -.19233401E+03  d E =-.938758E-03
