<?xml version="1.0" encoding="ISO-8859-1"?>
<modeling>
 <generator>
  <i name="program" type="string">vasp </i>
  <i name="version" type="string">5.4.1  </i>
  <i name="subversion" type="string">05Feb16 (build Jul 05 2020 17:13:04) complex                          parallel </i>
  <i name="platform" type="string">IFC91_ompi </i>
  <i name="date" type="string">2024 04 26 </i>
  <i name="time" type="string">13:56:14 </i>
 </generator>
 <incar>
  <i type="int" name="ISTART">     0</i>
  <i type="string" name="PREC">normal</i>
  <i type="string" name="ALGO"> Normal</i>
  <i type="int" name="ISPIN">     1</i>
  <i type="int" name="ICHARG">     2</i>
  <i type="int" name="IBRION">     1</i>
  <i type="int" name="NSW">   100</i>
  <i type="int" name="ISIF">     3</i>
  <i type="int" name="ISYM">     0</i>
  <i name="SYMPREC">      0.00000001</i>
  <i name="POTIM">      0.50000000</i>
  <i type="logical" name="LREAL"> F  </i>
  <i type="logical" name="LPLANE"> F  </i>
  <i type="int" name="ISMEAR">     0</i>
  <i type="logical" name="LWAVE"> F  </i>
  <i type="logical" name="LCHARG"> F  </i>
  <v type="int" name="KPOINT_BSE">    -1     0     0     0</v>
 </incar>
 <kpoints>
  <generation param="Gamma">
   <v type="int" name="divisions">       8        8        1 </v>
   <v name="usershift">      0.00000000       0.00000000       0.00000000 </v>
   <v name="genvec1">      0.12500000       0.00000000       0.00000000 </v>
   <v name="genvec2">     -0.00000000       0.12500000       0.00000000 </v>
   <v name="genvec3">      0.00000000       0.00000000       1.00000000 </v>
   <v name="shift">      0.00000000       0.00000000       0.00000000 </v>
  </generation>
  <varray name="kpointlist" >
   <v>       0.00000000       0.00000000       0.00000000 </v>
   <v>       0.12500000       0.00000000       0.00000000 </v>
   <v>       0.25000000       0.00000000       0.00000000 </v>
   <v>       0.37500000       0.00000000       0.00000000 </v>
   <v>       0.50000000       0.00000000       0.00000000 </v>
   <v>       0.00000000       0.12500000       0.00000000 </v>
   <v>       0.12500000       0.12500000       0.00000000 </v>
   <v>       0.25000000       0.12500000       0.00000000 </v>
   <v>       0.37500000       0.12500000       0.00000000 </v>
   <v>       0.50000000       0.12500000       0.00000000 </v>
   <v>      -0.37500000       0.12500000       0.00000000 </v>
   <v>      -0.25000000       0.12500000       0.00000000 </v>
   <v>      -0.12500000       0.12500000       0.00000000 </v>
   <v>       0.00000000       0.25000000       0.00000000 </v>
   <v>       0.12500000       0.25000000       0.00000000 </v>
   <v>       0.25000000       0.25000000       0.00000000 </v>
   <v>       0.37500000       0.25000000       0.00000000 </v>
   <v>       0.50000000       0.25000000       0.00000000 </v>
   <v>      -0.37500000       0.25000000       0.00000000 </v>
   <v>      -0.25000000       0.25000000       0.00000000 </v>
   <v>      -0.12500000       0.25000000       0.00000000 </v>
   <v>      -0.00000000       0.37500000       0.00000000 </v>
   <v>       0.12500000       0.37500000       0.00000000 </v>
   <v>       0.25000000       0.37500000       0.00000000 </v>
   <v>       0.37500000       0.37500000       0.00000000 </v>
   <v>       0.50000000       0.37500000       0.00000000 </v>
   <v>      -0.37500000       0.37500000       0.00000000 </v>
   <v>      -0.25000000       0.37500000       0.00000000 </v>
   <v>      -0.12500000       0.37500000       0.00000000 </v>
   <v>       0.00000000       0.50000000       0.00000000 </v>
   <v>       0.12500000       0.50000000       0.00000000 </v>
   <v>       0.25000000       0.50000000       0.00000000 </v>
   <v>       0.37500000       0.50000000       0.00000000 </v>
   <v>       0.50000000       0.50000000       0.00000000 </v>
  </varray>
  <varray name="weights" >
   <v>       0.01562500 </v>
   <v>       0.03125000 </v>
   <v>       0.03125000 </v>
   <v>       0.03125000 </v>
   <v>       0.01562500 </v>
   <v>       0.03125000 </v>
   <v>       0.03125000 </v>
   <v>       0.03125000 </v>
   <v>       0.03125000 </v>
   <v>       0.03125000 </v>
   <v>       0.03125000 </v>
   <v>       0.03125000 </v>
   <v>       0.03125000 </v>
   <v>       0.03125000 </v>
   <v>       0.03125000 </v>
   <v>       0.03125000 </v>
   <v>       0.03125000 </v>
   <v>       0.03125000 </v>
   <v>       0.03125000 </v>
   <v>       0.03125000 </v>
   <v>       0.03125000 </v>
   <v>       0.03125000 </v>
   <v>       0.03125000 </v>
   <v>       0.03125000 </v>
   <v>       0.03125000 </v>
   <v>       0.03125000 </v>
   <v>       0.03125000 </v>
   <v>       0.03125000 </v>
   <v>       0.03125000 </v>
   <v>       0.01562500 </v>
   <v>       0.03125000 </v>
   <v>       0.03125000 </v>
   <v>       0.03125000 </v>
   <v>       0.01562500 </v>
  </varray>
 </kpoints>
 <parameters>
  <separator name="general" >
   <i type="string" name="SYSTEM">unknown system</i>
   <i type="logical" name="LCOMPAT"> F  </i>
  </separator>
  <separator name="electronic" >
   <i type="string" name="PREC">normal</i>
   <i name="ENMAX">    280.00000000</i>
   <i name="ENAUG">    373.43800000</i>
   <i name="EDIFF">      0.00010000</i>
   <i type="int" name="IALGO">    38</i>
   <i type="int" name="IWAVPR">    11</i>
   <i type="int" name="NBANDS">   120</i>
   <i name="NELECT">    159.00000000</i>
   <i type="int" name="TURBO">     0</i>
   <i type="int" name="IRESTART">     0</i>
   <i type="int" name="NREBOOT">     0</i>
   <i type="int" name="NMIN">     0</i>
   <i name="EREF">      0.00000000</i>
   <separator name="electronic smearing" >
    <i type="int" name="ISMEAR">     0</i>
    <i name="SIGMA">      0.20000000</i>
    <i name="KSPACING">      0.50000000</i>
    <i type="logical" name="KGAMMA"> T  </i>
   </separator>
   <separator name="electronic projectors" >
    <i type="logical" name="LREAL"> F  </i>
    <v name="ROPT">      0.00000000      0.00000000      0.00000000      0.00000000</v>
    <i type="int" name="LMAXPAW">  -100</i>
    <i type="int" name="LMAXMIX">     2</i>
    <i type="logical" name="NLSPLINE"> F  </i>
   </separator>
   <separator name="electronic startup" >
    <i type="int" name="ISTART">     0</i>
    <i type="int" name="ICHARG">     2</i>
    <i type="int" name="INIWAV">     1</i>
   </separator>
   <separator name="electronic spin" >
    <i type="int" name="ISPIN">     1</i>
    <i type="logical" name="LNONCOLLINEAR"> F  </i>
    <v name="MAGMOM">      1.00000000      1.00000000      1.00000000      1.00000000      1.00000000      1.00000000      1.00000000      1.00000000      1.00000000      1.00000000      1.00000000      1.00000000      1.00000000      1.00000000      1.00000000      1.00000000      1.00000000      1.00000000      1.00000000      1.00000000
      1.00000000      1.00000000      1.00000000      1.00000000      1.00000000      1.00000000      1.00000000</v>
    <i name="NUPDOWN">     -1.00000000</i>
    <i type="logical" name="LSORBIT"> F  </i>
    <v name="SAXIS">      0.00000000      0.00000000      1.00000000</v>
    <i type="logical" name="LSPIRAL"> F  </i>
    <v name="QSPIRAL">      0.00000000      0.00000000      0.00000000</v>
    <i type="logical" name="LZEROZ"> F  </i>
   </separator>
   <separator name="electronic exchange-correlation" >
    <i type="logical" name="LASPH"> F  </i>
    <i type="logical" name="LMETAGGA"> F  </i>
   </separator>
   <separator name="electronic convergence" >
    <i type="int" name="NELM">    60</i>
    <i type="int" name="NELMDL">    -5</i>
    <i type="int" name="NELMIN">     2</i>
    <i name="ENINI">    280.00000000</i>
    <separator name="electronic convergence detail" >
     <i type="logical" name="LDIAG"> T  </i>
     <i type="logical" name="LSUBROT"> F  </i>
     <i name="WEIMIN">      0.00100000</i>
     <i name="EBREAK">      0.00000021</i>
     <i name="DEPER">      0.30000000</i>
     <i type="int" name="NRMM">     4</i>
     <i name="TIME">      0.40000000</i>
    </separator>
   </separator>
   <separator name="electronic mixer" >
    <i name="AMIX">      0.40000000</i>
    <i name="BMIX">      1.00000000</i>
    <i name="AMIN">      0.10000000</i>
    <i name="AMIX_MAG">      1.60000000</i>
    <i name="BMIX_MAG">      1.00000000</i>
    <separator name="electronic mixer details" >
     <i type="int" name="IMIX">     4</i>
     <i type="logical" name="MIXFIRST"> F  </i>
     <i type="int" name="MAXMIX">   -45</i>
     <i name="WC">    100.00000000</i>
     <i type="int" name="INIMIX">     1</i>
     <i type="int" name="MIXPRE">     1</i>
     <i type="int" name="MREMOVE">     5</i>
    </separator>
   </separator>
   <separator name="electronic dipolcorrection" >
    <i type="logical" name="LDIPOL"> F  </i>
    <i type="logical" name="LMONO"> F  </i>
    <i type="int" name="IDIPOL">     0</i>
    <i name="EPSILON">      1.00000000</i>
    <v name="DIPOL">   -100.00000000   -100.00000000   -100.00000000</v>
    <i name="EFIELD">      0.00000000</i>
   </separator>
  </separator>
  <separator name="grids" >
   <i type="int" name="NGX">    42</i>
   <i type="int" name="NGY">    42</i>
   <i type="int" name="NGZ">   126</i>
   <i type="int" name="NGXF">    84</i>
   <i type="int" name="NGYF">    84</i>
   <i type="int" name="NGZF">   252</i>
   <i type="logical" name="ADDGRID"> F  </i>
  </separator>
  <separator name="ionic" >
   <i type="int" name="NSW">   100</i>
   <i type="int" name="IBRION">     1</i>
   <i type="int" name="ISIF">     3</i>
   <i name="PSTRESS">      0.00000000</i>
   <i name="EDIFFG">      0.00100000</i>
   <i type="int" name="NFREE">     0</i>
   <i name="POTIM">      0.50000000</i>
   <i name="SMASS">     -3.00000000</i>
   <i name="SCALEE">      1.00000000</i>
  </separator>
  <separator name="ionic md" >
   <i name="TEBEG">      0.00010000</i>
   <i name="TEEND">      0.00010000</i>
   <i type="int" name="NBLOCK">     1</i>
   <i type="int" name="KBLOCK">   100</i>
   <i type="int" name="NPACO">   256</i>
   <i name="APACO">     16.00000000</i>
  </separator>
  <separator name="symmetry" >
   <i type="int" name="ISYM">     0</i>
   <i name="SYMPREC">      0.00000001</i>
  </separator>
  <separator name="dos" >
   <i type="logical" name="LORBIT"> F  </i>
   <v name="RWIGS">     -1.00000000     -1.00000000     -1.00000000     -1.00000000</v>
   <i type="int" name="NEDOS">   301</i>
   <i name="EMIN">     10.00000000</i>
   <i name="EMAX">    -10.00000000</i>
   <i name="EFERMI">      0.00000000</i>
  </separator>
  <separator name="writing" >
   <i type="int" name="NWRITE">     2</i>
   <i type="logical" name="LWAVE"> F  </i>
   <i type="logical" name="LCHARG"> F  </i>
   <i type="logical" name="LPARD"> F  </i>
   <i type="logical" name="LVTOT"> F  </i>
   <i type="logical" name="LVHAR"> F  </i>
   <i type="logical" name="LELF"> F  </i>
   <i type="logical" name="LOPTICS"> F  </i>
   <v name="STM">      0.00000000      0.00000000      0.00000000      0.00000000      0.00000000      0.00000000      0.00000000</v>
  </separator>
  <separator name="performance" >
   <i type="int" name="NPAR">    40</i>
   <i type="int" name="NSIM">     4</i>
   <i type="int" name="NBLK">    -1</i>
   <i type="logical" name="LPLANE"> F  </i>
   <i type="logical" name="LSCALAPACK"> T  </i>
   <i type="logical" name="LSCAAWARE"> F  </i>
   <i type="logical" name="LSCALU"> F  </i>
   <i type="logical" name="LASYNC"> F  </i>
   <i type="logical" name="LORBITALREAL"> F  </i>
  </separator>
  <separator name="miscellaneous" >
   <i type="int" name="IDIOT">     3</i>
   <i type="logical" name="LMUSIC"> F  </i>
   <v name="POMASS">     50.94100000     95.94000000    183.85000000     32.06600000</v>
   <v name="DARWINR">      0.00000000      0.00000000      0.00000000      0.00000000</v>
   <v name="DARWINV">      1.00000000      1.00000000      1.00000000      1.00000000</v>
   <i type="logical" name="LCORR"> T  </i>
  </separator>
  <i type="logical" name="GGA_COMPAT"> T  </i>
  <i type="logical" name="LBERRY"> F  </i>
  <i type="int" name="ICORELEVEL">     0</i>
  <i type="logical" name="LDAU"> F  </i>
  <i type="int" name="I_CONSTRAINED_M">     0</i>
  <separator name="electronic exchange-correlation" >
   <i type="string" name="GGA">--</i>
   <i type="int" name="VOSKOWN">     0</i>
   <i type="logical" name="LHFCALC"> F  </i>
   <i type="string" name="PRECFOCK"></i>
   <i type="logical" name="LSYMGRAD"> F  </i>
   <i type="logical" name="LHFONE"> F  </i>
   <i type="logical" name="LRHFCALC"> F  </i>
   <i type="logical" name="LTHOMAS"> F  </i>
   <i type="logical" name="LMODELHF"> F  </i>
   <i name="ENCUT4O">     -1.00000000</i>
   <i type="int" name="EXXOEP">     0</i>
   <i type="int" name="FOURORBIT">     0</i>
   <i name="AEXX">      0.00000000</i>
   <i name="HFALPHA">      0.00000000</i>
   <i name="MCALPHA">      0.00000000</i>
   <i name="ALDAX">      1.00000000</i>
   <i name="AGGAX">      1.00000000</i>
   <i name="ALDAC">      1.00000000</i>
   <i name="AGGAC">      1.00000000</i>
   <i type="int" name="NKREDX">     1</i>
   <i type="int" name="NKREDY">     1</i>
   <i type="int" name="NKREDZ">     1</i>
   <i type="logical" name="SHIFTRED"> F  </i>
   <i type="logical" name="ODDONLY"> F  </i>
   <i type="logical" name="EVENONLY"> F  </i>
   <i type="int" name="LMAXFOCK">     0</i>
   <i type="int" name="NMAXFOCKAE">     0</i>
   <i type="logical" name="LFOCKAEDFT"> F  </i>
   <i name="HFSCREEN">      0.00000000</i>
   <i name="HFSCREENC">      0.00000000</i>
   <i type="int" name="NBANDSGWLOW">     0</i>
  </separator>
  <separator name="vdW DFT" >
   <i type="logical" name="LUSE_VDW"> F  </i>
   <i name="Zab_VDW">     -0.84910000</i>
   <i name="PARAM1">      0.12340000</i>
   <i name="PARAM2">      1.00000000</i>
   <i name="PARAM3">      0.00000000</i>
  </separator>
  <separator name="model GW" >
   <i type="int" name="MODEL_GW">     0</i>
   <i name="MODEL_EPS0">     58.26239943</i>
   <i name="MODEL_ALPHA">      1.00000000</i>
  </separator>
  <separator name="linear response parameters" >
   <i type="logical" name="LEPSILON"> F  </i>
   <i type="logical" name="LRPA"> F  </i>
   <i type="logical" name="LNABLA"> F  </i>
   <i type="logical" name="LVEL"> F  </i>
   <i type="int" name="KINTER">     0</i>
   <i name="CSHIFT">      0.10000000</i>
   <i name="OMEGAMAX">     -1.00000000</i>
   <i name="DEG_THRESHOLD">      0.00200000</i>
  </separator>
  <separator name="orbital magnetization" >
   <i type="logical" name="NUCIND"> F  </i>
   <v name="MAGPOS">      0.00000000      0.00000000      0.00000000</v>
   <i type="logical" name="LNICSALL"> T  </i>
   <i type="logical" name="ORBITALMAG"> F  </i>
   <i type="logical" name="LMAGBLOCH"> F  </i>
   <i type="logical" name="LCHIMAG"> F  </i>
   <i type="logical" name="LGAUGE"> T  </i>
   <i type="int" name="MAGATOM">     0</i>
   <v name="MAGDIPOL">      0.00000000      0.00000000      0.00000000</v>
   <v name="AVECCONST">      0.00000000      0.00000000      0.00000000</v>
  </separator>
  <separator name="response functions" >
   <i type="logical" name="LADDER"> F  </i>
   <i type="logical" name="LFXC"> F  </i>
   <i type="logical" name="LHARTREE"> T  </i>
   <i type="int" name="IBSE">     0</i>
   <v type="int" name="KPOINT">    -1     0     0     0</v>
   <i type="logical" name="LTCTE"> F  </i>
   <i type="logical" name="LTETE"> F  </i>
   <i type="logical" name="LTRIPLET"> F  </i>
   <i type="logical" name="LFXCEPS"> F  </i>
   <i type="logical" name="LFXHEG"> F  </i>
   <i type="int" name="NATURALO">     0</i>
   <i type="logical" name="L2ORDER"> F  </i>
   <i type="logical" name="LUSEW"> F  </i>
   <i name="ENCUTGW">     -2.00000000</i>
   <i name="ENCUTGWSOFT">     -2.00000000</i>
   <i name="ENCUTLF">     -1.00000000</i>
   <i type="int" name="LMAXMP2">    -1</i>
   <i name="SCISSOR">      0.00000000</i>
   <i type="int" name="NOMEGA">     0</i>
   <i type="int" name="NOMEGAR">     0</i>
   <i type="int" name="NBANDSGW">    -1</i>
   <i type="int" name="NBANDSO">    -1</i>
   <i type="int" name="NBANDSV">    -1</i>
   <i type="int" name="NELM">     1</i>
   <i type="int" name="NELMHF">     1</i>
   <i type="int" name="DIM">     3</i>
   <i type="int" name="ANTIRES">     0</i>
   <i name="OMEGAMAX">    -30.00000000</i>
   <i name="OMEGAMIN">    -30.00000000</i>
   <i name="OMEGATL">   -200.00000000</i>
   <i type="int" name="OMEGAGRID">     0</i>
   <i name="CSHIFT">     -0.10000000</i>
   <i type="logical" name="SELFENERGY"> F  </i>
   <i type="logical" name="LSPECTRAL"> F  </i>
   <i type="logical" name="LSPECTRALGW"> F  </i>
   <i type="logical" name="LSINGLES"> F  </i>
   <i type="logical" name="LFERMIGW"> F  </i>
   <i type="logical" name="ODDONLYGW"> F  </i>
   <i type="logical" name="EVENONLYGW"> F  </i>
   <i type="int" name="NKREDLFX">     1</i>
   <i type="int" name="NKREDLFY">     1</i>
   <i type="int" name="NKREDLFZ">     1</i>
   <i type="int" name="MAXMEM">  1800</i>
   <i type="int" name="TELESCOPE">     0</i>
   <i type="int" name="TAUPAR">     1</i>
   <i type="int" name="OMEGAPAR">    -1</i>
   <i name="LAMBDA">      1.00000000</i>
  </separator>
  <separator name="External order field" >
   <i name="OFIELD_KAPPA">      0.00000000</i>
   <v name="OFIELD_K">      0.00000000      0.00000000      0.00000000</v>
   <i name="OFIELD_Q6_NEAR">      0.00000000</i>
   <i name="OFIELD_Q6_FAR">      0.00000000</i>
   <i name="OFIELD_A">      0.00000000</i>
  </separator>
 </parameters>
 <atominfo>
  <atoms>      27 </atoms>
  <types>       4 </types>
  <array name="atoms" >
   <dimension dim="1">ion</dimension>
   <field type="string">element</field>
   <field type="int">atomtype</field>
   <set>
    <rc><c>V </c><c>   1</c></rc>
    <rc><c>V </c><c>   1</c></rc>
    <rc><c>V </c><c>   1</c></rc>
    <rc><c>Mo</c><c>   2</c></rc>
    <rc><c>Mo</c><c>   2</c></rc>
    <rc><c>Mo</c><c>   2</c></rc>
    <rc><c>W </c><c>   3</c></rc>
    <rc><c>W </c><c>   3</c></rc>
    <rc><c>W </c><c>   3</c></rc>
    <rc><c>S </c><c>   4</c></rc>
    <rc><c>S </c><c>   4</c></rc>
    <rc><c>S </c><c>   4</c></rc>
    <rc><c>S </c><c>   4</c></rc>
    <rc><c>S </c><c>   4</c></rc>
    <rc><c>S </c><c>   4</c></rc>
    <rc><c>S </c><c>   4</c></rc>
    <rc><c>S </c><c>   4</c></rc>
    <rc><c>S </c><c>   4</c></rc>
    <rc><c>S </c><c>   4</c></rc>
    <rc><c>S </c><c>   4</c></rc>
    <rc><c>S </c><c>   4</c></rc>
    <rc><c>S </c><c>   4</c></rc>
    <rc><c>S </c><c>   4</c></rc>
    <rc><c>S </c><c>   4</c></rc>
    <rc><c>S </c><c>   4</c></rc>
    <rc><c>S </c><c>   4</c></rc>
    <rc><c>S </c><c>   4</c></rc>
   </set>
  </array>
  <array name="atomtypes" >
   <dimension dim="1">type</dimension>
   <field type="int">atomspertype</field>
   <field type="string">element</field>
   <field>mass</field>
   <field>valence</field>
   <field type="string">pseudopotential</field>
   <set>
    <rc><c>   3</c><c>V </c><c>     50.94100000</c><c>      5.00000000</c><c> PAW_PBE V 08Apr2002                    </c></rc>
    <rc><c>   3</c><c>Mo</c><c>     95.94000000</c><c>      6.00000000</c><c> PAW_PBE Mo 08Apr2002                   </c></rc>
    <rc><c>   3</c><c>W </c><c>    183.85000000</c><c>      6.00000000</c><c> PAW_PBE W 08Apr2002                    </c></rc>
    <rc><c>  18</c><c>S </c><c>     32.06600000</c><c>      6.00000000</c><c>  PAW_PBE S 17Jan2003                   </c></rc>
   </set>
  </array>
 </atominfo>
 <structure name="initialpos" >
  <crystal>
   <varray name="basis" >
    <v>       8.66999996       5.03999989       0.00000000 </v>
    <v>      -8.66999982       5.04000013       0.00000000 </v>
    <v>       0.00000000       0.00000000      30.00000000 </v>
   </varray>
   <i name="volume">   2621.80797419 </i>
   <varray name="rec_basis" >
    <v>       0.05767013       0.09920635       0.00000000 </v>
    <v>      -0.05767013       0.09920635       0.00000000 </v>
    <v>       0.00000000       0.00000000       0.03333333 </v>
   </varray>
  </crystal>
  <varray name="positions" >
   <v>       0.66666669       0.33333334       0.00000000 </v>
   <v>       0.33333334       0.66666669       0.00000000 </v>
   <v>       0.00000000       0.66666669       0.00000000 </v>
   <v>       0.33333334       0.33333334       0.00000000 </v>
   <v>       1.00000000       0.33333334       0.00000000 </v>
   <v>       0.66666669       0.00000000       0.00000000 </v>
   <v>       0.00000000       0.00000000       0.00000000 </v>
   <v>       0.33333334       0.00000000       0.00000000 </v>
   <v>       0.66666669       0.66666669       0.00000000 </v>
   <v>       0.11068511       0.22244981       0.95539999 </v>
   <v>       0.22244981       0.11068511       0.04460000 </v>
   <v>       0.11068511       0.55578315       0.95539999 </v>
   <v>       0.22244981       0.44401845       0.04460000 </v>
   <v>       0.11068511       0.88911647       0.95539999 </v>
   <v>       0.22244981       0.77735180       0.04460000 </v>
   <v>       0.44401845       0.22244981       0.95539999 </v>
   <v>       0.55578315       0.11068511       0.04460000 </v>
   <v>       0.44401845       0.55578315       0.95539999 </v>
   <v>       0.55578315       0.44401845       0.04460000 </v>
   <v>       0.44401845       0.88911647       0.95539999 </v>
   <v>       0.55578315       0.77735180       0.04460000 </v>
   <v>       0.77735180       0.22244981       0.95539999 </v>
   <v>       0.88911647       0.11068511       0.04460000 </v>
   <v>       0.77735180       0.55578315       0.95539999 </v>
   <v>       0.88911647       0.44401845       0.04460000 </v>
   <v>       0.77735180       0.88911647       0.95539999 </v>
   <v>       0.88911647       0.77735180       0.04460000 </v>
  </varray>
 </structure>
 <calculation>
  <scstep>
   <time name="dav">   21.73   21.79</time>
   <time name="total">   21.77   21.84</time>
   <energy>
    <i name="alphaZ">     81.65567618 </i>
    <i name="ewald">  41890.23010370 </i>
    <i name="hartreedc"> -47722.86567401 </i>
    <i name="XCdc">   -242.92868369 </i>
    <i name="pawpsdc">   3467.42045192 </i>
    <i name="pawaedc">  -2871.19716117 </i>
    <i name="eentropy">     -0.53429637 </i>
    <i name="bandstr">   -239.11543964 </i>
    <i name="atom">   6761.44252427 </i>
    <i name="e_fr_energy">   1124.10750119 </i>
    <i name="e_wo_entrp">   1124.64179756 </i>
    <i name="e_0_energy">   1124.37464937 </i>
   </energy>
  </scstep>
  <scstep>
   <time name="dav">   27.97   28.04</time>
   <time name="total">   27.97   28.05</time>
   <energy>
    <i name="e_fr_energy">     -4.59653610 </i>
    <i name="e_wo_entrp">     -4.40184065 </i>
    <i name="e_0_energy">     -4.49918838 </i>
   </energy>
  </scstep>
  <scstep>
   <time name="dav">   27.54   27.60</time>
   <time name="total">   27.54   27.61</time>
   <energy>
    <i name="e_fr_energy">   -199.90907873 </i>
    <i name="e_wo_entrp">   -199.64141232 </i>
    <i name="e_0_energy">   -199.77524553 </i>
   </energy>
  </scstep>
  <scstep>
   <time name="dav">   30.03   30.10</time>
   <time name="total">   30.03   30.11</time>
   <energy>
    <i name="e_fr_energy">   -208.97083361 </i>
    <i name="e_wo_entrp">   -208.67388022 </i>
    <i name="e_0_energy">   -208.82235692 </i>
   </energy>
  </scstep>
  <scstep>
   <time name="dav">   27.87   27.94</time>
   <time name="total">   28.34   28.41</time>
   <energy>
    <i name="e_fr_energy">   -209.29153596 </i>
    <i name="e_wo_entrp">   -208.99806691 </i>
    <i name="e_0_energy">   -209.14480144 </i>
   </energy>
  </scstep>
  <scstep>
   <time name="dav">   30.52   30.59</time>
   <time name="total">   31.02   31.11</time>
   <energy>
    <i name="e_fr_energy">   -236.99447320 </i>
    <i name="e_wo_entrp">   -236.71667458 </i>
    <i name="e_0_energy">   -236.85557389 </i>
   </energy>
  </scstep>
  <scstep>
   <time name="dav">   32.68   32.76</time>
   <time name="total">   33.19   33.27</time>
   <energy>
    <i name="e_fr_energy">   -196.52208729 </i>
    <i name="e_wo_entrp">   -196.20723689 </i>
    <i name="e_0_energy">   -196.36466209 </i>
   </energy>
  </scstep>
  <scstep>
   <time name="dav">   29.57   29.64</time>
   <time name="total">   30.08   30.17</time>
   <energy>
    <i name="e_fr_energy">   -189.54824756 </i>
    <i name="e_wo_entrp">   -189.26047900 </i>
    <i name="e_0_energy">   -189.40436328 </i>
   </energy>
  </scstep>
  <scstep>
   <time name="dav">   30.82   30.89</time>
   <time name="total">   31.34   31.42</time>
   <energy>
    <i name="e_fr_energy">   -188.24102854 </i>
    <i name="e_wo_entrp">   -187.91354803 </i>
    <i name="e_0_energy">   -188.07728828 </i>
   </energy>
  </scstep>
  <scstep>
   <time name="dav">   32.52   32.60</time>
   <time name="total">   33.05   33.14</time>
   <energy>
    <i name="e_fr_energy">   -187.04906870 </i>
    <i name="e_wo_entrp">   -186.69843778 </i>
    <i name="e_0_energy">   -186.87375324 </i>
   </energy>
  </scstep>
  <scstep>
   <time name="dav">   32.93   33.00</time>
   <time name="total">   33.46   33.55</time>
   <energy>
    <i name="e_fr_energy">   -187.02249576 </i>
    <i name="e_wo_entrp">   -186.67722558 </i>
    <i name="e_0_energy">   -186.84986067 </i>
   </energy>
  </scstep>
  <scstep>
   <time name="dav">   30.27   30.34</time>
   <time name="total">   30.80   30.88</time>
   <energy>
    <i name="e_fr_energy">   -187.17743489 </i>
    <i name="e_wo_entrp">   -186.84078191 </i>
    <i name="e_0_energy">   -187.00910840 </i>
   </energy>
  </scstep>
  <scstep>
   <time name="dav">   31.42   31.49</time>
   <time name="total">   31.96   32.04</time>
   <energy>
    <i name="e_fr_energy">   -186.92799115 </i>
    <i name="e_wo_entrp">   -186.59114290 </i>
    <i name="e_0_energy">   -186.75956702 </i>
   </energy>
  </scstep>
  <scstep>
   <time name="dav">   31.85   31.93</time>
   <time name="total">   32.39   32.48</time>
   <energy>
    <i name="e_fr_energy">   -186.87888461 </i>
    <i name="e_wo_entrp">   -186.53560124 </i>
    <i name="e_0_energy">   -186.70724293 </i>
   </energy>
  </scstep>
  <scstep>
   <time name="dav">   28.94   29.01</time>
   <time name="total">   29.47   29.55</time>
   <energy>
    <i name="e_fr_energy">   -186.87988056 </i>
    <i name="e_wo_entrp">   -186.53414654 </i>
    <i name="e_0_energy">   -186.70701355 </i>
   </energy>
  </scstep>
  <scstep>
   <time name="dav">   31.45   31.53</time>
   <time name="total">   31.98   32.07</time>
   <energy>
    <i name="e_fr_energy">   -186.87094091 </i>
    <i name="e_wo_entrp">   -186.52478592 </i>
    <i name="e_0_energy">   -186.69786341 </i>
   </energy>
  </scstep>
  <scstep>
   <time name="dav">   30.80   30.88</time>
   <time name="total">   31.33   31.42</time>
   <energy>
    <i name="e_fr_energy">   -186.86766180 </i>
    <i name="e_wo_entrp">   -186.52359400 </i>
    <i name="e_0_energy">   -186.69562790 </i>
   </energy>
  </scstep>
  <scstep>
   <time name="dav">   30.87   30.95</time>
   <time name="total">   31.41   31.49</time>
   <energy>
    <i name="e_fr_energy">   -186.86711259 </i>
    <i name="e_wo_entrp">   -186.52254597 </i>
    <i name="e_0_energy">   -186.69482928 </i>
   </energy>
  </scstep>
  <scstep>
   <time name="dav">   26.95   27.01</time>
   <time name="total">   27.48   27.55</time>
   <energy>
    <i name="e_fr_energy">   -186.86766870 </i>
    <i name="e_wo_entrp">   -186.52331253 </i>
    <i name="e_0_energy">   -186.69549061 </i>
   </energy>
  </scstep>
  <scstep>
   <time name="dav">   21.85   21.90</time>
   <time name="total">   22.39   22.45</time>
   <energy>
    <i name="e_fr_energy">   -186.86800706 </i>
    <i name="e_wo_entrp">   -186.52374141 </i>
    <i name="e_0_energy">   -186.69587424 </i>
   </energy>
  </scstep>
  <scstep>
   <time name="dav">   20.62   20.67</time>
   <time name="total">   21.16   21.21</time>
   <energy>
    <i name="e_fr_energy">   -186.86884340 </i>
    <i name="e_wo_entrp">   -186.52454993 </i>
    <i name="e_0_energy">   -186.69669667 </i>
   </energy>
  </scstep>
  <scstep>
   <time name="dav">   20.19   20.24</time>
   <time name="total">   20.73   20.79</time>
   <energy>
    <i name="e_fr_energy">   -186.86962825 </i>
    <i name="e_wo_entrp">   -186.52531540 </i>
    <i name="e_0_energy">   -186.69747182 </i>
   </energy>
  </scstep>
  <scstep>
   <time name="dav">   20.33   20.37</time>
   <time name="total">   20.86   20.92</time>
   <energy>
    <i name="e_fr_energy">   -186.87086827 </i>
    <i name="e_wo_entrp">   -186.52660628 </i>
    <i name="e_0_energy">   -186.69873727 </i>
   </energy>
  </scstep>
  <scstep>
   <time name="dav">   18.83   18.88</time>
   <time name="total">   19.37   19.42</time>
   <energy>
    <i name="e_fr_energy">   -186.87144371 </i>
    <i name="e_wo_entrp">   -186.52717368 </i>
    <i name="e_0_energy">   -186.69930870 </i>
   </energy>
  </scstep>
  <scstep>
   <time name="dav">   16.27   16.31</time>
   <time name="total">   16.80   16.85</time>
   <energy>
    <i name="e_fr_energy">   -186.87187438 </i>
    <i name="e_wo_entrp">   -186.52756531 </i>
    <i name="e_0_energy">   -186.69971984 </i>
   </energy>
  </scstep>
  <scstep>
   <time name="dav">   19.00   19.05</time>
   <time name="total">   19.54   19.59</time>
   <energy>
    <i name="e_fr_energy">   -186.87206898 </i>
    <i name="e_wo_entrp">   -186.52777985 </i>
    <i name="e_0_energy">   -186.69992442 </i>
   </energy>
  </scstep>
  <scstep>
   <time name="dav">   19.55   19.60</time>
   <time name="total">   19.58   19.64</time>
   <energy>
    <i name="alphaZ">     81.65567618 </i>
    <i name="ewald">  41890.23010370 </i>
    <i name="hartreedc"> -47832.99584832 </i>
    <i name="XCdc">   -231.60041182 </i>
    <i name="pawpsdc">   4192.12284504 </i>
    <i name="pawaedc">  -3610.14186803 </i>
    <i name="eentropy">     -0.34428829 </i>
    <i name="bandstr">  -1437.24088607 </i>
    <i name="atom">   6761.44252427 </i>
    <i name="e_fr_energy">   -186.87215335 </i>
    <i name="e_wo_entrp">   -186.52786506 </i>
    <i name="e_0_energy">   -186.70000920 </i>
   </energy>
  </scstep>
  <structure>
   <crystal>
    <varray name="basis" >
     <v>       8.66999996       5.03999989       0.00000000 </v>
     <v>      -8.66999982       5.04000013       0.00000000 </v>
     <v>       0.00000000       0.00000000      30.00000000 </v>
    </varray>
    <i name="volume">   2621.80797419 </i>
    <varray name="rec_basis" >
     <v>       0.05767013       0.09920635       0.00000000 </v>
     <v>      -0.05767013       0.09920635       0.00000000 </v>
     <v>       0.00000000       0.00000000       0.03333333 </v>
    </varray>
   </crystal>
   <varray name="positions" >
    <v>       0.66666669       0.33333334       0.00000000 </v>
    <v>       0.33333334       0.66666669       0.00000000 </v>
    <v>       0.00000000       0.66666669       0.00000000 </v>
    <v>       0.33333334       0.33333334       0.00000000 </v>
    <v>       1.00000000       0.33333334       0.00000000 </v>
    <v>       0.66666669       0.00000000       0.00000000 </v>
    <v>       0.00000000       0.00000000       0.00000000 </v>
    <v>       0.33333334       0.00000000       0.00000000 </v>
    <v>       0.66666669       0.66666669       0.00000000 </v>
    <v>       0.11068511       0.22244981       0.95539999 </v>
    <v>       0.22244981       0.11068511       0.04460000 </v>
    <v>       0.11068511       0.55578315       0.95539999 </v>
    <v>       0.22244981       0.44401845       0.04460000 </v>
    <v>       0.11068511       0.88911647       0.95539999 </v>
    <v>       0.22244981       0.77735180       0.04460000 </v>
    <v>       0.44401845       0.22244981       0.95539999 </v>
    <v>       0.55578315       0.11068511       0.04460000 </v>
    <v>       0.44401845       0.55578315       0.95539999 </v>
    <v>       0.55578315       0.44401845       0.04460000 </v>
    <v>       0.44401845       0.88911647       0.95539999 </v>
    <v>       0.55578315       0.77735180       0.04460000 </v>
    <v>       0.77735180       0.22244981       0.95539999 </v>
    <v>       0.88911647       0.11068511       0.04460000 </v>
    <v>       0.77735180       0.55578315       0.95539999 </v>
    <v>       0.88911647       0.44401845       0.04460000 </v>
    <v>       0.77735180       0.88911647       0.95539999 </v>
    <v>       0.88911647       0.77735180       0.04460000 </v>
   </varray>
  </structure>
  <varray name="forces" >
   <v>       0.22617010      -0.05006673      -0.08379715 </v>
   <v>       0.14483641      -0.16671977       0.08522631 </v>
   <v>       0.28753725      -0.15311911      -0.00422749 </v>
   <v>      -0.26349584      -0.15648530      -0.05475009 </v>
   <v>       0.17596017      -0.09495361       0.00869957 </v>
   <v>       0.00159756       0.29023843       0.06074506 </v>
   <v>      -0.56316078       0.29801783      -0.00303691 </v>
   <v>       0.08363287       0.29681575      -0.01468617 </v>
   <v>      -0.22019438      -0.20226823       0.00659278 </v>
   <v>       0.23378786      -0.14447979      -2.95163454 </v>
   <v>      -0.04384152      -0.16402437       2.88793111 </v>
   <v>      -0.32367378       0.66446971      -1.41483641 </v>
   <v>      -0.54411100       0.71733794       2.16203422 </v>
   <v>       0.46174352      -0.56948886      -2.12398377 </v>
   <v>       0.26436280      -0.52954283       1.43086271 </v>
   <v>       0.61927664       0.56164122      -2.18334433 </v>
   <v>      -0.59907712       0.53853380       2.17321704 </v>
   <v>      -0.64307578       0.14358840      -2.13035110 </v>
   <v>       0.66308941       0.15914482       2.06729216 </v>
   <v>       0.36257062      -0.70555505      -2.11523553 </v>
   <v>      -0.37106411      -0.71215760       2.18850192 </v>
   <v>      -0.77691905       0.00830691      -2.12330608 </v>
   <v>       0.05371714      -0.02628399       2.95671258 </v>
   <v>       0.75887884      -0.02313112      -1.47693727 </v>
   <v>      -0.89392570      -0.00284890       1.45417823 </v>
   <v>       0.31024840       0.01192500      -2.88350974 </v>
   <v>       0.59512947       0.01110545       2.08164289 </v>
  </varray>
  <varray name="stress" >
   <v>       7.35624536      -0.03826613      -1.53298532 </v>
   <v>      -0.03826601       4.39890403       0.03602473 </v>
   <v>      -1.53298520       0.03602466      30.31832811 </v>
  </varray>
  <energy>
   <i name="e_fr_energy">   -186.87215335 </i>
   <i name="e_wo_entrp">   -186.70000920 </i>
   <i name="e_0_energy">     -0.34428829 </i>
  </energy>
  <time name="totalsc">  777.27  779.38</time>
 </calculation>
 <calculation>
  <scstep>
   <time name="dav">   21.70   21.75</time>
   <time name="total">   22.25   22.30</time>
   <energy>
    <i name="alphaZ">     78.92128034 </i>
    <i name="ewald">  39379.49891409 </i>
    <i name="hartreedc"> -45337.01538486 </i>
    <i name="XCdc">   -239.05843518 </i>
    <i name="pawpsdc">   4192.09435888 </i>
    <i name="pawaedc">  -3610.11407136 </i>
    <i name="eentropy">     -0.28106294 </i>
    <i name="bandstr">  -1412.99892923 </i>
    <i name="atom">   6761.44252427 </i>
    <i name="e_fr_energy">   -187.51080600 </i>
    <i name="e_wo_entrp">   -187.22974306 </i>
    <i name="e_0_energy">   -187.37027453 </i>
   </energy>
  </scstep>
  <scstep>
   <time name="dav">   30.22   30.29</time>
   <time name="total">   30.75   30.83</time>
   <energy>
    <i name="e_fr_energy">   -189.61130740 </i>
    <i name="e_wo_entrp">   -189.27138032 </i>
    <i name="e_0_energy">   -189.44134386 </i>
   </energy>
  </scstep>
  <scstep>
   <time name="dav">   30.19   30.27</time>
   <time name="total">   30.74   30.83</time>
   <energy>
    <i name="e_fr_energy">   -189.32827824 </i>
    <i name="e_wo_entrp">   -189.06293978 </i>
    <i name="e_0_energy">   -189.19560901 </i>
   </energy>
  </scstep>
  <scstep>
   <time name="dav">   28.68   28.75</time>
   <time name="total">   29.22   29.30</time>
   <energy>
    <i name="e_fr_energy">   -188.79608896 </i>
    <i name="e_wo_entrp">   -188.51157312 </i>
    <i name="e_0_energy">   -188.65383104 </i>
   </energy>
  </scstep>
  <scstep>
   <time name="dav">   30.43   30.50</time>
   <time name="total">   30.97   31.05</time>
   <energy>
    <i name="e_fr_energy">   -188.88882174 </i>
    <i name="e_wo_entrp">   -188.60313391 </i>
    <i name="e_0_energy">   -188.74597782 </i>
   </energy>
  </scstep>
  <scstep>
   <time name="dav">   31.01   31.08</time>
   <time name="total">   31.55   31.64</time>
   <energy>
    <i name="e_fr_energy">   -188.75829616 </i>
    <i name="e_wo_entrp">   -188.47311282 </i>
    <i name="e_0_energy">   -188.61570449 </i>
   </energy>
  </scstep>
  <scstep>
   <time name="dav">   28.39   28.46</time>
   <time name="total">   28.93   29.01</time>
   <energy>
    <i name="e_fr_energy">   -188.71862189 </i>
    <i name="e_wo_entrp">   -188.43433299 </i>
    <i name="e_0_energy">   -188.57647744 </i>
   </energy>
  </scstep>
  <scstep>
   <time name="dav">   31.47   31.55</time>
   <time name="total">   32.01   32.10</time>
   <energy>
    <i name="e_fr_energy">   -188.71129189 </i>
    <i name="e_wo_entrp">   -188.42897019 </i>
    <i name="e_0_energy">   -188.57013104 </i>
   </energy>
  </scstep>
  <scstep>
   <time name="dav">   28.51   28.58</time>
   <time name="total">   29.05   29.13</time>
   <energy>
    <i name="e_fr_energy">   -188.68393819 </i>
    <i name="e_wo_entrp">   -188.40161776 </i>
    <i name="e_0_energy">   -188.54277797 </i>
   </energy>
  </scstep>
  <scstep>
   <time name="dav">   27.56   27.63</time>
   <time name="total">   28.10   28.18</time>
   <energy>
    <i name="e_fr_energy">   -188.68211345 </i>
    <i name="e_wo_entrp">   -188.40072469 </i>
    <i name="e_0_energy">   -188.54141907 </i>
   </energy>
  </scstep>
  <scstep>
   <time name="dav">   31.02   31.09</time>
   <time name="total">   31.56   31.64</time>
   <energy>
    <i name="e_fr_energy">   -188.68161839 </i>
    <i name="e_wo_entrp">   -188.40131326 </i>
    <i name="e_0_energy">   -188.54146582 </i>
   </energy>
  </scstep>
  <scstep>
   <time name="dav">   27.97   28.04</time>
   <time name="total">   28.01   28.08</time>
   <energy>
    <i name="alphaZ">     78.92128034 </i>
    <i name="ewald">  39379.49891409 </i>
    <i name="hartreedc"> -45347.91911395 </i>
    <i name="XCdc">   -237.96803556 </i>
    <i name="pawpsdc">   3952.82078094 </i>
    <i name="pawaedc">  -3367.36204079 </i>
    <i name="eentropy">     -0.28033328 </i>
    <i name="bandstr">  -1407.83563578 </i>
    <i name="atom">   6761.44252427 </i>
    <i name="e_fr_energy">   -188.68165972 </i>
    <i name="e_wo_entrp">   -188.40132644 </i>
    <i name="e_0_energy">   -188.54149308 </i>
   </energy>
  </scstep>
  <structure>
   <crystal>
    <varray name="basis" >
     <v>       8.85591639       5.10385339       0.00000000 </v>
     <v>      -8.85704404       5.10579372       0.00000000 </v>
     <v>       0.00000000       0.00000000      30.00000000 </v>
    </varray>
    <i name="volume">   2712.64609522 </i>
    <varray name="rec_basis" >
     <v>       0.05646657       0.09795282       0.00000000 </v>
     <v>      -0.05644511       0.09794034       0.00000000 </v>
     <v>       0.00000000       0.00000000       0.03333333 </v>
    </varray>
   </crystal>
   <varray name="positions" >
    <v>       0.66705631       0.33246448      -0.00013475 </v>
    <v>       0.33293838       0.66546581       0.00013705 </v>
    <v>       0.00006715       0.66513389      -0.00000680 </v>
    <v>       0.33185132       0.33331750      -0.00008804 </v>
    <v>       1.00003510       0.33238935       0.00001399 </v>
    <v>       0.66806021       0.00138463       0.00009768 </v>
    <v>      -0.00014050       0.00299311      -0.00000488 </v>
    <v>       0.33498658       0.00118787      -0.00002362 </v>
    <v>       0.66508602       0.66631125       0.00001060 </v>
    <v>       0.11064407       0.22110790       0.95065350 </v>
    <v>       0.22154282       0.11002207       0.04924405 </v>
    <v>       0.11296473       0.55986380       0.95312481 </v>
    <v>       0.22436917       0.44896542       0.04807674 </v>
    <v>       0.10924419       0.88510626       0.95198444 </v>
    <v>       0.22065093       0.77408192       0.04690095 </v>
    <v>       0.44842938       0.22341488       0.95188898 </v>
    <v>       0.55669383       0.11492925       0.04809472 </v>
    <v>       0.44291652       0.55825950       0.95197420 </v>
    <v>       0.55838964       0.44293530       0.04792439 </v>
    <v>       0.44165041       0.88473097       0.95199850 </v>
    <v>       0.55134242       0.77497579       0.04811930 </v>
    <v>       0.77523004       0.22465108       0.95198553 </v>
    <v>       0.88914012       0.11040987       0.04935465 </v>
    <v>       0.77935241       0.55356113       0.95302494 </v>
    <v>       0.88661579       0.44649186       0.04693845 </v>
    <v>       0.77827203       0.88831038       0.95076305 </v>
    <v>       0.89082536       0.77574920       0.04794746 </v>
   </varray>
  </structure>
  <varray name="forces" >
   <v>       0.17005915      -0.08767389      -0.02879804 </v>
   <v>       0.16163894      -0.09598819       0.02969260 </v>
   <v>       0.20755169      -0.12410212      -0.00412155 </v>
   <v>      -0.20280481      -0.31789120       0.06117892 </v>
   <v>       0.49114399      -0.28737934      -0.00168077 </v>
   <v>       0.17408048       0.32476917      -0.05881290 </v>
   <v>      -0.63483015       0.36002321       0.00444551 </v>
   <v>      -0.01720718       0.29171534      -0.11203911 </v>
   <v>      -0.26213373      -0.11414903       0.11366307 </v>
   <v>       0.04333863      -0.09948080      -0.27742151 </v>
   <v>       0.07480918      -0.11503035      -0.01153863 </v>
   <v>       0.00445403       0.03546480       0.07239685 </v>
   <v>      -0.04585348       0.06994187       0.08996010 </v>
   <v>      -0.06181421       0.07349554       0.26303561 </v>
   <v>      -0.03792445       0.07686477      -0.11670359 </v>
   <v>       0.08357991      -0.04181241      -0.00384046 </v>
   <v>      -0.07611709      -0.03731169       0.05845429 </v>
   <v>       0.00592706       0.09602484      -0.07348154 </v>
   <v>      -0.02195174       0.11146737      -0.13857206 </v>
   <v>      -0.10787383      -0.05280634       0.15219282 </v>
   <v>       0.10186869      -0.05926552      -0.00029701 </v>
   <v>      -0.06169390       0.01337191      -0.09885989 </v>
   <v>       0.12633561       0.00213982       0.27281145 </v>
   <v>      -0.09943185      -0.02217445       0.14281338 </v>
   <v>      -0.02526743      -0.00362707      -0.09011048 </v>
   <v>       0.11597305       0.00337321      -0.00419365 </v>
   <v>      -0.10585654       0.00004055      -0.24017338 </v>
  </varray>
  <varray name="stress" >
   <v>     -20.01156633       0.00181790       0.06392178 </v>
   <v>       0.00181782     -19.56374029       0.03603201 </v>
   <v>       0.06392192       0.03603198      -1.76418127 </v>
  </varray>
  <energy>
   <i name="e_fr_energy">   -188.68165972 </i>
   <i name="e_wo_entrp">   -188.54149308 </i>
   <i name="e_0_energy">     -0.28033328 </i>
  </energy>
  <time name="totalsc">  395.19  396.23</time>
 </calculation>
 <calculation>
  <scstep>
   <time name="dav">   23.98   24.03</time>
   <time name="total">   24.52   24.58</time>
   <energy>
    <i name="alphaZ">     82.34955688 </i>
    <i name="ewald">  41304.95511996 </i>
    <i name="hartreedc"> -47303.94760969 </i>
    <i name="XCdc">   -233.84410291 </i>
    <i name="pawpsdc">   3950.39317740 </i>
    <i name="pawaedc">  -3364.90579728 </i>
    <i name="eentropy">     -0.23486765 </i>
    <i name="bandstr">  -1386.81699592 </i>
    <i name="atom">   6761.44252427 </i>
    <i name="e_fr_energy">   -190.60899492 </i>
    <i name="e_wo_entrp">   -190.37412728 </i>
    <i name="e_0_energy">   -190.49156110 </i>
   </energy>
  </scstep>
  <scstep>
   <time name="dav">   28.03   28.10</time>
   <time name="total">   28.56   28.63</time>
   <energy>
    <i name="e_fr_energy">   -190.56117824 </i>
    <i name="e_wo_entrp">   -190.32866765 </i>
    <i name="e_0_energy">   -190.44492294 </i>
   </energy>
  </scstep>
  <scstep>
   <time name="dav">   30.06   30.13</time>
   <time name="total">   30.59   30.67</time>
   <energy>
    <i name="e_fr_energy">   -190.08809625 </i>
    <i name="e_wo_entrp">   -189.83792772 </i>
    <i name="e_0_energy">   -189.96301199 </i>
   </energy>
  </scstep>
  <scstep>
   <time name="dav">   31.17   31.25</time>
   <time name="total">   31.71   31.79</time>
   <energy>
    <i name="e_fr_energy">   -189.87731197 </i>
    <i name="e_wo_entrp">   -189.64401861 </i>
    <i name="e_0_energy">   -189.76066529 </i>
   </energy>
  </scstep>
  <scstep>
   <time name="dav">   29.13   29.20</time>
   <time name="total">   29.69   29.77</time>
   <energy>
    <i name="e_fr_energy">   -189.78770403 </i>
    <i name="e_wo_entrp">   -189.55131705 </i>
    <i name="e_0_energy">   -189.66951054 </i>
   </energy>
  </scstep>
  <scstep>
   <time name="dav">   26.61   26.67</time>
   <time name="total">   27.15   27.22</time>
   <energy>
    <i name="e_fr_energy">   -189.77413842 </i>
    <i name="e_wo_entrp">   -189.53598286 </i>
    <i name="e_0_energy">   -189.65506064 </i>
   </energy>
  </scstep>
  <scstep>
   <time name="dav">   29.94   30.01</time>
   <time name="total">   30.47   30.56</time>
   <energy>
    <i name="e_fr_energy">   -189.77479760 </i>
    <i name="e_wo_entrp">   -189.53876441 </i>
    <i name="e_0_energy">   -189.65678100 </i>
   </energy>
  </scstep>
  <scstep>
   <time name="dav">   29.03   29.10</time>
   <time name="total">   29.56   29.64</time>
   <energy>
    <i name="e_fr_energy">   -189.77370302 </i>
    <i name="e_wo_entrp">   -189.53651770 </i>
    <i name="e_0_energy">   -189.65511036 </i>
   </energy>
  </scstep>
  <scstep>
   <time name="dav">   27.04   27.10</time>
   <time name="total">   27.57   27.65</time>
   <energy>
    <i name="e_fr_energy">   -189.77411417 </i>
    <i name="e_wo_entrp">   -189.53723735 </i>
    <i name="e_0_energy">   -189.65567576 </i>
   </energy>
  </scstep>
  <scstep>
   <time name="dav">   28.00   28.07</time>
   <time name="total">   28.53   28.61</time>
   <energy>
    <i name="e_fr_energy">   -189.77420422 </i>
    <i name="e_wo_entrp">   -189.53688892 </i>
    <i name="e_0_energy">   -189.65554657 </i>
   </energy>
  </scstep>
  <scstep>
   <time name="dav">   23.54   23.60</time>
   <time name="total">   24.08   24.14</time>
   <energy>
    <i name="e_fr_energy">   -189.77385047 </i>
    <i name="e_wo_entrp">   -189.53675493 </i>
    <i name="e_0_energy">   -189.65530270 </i>
   </energy>
  </scstep>
  <scstep>
   <time name="dav">   17.82   17.86</time>
   <time name="total">   17.85   17.90</time>
   <energy>
    <i name="alphaZ">     82.34955688 </i>
    <i name="ewald">  41304.95511996 </i>
    <i name="hartreedc"> -47277.17935669 </i>
    <i name="XCdc">   -235.23878810 </i>
    <i name="pawpsdc">   4038.68159180 </i>
    <i name="pawaedc">  -3454.39028968 </i>
    <i name="eentropy">     -0.23714316 </i>
    <i name="bandstr">  -1410.15706174 </i>
    <i name="atom">   6761.44252427 </i>
    <i name="e_fr_energy">   -189.77384646 </i>
    <i name="e_wo_entrp">   -189.53670330 </i>
    <i name="e_0_energy">   -189.65527488 </i>
   </energy>
  </scstep>
  <structure>
   <crystal>
    <varray name="basis" >
     <v>       8.66751947       4.99771757       0.00000000 </v>
     <v>      -8.66860340       4.99958331       0.00000000 </v>
     <v>       0.00000000       0.00000000      30.00000000 </v>
    </varray>
    <i name="volume">   2599.71651386 </i>
    <varray name="rec_basis" >
     <v>       0.05769379       0.10003325       0.00000000 </v>
     <v>      -0.05767226       0.10002075       0.00000000 </v>
     <v>       0.00000000       0.00000000       0.03333333 </v>
    </varray>
   </crystal>
   <varray name="positions" >
    <v>       0.66707351       0.33215617      -0.00015103 </v>
    <v>       0.33293372       0.66515175       0.00015383 </v>
    <v>       0.00005975       0.66472921      -0.00000913 </v>
    <v>       0.33112926       0.33298373      -0.00005347 </v>
    <v>       1.00002804       0.33144217       0.00001304 </v>
    <v>       0.66876619       0.00175731       0.00006445 </v>
    <v>      -0.00015035       0.00419841      -0.00000237 </v>
    <v>       0.33545454       0.00168872      -0.00008693 </v>
    <v>       0.66464551       0.66637256       0.00007484 </v>
    <v>       0.11052035       0.22090124       0.95049672 </v>
    <v>       0.22142341       0.10975948       0.04923753 </v>
    <v>       0.11302789       0.55991843       0.95316572 </v>
    <v>       0.22444142       0.44912543       0.04812758 </v>
    <v>       0.10930707       0.88528745       0.95213308 </v>
    <v>       0.22074227       0.77424584       0.04683500 </v>
    <v>       0.44843996       0.22326548       0.95188681 </v>
    <v>       0.55655900       0.11494014       0.04812776 </v>
    <v>       0.44308166       0.55841328       0.95193267 </v>
    <v>       0.55855373       0.44314139       0.04784608 </v>
    <v>       0.44145945       0.88474651       0.95208451 </v>
    <v>       0.55134152       0.77477990       0.04811914 </v>
    <v>       0.77519319       0.22473232       0.95192966 </v>
    <v>       0.88926462       0.11029252       0.04950883 </v>
    <v>       0.77922040       0.55361946       0.95310565 </v>
    <v>       0.88658557       0.44651002       0.04688752 </v>
    <v>       0.77838865       0.88820500       0.95076068 </v>
    <v>       0.89072409       0.77585057       0.04781174 </v>
   </varray>
  </structure>
  <varray name="forces" >
   <v>       0.14085351      -0.12397153      -0.00624220 </v>
   <v>       0.18002391      -0.06229409       0.00760951 </v>
   <v>       0.16997083      -0.10291523      -0.00200599 </v>
   <v>      -0.18105162      -0.36473710       0.06194548 </v>
   <v>       0.57879727      -0.33274069      -0.00258283 </v>
   <v>       0.22166854       0.32582348      -0.06222584 </v>
   <v>      -0.63802685       0.36828439       0.00304525 </v>
   <v>      -0.06025477       0.28009236      -0.10405450 </v>
   <v>      -0.27265094      -0.07938274       0.10588088 </v>
   <v>      -0.00562753      -0.02160831      -0.86514298 </v>
   <v>       0.04363942      -0.05901054       0.54361749 </v>
   <v>      -0.02214163       0.08468019      -0.36606938 </v>
   <v>      -0.09191823       0.12065725       0.58641489 </v>
   <v>      -0.00663821      -0.05093583      -0.21308302 </v>
   <v>       0.03195547      -0.04441380       0.33457952 </v>
   <v>       0.06188932       0.10407441      -0.50969372 </v>
   <v>      -0.06757448       0.09955698       0.55999646 </v>
   <v>      -0.10709783       0.01654881      -0.57126782 </v>
   <v>       0.09067692       0.03233327       0.34546542 </v>
   <v>       0.01697558      -0.11129548      -0.33363390 </v>
   <v>      -0.03763915      -0.11336925       0.50832374 </v>
   <v>      -0.12745416       0.02941586      -0.59674355 </v>
   <v>       0.03164857       0.00983687       0.86353285 </v>
   <v>       0.04621122      -0.02022716      -0.31268478 </v>
   <v>      -0.08327210      -0.00342243       0.34902601 </v>
   <v>       0.05611165       0.00087181      -0.55919396 </v>
   <v>       0.03092526       0.01814850       0.23518696 </v>
  </varray>
  <varray name="stress" >
   <v>     -10.16105920      -0.00809720       0.03517733 </v>
   <v>      -0.00809714      -9.84971064       0.02936769 </v>
   <v>       0.03517732       0.02936766       6.52102775 </v>
  </varray>
  <energy>
   <i name="e_fr_energy">   -189.77384646 </i>
   <i name="e_wo_entrp">   -189.65527488 </i>
   <i name="e_0_energy">     -0.23714316 </i>
  </energy>
  <time name="totalsc">  372.56  373.56</time>
 </calculation>
 <calculation>
  <scstep>
   <time name="dav">   21.73   21.78</time>
   <time name="total">   22.25   22.30</time>
   <energy>
    <i name="alphaZ">     85.81101830 </i>
    <i name="ewald">  42828.04326746 </i>
    <i name="hartreedc"> -48844.60256992 </i>
    <i name="XCdc">   -232.96796235 </i>
    <i name="pawpsdc">   4038.92537076 </i>
    <i name="pawaedc">  -3454.63293858 </i>
    <i name="eentropy">     -0.20004277 </i>
    <i name="bandstr">  -1373.15064171 </i>
    <i name="atom">   6761.44252427 </i>
    <i name="e_fr_energy">   -191.33197453 </i>
    <i name="e_wo_entrp">   -191.13193177 </i>
    <i name="e_0_energy">   -191.23195315 </i>
   </energy>
  </scstep>
  <scstep>
   <time name="dav">   32.07   32.15</time>
   <time name="total">   32.58   32.67</time>
   <energy>
    <i name="e_fr_energy">   -191.20075736 </i>
    <i name="e_wo_entrp">   -190.99369520 </i>
    <i name="e_0_energy">   -191.09722628 </i>
   </energy>
  </scstep>
  <scstep>
   <time name="dav">   29.00   29.07</time>
   <time name="total">   29.52   29.59</time>
   <energy>
    <i name="e_fr_energy">   -191.30421649 </i>
    <i name="e_wo_entrp">   -191.08604035 </i>
    <i name="e_0_energy">   -191.19512842 </i>
   </energy>
  </scstep>
  <scstep>
   <time name="dav">   29.88   29.95</time>
   <time name="total">   30.40   30.48</time>
   <energy>
    <i name="e_fr_energy">   -190.97476121 </i>
    <i name="e_wo_entrp">   -190.75173287 </i>
    <i name="e_0_energy">   -190.86324704 </i>
   </energy>
  </scstep>
  <scstep>
   <time name="dav">   27.84   27.91</time>
   <time name="total">   28.37   28.44</time>
   <energy>
    <i name="e_fr_energy">   -190.94356925 </i>
    <i name="e_wo_entrp">   -190.74990048 </i>
    <i name="e_0_energy">   -190.84673486 </i>
   </energy>
  </scstep>
  <scstep>
   <time name="dav">   29.18   29.25</time>
   <time name="total">   29.69   29.77</time>
   <energy>
    <i name="e_fr_energy">   -190.76050865 </i>
    <i name="e_wo_entrp">   -190.55445306 </i>
    <i name="e_0_energy">   -190.65748086 </i>
   </energy>
  </scstep>
  <scstep>
   <time name="dav">   27.90   27.97</time>
   <time name="total">   28.42   28.50</time>
   <energy>
    <i name="e_fr_energy">   -190.75564832 </i>
    <i name="e_wo_entrp">   -190.54967842 </i>
    <i name="e_0_energy">   -190.65266337 </i>
   </energy>
  </scstep>
  <scstep>
   <time name="dav">   25.92   25.98</time>
   <time name="total">   26.44   26.51</time>
   <energy>
    <i name="e_fr_energy">   -190.75279367 </i>
    <i name="e_wo_entrp">   -190.54643310 </i>
    <i name="e_0_energy">   -190.64961338 </i>
   </energy>
  </scstep>
  <scstep>
   <time name="dav">   29.30   29.37</time>
   <time name="total">   29.81   29.89</time>
   <energy>
    <i name="e_fr_energy">   -190.75302989 </i>
    <i name="e_wo_entrp">   -190.54676323 </i>
    <i name="e_0_energy">   -190.64989656 </i>
   </energy>
  </scstep>
  <scstep>
   <time name="dav">   26.28   26.34</time>
   <time name="total">   26.80   26.87</time>
   <energy>
    <i name="e_fr_energy">   -190.75294371 </i>
    <i name="e_wo_entrp">   -190.54677663 </i>
    <i name="e_0_energy">   -190.64986017 </i>
   </energy>
  </scstep>
  <scstep>
   <time name="dav">   26.36   26.43</time>
   <time name="total">   26.88   26.95</time>
   <energy>
    <i name="e_fr_energy">   -190.75276799 </i>
    <i name="e_wo_entrp">   -190.54658133 </i>
    <i name="e_0_energy">   -190.64967466 </i>
   </energy>
  </scstep>
  <scstep>
   <time name="dav">   18.80   18.85</time>
   <time name="total">   18.84   18.89</time>
   <energy>
    <i name="alphaZ">     85.81101830 </i>
    <i name="ewald">  42828.04326746 </i>
    <i name="hartreedc"> -48816.13554550 </i>
    <i name="XCdc">   -234.29067314 </i>
    <i name="pawpsdc">   4063.54294413 </i>
    <i name="pawaedc">  -3479.42918066 </i>
    <i name="eentropy">     -0.20629761 </i>
    <i name="bandstr">  -1399.53081477 </i>
    <i name="atom">   6761.44252427 </i>
    <i name="e_fr_energy">   -190.75275753 </i>
    <i name="e_wo_entrp">   -190.54645992 </i>
    <i name="e_0_energy">   -190.64960873 </i>
   </energy>
  </scstep>
  <structure>
   <crystal>
    <varray name="basis" >
     <v>       8.48681518       4.89771355       0.00000000 </v>
     <v>      -8.48833157       4.90033118       0.00000000 </v>
     <v>       0.00000000       0.00000000      30.00000000 </v>
    </varray>
    <i name="volume">   2494.84864740 </i>
    <varray name="rec_basis" >
     <v>       0.05892539       0.10207030       0.00000000 </v>
     <v>      -0.05889392       0.10205206       0.00000000 </v>
     <v>       0.00000000       0.00000000       0.03333333 </v>
    </varray>
   </crystal>
   <varray name="positions" >
    <v>       0.66667442       0.33082485      -0.00014486 </v>
    <v>       0.33330357       0.66417052       0.00015089 </v>
    <v>       0.00002814       0.66357929      -0.00001148 </v>
    <v>       0.32811030       0.33120867       0.00007516 </v>
    <v>       1.00004802       0.32703671       0.00000694 </v>
    <v>       0.67167388       0.00292965      -0.00006700 </v>
    <v>      -0.00013295       0.00882665       0.00000274 </v>
    <v>       0.33689811       0.00368992      -0.00029517 </v>
    <v>       0.66323695       0.66696074       0.00028701 </v>
    <v>       0.11048824       0.22104990       0.94821255 </v>
    <v>       0.22130634       0.10941691       0.05082989 </v>
    <v>       0.11356169       0.56068799       0.95203881 </v>
    <v>       0.22492434       0.45040312       0.04975875 </v>
    <v>       0.10873457       0.88460494       0.95129042 </v>
    <v>       0.22037865       0.77345173       0.04790769 </v>
    <v>       0.44964526       0.22408635       0.95040620 </v>
    <v>       0.55728996       0.11613391       0.04970865 </v>
    <v>       0.44243961       0.55886730       0.95033167 </v>
    <v>       0.55904770       0.44265887       0.04896894 </v>
    <v>       0.44085824       0.88366552       0.95098458 </v>
    <v>       0.55016274       0.77427211       0.04959925 </v>
    <v>       0.77486308       0.22550976       0.95027594 </v>
    <v>       0.88932383       0.11039454       0.05179221 </v>
    <v>       0.77947397       0.55312275       0.95207464 </v>
    <v>       0.88618126       0.44687241       0.04797979 </v>
    <v>       0.77850458       0.88808759       0.94913627 </v>
    <v>       0.89118994       0.77570173       0.04869942 </v>
   </varray>
  </structure>
  <varray name="forces" >
   <v>       0.12046927      -0.12555086       0.04300512 </v>
   <v>       0.16532312      -0.04213413      -0.04175932 </v>
   <v>       0.19900605      -0.12080867       0.00102090 </v>
   <v>      -0.17556519      -0.40415701       0.02718654 </v>
   <v>       0.58379734      -0.33666789       0.00232170 </v>
   <v>       0.25669299       0.34274434      -0.02900090 </v>
   <v>      -0.62999479       0.35862864      -0.00405187 </v>
   <v>      -0.06466804       0.25609514      -0.05897977 </v>
   <v>      -0.25598232      -0.05766994       0.05710487 </v>
   <v>      -0.02668156       0.02586148      -0.69725083 </v>
   <v>      -0.01175705      -0.03782564       0.36775741 </v>
   <v>       0.06596847      -0.03820978      -0.25889049 </v>
   <v>      -0.04811441      -0.02160822       0.42540990 </v>
   <v>      -0.07934781       0.00750661      -0.07895705 </v>
   <v>       0.01860526       0.01645307       0.24144597 </v>
   <v>      -0.03729038       0.09237907      -0.37136082 </v>
   <v>       0.01289996       0.06411470       0.33933454 </v>
   <v>      -0.03657891      -0.04110995      -0.34331075 </v>
   <v>      -0.00232017      -0.04121860       0.17940004 </v>
   <v>       0.04228814       0.01294882      -0.17733665 </v>
   <v>      -0.09874049      -0.01217847       0.37394047 </v>
   <v>       0.00918344       0.05244767      -0.42744367 </v>
   <v>      -0.03998889       0.01227104       0.69474737 </v>
   <v>       0.00013492      -0.03207933      -0.23617740 </v>
   <v>       0.06173199      -0.02535050       0.25143116 </v>
   <v>       0.02617774       0.03007308      -0.36816694 </v>
   <v>      -0.05524868       0.06504533       0.08858046 </v>
  </varray>
  <varray name="stress" >
   <v>      -5.71937908      -0.07784300      -0.12553872 </v>
   <v>      -0.07784273      -5.81301650      -0.09507728 </v>
   <v>      -0.12553868      -0.09507723       4.51427290 </v>
  </varray>
  <energy>
   <i name="e_fr_energy">   -190.75275753 </i>
   <i name="e_wo_entrp">   -190.64960873 </i>
   <i name="e_0_energy">     -0.20629761 </i>
  </energy>
  <time name="totalsc">  372.27  373.26</time>
 </calculation>
 <calculation>
  <scstep>
   <time name="dav">   21.69   21.74</time>
   <time name="total">   22.19   22.25</time>
   <energy>
    <i name="alphaZ">     90.15496769 </i>
    <i name="ewald">  44658.70702917 </i>
    <i name="hartreedc"> -50701.89265696 </i>
    <i name="XCdc">   -231.82973604 </i>
    <i name="pawpsdc">   4063.58898534 </i>
    <i name="pawaedc">  -3479.47075735 </i>
    <i name="eentropy">     -0.19313095 </i>
    <i name="bandstr">  -1352.61227202 </i>
    <i name="atom">   6761.44252427 </i>
    <i name="e_fr_energy">   -192.10504684 </i>
    <i name="e_wo_entrp">   -191.91191590 </i>
    <i name="e_0_energy">   -192.00848137 </i>
   </energy>
  </scstep>
  <scstep>
   <time name="dav">   29.29   29.36</time>
   <time name="total">   29.79   29.87</time>
   <energy>
    <i name="e_fr_energy">   -191.92428715 </i>
    <i name="e_wo_entrp">   -191.71572393 </i>
    <i name="e_0_energy">   -191.82000554 </i>
   </energy>
  </scstep>
  <scstep>
   <time name="dav">   30.08   30.15</time>
   <time name="total">   30.59   30.67</time>
   <energy>
    <i name="e_fr_energy">   -192.36863682 </i>
    <i name="e_wo_entrp">   -192.15974664 </i>
    <i name="e_0_energy">   -192.26419173 </i>
   </energy>
  </scstep>
  <scstep>
   <time name="dav">   29.88   29.96</time>
   <time name="total">   30.39   30.47</time>
   <energy>
    <i name="e_fr_energy">   -191.58925108 </i>
    <i name="e_wo_entrp">   -191.38189052 </i>
    <i name="e_0_energy">   -191.48557080 </i>
   </energy>
  </scstep>
  <scstep>
   <time name="dav">   29.71   29.78</time>
   <time name="total">   30.22   30.30</time>
   <energy>
    <i name="e_fr_energy">   -191.41366341 </i>
    <i name="e_wo_entrp">   -191.21618443 </i>
    <i name="e_0_energy">   -191.31492392 </i>
   </energy>
  </scstep>
  <scstep>
   <time name="dav">   30.64   30.72</time>
   <time name="total">   31.15   31.23</time>
   <energy>
    <i name="e_fr_energy">   -191.41612571 </i>
    <i name="e_wo_entrp">   -191.20623500 </i>
    <i name="e_0_energy">   -191.31118036 </i>
   </energy>
  </scstep>
  <scstep>
   <time name="dav">   29.79   29.86</time>
   <time name="total">   30.29   30.37</time>
   <energy>
    <i name="e_fr_energy">   -191.39502123 </i>
    <i name="e_wo_entrp">   -191.19507719 </i>
    <i name="e_0_energy">   -191.29504921 </i>
   </energy>
  </scstep>
  <scstep>
   <time name="dav">   28.84   28.91</time>
   <time name="total">   29.34   29.42</time>
   <energy>
    <i name="e_fr_energy">   -191.38560238 </i>
    <i name="e_wo_entrp">   -191.18365625 </i>
    <i name="e_0_energy">   -191.28462931 </i>
   </energy>
  </scstep>
  <scstep>
   <time name="dav">   29.81   29.88</time>
   <time name="total">   30.31   30.39</time>
   <energy>
    <i name="e_fr_energy">   -191.38622794 </i>
    <i name="e_wo_entrp">   -191.18433053 </i>
    <i name="e_0_energy">   -191.28527923 </i>
   </energy>
  </scstep>
  <scstep>
   <time name="dav">   28.63   28.70</time>
   <time name="total">   29.13   29.21</time>
   <energy>
    <i name="e_fr_energy">   -191.38624028 </i>
    <i name="e_wo_entrp">   -191.18421343 </i>
    <i name="e_0_energy">   -191.28522685 </i>
   </energy>
  </scstep>
  <scstep>
   <time name="dav">   25.65   25.72</time>
   <time name="total">   26.16   26.23</time>
   <energy>
    <i name="e_fr_energy">   -191.38585184 </i>
    <i name="e_wo_entrp">   -191.18366466 </i>
    <i name="e_0_energy">   -191.28475825 </i>
   </energy>
  </scstep>
  <scstep>
   <time name="dav">   17.76   17.80</time>
   <time name="total">   17.79   17.84</time>
   <energy>
    <i name="alphaZ">     90.15496769 </i>
    <i name="ewald">  44658.70702917 </i>
    <i name="hartreedc"> -50668.19529837 </i>
    <i name="XCdc">   -233.34749751 </i>
    <i name="pawpsdc">   4086.05359108 </i>
    <i name="pawaedc">  -3502.04726761 </i>
    <i name="eentropy">     -0.20219282 </i>
    <i name="bandstr">  -1383.95166396 </i>
    <i name="atom">   6761.44252427 </i>
    <i name="e_fr_energy">   -191.38580804 </i>
    <i name="e_wo_entrp">   -191.18361522 </i>
    <i name="e_0_energy">   -191.28471163 </i>
   </energy>
  </scstep>
  <structure>
   <crystal>
    <varray name="basis" >
     <v>       8.27990006       4.77265866       0.00000000 </v>
     <v>      -8.28620034       4.78356351       0.00000000 </v>
     <v>       0.00000000       0.00000000      30.00000000 </v>
    </varray>
    <i name="volume">   2374.63900676 </i>
    <varray name="rec_basis" >
     <v>       0.06043315       0.10468371       0.00000000 </v>
     <v>      -0.06029538       0.10460411       0.00000000 </v>
     <v>       0.00000000       0.00000000       0.03333333 </v>
    </varray>
   </crystal>
   <varray name="positions" >
    <v>       0.66585789       0.32836246       0.00002280 </v>
    <v>       0.33406444       0.66250453      -0.00001127 </v>
    <v>      -0.00004395       0.66087213      -0.00000694 </v>
    <v>       0.32187763       0.32739855       0.00020281 </v>
    <v>       1.00006889       0.31852123       0.00001274 </v>
    <v>       0.67770978       0.00524363      -0.00020366 </v>
    <v>      -0.00016832       0.01772674      -0.00001105 </v>
    <v>       0.33951790       0.00735765      -0.00054666 </v>
    <v>       0.66075027       0.66816111       0.00053317 </v>
    <v>       0.11070052       0.22176123       0.94476706 </v>
    <v>       0.22088652       0.10916112       0.05293243 </v>
    <v>       0.11377587       0.56022452       0.95052099 </v>
    <v>       0.22458112       0.45097585       0.05202635 </v>
    <v>       0.10797269       0.88464487       0.95043997 </v>
    <v>       0.22039218       0.77294590       0.04936094 </v>
    <v>       0.45100922       0.22586063       0.94835720 </v>
    <v>       0.55855506       0.11734112       0.05166910 </v>
    <v>       0.44129054       0.55874314       0.94835515 </v>
    <v>       0.55869504       0.44179026       0.05024498 </v>
    <v>       0.44112601       0.88297085       0.94972019 </v>
    <v>       0.54882095       0.77467169       0.05165917 </v>
    <v>       0.77534021       0.22633387       0.94799445 </v>
    <v>       0.88912103       0.11093395       0.05523110 </v>
    <v>       0.77939138       0.55246957       0.95064709 </v>
    <v>       0.88611034       0.44639567       0.04946342 </v>
    <v>       0.77893254       0.88828611       0.94702423 </v>
    <v>       0.89187871       0.77655609       0.04959415 </v>
   </varray>
  </structure>
  <varray name="forces" >
   <v>       0.11193345      -0.05648876      -0.01919779 </v>
   <v>       0.10042266      -0.06647220       0.01522657 </v>
   <v>       0.29002079      -0.17440238      -0.00335300 </v>
   <v>      -0.05872862      -0.18147327      -0.05467055 </v>
   <v>       0.06083601      -0.03476822      -0.00204820 </v>
   <v>       0.12241310       0.13654698       0.06167093 </v>
   <v>      -0.16929067       0.09154588       0.00496556 </v>
   <v>      -0.09904505       0.16340837      -0.03330422 </v>
   <v>      -0.19755429       0.01979991       0.03762134 </v>
   <v>      -0.00479910       0.04450124      -0.32997548 </v>
   <v>      -0.06004273      -0.08282112       0.08802477 </v>
   <v>       0.14844869      -0.15090047      -0.03301215 </v>
   <v>       0.01649331      -0.17172496       0.07455650 </v>
   <v>      -0.20999723       0.07156339       0.19927416 </v>
   <v>       0.01677696       0.08071919      -0.03647507 </v>
   <v>      -0.11442253       0.05052179      -0.06645122 </v>
   <v>       0.08312141       0.01593639       0.04950172 </v>
   <v>       0.03040173      -0.07791655      -0.04217356 </v>
   <v>      -0.13366772      -0.11695832      -0.09945037 </v>
   <v>       0.03645262       0.17286108       0.08884365 </v>
   <v>      -0.10348923       0.07697311       0.06740595 </v>
   <v>       0.15494094       0.07184642      -0.07096620 </v>
   <v>      -0.04468725      -0.01905699       0.32389895 </v>
   <v>      -0.05817789      -0.05121427       0.03299520 </v>
   <v>       0.20641659      -0.05416723       0.04215669 </v>
   <v>       0.04172758       0.09103711      -0.09653097 </v>
   <v>      -0.16650355       0.15110388      -0.19853318 </v>
  </varray>
  <varray name="stress" >
   <v>       0.27935333      -0.23075644      -0.23296004 </v>
   <v>      -0.23075620       0.05881472      -0.38157103 </v>
   <v>      -0.23296000      -0.38157086      -0.48769154 </v>
  </varray>
  <energy>
   <i name="e_fr_energy">   -191.38580804 </i>
   <i name="e_wo_entrp">   -191.28471163 </i>
   <i name="e_0_energy">     -0.20219282 </i>
  </energy>
  <time name="totalsc">  379.81  380.82</time>
 </calculation>
 <calculation>
  <scstep>
   <time name="dav">   21.68   21.73</time>
   <time name="total">   22.19   22.24</time>
   <energy>
    <i name="alphaZ">     90.03708645 </i>
    <i name="ewald">  44586.54473522 </i>
    <i name="hartreedc"> -50595.49725110 </i>
    <i name="XCdc">   -233.50569960 </i>
    <i name="pawpsdc">   4085.96290265 </i>
    <i name="pawaedc">  -3501.95164731 </i>
    <i name="eentropy">     -0.20538464 </i>
    <i name="bandstr">  -1384.24993048 </i>
    <i name="atom">   6761.44252427 </i>
    <i name="e_fr_energy">   -191.42266454 </i>
    <i name="e_wo_entrp">   -191.21727990 </i>
    <i name="e_0_energy">   -191.31997222 </i>
   </energy>
  </scstep>
  <scstep>
   <time name="dav">   30.94   31.01</time>
   <time name="total">   31.44   31.52</time>
   <energy>
    <i name="e_fr_energy">   -191.44796504 </i>
    <i name="e_wo_entrp">   -191.23831891 </i>
    <i name="e_0_energy">   -191.34314198 </i>
   </energy>
  </scstep>
  <scstep>
   <time name="dav">   29.97   30.04</time>
   <time name="total">   30.48   30.56</time>
   <energy>
    <i name="e_fr_energy">   -191.43281248 </i>
    <i name="e_wo_entrp">   -191.22862100 </i>
    <i name="e_0_energy">   -191.33071674 </i>
   </energy>
  </scstep>
  <scstep>
   <time name="dav">   27.64   27.70</time>
   <time name="total">   28.14   28.22</time>
   <energy>
    <i name="e_fr_energy">   -191.43317501 </i>
    <i name="e_wo_entrp">   -191.22586625 </i>
    <i name="e_0_energy">   -191.32952063 </i>
   </energy>
  </scstep>
  <scstep>
   <time name="dav">   27.35   27.41</time>
   <time name="total">   27.86   27.93</time>
   <energy>
    <i name="e_fr_energy">   -191.43112391 </i>
    <i name="e_wo_entrp">   -191.22520491 </i>
    <i name="e_0_energy">   -191.32816441 </i>
   </energy>
  </scstep>
  <scstep>
   <time name="dav">   27.43   27.50</time>
   <time name="total">   27.94   28.01</time>
   <energy>
    <i name="e_fr_energy">   -191.43082549 </i>
    <i name="e_wo_entrp">   -191.22496170 </i>
    <i name="e_0_energy">   -191.32789359 </i>
   </energy>
  </scstep>
  <scstep>
   <time name="dav">   25.11   25.17</time>
   <time name="total">   25.61   25.68</time>
   <energy>
    <i name="e_fr_energy">   -191.43070324 </i>
    <i name="e_wo_entrp">   -191.22488562 </i>
    <i name="e_0_energy">   -191.32779443 </i>
   </energy>
  </scstep>
  <scstep>
   <time name="dav">   19.25   19.30</time>
   <time name="total">   19.29   19.34</time>
   <energy>
    <i name="alphaZ">     90.03708645 </i>
    <i name="ewald">  44586.54473522 </i>
    <i name="hartreedc"> -50597.31258841 </i>
    <i name="XCdc">   -233.44816011 </i>
    <i name="pawpsdc">   4081.99158937 </i>
    <i name="pawaedc">  -3497.92880211 </i>
    <i name="eentropy">     -0.20589235 </i>
    <i name="bandstr">  -1382.55119395 </i>
    <i name="atom">   6761.44252427 </i>
    <i name="e_fr_energy">   -191.43070160 </i>
    <i name="e_wo_entrp">   -191.22480925 </i>
    <i name="e_0_energy">   -191.32775543 </i>
   </energy>
  </scstep>
  <structure>
   <crystal>
    <varray name="basis" >
     <v>       8.28483369       4.76957517       0.00000000 </v>
     <v>      -8.29676071       4.79022809       0.00000000 </v>
     <v>       0.00000000       0.00000000      30.00000000 </v>
    </varray>
    <i name="volume">   2377.74800776 </i>
    <varray name="rec_basis" >
     <v>       0.06043821       0.10468007       0.00000000 </v>
     <v>      -0.06017764       0.10452958       0.00000000 </v>
     <v>       0.00000000       0.00000000       0.03333333 </v>
    </varray>
   </crystal>
   <varray name="positions" >
    <v>       0.66591169       0.32780571      -0.00000980 </v>
    <v>       0.33400990       0.66191822       0.00001501 </v>
    <v>      -0.00007718       0.65923187      -0.00001227 </v>
    <v>       0.32091321       0.32673178       0.00011500 </v>
    <v>       1.00007013       0.31831047       0.00000948 </v>
    <v>       0.67863723       0.00553353      -0.00010472 </v>
    <v>      -0.00019849       0.01852042      -0.00000309 </v>
    <v>       0.34000134       0.00838525      -0.00059485 </v>
    <v>       0.66032408       0.66879915       0.00058819 </v>
    <v>       0.11090178       0.22198070       0.94430927 </v>
    <v>       0.22031345       0.10892666       0.05303181 </v>
    <v>       0.11344950       0.55906390       0.95049736 </v>
    <v>       0.22378541       0.45007078       0.05210278 </v>
    <v>       0.10774289       0.88559772       0.95077070 </v>
    <v>       0.22084016       0.77330891       0.04927661 </v>
    <v>       0.45090688       0.22640245       0.94829011 </v>
    <v>       0.55884636       0.11716019       0.05171058 </v>
    <v>       0.44101496       0.55827446       0.94832540 </v>
    <v>       0.55774334       0.44161115       0.05006394 </v>
    <v>       0.44207815       0.88373387       0.94988440 </v>
    <v>       0.54893129       0.77533899       0.05172758 </v>
    <v>       0.77612907       0.22623288       0.94792391 </v>
    <v>       0.88890410       0.11095758       0.05567943 </v>
    <v>       0.77897214       0.55239526       0.95072553 </v>
    <v>       0.88643331       0.44554870       0.04950194 </v>
    <v>       0.77949387       0.88861233       0.94691174 </v>
    <v>       0.89213589       0.77776151       0.04926385 </v>
   </varray>
  </structure>
  <varray name="forces" >
   <v>       0.15188539      -0.04895150      -0.02203935 </v>
   <v>       0.10907413      -0.10332962       0.02286145 </v>
   <v>       0.32959232      -0.20329379      -0.00159059 </v>
   <v>      -0.05788006      -0.22265931      -0.03565425 </v>
   <v>       0.12276383      -0.07456714       0.00043730 </v>
   <v>       0.15145533       0.15772955       0.03357951 </v>
   <v>      -0.28137523       0.15653133      -0.00521711 </v>
   <v>      -0.13857815       0.18848986      -0.02752493 </v>
   <v>      -0.22830205       0.04994428       0.02597827 </v>
   <v>      -0.01810665       0.00474837      -0.17933719 </v>
   <v>      -0.03259852      -0.03891015       0.05188700 </v>
   <v>       0.09330669      -0.07594382      -0.04990459 </v>
   <v>       0.02154678      -0.09128518       0.04944110 </v>
   <v>      -0.12041063       0.02718819       0.19557701 </v>
   <v>       0.01482572       0.05677740      -0.06695975 </v>
   <v>      -0.07074505       0.05347971      -0.05048835 </v>
   <v>       0.03822403       0.02351288       0.03204072 </v>
   <v>       0.00603738      -0.04409797      -0.02564553 </v>
   <v>      -0.08886260      -0.05985610      -0.13001308 </v>
   <v>       0.00946114       0.10836131       0.11844651 </v>
   <v>      -0.08303921       0.03894208       0.05513948 </v>
   <v>       0.08686227       0.02645640      -0.04753191 </v>
   <v>      -0.01943627       0.01442657       0.18213866 </v>
   <v>      -0.03899018      -0.04159824       0.06634068 </v>
   <v>       0.11020049      -0.04397171       0.05108668 </v>
   <v>       0.01602345       0.04685778      -0.05460324 </v>
   <v>      -0.08293433       0.09501882      -0.18844452 </v>
  </varray>
  <varray name="stress" >
   <v>      -0.22453993       0.03396323      -0.09028617 </v>
   <v>       0.03396315      -0.18311450      -0.12076312 </v>
   <v>      -0.09028614      -0.12076309      -1.16254178 </v>
  </varray>
  <energy>
   <i name="e_fr_energy">   -191.43070160 </i>
   <i name="e_wo_entrp">   -191.32775543 </i>
   <i name="e_0_energy">     -0.20589235 </i>
  </energy>
  <time name="totalsc">  255.13  255.81</time>
 </calculation>
 <calculation>
  <scstep>
   <time name="dav">   21.73   21.78</time>
   <time name="total">   22.24   22.29</time>
   <energy>
    <i name="alphaZ">     90.21716520 </i>
    <i name="ewald">  44663.08272056 </i>
    <i name="hartreedc"> -50675.93255557 </i>
    <i name="XCdc">   -233.34673606 </i>
    <i name="pawpsdc">   4081.93333652 </i>
    <i name="pawaedc">  -3497.86976220 </i>
    <i name="eentropy">     -0.20731917 </i>
    <i name="bandstr">  -1380.79637966 </i>
    <i name="atom">   6761.44252427 </i>
    <i name="e_fr_energy">   -191.47700611 </i>
    <i name="e_wo_entrp">   -191.26968695 </i>
    <i name="e_0_energy">   -191.37334653 </i>
   </energy>
  </scstep>
  <scstep>
   <time name="dav">   31.82   31.90</time>
   <time name="total">   32.33   32.42</time>
   <energy>
    <i name="e_fr_energy">   -191.49572993 </i>
    <i name="e_wo_entrp">   -191.28347028 </i>
    <i name="e_0_energy">   -191.38960011 </i>
   </energy>
  </scstep>
  <scstep>
   <time name="dav">   29.34   29.41</time>
   <time name="total">   29.85   29.93</time>
   <energy>
    <i name="e_fr_energy">   -191.48886537 </i>
    <i name="e_wo_entrp">   -191.28368072 </i>
    <i name="e_0_energy">   -191.38627305 </i>
   </energy>
  </scstep>
  <scstep>
   <time name="dav">   29.08   29.15</time>
   <time name="total">   29.58   29.66</time>
   <energy>
    <i name="e_fr_energy">   -191.48465359 </i>
    <i name="e_wo_entrp">   -191.27588767 </i>
    <i name="e_0_energy">   -191.38027063 </i>
   </energy>
  </scstep>
  <scstep>
   <time name="dav">   27.74   27.80</time>
   <time name="total">   28.24   28.32</time>
   <energy>
    <i name="e_fr_energy">   -191.48327581 </i>
    <i name="e_wo_entrp">   -191.27485231 </i>
    <i name="e_0_energy">   -191.37906406 </i>
   </energy>
  </scstep>
  <scstep>
   <time name="dav">   27.61   27.68</time>
   <time name="total">   28.12   28.19</time>
   <energy>
    <i name="e_fr_energy">   -191.48198856 </i>
    <i name="e_wo_entrp">   -191.27361110 </i>
    <i name="e_0_energy">   -191.37779983 </i>
   </energy>
  </scstep>
  <scstep>
   <time name="dav">   25.98   26.04</time>
   <time name="total">   26.48   26.56</time>
   <energy>
    <i name="e_fr_energy">   -191.48188784 </i>
    <i name="e_wo_entrp">   -191.27328058 </i>
    <i name="e_0_energy">   -191.37758421 </i>
   </energy>
  </scstep>
  <scstep>
   <time name="dav">   23.15   23.21</time>
   <time name="total">   23.18   23.25</time>
   <energy>
    <i name="alphaZ">     90.21716520 </i>
    <i name="ewald">  44663.08272056 </i>
    <i name="hartreedc"> -50674.97387218 </i>
    <i name="XCdc">   -233.38756422 </i>
    <i name="pawpsdc">   4083.87500592 </i>
    <i name="pawaedc">  -3499.83771687 </i>
    <i name="eentropy">     -0.20865187 </i>
    <i name="bandstr">  -1381.69150758 </i>
    <i name="atom">   6761.44252427 </i>
    <i name="e_fr_energy">   -191.48189677 </i>
    <i name="e_wo_entrp">   -191.27324490 </i>
[...]
      <set comment="kpoint 31">
       <r>  -17.5400    1.0000 </r>
       <r>  -17.2412    1.0000 </r>
       <r>  -16.9109    1.0000 </r>
       <r>  -16.6469    1.0000 </r>
       <r>  -16.4921    1.0000 </r>
       <r>  -16.3986    1.0000 </r>
       <r>  -16.3477    1.0000 </r>
       <r>  -16.1799    1.0000 </r>
       <r>  -16.0942    1.0000 </r>
       <r>  -16.0156    1.0000 </r>
       <r>  -15.9633    1.0000 </r>
       <r>  -15.9168    1.0000 </r>
       <r>  -15.7834    1.0000 </r>
       <r>  -15.7496    1.0000 </r>
       <r>  -15.5861    1.0000 </r>
       <r>  -15.4981    1.0000 </r>
       <r>  -15.3546    1.0000 </r>
       <r>  -15.2697    1.0000 </r>
       <r>   -9.7604    1.0000 </r>
       <r>   -9.4477    1.0000 </r>
       <r>   -9.3071    1.0000 </r>
       <r>   -9.0254    1.0000 </r>
       <r>   -8.8145    1.0000 </r>
       <r>   -8.6771    1.0000 </r>
       <r>   -8.5478    1.0000 </r>
       <r>   -8.4220    1.0000 </r>
       <r>   -8.3801    1.0000 </r>
       <r>   -8.3244    1.0000 </r>
       <r>   -8.2676    1.0000 </r>
       <r>   -8.2263    1.0000 </r>
       <r>   -8.1167    1.0000 </r>
       <r>   -8.0792    1.0000 </r>
       <r>   -8.0118    1.0000 </r>
       <r>   -7.8649    1.0000 </r>
       <r>   -7.8091    1.0000 </r>
       <r>   -7.6554    1.0000 </r>
       <r>   -7.5889    1.0000 </r>
       <r>   -7.4672    1.0000 </r>
       <r>   -7.2860    1.0000 </r>
       <r>   -7.2111    1.0000 </r>
       <r>   -7.1469    1.0000 </r>
       <r>   -7.0935    1.0000 </r>
       <r>   -7.0553    1.0000 </r>
       <r>   -6.9994    1.0000 </r>
       <r>   -6.8819    1.0000 </r>
       <r>   -6.7872    1.0000 </r>
       <r>   -6.6790    1.0000 </r>
       <r>   -6.6081    1.0000 </r>
       <r>   -6.5704    1.0000 </r>
       <r>   -6.5042    1.0000 </r>
       <r>   -6.3911    1.0000 </r>
       <r>   -6.3240    1.0000 </r>
       <r>   -6.2948    1.0000 </r>
       <r>   -6.2358    1.0000 </r>
       <r>   -6.1714    1.0000 </r>
       <r>   -6.0870    1.0000 </r>
       <r>   -6.0007    1.0000 </r>
       <r>   -5.9157    1.0000 </r>
       <r>   -5.8618    1.0000 </r>
       <r>   -5.8268    1.0000 </r>
       <r>   -5.7451    1.0000 </r>
       <r>   -5.6366    1.0000 </r>
       <r>   -5.5599    1.0000 </r>
       <r>   -5.3977    1.0000 </r>
       <r>   -5.2106    1.0000 </r>
       <r>   -5.1628    1.0000 </r>
       <r>   -5.0521    1.0000 </r>
       <r>   -4.8736    1.0000 </r>
       <r>   -4.7817    1.0000 </r>
       <r>   -4.7191    1.0000 </r>
       <r>   -4.5249    1.0000 </r>
       <r>   -4.4439    1.0000 </r>
       <r>   -4.3360    1.0000 </r>
       <r>   -4.2594    1.0000 </r>
       <r>   -4.1600    1.0000 </r>
       <r>   -4.0525    1.0000 </r>
       <r>   -3.9597    1.0000 </r>
       <r>   -3.6743    0.9970 </r>
       <r>   -3.4926    0.9280 </r>
       <r>   -3.3350    0.6355 </r>
       <r>   -2.9800    0.0152 </r>
       <r>   -2.6755    0.0000 </r>
       <r>   -2.6015    0.0000 </r>
       <r>   -2.5633    0.0000 </r>
       <r>   -2.4137    0.0000 </r>
       <r>   -2.3039    0.0000 </r>
       <r>   -2.2655    0.0000 </r>
       <r>   -2.1123    0.0000 </r>
       <r>   -2.0020    0.0000 </r>
       <r>   -1.9347    0.0000 </r>
       <r>   -1.8664    0.0000 </r>
       <r>   -1.8108    0.0000 </r>
       <r>   -1.4142    0.0000 </r>
       <r>   -1.3094    0.0000 </r>
       <r>   -1.2394    0.0000 </r>
       <r>   -1.1127    0.0000 </r>
       <r>   -1.0863    0.0000 </r>
       <r>   -1.0257    0.0000 </r>
       <r>   -0.9643    0.0000 </r>
       <r>   -0.9263    0.0000 </r>
       <r>   -0.8542    0.0000 </r>
       <r>   -0.7791    0.0000 </r>
       <r>   -0.7204    0.0000 </r>
       <r>   -0.5581    0.0000 </r>
       <r>   -0.4782    0.0000 </r>
       <r>   -0.2686    0.0000 </r>
       <r>   -0.1963    0.0000 </r>
       <r>   -0.0661    0.0000 </r>
       <r>    0.0515    0.0000 </r>
       <r>    0.1114    0.0000 </r>
       <r>    0.4108    0.0000 </r>
       <r>    0.5821    0.0000 </r>
       <r>    0.6609    0.0000 </r>
       <r>    0.9402    0.0000 </r>
       <r>    1.1298    0.0000 </r>
       <r>    1.2469    0.0000 </r>
       <r>    1.2892    0.0000 </r>
       <r>    2.1109    0.0000 </r>
       <r>    2.2744    0.0000 </r>
       <r>    2.3598    0.0000 </r>
      </set>
      <set comment="kpoint 32">
       <r>  -17.5505    1.0000 </r>
       <r>  -17.1590    1.0000 </r>
       <r>  -17.0345    1.0000 </r>
       <r>  -16.6447    1.0000 </r>
       <r>  -16.3942    1.0000 </r>
       <r>  -16.3831    1.0000 </r>
       <r>  -16.3416    1.0000 </r>
       <r>  -16.2137    1.0000 </r>
       <r>  -16.0890    1.0000 </r>
       <r>  -16.0759    1.0000 </r>
       <r>  -15.9473    1.0000 </r>
       <r>  -15.9302    1.0000 </r>
       <r>  -15.7826    1.0000 </r>
       <r>  -15.7339    1.0000 </r>
       <r>  -15.6030    1.0000 </r>
       <r>  -15.4891    1.0000 </r>
       <r>  -15.3547    1.0000 </r>
       <r>  -15.2613    1.0000 </r>
       <r>   -9.7131    1.0000 </r>
       <r>   -9.5362    1.0000 </r>
       <r>   -9.3549    1.0000 </r>
       <r>   -9.0271    1.0000 </r>
       <r>   -8.6915    1.0000 </r>
       <r>   -8.5478    1.0000 </r>
       <r>   -8.5420    1.0000 </r>
       <r>   -8.4086    1.0000 </r>
       <r>   -8.3709    1.0000 </r>
       <r>   -8.3552    1.0000 </r>
       <r>   -8.2868    1.0000 </r>
       <r>   -8.2121    1.0000 </r>
       <r>   -8.1757    1.0000 </r>
       <r>   -8.1309    1.0000 </r>
       <r>   -8.0860    1.0000 </r>
       <r>   -7.9147    1.0000 </r>
       <r>   -7.7875    1.0000 </r>
       <r>   -7.6528    1.0000 </r>
       <r>   -7.5249    1.0000 </r>
       <r>   -7.4613    1.0000 </r>
       <r>   -7.3081    1.0000 </r>
       <r>   -7.2350    1.0000 </r>
       <r>   -7.2252    1.0000 </r>
       <r>   -7.0611    1.0000 </r>
       <r>   -7.0454    1.0000 </r>
       <r>   -6.9521    1.0000 </r>
       <r>   -6.8373    1.0000 </r>
       <r>   -6.8149    1.0000 </r>
       <r>   -6.6876    1.0000 </r>
       <r>   -6.6789    1.0000 </r>
       <r>   -6.5818    1.0000 </r>
       <r>   -6.4650    1.0000 </r>
       <r>   -6.4060    1.0000 </r>
       <r>   -6.3678    1.0000 </r>
       <r>   -6.2685    1.0000 </r>
       <r>   -6.2307    1.0000 </r>
       <r>   -6.1274    1.0000 </r>
       <r>   -6.1176    1.0000 </r>
       <r>   -5.9227    1.0000 </r>
       <r>   -5.8981    1.0000 </r>
       <r>   -5.8787    1.0000 </r>
       <r>   -5.7439    1.0000 </r>
       <r>   -5.7350    1.0000 </r>
       <r>   -5.5834    1.0000 </r>
       <r>   -5.5479    1.0000 </r>
       <r>   -5.4098    1.0000 </r>
       <r>   -5.2848    1.0000 </r>
       <r>   -5.2282    1.0000 </r>
       <r>   -5.0362    1.0000 </r>
       <r>   -4.8974    1.0000 </r>
       <r>   -4.8469    1.0000 </r>
       <r>   -4.6875    1.0000 </r>
       <r>   -4.5607    1.0000 </r>
       <r>   -4.4112    1.0000 </r>
       <r>   -4.3808    1.0000 </r>
       <r>   -4.2334    1.0000 </r>
       <r>   -4.1394    1.0000 </r>
       <r>   -4.0428    1.0000 </r>
       <r>   -3.9555    1.0000 </r>
       <r>   -3.6878    0.9978 </r>
       <r>   -3.4937    0.9290 </r>
       <r>   -3.2573    0.4195 </r>
       <r>   -3.0321    0.0363 </r>
       <r>   -2.6744    0.0000 </r>
       <r>   -2.5972    0.0000 </r>
       <r>   -2.5658    0.0000 </r>
       <r>   -2.3985    0.0000 </r>
       <r>   -2.3185    0.0000 </r>
       <r>   -2.2651    0.0000 </r>
       <r>   -2.1321    0.0000 </r>
       <r>   -1.9594    0.0000 </r>
       <r>   -1.9208    0.0000 </r>
       <r>   -1.8690    0.0000 </r>
       <r>   -1.8619    0.0000 </r>
       <r>   -1.4250    0.0000 </r>
       <r>   -1.3182    0.0000 </r>
       <r>   -1.2198    0.0000 </r>
       <r>   -1.0979    0.0000 </r>
       <r>   -1.0528    0.0000 </r>
       <r>   -1.0356    0.0000 </r>
       <r>   -0.9996    0.0000 </r>
       <r>   -0.9407    0.0000 </r>
       <r>   -0.8313    0.0000 </r>
       <r>   -0.7953    0.0000 </r>
       <r>   -0.6761    0.0000 </r>
       <r>   -0.6029    0.0000 </r>
       <r>   -0.4768    0.0000 </r>
       <r>   -0.2564    0.0000 </r>
       <r>   -0.1526    0.0000 </r>
       <r>   -0.0675    0.0000 </r>
       <r>    0.0065    0.0000 </r>
       <r>    0.1655    0.0000 </r>
       <r>    0.3409    0.0000 </r>
       <r>    0.5958    0.0000 </r>
       <r>    0.6898    0.0000 </r>
       <r>    0.9797    0.0000 </r>
       <r>    1.0543    0.0000 </r>
       <r>    1.2427    0.0000 </r>
       <r>    1.2808    0.0000 </r>
       <r>    2.0807    0.0000 </r>
       <r>    2.2441    0.0000 </r>
       <r>    2.5279    0.0000 </r>
      </set>
      <set comment="kpoint 33">
       <r>  -17.5401    1.0000 </r>
       <r>  -17.2392    1.0000 </r>
       <r>  -16.9127    1.0000 </r>
       <r>  -16.6466    1.0000 </r>
       <r>  -16.4923    1.0000 </r>
       <r>  -16.3955    1.0000 </r>
       <r>  -16.3578    1.0000 </r>
       <r>  -16.1763    1.0000 </r>
       <r>  -16.0970    1.0000 </r>
       <r>  -16.0106    1.0000 </r>
       <r>  -15.9556    1.0000 </r>
       <r>  -15.9214    1.0000 </r>
       <r>  -15.7836    1.0000 </r>
       <r>  -15.7511    1.0000 </r>
       <r>  -15.5912    1.0000 </r>
       <r>  -15.4921    1.0000 </r>
       <r>  -15.3568    1.0000 </r>
       <r>  -15.2686    1.0000 </r>
       <r>   -9.7599    1.0000 </r>
       <r>   -9.4505    1.0000 </r>
       <r>   -9.3073    1.0000 </r>
       <r>   -9.0248    1.0000 </r>
       <r>   -8.8123    1.0000 </r>
       <r>   -8.6755    1.0000 </r>
       <r>   -8.5536    1.0000 </r>
       <r>   -8.4223    1.0000 </r>
       <r>   -8.3765    1.0000 </r>
       <r>   -8.3251    1.0000 </r>
       <r>   -8.2697    1.0000 </r>
       <r>   -8.2274    1.0000 </r>
       <r>   -8.1156    1.0000 </r>
       <r>   -8.0825    1.0000 </r>
       <r>   -8.0103    1.0000 </r>
       <r>   -7.8665    1.0000 </r>
       <r>   -7.8039    1.0000 </r>
       <r>   -7.6555    1.0000 </r>
       <r>   -7.5908    1.0000 </r>
       <r>   -7.4674    1.0000 </r>
       <r>   -7.2830    1.0000 </r>
       <r>   -7.2087    1.0000 </r>
       <r>   -7.1482    1.0000 </r>
       <r>   -7.0966    1.0000 </r>
       <r>   -7.0525    1.0000 </r>
       <r>   -6.9940    1.0000 </r>
       <r>   -6.8804    1.0000 </r>
       <r>   -6.7891    1.0000 </r>
       <r>   -6.6789    1.0000 </r>
       <r>   -6.6125    1.0000 </r>
       <r>   -6.5697    1.0000 </r>
       <r>   -6.5026    1.0000 </r>
       <r>   -6.3949    1.0000 </r>
       <r>   -6.3243    1.0000 </r>
       <r>   -6.3055    1.0000 </r>
       <r>   -6.2316    1.0000 </r>
       <r>   -6.1712    1.0000 </r>
       <r>   -6.0863    1.0000 </r>
       <r>   -5.9988    1.0000 </r>
       <r>   -5.9098    1.0000 </r>
       <r>   -5.8633    1.0000 </r>
       <r>   -5.8211    1.0000 </r>
       <r>   -5.7453    1.0000 </r>
       <r>   -5.6402    1.0000 </r>
       <r>   -5.5633    1.0000 </r>
       <r>   -5.3911    1.0000 </r>
       <r>   -5.2037    1.0000 </r>
       <r>   -5.1665    1.0000 </r>
       <r>   -5.0624    1.0000 </r>
       <r>   -4.8831    1.0000 </r>
       <r>   -4.7872    1.0000 </r>
       <r>   -4.7191    1.0000 </r>
       <r>   -4.5083    1.0000 </r>
       <r>   -4.4405    1.0000 </r>
       <r>   -4.3395    1.0000 </r>
       <r>   -4.2553    1.0000 </r>
       <r>   -4.1616    1.0000 </r>
       <r>   -4.0535    1.0000 </r>
       <r>   -3.9555    1.0000 </r>
       <r>   -3.6688    0.9966 </r>
       <r>   -3.4954    0.9306 </r>
       <r>   -3.3344    0.6338 </r>
       <r>   -2.9612    0.0108 </r>
       <r>   -2.6863    0.0000 </r>
       <r>   -2.6202    0.0000 </r>
       <r>   -2.5578    0.0000 </r>
       <r>   -2.4224    0.0000 </r>
       <r>   -2.3157    0.0000 </r>
       <r>   -2.2668    0.0000 </r>
       <r>   -2.1156    0.0000 </r>
       <r>   -2.0094    0.0000 </r>
       <r>   -1.9502    0.0000 </r>
       <r>   -1.8305    0.0000 </r>
       <r>   -1.8060    0.0000 </r>
       <r>   -1.4122    0.0000 </r>
       <r>   -1.3101    0.0000 </r>
       <r>   -1.2348    0.0000 </r>
       <r>   -1.1140    0.0000 </r>
       <r>   -1.0836    0.0000 </r>
       <r>   -1.0225    0.0000 </r>
       <r>   -0.9671    0.0000 </r>
       <r>   -0.9221    0.0000 </r>
       <r>   -0.8541    0.0000 </r>
       <r>   -0.7802    0.0000 </r>
       <r>   -0.7201    0.0000 </r>
       <r>   -0.5609    0.0000 </r>
       <r>   -0.4819    0.0000 </r>
       <r>   -0.2697    0.0000 </r>
       <r>   -0.2015    0.0000 </r>
       <r>   -0.0710    0.0000 </r>
       <r>    0.0546    0.0000 </r>
       <r>    0.1083    0.0000 </r>
       <r>    0.4036    0.0000 </r>
       <r>    0.5770    0.0000 </r>
       <r>    0.6644    0.0000 </r>
       <r>    0.9290    0.0000 </r>
       <r>    1.1449    0.0000 </r>
       <r>    1.2472    0.0000 </r>
       <r>    1.3028    0.0000 </r>
       <r>    2.1116    0.0000 </r>
       <r>    2.2739    0.0000 </r>
       <r>    2.3624    0.0000 </r>
      </set>
      <set comment="kpoint 34">
       <r>  -17.5276    1.0000 </r>
       <r>  -17.2892    1.0000 </r>
       <r>  -16.7619    1.0000 </r>
       <r>  -16.6836    1.0000 </r>
       <r>  -16.6118    1.0000 </r>
       <r>  -16.4014    1.0000 </r>
       <r>  -16.3513    1.0000 </r>
       <r>  -16.1698    1.0000 </r>
       <r>  -16.0948    1.0000 </r>
       <r>  -15.9672    1.0000 </r>
       <r>  -15.9393    1.0000 </r>
       <r>  -15.9246    1.0000 </r>
       <r>  -15.7843    1.0000 </r>
       <r>  -15.7716    1.0000 </r>
       <r>  -15.5769    1.0000 </r>
       <r>  -15.4983    1.0000 </r>
       <r>  -15.3589    1.0000 </r>
       <r>  -15.2760    1.0000 </r>
       <r>   -9.7907    1.0000 </r>
       <r>   -9.3562    1.0000 </r>
       <r>   -9.2592    1.0000 </r>
       <r>   -9.0268    1.0000 </r>
       <r>   -8.9070    1.0000 </r>
       <r>   -8.8041    1.0000 </r>
       <r>   -8.5691    1.0000 </r>
       <r>   -8.4245    1.0000 </r>
       <r>   -8.3718    1.0000 </r>
       <r>   -8.3035    1.0000 </r>
       <r>   -8.2764    1.0000 </r>
       <r>   -8.2173    1.0000 </r>
       <r>   -8.1139    1.0000 </r>
       <r>   -8.0494    1.0000 </r>
       <r>   -7.9215    1.0000 </r>
       <r>   -7.8440    1.0000 </r>
       <r>   -7.8114    1.0000 </r>
       <r>   -7.6423    1.0000 </r>
       <r>   -7.5927    1.0000 </r>
       <r>   -7.4436    1.0000 </r>
       <r>   -7.3665    1.0000 </r>
       <r>   -7.1659    1.0000 </r>
       <r>   -7.1504    1.0000 </r>
       <r>   -7.1009    1.0000 </r>
       <r>   -7.0693    1.0000 </r>
       <r>   -6.9819    1.0000 </r>
       <r>   -6.8724    1.0000 </r>
       <r>   -6.7794    1.0000 </r>
       <r>   -6.6357    1.0000 </r>
       <r>   -6.6137    1.0000 </r>
       <r>   -6.5468    1.0000 </r>
       <r>   -6.4743    1.0000 </r>
       <r>   -6.4034    1.0000 </r>
       <r>   -6.3429    1.0000 </r>
       <r>   -6.2972    1.0000 </r>
       <r>   -6.2797    1.0000 </r>
       <r>   -6.2207    1.0000 </r>
       <r>   -6.1064    1.0000 </r>
       <r>   -6.0139    1.0000 </r>
       <r>   -5.9474    1.0000 </r>
       <r>   -5.8760    1.0000 </r>
       <r>   -5.8088    1.0000 </r>
       <r>   -5.7579    1.0000 </r>
       <r>   -5.6139    1.0000 </r>
       <r>   -5.6086    1.0000 </r>
       <r>   -5.4483    1.0000 </r>
       <r>   -5.2121    1.0000 </r>
       <r>   -5.0398    1.0000 </r>
       <r>   -4.9627    1.0000 </r>
       <r>   -4.9255    1.0000 </r>
       <r>   -4.8460    1.0000 </r>
       <r>   -4.6613    1.0000 </r>
       <r>   -4.5052    1.0000 </r>
       <r>   -4.4168    1.0000 </r>
       <r>   -4.3202    1.0000 </r>
       <r>   -4.2374    1.0000 </r>
       <r>   -4.2213    1.0000 </r>
       <r>   -4.0669    1.0000 </r>
       <r>   -3.9581    1.0000 </r>
       <r>   -3.6434    0.9942 </r>
       <r>   -3.5041    0.9384 </r>
       <r>   -3.3950    0.7794 </r>
       <r>   -2.9055    0.0036 </r>
       <r>   -2.7118    0.0000 </r>
       <r>   -2.6208    0.0000 </r>
       <r>   -2.5552    0.0000 </r>
       <r>   -2.4459    0.0000 </r>
       <r>   -2.3122    0.0000 </r>
       <r>   -2.2643    0.0000 </r>
       <r>   -2.0955    0.0000 </r>
       <r>   -2.0465    0.0000 </r>
       <r>   -1.9638    0.0000 </r>
       <r>   -1.8077    0.0000 </r>
       <r>   -1.7730    0.0000 </r>
       <r>   -1.3916    0.0000 </r>
       <r>   -1.3158    0.0000 </r>
       <r>   -1.2458    0.0000 </r>
       <r>   -1.1376    0.0000 </r>
       <r>   -1.0871    0.0000 </r>
       <r>   -1.0199    0.0000 </r>
       <r>   -0.9338    0.0000 </r>
       <r>   -0.9041    0.0000 </r>
       <r>   -0.8719    0.0000 </r>
       <r>   -0.7781    0.0000 </r>
       <r>   -0.7529    0.0000 </r>
       <r>   -0.5534    0.0000 </r>
       <r>   -0.4506    0.0000 </r>
       <r>   -0.3152    0.0000 </r>
       <r>   -0.2221    0.0000 </r>
       <r>   -0.0343    0.0000 </r>
       <r>    0.0085    0.0000 </r>
       <r>    0.1131    0.0000 </r>
       <r>    0.4697    0.0000 </r>
       <r>    0.5457    0.0000 </r>
       <r>    0.6369    0.0000 </r>
       <r>    0.9121    0.0000 </r>
       <r>    1.1954    0.0000 </r>
       <r>    1.2654    0.0000 </r>
       <r>    1.3114    0.0000 </r>
       <r>    2.1926    0.0000 </r>
       <r>    2.2161    0.0000 </r>
       <r>    2.3636    0.0000 </r>
      </set>
     </set>
    </set>
   </array>
  </eigenvalues>
  <separator name="orbital magnetization" >
   <v name="MAGDIPOLOUT">      0.00000000      0.00000000      0.00000000</v>
  </separator>
 </calculation>
 <structure name="finalpos" >
  <crystal>
   <varray name="basis" >
    <v>       8.38030607       4.83633534       0.00000000 </v>
    <v>      -8.38515431       4.84473812       0.00000000 </v>
    <v>       0.00000000       0.00000000      30.00000000 </v>
   </varray>
   <i name="volume">   2434.61419436 </i>
   <varray name="rec_basis" >
    <v>       0.05969822       0.10332423       0.00000000 </v>
    <v>      -0.05959468       0.10326449       0.00000000 </v>
    <v>       0.00000000       0.00000000       0.03333333 </v>
   </varray>
  </crystal>
  <varray name="positions" >
   <v>       0.68121233       0.31363167       0.00065037 </v>
   <v>       0.31722314       0.63122960      -0.00095916 </v>
   <v>      -0.00116427       0.63491489      -0.00014721 </v>
   <v>       0.30127062       0.31508848      -0.00038476 </v>
   <v>       0.99985312       0.32655559      -0.00006047 </v>
   <v>       0.69906055       0.01406481       0.00033094 </v>
   <v>       0.00057818       0.02272415       0.00013231 </v>
   <v>       0.31601664       0.02250134      -0.00125889 </v>
   <v>       0.68655246       0.70714182       0.00172719 </v>
   <v>       0.10640765       0.22257725       0.94285120 </v>
   <v>       0.21652847       0.11412990       0.05609063 </v>
   <v>       0.11554839       0.55438432       0.94798406 </v>
   <v>       0.22131580       0.44590633       0.05393705 </v>
   <v>       0.09932029       0.87913969       0.95227327 </v>
   <v>       0.22066289       0.77146007       0.04526770 </v>
   <v>       0.44901446       0.23035324       0.94928329 </v>
   <v>       0.55181130       0.11029195       0.04928604 </v>
   <v>       0.44833141       0.55872728       0.95089268 </v>
   <v>       0.55961467       0.44774481       0.04021438 </v>
   <v>       0.44031205       0.88737074       0.95981409 </v>
   <v>       0.55011704       0.78114304       0.05030804 </v>
   <v>       0.77804502       0.22412663       0.94590059 </v>
   <v>       0.89341283       0.11629032       0.05716849 </v>
   <v>       0.77783861       0.55048402       0.95437015 </v>
   <v>       0.88274085       0.43782159       0.05176760 </v>
   <v>       0.78463529       0.89754762       0.94420378 </v>
   <v>       0.90195465       0.78086332       0.04835656 </v>
  </varray>
 </structure>
</modeling>
