unknown system                          
           1
     8.855916    5.103853    0.000000
    -8.857044    5.105794    0.000000
     0.000000    0.000000   30.000000
   V    Mo   W    S 
   3   3   3  18
Direct configuration=     1
   0.66666669  0.33333334  0.00000000
   0.33333334  0.66666669  0.00000000
   0.00000000  0.66666669  0.00000000
   0.33333334  0.33333334  0.00000000
   1.00000000  0.33333334  0.00000000
   0.66666669  0.00000000  0.00000000
   0.00000000  0.00000000  0.00000000
   0.33333334  0.00000000  0.00000000
   0.66666669  0.66666669  0.00000000
   0.11068511  0.22244981  0.95539999
   0.22244981  0.11068511  0.04460000
   0.11068511  0.55578315  0.95539999
   0.22244981  0.44401845  0.04460000
   0.11068511  0.88911647  0.95539999
   0.22244981  0.77735180  0.04460000
   0.44401845  0.22244981  0.95539999
   0.55578315  0.11068511  0.04460000
   0.44401845  0.55578315  0.95539999
   0.55578315  0.44401845  0.04460000
   0.44401845  0.88911647  0.95539999
   0.55578315  0.77735180  0.04460000
   0.77735180  0.22244981  0.95539999
   0.88911647  0.11068511  0.04460000
   0.77735180  0.55578315  0.95539999
   0.88911647  0.44401845  0.04460000
   0.77735180  0.88911647  0.95539999
   0.88911647  0.77735180  0.04460000
unknown system                          
           1
     8.667519    4.997718    0.000000
    -8.668603    4.999583    0.000000
     0.000000    0.000000   30.000000
   V    Mo   W    S 
   3   3   3  18
Direct configuration=     2
   0.66705631  0.33246448 -0.00013475
   0.33293838  0.66546581  0.00013705
   0.00006715  0.66513389 -0.00000680
   0.33185132  0.33331750 -0.00008804
   1.00003510  0.33238935  0.00001399
   0.66806021  0.00138463  0.00009768
  -0.00014050  0.00299311 -0.00000488
   0.33498658  0.00118787 -0.00002362
   0.66508602  0.66631125  0.00001060
   0.11064407  0.22110790  0.95065350
   0.22154282  0.11002207  0.04924405
   0.11296473  0.55986380  0.95312481
   0.22436917  0.44896542  0.04807674
   0.10924419  0.88510626  0.95198444
   0.22065093  0.77408192  0.04690095
   0.44842938  0.22341488  0.95188898
   0.55669383  0.11492925  0.04809472
   0.44291652  0.55825950  0.95197420
   0.55838964  0.44293530  0.04792439
   0.44165041  0.88473097  0.95199850
   0.55134242  0.77497579  0.04811930
   0.77523004  0.22465108  0.95198553
   0.88914012  0.11040987  0.04935465
   0.77935241  0.55356113  0.95302494
   0.88661579  0.44649186  0.04693845
   0.77827203  0.88831038  0.95076305
   0.89082536  0.77574920  0.04794746
unknown system                          
           1
     8.486815    4.897714    0.000000
    -8.488332    4.900331    0.000000
     0.000000    0.000000   30.000000
   V    Mo   W    S 
   3   3   3  18
Direct configuration=     3
   0.66707351  0.33215617 -0.00015103
   0.33293372  0.66515175  0.00015383
   0.00005975  0.66472921 -0.00000913
   0.33112926  0.33298373 -0.00005347
   1.00002804  0.33144217  0.00001304
   0.66876619  0.00175731  0.00006445
  -0.00015035  0.00419841 -0.00000237
   0.33545454  0.00168872 -0.00008693
   0.66464551  0.66637256  0.00007484
   0.11052035  0.22090124  0.95049672
   0.22142341  0.10975948  0.04923753
   0.11302789  0.55991843  0.95316572
   0.22444142  0.44912543  0.04812758
   0.10930707  0.88528745  0.95213308
   0.22074227  0.77424584  0.04683500
   0.44843996  0.22326548  0.95188681
   0.55655900  0.11494014  0.04812776
   0.44308166  0.55841328  0.95193267
   0.55855373  0.44314139  0.04784608
   0.44145945  0.88474651  0.95208451
   0.55134152  0.77477990  0.04811914
   0.77519319  0.22473232  0.95192966
   0.88926462  0.11029252  0.04950883
   0.77922040  0.55361946  0.95310565
   0.88658557  0.44651002  0.04688752
   0.77838865  0.88820500  0.95076068
   0.89072409  0.77585057  0.04781174
unknown system                          
           1
     8.279900    4.772659    0.000000
    -8.286200    4.783564    0.000000
     0.000000    0.000000   30.000000
   V    Mo   W    S 
   3   3   3  18
Direct configuration=     4
   0.66667442  0.33082485 -0.00014486
   0.33330357  0.66417052  0.00015089
   0.00002814  0.66357929 -0.00001148
   0.32811030  0.33120867  0.00007516
   1.00004802  0.32703671  0.00000694
   0.67167388  0.00292965 -0.00006700
  -0.00013295  0.00882665  0.00000274
   0.33689811  0.00368992 -0.00029517
   0.66323695  0.66696074  0.00028701
   0.11048824  0.22104990  0.94821255
   0.22130634  0.10941691  0.05082989
   0.11356169  0.56068799  0.95203881
   0.22492434  0.45040312  0.04975875
   0.10873457  0.88460494  0.95129042
   0.22037865  0.77345173  0.04790769
   0.44964526  0.22408635  0.95040620
   0.55728996  0.11613391  0.04970865
   0.44243961  0.55886730  0.95033167
   0.55904770  0.44265887  0.04896894
   0.44085824  0.88366552  0.95098458
   0.55016274  0.77427211  0.04959925
   0.77486308  0.22550976  0.95027594
   0.88932383  0.11039454  0.05179221
   0.77947397  0.55312275  0.95207464
   0.88618126  0.44687241  0.04797979
   0.77850458  0.88808759  0.94913627
   0.89118994  0.77570173  0.04869942
unknown system                          
           1
     8.284834    4.769575    0.000000
    -8.296761    4.790228    0.000000
     0.000000    0.000000   30.000000
   V    Mo   W    S 
   3   3   3  18
Direct configuration=     5
   0.66585789  0.32836246  0.00002280
   0.33406444  0.66250453 -0.00001127
  -0.00004395  0.66087213 -0.00000694
   0.32187763  0.32739855  0.00020281
   1.00006889  0.31852123  0.00001274
   0.67770978  0.00524363 -0.00020366
  -0.00016832  0.01772674 -0.00001105
   0.33951790  0.00735765 -0.00054666
   0.66075027  0.66816111  0.00053317
   0.11070052  0.22176123  0.94476706
   0.22088652  0.10916112  0.05293243
   0.11377587  0.56022452  0.95052099
   0.22458112  0.45097585  0.05202635
   0.10797269  0.88464487  0.95043997
   0.22039218  0.77294590  0.04936094
   0.45100922  0.22586063  0.94835720
   0.55855506  0.11734112  0.05166910
   0.44129054  0.55874314  0.94835515
   0.55869504  0.44179026  0.05024498
   0.44112601  0.88297085  0.94972019
   0.54882095  0.77467169  0.05165917
   0.77534021  0.22633387  0.94799445
   0.88912103  0.11093395  0.05523110
   0.77939138  0.55246957  0.95064709
   0.88611034  0.44639567  0.04946342
   0.77893254  0.88828611  0.94702423
   0.89187871  0.77655609  0.04959415
unknown system                          
           1
     8.276510    4.765531    0.000000
    -8.287828    4.785129    0.000000
     0.000000    0.000000   30.000000
   V    Mo   W    S 
   3   3   3  18
Direct configuration=     6
   0.66591169  0.32780571 -0.00000980
   0.33400990  0.66191822  0.00001501
  -0.00007718  0.65923187 -0.00001227
   0.32091321  0.32673178  0.00011500
   1.00007013  0.31831047  0.00000948
   0.67863723  0.00553353 -0.00010472
  -0.00019849  0.01852042 -0.00000309
   0.34000134  0.00838525 -0.00059485
   0.66032408  0.66879915  0.00058819
   0.11090178  0.22198070  0.94430927
   0.22031345  0.10892666  0.05303181
   0.11344950  0.55906390  0.95049736
   0.22378541  0.45007078  0.05210278
   0.10774289  0.88559772  0.95077070
   0.22084016  0.77330891  0.04927661
   0.45090688  0.22640245  0.94829011
   0.55884636  0.11716019  0.05171058
   0.44101496  0.55827446  0.94832540
   0.55774334  0.44161115  0.05006394
   0.44207815  0.88373387  0.94988440
   0.54893129  0.77533899  0.05172758
   0.77612907  0.22623288  0.94792391
   0.88890410  0.11095758  0.05567943
   0.77897214  0.55239526  0.95072553
   0.88643331  0.44554870  0.04950194
   0.77949387  0.88861233  0.94691174
   0.89213589  0.77776151  0.04926385
unknown system                          
           1
     8.283306    4.768811    0.000000
    -8.295284    4.789553    0.000000
     0.000000    0.000000   30.000000
   V    Mo   W    S 
   3   3   3  18
Direct configuration=     7
   0.66611469  0.32691346 -0.00004763
   0.33379545  0.66087563  0.00005424
  -0.00015665  0.65679072 -0.00001534
   0.31919593  0.32548710  0.00004856
   1.00004957  0.31720789  0.00001023
   0.68028322  0.00602250 -0.00004191
  -0.00023498  0.02066715 -0.00001275
   0.34073032  0.01010240 -0.00065570
   0.65975630  0.66992208  0.00064638
   0.11088564  0.22210358  0.94384426
   0.21993995  0.10879331  0.05320452
   0.11331542  0.55824925  0.95035134
   0.22328290  0.44944942  0.05227328
   0.10745783  0.88619466  0.95111550
   0.22123693  0.77358191  0.04919865
   0.45102384  0.22703453  0.94812434
   0.55916937  0.11720437  0.05183909
   0.44072501  0.55797384  0.94820887
   0.55704283  0.44152014  0.04986057
   0.44279140  0.88433945  0.95006588
   0.54883657  0.77588455  0.05190237
   0.77662259  0.22611892  0.94775674
   0.88890544  0.11112527  0.05614908
   0.77858174  0.55225670  0.95080288
   0.88655753  0.44487433  0.04964982
   0.77985760  0.88885297  0.94673295
   0.89244801  0.77866834  0.04893368
unknown system                          
           1
     8.283336    4.768751    0.000000
    -8.295360    4.789574    0.000000
     0.000000    0.000000   30.000000
   V    Mo   W    S 
   3   3   3  18
Direct configuration=     8
   0.66637093  0.32648873 -0.00006910
   0.33357187  0.66022202  0.00007472
  -0.00015291  0.65540247 -0.00001907
   0.31862755  0.32507085  0.00001287
   1.00008404  0.31728920  0.00001274
   0.68077109  0.00608489 -0.00000186
  -0.00026887  0.02120530 -0.00001199
   0.34097354  0.01095953 -0.00068819
   0.65955017  0.67066674  0.00068135
   0.11085976  0.22216972  0.94373934
   0.21975711  0.10872616  0.05321388
   0.11335136  0.55799226  0.95031161
   0.22311872  0.44918338  0.05227238
   0.10731988  0.88636728  0.95136522
   0.22140073  0.77369447  0.04907316
   0.45107947  0.22732135  0.94810914
   0.55924321  0.11719047  0.05183061
   0.44065333  0.55789513  0.94823562
   0.55677911  0.44155582  0.04965905
   0.44304469  0.88461042  0.95025902
   0.54876812  0.77611284  0.05191361
   0.77678989  0.22601130  0.94774715
   0.88892183  0.11122139  0.05625114
   0.77842907  0.55222543  0.95092225
   0.88653710  0.44458506  0.04970174
   0.78003025  0.88897524  0.94671276
   0.89260341  0.77898699  0.04869074
unknown system                          
           1
     8.281784    4.767249    0.000000
    -8.294082    4.788545    0.000000
     0.000000    0.000000   30.000000
   V    Mo   W    S 
   3   3   3  18
Direct configuration=     9
   0.66630521  0.32667232 -0.00005996
   0.33363414  0.66046045  0.00006555
  -0.00014284  0.65594965 -0.00001809
   0.31895040  0.32530560  0.00002799
   1.00008140  0.31742905  0.00001222
   0.68046986  0.00600858 -0.00001703
  -0.00025889  0.02082495 -0.00001059
   0.34083659  0.01059708 -0.00067534
   0.65966080  0.67040374  0.00066857
   0.11086669  0.22214506  0.94381403
   0.21983690  0.10875491  0.05319308
   0.11336880  0.55815106  0.95033360
   0.22321694  0.44931564  0.05225377
   0.10737864  0.88625045  0.95127674
   0.22131694  0.77363525  0.04910613
   0.45105939  0.22719307  0.94813012
   0.55918726  0.11718939  0.05181816
   0.44070449  0.55795153  0.94824356
   0.55692206  0.44156280  0.04972037
   0.44290130  0.88447889  0.95020187
   0.54878706  0.77600054  0.05189211
   0.77669286  0.22604543  0.94776691
   0.88891841  0.11118485  0.05617609
   0.77850990  0.55224876  0.95089043
   0.88651902  0.44472551  0.04967754
   0.77995322  0.88892323  0.94673577
   0.89253792  0.77880667  0.04877630
unknown system                          
           1
     8.281311    4.766955    0.000000
    -8.294283    4.789420    0.000000
     0.000000    0.000000   30.000000
   V    Mo   W    S 
   3   3   3  18
Direct configuration=    10
   0.66637516  0.32629062 -0.00007715
   0.33367021  0.65999528  0.00007311
  -0.00001956  0.65528200 -0.00002122
   0.31857959  0.32514551  0.00001404
   1.00020094  0.31748692  0.00001579
   0.68070100  0.00592282  0.00000068
  -0.00029750  0.02117474 -0.00001007
   0.34097691  0.01113677 -0.00069256
   0.65939287  0.67097057  0.00068453
   0.11082231  0.22216485  0.94375898
   0.21975984  0.10871338  0.05320510
   0.11351886  0.55808339  0.95027432
   0.22320858  0.44928220  0.05226217
   0.10733592  0.88632278  0.95137950
   0.22145309  0.77369900  0.04905711
   0.45111403  0.22733188  0.94810748
   0.55919210  0.11717219  0.05182972
   0.44067393  0.55795937  0.94825029
   0.55687131  0.44162246  0.04961855
   0.44291212  0.88451431  0.95030888
   0.54866190  0.77606008  0.05191455
   0.77672209  0.22598055  0.94774765
   0.88895283  0.11125399  0.05622647
   0.77839866  0.55223811  0.95093738
   0.88642532  0.44452775  0.04975510
   0.78003197  0.88897295  0.94670945
   0.89257997  0.77891002  0.04867006
unknown system                          
           1
     8.289091    4.770652    0.000000
    -8.302547    4.793954    0.000000
     0.000000    0.000000   30.000000
   V    Mo   W    S 
   3   3   3  18
Direct configuration=    11
   0.66653349  0.32625645 -0.00008047
   0.33339007  0.65983261  0.00008696
  -0.00019414  0.65452390 -0.00002550
   0.31817838  0.32469204 -0.00001094
   1.00010954  0.31721490  0.00001371
   0.68117074  0.00614952  0.00002295
  -0.00028884  0.02164721 -0.00001479
   0.34114450  0.01156390 -0.00071293
   0.65943892  0.67115820  0.00070998
   0.11083967  0.22220958  0.94366229
   0.21965351  0.10866871  0.05323066
   0.11336334  0.55788171  0.95026873
   0.22303925  0.44903437  0.05228025
   0.10724390  0.88642063  0.95152354
   0.22144316  0.77374692  0.04900716
   0.45112884  0.22748522  0.94808578
   0.55925859  0.11718817  0.05183658
   0.44064914  0.55788433  0.94825870
   0.55664723  0.44158091  0.04954809
   0.44317414  0.88476477  0.95037225
   0.54874000  0.77622883  0.05191241
   0.77687073  0.22595453  0.94771629
   0.88893831  0.11128010  0.05633058
   0.77838325  0.55222205  0.95097196
   0.88651599  0.44444910  0.04976077
   0.78013123  0.88904362  0.94669723
   0.89271154  0.77913217  0.04854768
unknown system                          
           1
     8.289681    4.771016    0.000000
    -8.302695    4.793551    0.000000
     0.000000    0.000000   30.000000
   V    Mo   W    S 
   3   3   3  18
Direct configuration=    12
   0.66693875  0.32534393 -0.00010136
   0.33302201  0.65862521  0.00010616
  -0.00022306  0.65245525 -0.00002498
   0.31738566  0.32409107 -0.00005064
   1.00008448  0.31742922  0.00001406
   0.68185579  0.00631473  0.00006463
  -0.00033820  0.02235499 -0.00000966
   0.34151270  0.01305920 -0.00075308
   0.65928945  0.67251460  0.00074739
   0.11076840  0.22232252  0.94347383
   0.21943531  0.10862147  0.05331751
   0.11358658  0.55766303  0.95010000
   0.22293294  0.44880454  0.05237397
   0.10700262  0.88645262  0.95181042
   0.22165876  0.77385822  0.04887339
   0.45133436  0.22798000  0.94799935
   0.55934893  0.11723223  0.05187888
   0.44055983  0.55781746  0.94820722
   0.55650279  0.44168685  0.04926525
   0.44331202  0.88497910  0.95061863
   0.54849572  0.77652571  0.05204378
   0.77698165  0.22581056  0.94764844
   0.88899348  0.11147588  0.05650889
   0.77817411  0.55214288  0.95112441
   0.88631912  0.44404413  0.04991875
   0.78033096  0.88920511  0.94657879
   0.89294931  0.77940395  0.04826588
unknown system                          
           1
     8.281383    4.766004    0.000000
    -8.296131    4.791551    0.000000
     0.000000    0.000000   30.000000
   V    Mo   W    S 
   3   3   3  18
Direct configuration=    13
   0.66709751  0.32505944 -0.00010569
   0.33294721  0.65821860  0.00010911
  -0.00016734  0.65208144 -0.00002433
   0.31733082  0.32412241 -0.00005543
   1.00009543  0.31768129  0.00001447
   0.68186340  0.00627820  0.00007340
  -0.00036496  0.02236465 -0.00001172
   0.34151161  0.01334172 -0.00076043
   0.65927753  0.67291610  0.00075255
   0.11073824  0.22233385  0.94348057
   0.21941895  0.10864829  0.05332515
   0.11369572  0.55770072  0.95006636
   0.22296093  0.44881164  0.05239107
   0.10696026  0.88638017  0.95186340
   0.22168770  0.77384936  0.04882411
   0.45138531  0.22807569  0.94799805
   0.55934212  0.11723184  0.05187869
   0.44056728  0.55782331  0.94819612
   0.55657523  0.44176770  0.04917623
   0.44323839  0.88496212  0.95068873
   0.54842207  0.77655941  0.05206931
   0.77695155  0.22577351  0.94764536
   0.88900841  0.11151862  0.05650215
   0.77814431  0.55213210  0.95119123
   0.88622572  0.44398878  0.04994579
   0.78033837  0.88923506  0.94655747
   0.89296268  0.77935844  0.04820816
unknown system                          
           1
     8.292207    4.772750    0.000000
    -8.305215    4.795277    0.000000
     0.000000    0.000000   30.000000
   V    Mo   W    S 
   3   3   3  18
Direct configuration=    14
   0.66722624  0.32486099 -0.00011519
   0.33255985  0.65791392  0.00012849
  -0.00043179  0.65075908 -0.00003467
   0.31657559  0.32328046 -0.00009568
   1.00003436  0.31726910  0.00001341
   0.68262794  0.00658863  0.00010491
  -0.00035088  0.02314502 -0.00002207
   0.34185169  0.01429017 -0.00078827
   0.65931030  0.67347319  0.00079224
   0.11071187  0.22238561  0.94334550
   0.21925657  0.10852360  0.05336638
   0.11357196  0.55739908  0.95000463
   0.22276640  0.44845522  0.05239814
   0.10685617  0.88651457  0.95210546
   0.22172620  0.77398571  0.04874547
   0.45144551  0.22832668  0.94794206
   0.55939168  0.11724860  0.05188472
   0.44056929  0.55776226  0.94823993
   0.55626992  0.44174804  0.04903948
   0.44356976  0.88532953  0.95083409
   0.54847870  0.77680257  0.05206621
   0.77713759  0.22568910  0.94760658
   0.88903551  0.11160464  0.05664195
   0.77808108  0.55211473  0.95122658
   0.88626337  0.44375717  0.05001773
   0.78050942  0.88933110  0.94654184
   0.89317015  0.77965570  0.04800997
unknown system                          
           1
     8.294778    4.773908    0.000000
    -8.308823    4.798234    0.000000
     0.000000    0.000000   30.000000
   V    Mo   W    S 
   3   3   3  18
Direct configuration=    15
   0.66783785  0.32402900 -0.00012433
   0.33228265  0.65658323  0.00013375
  -0.00022070  0.64981116 -0.00003534
   0.31641404  0.32346724 -0.00011136
   1.00009217  0.31809373  0.00001675
   0.68263047  0.00645920  0.00013660
  -0.00044856  0.02308818 -0.00002117
   0.34171634  0.01499980 -0.00080332
   0.65930533  0.67466740  0.00079492
   0.11064531  0.22244278  0.94336781
   0.21921617  0.10864130  0.05339525
   0.11390213  0.55754279  0.94990348
   0.22285140  0.44851768  0.05246563
   0.10669628  0.88626558  0.95221952
   0.22180872  0.77392618  0.04861430
   0.45159891  0.22861196  0.94793569
   0.55935378  0.11721881  0.05190467
   0.44058561  0.55779307  0.94819740
   0.55652843  0.44197943  0.04879728
   0.44329579  0.88520181  0.95102246
   0.54822944  0.77687842  0.05214256
   0.77704551  0.22559392  0.94755798
   0.88906974  0.11172001  0.05662083
   0.77800437  0.55208698  0.95140895
   0.88601398  0.44362690  0.05011925
   0.78051584  0.88944757  0.94646132
   0.89324345  0.77952032  0.04787903
unknown system                          
           1
     8.285435    4.767513    0.000000
    -8.298893    4.790815    0.000000
     0.000000    0.000000   30.000000
   V    Mo   W    S 
   3   3   3  18
Direct configuration=    16
   0.66852483  0.32296767 -0.00013182
   0.33157769  0.65496848  0.00014604
  -0.00035644  0.64783686 -0.00004869
   0.31547690  0.32274600 -0.00016594
   1.00007094  0.31844499  0.00002032
   0.68340941  0.00672924  0.00019371
  -0.00054159  0.02365597 -0.00002309
   0.34186226  0.01669204 -0.00082452
   0.65955569  0.67652130  0.00082255
   0.11056026  0.22257058  0.94322369
   0.21899566  0.10860570  0.05350017
   0.11412316  0.55730959  0.94969879
   0.22273559  0.44818223  0.05256443
   0.10645061  0.88611450  0.95253857
   0.22193146  0.77403025  0.04842417
   0.45186497  0.22919838  0.94783604
   0.55932545  0.11718288  0.05195234
   0.44065351  0.55777450  0.94820005
   0.55649648  0.44218740  0.04841562
   0.44333266  0.88543292  0.95136586
   0.54800348  0.77721416  0.05223302
   0.77715166  0.22539846  0.94743756
   0.88913069  0.11193099  0.05676141
   0.77785379  0.55202927  0.95158528
   0.88577286  0.44316536  0.05033846
   0.78070574  0.88967338  0.94633267
   0.89354674  0.77965135  0.04760320
unknown system                          
           1
     8.288048    4.767920    0.000000
    -8.301769    4.791675    0.000000
     0.000000    0.000000   30.000000
   V    Mo   W    S 
   3   3   3  18
Direct configuration=    17
   0.66656676  0.32523030 -0.00014845
   0.33364100  0.65897533  0.00015636
   0.00001315  0.65200397 -0.00000810
   0.31757075  0.32426711 -0.00003469
   1.00005462  0.31724545  0.00001555
   0.68178094  0.00603034  0.00005952
  -0.00029988  0.02277115 -0.00000241
   0.34190701  0.01304782 -0.00079773
   0.65836598  0.67198857  0.00076628
   0.11077984  0.22236548  0.94348963
   0.21947745  0.10860274  0.05323811
   0.11361083  0.55775543  0.95008745
   0.22294745  0.44892863  0.05233970
   0.10698603  0.88667363  0.95186750
   0.22174124  0.77387757  0.04892436
   0.45123021  0.22790231  0.94803338
   0.55949787  0.11732545  0.05186028
   0.44038362  0.55777819  0.94813009
   0.55635647  0.44157928  0.04938995
   0.44349151  0.88503332  0.95049772
   0.54854603  0.77650100  0.05208157
   0.77694369  0.22586483  0.94772609
   0.88900745  0.11150062  0.05649415
   0.77812157  0.55217669  0.95113017
   0.88634009  0.44414895  0.04990811
   0.78030003  0.88906420  0.94664620
   0.89285273  0.77957610  0.04814912
unknown system                          
           1
     8.284445    4.765039    0.000000
    -8.298907    4.790078    0.000000
     0.000000    0.000000   30.000000
   V    Mo   W    S 
   3   3   3  18
Direct configuration=    18
   0.66540423  0.32649026 -0.00016399
   0.33489187  0.66127336  0.00016573
   0.00031426  0.65336015  0.00001189
   0.31869076  0.32506496  0.00002349
   1.00004312  0.31653853  0.00001070
   0.68099184  0.00558131  0.00000146
  -0.00009953  0.02276102 -0.00000558
   0.34226982  0.01135302 -0.00077607
   0.65705309  0.66925434  0.00071755
   0.11092550  0.22237990  0.94348705
   0.21966043  0.10847361  0.05313464
   0.11341839  0.55785108  0.95023781
   0.22297626  0.44919517  0.05223767
   0.10719962  0.88702914  0.95168706
   0.22177350  0.77392330  0.04914993
   0.45098101  0.22748994  0.94801619
   0.55970346  0.11744615  0.05185152
   0.44010343  0.55773187  0.94803720
   0.55608890  0.44124061  0.04990259
   0.44378952  0.88502196  0.95005946
   0.54877680  0.77631837  0.05212829
   0.77690133  0.22604092  0.94784770
   0.88891432  0.11135491  0.05651399
   0.77815437  0.55225605  0.95094098
   0.88656270  0.44444345  0.04974598
   0.78019523  0.88868620  0.94679636
   0.89253023  0.77965488  0.04824029
unknown system                          
           1
     8.289482    4.768399    0.000000
    -8.303815    4.793216    0.000000
     0.000000    0.000000   30.000000
   V    Mo   W    S 
   3   3   3  18
Direct configuration=    19
   0.66540285  0.32667917 -0.00019841
   0.33496822  0.66142283  0.00020007
   0.00049991  0.65186153  0.00002587
   0.31861675  0.32509417 -0.00002092
   0.99995214  0.31634235  0.00001421
   0.68130130  0.00566264  0.00005288
   0.00001525  0.02372085  0.00001323
   0.34285821  0.01182417 -0.00078989
   0.65593714  0.66874778  0.00073520
   0.11098944  0.22256534  0.94339099
   0.21956352  0.10837238  0.05309374
   0.11360241  0.55767220  0.95019238
   0.22291383  0.44906294  0.05219080
   0.10712257  0.88699265  0.95203774
   0.22194381  0.77407488  0.04900089
   0.45106571  0.22774474  0.94795873
   0.55981021  0.11754725  0.05183757
   0.43991025  0.55773958  0.94800266
   0.55586733  0.44126813  0.04981450
   0.44401075  0.88528448  0.95018045
   0.54869373  0.77648621  0.05219514
   0.77694213  0.22591176  0.94788793
   0.88890044  0.11143791  0.05659972
   0.77803490  0.55226361  0.95110955
   0.88641975  0.44410981  0.04978663
   0.78032783  0.88863510  0.94685865
   0.89254408  0.77968999  0.04782960
unknown system                          
           1
     8.294898    4.771781    0.000000
    -8.308911    4.796041    0.000000
     0.000000    0.000000   30.000000
   V    Mo   W    S 
   3   3   3  18
Direct configuration=    20
   0.66595315  0.32600404 -0.00019378
   0.33438671  0.66026733  0.00019706
   0.00038507  0.65094909  0.00001513
   0.31808824  0.32471034 -0.00005209
   0.99995582  0.31673912  0.00001252
   0.68168585  0.00585888  0.00008018
  -0.00005494  0.02379060  0.00000241
   0.34277155  0.01278730 -0.00079946
   0.65639012  0.67005422  0.00074785
   0.11091734  0.22259038  0.94334089
   0.21946109  0.10841328  0.05317130
   0.11372711  0.55759149  0.95007793
   0.22288164  0.44890543  0.05226600
   0.10697242  0.88681725  0.95216054
   0.22196083  0.77407892  0.04889895
   0.45122923  0.22804377  0.94792101
   0.55974565  0.11750776  0.05186994
   0.44001012  0.55775000  0.94801126
   0.55595590  0.44141764  0.04957390
   0.44392031  0.88533350  0.95039021
   0.54855005  0.77663834  0.05222646
   0.77697081  0.22580734  0.94780282
   0.88893887  0.11154189  0.05665551
   0.77799090  0.55222062  0.95120161
   0.88627432  0.44389675  0.04990937
   0.78040789  0.88881096  0.94676731
   0.89273841  0.77968821  0.04774507
unknown system                          
           1
     8.294195    4.771362    0.000000
    -8.308322    4.795821    0.000000
     0.000000    0.000000   30.000000
   V    Mo   W    S 
   3   3   3  18
Direct configuration=    21
   0.66653008  0.32534895 -0.00022457
   0.33386816  0.65907790  0.00022895
   0.00045379  0.64900120  0.00001852
   0.31755707  0.32442058 -0.00011614
   0.99991562  0.31708659  0.00001055
   0.68224993  0.00609673  0.00014025
  -0.00001617  0.02446855 -0.00000188
   0.34312174  0.01421623 -0.00082962
   0.65589590  0.67102164  0.00077019
   0.11086808  0.22272272  0.94323847
   0.21932538  0.10843645  0.05322665
   0.11398981  0.55741165  0.94989397
   0.22284046  0.44871107  0.05232232
   0.10672139  0.88657431  0.95250344
   0.22206187  0.77414974  0.04873402
   0.45144466  0.22848937  0.94784868
   0.55975429  0.11756320  0.05191528
   0.43997797  0.55780019  0.94796396
   0.55590979  0.44156257  0.04931240
   0.44396681  0.88552709  0.95065891
   0.54833869  0.77687922  0.05230241
   0.77699127  0.22561980  0.94773267
   0.88899052  0.11170750  0.05676431
   0.77790449  0.55219865  0.95137757
   0.88602345  0.44347247  0.05009754
   0.78055987  0.88895551  0.94672576
   0.89296951  0.77969458  0.04738530
unknown system                          
           1
     8.299275    4.774119    0.000000
    -8.314253    4.800056    0.000000
     0.000000    0.000000   30.000000
   V    Mo   W    S 
   3   3   3  18
Direct configuration=    22
   0.66634833  0.32552411 -0.00021598
   0.33401984  0.65943689  0.00022043
   0.00040209  0.64953582  0.00001412
   0.31766895  0.32445269 -0.00010044
   0.99992427  0.31697276  0.00001127
   0.68210376  0.00603196  0.00012421
  -0.00004357  0.02427235 -0.00000394
   0.34303296  0.01382676 -0.00082466
   0.65610782  0.67080713  0.00076781
   0.11088084  0.22268241  0.94326320
   0.21935529  0.10841767  0.05321744
   0.11390663  0.55746210  0.94994718
   0.22285401  0.44876510  0.05230775
   0.10678294  0.88664974  0.95240355
   0.22203336  0.77412788  0.04878302
   0.45138758  0.22836136  0.94787066
   0.55975890  0.11755230  0.05190475
   0.43999293  0.55777955  0.94798508
   0.55592204  0.44151671  0.04938162
   0.44396005  0.88546905  0.95057914
   0.54840491  0.77680775  0.05227804
   0.77698423  0.22567973  0.94775010
   0.88897210  0.11166267  0.05674017
   0.77792069  0.55219389  0.95132437
   0.88609389  0.44359867  0.05004391
   0.78052119  0.88891562  0.94672869
   0.89291842  0.77971179  0.04749840
unknown system                          
           1
     8.294313    4.771338    0.000000
    -8.307787    4.794661    0.000000
     0.000000    0.000000   30.000000
   V    Mo   W    S 
   3   3   3  18
Direct configuration=    23
   0.66620190  0.32525774 -0.00020858
   0.33407361  0.65946342  0.00022725
   0.00011973  0.64946188 -0.00000295
   0.31759204  0.32441935 -0.00008692
   0.99986983  0.31703642  0.00001541
   0.68204356  0.00624508  0.00011803
  -0.00013845  0.02412813 -0.00000389
   0.34330677  0.01393388 -0.00082283
   0.65644024  0.67097432  0.00078350
   0.11085128  0.22266162  0.94327770
   0.21930502  0.10837912  0.05320742
   0.11393394  0.55749975  0.95001250
   0.22289957  0.44883917  0.05225004
   0.10676724  0.88669665  0.95235558
   0.22206080  0.77407672  0.04878765
   0.45149475  0.22836606  0.94790150
   0.55984333  0.11763298  0.05187214
   0.43998631  0.55774981  0.94806661
   0.55595739  0.44144331  0.04936167
   0.44395925  0.88537578  0.95054688
   0.54835977  0.77671580  0.05223119
   0.77694019  0.22578281  0.94779884
   0.88897850  0.11167820  0.05672375
   0.77784615  0.55205035  0.95129698
   0.88600957  0.44358951  0.04998436
   0.78052481  0.88894628  0.94670666
   0.89298735  0.77981032  0.04759940
unknown system                          
           1
     8.298267    4.774456    0.000000
    -8.312828    4.799674    0.000000
     0.000000    0.000000   30.000000
   V    Mo   W    S 
   3   3   3  18
Direct configuration=    24
   0.66716515  0.32479386 -0.00023730
   0.33335255  0.65782016  0.00023966
   0.00069598  0.64761498  0.00004015
   0.31716924  0.32427656 -0.00016669
   0.99991482  0.31747684  0.00001073
   0.68276408  0.00622792  0.00019846
   0.00007302  0.02494505  0.00001271
   0.34312619  0.01541821 -0.00083234
   0.65539523  0.67190980  0.00076614
   0.11083078  0.22282440  0.94315991
   0.21922507  0.10851558  0.05329550
   0.11420862  0.55727354  0.94972050
   0.22279499  0.44853032  0.05239401
   0.10649925  0.88631754  0.95273137
   0.22212472  0.77418626  0.04861417
   0.45160244  0.22886254  0.94778113
   0.55968415  0.11753443  0.05193765
   0.43997488  0.55785903  0.94789584
   0.55590760  0.44172403  0.04909856
   0.44393380  0.88566136  0.95091157