   27   27  100    1
  0.9710400E+02  0.1002848E-08  0.1002848E-08  0.3000000E-08  0.5000000E-15
  1.000000000000000E-004
  CAR 
 unknown system                          
    159     34    120
 
  0.0000000E+00  0.0000000E+00  0.0000000E+00  0.1562500E-01
    1      -17.803407   1.000000
    2      -16.729597   1.000000
    3      -16.679426   1.000000
    4      -16.578425   1.000000
    5      -16.536403   1.000000
    6      -16.461873   1.000000
    7      -16.427460   1.000000
    8      -16.313152   1.000000
    9      -16.157592   1.000000
   10      -16.098512   1.000000
   11      -16.076562   1.000000
   12      -15.947339   1.000000
   13      -15.917172   1.000000
   14      -15.676020   1.000000
   15      -15.590055   1.000000
   16      -15.531095   1.000000
   17      -15.322791   1.000000
   18      -15.258641   1.000000
   19       -9.285424   1.000000
   20       -9.001340   1.000000
   21       -8.925915   1.000000
   22       -8.822205   1.000000
   23       -8.768232   1.000000
   24       -8.706142   1.000000
   25       -8.652098   1.000000
   26       -8.605128   1.000000
   27       -8.556789   1.000000
   28       -8.422381   1.000000
   29       -8.403332   1.000000
   30       -8.349845   1.000000
   31       -8.288813   1.000000
   32       -8.196357   1.000000
   33       -8.118646   1.000000
   34       -8.031322   1.000000
   35       -7.873112   1.000000
   36       -7.769625   1.000000
   37       -7.691352   1.000000
   38       -7.517830   1.000000
   39       -7.501828   1.000000
   40       -7.428439   1.000000
   41       -7.313895   1.000000
   42       -7.209830   1.000000
   43       -7.133633   1.000000
   44       -6.900124   1.000000
   45       -6.811198   1.000000
   46       -6.806856   1.000000
   47       -6.687128   1.000000
   48       -6.643400   1.000000
   49       -6.543863   1.000000
   50       -6.537532   1.000000
   51       -6.484658   1.000000
   52       -6.425283   1.000000
   53       -6.320086   1.000000
   54       -6.222880   1.000000
   55       -6.172669   1.000000
   56       -6.064460   1.000000
   57       -6.036556   1.000000
   58       -5.858147   1.000000
   59       -5.822873   1.000000
   60       -5.575540   1.000000
   61       -5.504557   1.000000
   62       -5.459512   1.000000
   63       -5.255608   1.000000
   64       -5.114990   1.000000
   65       -5.057450   1.000000
   66       -4.996373   1.000000
   67       -4.958505   1.000000
   68       -4.822209   1.000000
   69       -4.789952   1.000000
   70       -4.693792   1.000000
   71       -4.590491   1.000000
   72       -4.567310   1.000000
   73       -4.537793   1.000000
   74       -4.373917   1.000000
   75       -4.158450   1.000000
   76       -4.022181   1.000000
   77       -3.761981   0.998954
   78       -3.629604   0.983857
   79       -3.542309   0.936192
   80       -3.357653   0.586231
   81       -3.263917   0.328176
   82       -2.843032   0.000312
   83       -2.760027   0.000031
   84       -2.547052   0.000000
   85       -2.480309   0.000000
   86       -2.363756   0.000000
   87       -2.313554   0.000000
   88       -2.199983   0.000000
   89       -2.137426   0.000000
   90       -2.035453   0.000000
   91       -1.777218   0.000000
   92       -1.539578   0.000000
   93       -1.496804   0.000000
   94       -1.369075   0.000000
   95       -1.262474   0.000000
   96       -1.013347   0.000000
   97       -0.966388   0.000000
   98       -0.846771   0.000000
   99       -0.823267   0.000000
  100       -0.639583   0.000000
  101       -0.517536   0.000000
  102       -0.470056   0.000000
  103       -0.468078   0.000000
  104       -0.312233   0.000000
  105       -0.283177   0.000000
  106       -0.164372   0.000000
  107       -0.080784   0.000000
  108       -0.046752   0.000000
  109        0.074724   0.000000
  110        0.184018   0.000000
  111        0.369483   0.000000
  112        0.485239   0.000000
  113        0.679798   0.000000
  114        0.818922   0.000000
  115        0.833438   0.000000
  116        1.090369   0.000000
  117        1.302132   0.000000
  118        1.643203   0.000000
  119        1.834020   0.000000
  120        2.148734   0.000000
 
  0.1250000E+00  0.2775558E-16  0.0000000E+00  0.3125000E-01
    1      -17.778099   1.000000
    2      -16.811819   1.000000
    3      -16.707416   1.000000
    4      -16.592723   1.000000
    5      -16.564886   1.000000
    6      -16.451697   1.000000
    7      -16.402842   1.000000
    8      -16.270691   1.000000
    9      -16.174153   1.000000
   10      -16.087451   1.000000
   11      -16.022830   1.000000
   12      -15.948516   1.000000
   13      -15.879280   1.000000
   14      -15.669236   1.000000
   15      -15.600292   1.000000
   16      -15.533032   1.000000
   17      -15.334670   1.000000
   18      -15.264596   1.000000
   19       -9.258618   1.000000
   20       -9.157317   1.000000
   21       -9.017028   1.000000
   22       -8.971611   1.000000
   23       -8.822848   1.000000
   24       -8.705090   1.000000
   25       -8.633409   1.000000
   26       -8.574954   1.000000
   27       -8.493329   1.000000
   28       -8.420556   1.000000
   29       -8.379568   1.000000
   30       -8.318435   1.000000
   31       -8.250408   1.000000
   32       -8.105886   1.000000
   33       -8.042017   1.000000
   34       -7.901361   1.000000
   35       -7.870143   1.000000
   36       -7.726509   1.000000
   37       -7.662768   1.000000
   38       -7.558441   1.000000
   39       -7.449128   1.000000
   40       -7.407208   1.000000
   41       -7.317044   1.000000
   42       -7.255859   1.000000
   43       -7.140288   1.000000
   44       -6.912779   1.000000
   45       -6.880057   1.000000
   46       -6.847427   1.000000
   47       -6.706828   1.000000
   48       -6.649060   1.000000
   49       -6.561761   1.000000
   50       -6.495623   1.000000
   51       -6.472012   1.000000
   52       -6.368182   1.000000
   53       -6.293495   1.000000
   54       -6.234065   1.000000
   55       -6.166121   1.000000
   56       -6.058807   1.000000
   57       -6.000666   1.000000
   58       -5.881308   1.000000
   59       -5.779141   1.000000
   60       -5.584050   1.000000
   61       -5.544256   1.000000
   62       -5.450154   1.000000
   63       -5.382140   1.000000
   64       -5.144902   1.000000
   65       -5.107126   1.000000
   66       -5.020999   1.000000
   67       -4.955187   1.000000
   68       -4.854141   1.000000
   69       -4.748912   1.000000
   70       -4.701681   1.000000
   71       -4.659294   1.000000
   72       -4.511319   1.000000
   73       -4.426349   1.000000
   74       -4.347160   1.000000
   75       -4.120923   1.000000
   76       -4.007238   0.999999
   77       -3.786807   0.999428
   78       -3.702437   0.996045
   79       -3.580932   0.963807
   80       -3.463350   0.832790
   81       -3.098492   0.053189
   82       -2.843471   0.000315
   83       -2.740536   0.000017
   84       -2.553793   0.000000
   85       -2.464935   0.000000
   86       -2.351270   0.000000
   87       -2.300760   0.000000
   88       -2.174807   0.000000
   89       -2.133049   0.000000
   90       -2.021986   0.000000
   91       -1.802263   0.000000
   92       -1.549048   0.000000
   93       -1.481425   0.000000
   94       -1.343840   0.000000
   95       -1.261048   0.000000
   96       -1.014083   0.000000
   97       -0.977590   0.000000
   98       -0.865620   0.000000
   99       -0.811383   0.000000
  100       -0.688703   0.000000
  101       -0.654532   0.000000
  102       -0.541363   0.000000
  103       -0.485158   0.000000
  104       -0.357460   0.000000
  105       -0.312797   0.000000
  106       -0.188352   0.000000
  107       -0.138463   0.000000
  108        0.025129   0.000000
  109        0.113494   0.000000
  110        0.171953   0.000000
  111        0.399896   0.000000
  112        0.457666   0.000000
  113        0.667654   0.000000
  114        0.805871   0.000000
  115        0.877391   0.000000
  116        1.123902   0.000000
  117        1.326917   0.000000
  118        1.686832   0.000000
  119        1.872928   0.000000
  120        2.183921   0.000000
 
  0.2500000E+00  0.5551115E-16  0.0000000E+00  0.3125000E-01
    1      -17.703162   1.000000
    2      -17.007177   1.000000
    3      -16.722155   1.000000
    4      -16.657962   1.000000
    5      -16.590067   1.000000
    6      -16.451190   1.000000
    7      -16.328314   1.000000
    8      -16.218007   1.000000
    9      -16.187728   1.000000
   10      -16.061521   1.000000
   11      -15.981747   1.000000
   12      -15.895285   1.000000
   13      -15.805182   1.000000
   14      -15.657907   1.000000
   15      -15.619097   1.000000
   16      -15.538049   1.000000
   17      -15.363880   1.000000
   18      -15.278263   1.000000
   19       -9.457227   1.000000
   20       -9.211487   1.000000
   21       -9.162431   1.000000
   22       -9.082350   1.000000
   23       -8.858729   1.000000
   24       -8.788230   1.000000
   25       -8.688693   1.000000
   26       -8.513712   1.000000
   27       -8.442234   1.000000
   28       -8.367122   1.000000
   29       -8.333793   1.000000
   30       -8.186039   1.000000
   31       -8.156553   1.000000
   32       -8.088179   1.000000
   33       -7.984433   1.000000
   34       -7.870306   1.000000
   35       -7.765703   1.000000
   36       -7.666466   1.000000
   37       -7.549290   1.000000
   38       -7.474360   1.000000
   39       -7.417563   1.000000
   40       -7.374821   1.000000
   41       -7.314284   1.000000
   42       -7.246583   1.000000
   43       -7.137763   1.000000
   44       -6.947885   1.000000
   45       -6.923331   1.000000
   46       -6.827028   1.000000
   47       -6.730374   1.000000
   48       -6.685717   1.000000
   49       -6.583503   1.000000
   50       -6.501586   1.000000
   51       -6.447115   1.000000
   52       -6.306972   1.000000
   53       -6.241661   1.000000
   54       -6.187259   1.000000
   55       -6.126163   1.000000
   56       -6.045601   1.000000
   57       -5.956204   1.000000
   58       -5.881077   1.000000
   59       -5.791663   1.000000
   60       -5.706883   1.000000
   61       -5.605217   1.000000
   62       -5.588640   1.000000
   63       -5.468045   1.000000
   64       -5.298436   1.000000
   65       -5.168020   1.000000
   66       -5.035136   1.000000
   67       -4.924880   1.000000
   68       -4.857650   1.000000
   69       -4.769081   1.000000
   70       -4.661064   1.000000
   71       -4.626975   1.000000
   72       -4.438974   1.000000
   73       -4.333233   1.000000
   74       -4.272062   1.000000
   75       -4.167326   1.000000
   76       -4.047594   1.000000
   77       -3.937953   0.999992
   78       -3.754373   0.998749
   79       -3.557282   0.948391
   80       -3.412835   0.728424
   81       -2.978040   0.006824
   82       -2.840850   0.000295
   83       -2.696643   0.000004
   84       -2.578717   0.000000
   85       -2.417824   0.000000
   86       -2.338926   0.000000
   87       -2.292714   0.000000
   88       -2.147810   0.000000
   89       -2.054733   0.000000
   90       -1.987575   0.000000
   91       -1.836477   0.000000
   92       -1.573984   0.000000
   93       -1.449961   0.000000
   94       -1.295151   0.000000
   95       -1.261589   0.000000
   96       -1.070296   0.000000
   97       -0.997390   0.000000
   98       -0.911092   0.000000
   99       -0.849508   0.000000
  100       -0.816735   0.000000
  101       -0.741989   0.000000
  102       -0.705505   0.000000
  103       -0.576280   0.000000
  104       -0.408118   0.000000
  105       -0.371686   0.000000
  106       -0.259206   0.000000
  107       -0.178932   0.000000
  108        0.000568   0.000000
  109        0.088883   0.000000
  110        0.190291   0.000000
  111        0.337350   0.000000
  112        0.490731   0.000000
  113        0.713103   0.000000
  114        0.805262   0.000000
  115        0.946223   0.000000
  116        1.196967   0.000000
  117        1.410999   0.000000
  118        1.808698   0.000000
  119        1.984258   0.000000
  120        2.288382   0.000000
 
  0.3750000E+00  0.0000000E+00  0.0000000E+00  0.3125000E-01
    1      -17.581985   1.000000
    2      -17.218734   1.000000
    3      -16.751970   1.000000
    4      -16.679966   1.000000
    5      -16.610368   1.000000
    6      -16.461383   1.000000
    7      -16.266381   1.000000
    8      -16.215348   1.000000
    9      -16.156902   1.000000
   10      -16.063437   1.000000
   11      -15.923352   1.000000
   12      -15.832827   1.000000
   13      -15.771839   1.000000
   14      -15.662092   1.000000
   15      -15.627692   1.000000
   16      -15.530677   1.000000
   17      -15.395939   1.000000
   18      -15.287544   1.000000
   19       -9.674045   1.000000
   20       -9.288515   1.000000
   21       -9.257771   1.000000
   22       -9.014177   1.000000
   23       -8.889570   1.000000
   24       -8.848740   1.000000
   25       -8.672802   1.000000
   26       -8.552367   1.000000
   27       -8.396488   1.000000
   28       -8.307992   1.000000
   29       -8.280885   1.000000
   30       -8.185314   1.000000
   31       -8.093504   1.000000
   32       -8.051914   1.000000
   33       -7.956756   1.000000
   34       -7.890663   1.000000
   35       -7.764490   1.000000
   36       -7.685661   1.000000
   37       -7.537054   1.000000
   38       -7.457497   1.000000
   39       -7.412268   1.000000
   40       -7.303198   1.000000
   41       -7.176107   1.000000
   42       -7.136707   1.000000
   43       -7.027537   1.000000
   44       -6.974716   1.000000
   45       -6.878119   1.000000
   46       -6.802687   1.000000
   47       -6.704343   1.000000
   48       -6.636503   1.000000
   49       -6.552655   1.000000
   50       -6.504290   1.000000
   51       -6.359973   1.000000
   52       -6.342272   1.000000
   53       -6.249423   1.000000
   54       -6.158411   1.000000
   55       -6.077189   1.000000
   56       -6.043353   1.000000
   57       -6.009862   1.000000
   58       -5.930438   1.000000
   59       -5.842675   1.000000
   60       -5.813030   1.000000
   61       -5.717127   1.000000
   62       -5.689266   1.000000
   63       -5.540199   1.000000
   64       -5.324480   1.000000
   65       -5.200136   1.000000
   66       -5.057492   1.000000
   67       -4.964934   1.000000
   68       -4.831542   1.000000
   69       -4.746351   1.000000
   70       -4.709390   1.000000
   71       -4.594785   1.000000
   72       -4.469217   1.000000
   73       -4.371587   1.000000
   74       -4.253088   1.000000
   75       -4.188342   1.000000
   76       -4.055962   1.000000
   77       -3.913104   0.999983
   78       -3.732653   0.997944
   79       -3.569474   0.956888
   80       -3.287111   0.389376
   81       -2.948930   0.003767
   82       -2.802663   0.000105
   83       -2.676164   0.000002
   84       -2.607710   0.000000
   85       -2.378222   0.000000
   86       -2.345985   0.000000
   87       -2.288812   0.000000
   88       -2.096865   0.000000
   89       -2.014548   0.000000
   90       -1.905137   0.000000
   91       -1.825811   0.000000
   92       -1.610796   0.000000
   93       -1.435248   0.000000
   94       -1.270073   0.000000
   95       -1.259767   0.000000
   96       -1.159596   0.000000
   97       -1.089953   0.000000
   98       -1.001965   0.000000
   99       -0.916318   0.000000
  100       -0.851672   0.000000
  101       -0.785837   0.000000
  102       -0.732111   0.000000
  103       -0.629673   0.000000
  104       -0.538437   0.000000
  105       -0.439622   0.000000
  106       -0.278225   0.000000
  107       -0.212287   0.000000
  108       -0.053277   0.000000
  109        0.021527   0.000000
  110        0.122103   0.000000
  111        0.327487   0.000000
  112        0.490061   0.000000
  113        0.795217   0.000000
  114        0.825398   0.000000
  115        1.005813   0.000000
  116        1.261333   0.000000
  117        1.509766   0.000000
  118        1.992096   0.000000
  119        2.157753   0.000000
  120        2.459012   0.000000
 
  0.5000000E+00  0.1110223E-15  0.0000000E+00  0.1562500E-01
    1      -17.442511   1.000000
    2      -17.390639   1.000000
    3      -16.765800   1.000000
    4      -16.685334   1.000000
    5      -16.615608   1.000000
    6      -16.465606   1.000000
    7      -16.259755   1.000000
    8      -16.198522   1.000000
    9      -16.141127   1.000000
   10      -16.073484   1.000000
   11      -15.879267   1.000000
   12      -15.813652   1.000000
   13      -15.770186   1.000000
   14      -15.669395   1.000000
   15      -15.639475   1.000000
   16      -15.514426   1.000000
   17      -15.413429   1.000000
   18      -15.288323   1.000000
   19       -9.751870   1.000000
   20       -9.327838   1.000000
   21       -9.293686   1.000000
   22       -8.979201   1.000000
   23       -8.897502   1.000000
   24       -8.777641   1.000000
   25       -8.714031   1.000000
   26       -8.639591   1.000000
   27       -8.367037   1.000000
   28       -8.262014   1.000000
   29       -8.240546   1.000000
   30       -8.192567   1.000000
   31       -8.068689   1.000000
   32       -8.043501   1.000000
   33       -7.950879   1.000000
   34       -7.903344   1.000000
   35       -7.767139   1.000000
   36       -7.755191   1.000000
   37       -7.568582   1.000000
   38       -7.447094   1.000000
   39       -7.403785   1.000000
   40       -7.317526   1.000000
   41       -7.080743   1.000000
   42       -7.047559   1.000000
   43       -7.000966   1.000000
   44       -6.860498   1.000000
   45       -6.854267   1.000000
   46       -6.723134   1.000000
   47       -6.681390   1.000000
   48       -6.645979   1.000000
   49       -6.590771   1.000000
   50       -6.510385   1.000000
   51       -6.384377   1.000000
   52       -6.354825   1.000000
   53       -6.281835   1.000000
   54       -6.189280   1.000000
   55       -6.105262   1.000000
   56       -6.020752   1.000000
   57       -6.006336   1.000000
   58       -5.956497   1.000000
   59       -5.834524   1.000000
   60       -5.798231   1.000000
   61       -5.722773   1.000000
   62       -5.707463   1.000000
   63       -5.540348   1.000000
   64       -5.330365   1.000000
   65       -5.263321   1.000000
   66       -5.142521   1.000000
   67       -5.043920   1.000000
   68       -4.881059   1.000000
   69       -4.727177   1.000000
   70       -4.615565   1.000000
   71       -4.566656   1.000000
   72       -4.525820   1.000000
   73       -4.411419   1.000000
   74       -4.258603   1.000000
   75       -4.168488   1.000000
   76       -4.013016   0.999999
   77       -3.897543   0.999973
   78       -3.723871   0.997503
   79       -3.578787   0.962585
   80       -3.222646   0.230628
   81       -2.957499   0.004505
   82       -2.758297   0.000029
   83       -2.697538   0.000004
   84       -2.618759   0.000000
   85       -2.370831   0.000000
   86       -2.337216   0.000000
   87       -2.292757   0.000000
   88       -2.070980   0.000000
   89       -1.997647   0.000000
   90       -1.879911   0.000000
   91       -1.784042   0.000000
   92       -1.644384   0.000000
   93       -1.438324   0.000000
   94       -1.276262   0.000000
   95       -1.249809   0.000000
   96       -1.192597   0.000000
   97       -1.143999   0.000000
   98       -1.050312   0.000000
   99       -0.926825   0.000000
  100       -0.867851   0.000000
  101       -0.796190   0.000000
  102       -0.700113   0.000000
  103       -0.664006   0.000000
  104       -0.602171   0.000000
  105       -0.471936   0.000000
  106       -0.282406   0.000000
  107       -0.222175   0.000000
  108       -0.094762   0.000000
  109        0.010330   0.000000
  110        0.077191   0.000000
  111        0.330019   0.000000
  112        0.485181   0.000000
  113        0.825910   0.000000
  114        0.839179   0.000000
  115        1.028611   0.000000
  116        1.286562   0.000000
  117        1.550913   0.000000
  118        2.202361   0.000000
  119        2.254503   0.000000
  120        2.381217   0.000000
 
  0.0000000E+00  0.1250000E+00  0.0000000E+00  0.3125000E-01
    1      -17.778604   1.000000
    2      -16.783558   1.000000
    3      -16.725136   1.000000
    4      -16.625251   1.000000
    5      -16.543114   1.000000
    6      -16.472040   1.000000
    7      -16.388064   1.000000
    8      -16.267843   1.000000
    9      -16.183395   1.000000
   10      -16.070395   1.000000
   11      -16.014408   1.000000
   12      -15.940950   1.000000
   13      -15.894479   1.000000
   14      -15.677172   1.000000
   15      -15.605636   1.000000
   16      -15.527175   1.000000
   17      -15.334241   1.000000
   18      -15.262743   1.000000
   19       -9.278383   1.000000
   20       -9.155243   1.000000
   21       -9.025453   1.000000
   22       -8.943685   1.000000
   23       -8.801752   1.000000
   24       -8.721086   1.000000
   25       -8.646426   1.000000
   26       -8.577553   1.000000
   27       -8.518097   1.000000
   28       -8.407750   1.000000
   29       -8.372698   1.000000
   30       -8.329134   1.000000
   31       -8.226824   1.000000
   32       -8.106035   1.000000
   33       -8.006273   1.000000
   34       -7.940934   1.000000
   35       -7.825854   1.000000
   36       -7.756529   1.000000
   37       -7.618442   1.000000
   38       -7.588321   1.000000
   39       -7.494189   1.000000
   40       -7.430601   1.000000
   41       -7.272794   1.000000
   42       -7.217691   1.000000
   43       -7.150617   1.000000
   44       -6.956704   1.000000
   45       -6.886617   1.000000
   46       -6.782705   1.000000
   47       -6.693847   1.000000
   48       -6.634114   1.000000
   49       -6.583521   1.000000
   50       -6.537048   1.000000
   51       -6.466620   1.000000
   52       -6.393886   1.000000
   53       -6.281827   1.000000
   54       -6.233113   1.000000
   55       -6.191892   1.000000
   56       -6.090968   1.000000
   57       -5.986804   1.000000
   58       -5.856240   1.000000
   59       -5.772849   1.000000
   60       -5.559436   1.000000
   61       -5.536388   1.000000
   62       -5.464234   1.000000
   63       -5.322213   1.000000
   64       -5.196322   1.000000
   65       -5.144115   1.000000
   66       -5.064676   1.000000
   67       -4.927223   1.000000
   68       -4.868228   1.000000
   69       -4.791005   1.000000
   70       -4.673322   1.000000
   71       -4.608758   1.000000
   72       -4.520475   1.000000
   73       -4.413987   1.000000
   74       -4.302957   1.000000
   75       -4.135813   1.000000
   76       -4.008437   0.999999
   77       -3.787061   0.999431
   78       -3.741853   0.998330
   79       -3.524953   0.919370
   80       -3.458739   0.824498
   81       -3.121344   0.073098
   82       -2.844130   0.000321
   83       -2.738810   0.000016
   84       -2.571389   0.000000
   85       -2.451320   0.000000
   86       -2.380279   0.000000
   87       -2.294895   0.000000
   88       -2.165830   0.000000
   89       -2.137174   0.000000
   90       -2.007154   0.000000
   91       -1.793790   0.000000
   92       -1.532990   0.000000
   93       -1.497858   0.000000
   94       -1.363852   0.000000
   95       -1.262885   0.000000
   96       -1.015862   0.000000
   97       -0.966584   0.000000
   98       -0.881631   0.000000
   99       -0.826364   0.000000
  100       -0.719649   0.000000
  101       -0.613441   0.000000
  102       -0.529814   0.000000
  103       -0.459598   0.000000
  104       -0.340363   0.000000
  105       -0.309493   0.000000
  106       -0.212258   0.000000
  107       -0.126340   0.000000
  108       -0.052581   0.000000
  109        0.082756   0.000000
  110        0.138213   0.000000
  111        0.414132   0.000000
  112        0.553365   0.000000
  113        0.717771   0.000000
  114        0.822732   0.000000
  115        0.885078   0.000000
  116        1.107343   0.000000
  117        1.273184   0.000000
  118        1.688010   0.000000
  119        1.872603   0.000000
  120        2.183945   0.000000
 
  0.1250000E+00  0.1250000E+00  0.0000000E+00  0.3125000E-01
    1      -17.728638   1.000000
    2      -16.922302   1.000000
    3      -16.762182   1.000000
    4      -16.675201   1.000000
    5      -16.528335   1.000000
    6      -16.433749   1.000000
    7      -16.377270   1.000000
    8      -16.214113   1.000000
    9      -16.203454   1.000000
   10      -16.069839   1.000000
   11      -15.984424   1.000000
   12      -15.906973   1.000000
   13      -15.824082   1.000000
   14      -15.669331   1.000000
   15      -15.612179   1.000000
   16      -15.525475   1.000000
   17      -15.365516   1.000000
   18      -15.271420   1.000000
   19       -9.363573   1.000000
   20       -9.259605   1.000000
   21       -9.157604   1.000000
   22       -9.019670   1.000000
   23       -8.875626   1.000000
   24       -8.729525   1.000000
   25       -8.620458   1.000000
   26       -8.538952   1.000000
   27       -8.498098   1.000000
   28       -8.373933   1.000000
   29       -8.342279   1.000000
   30       -8.283587   1.000000
   31       -8.179231   1.000000
   32       -8.082897   1.000000
   33       -8.002514   1.000000
   34       -7.838559   1.000000
   35       -7.726816   1.000000
   36       -7.650876   1.000000
   37       -7.625628   1.000000
   38       -7.501410   1.000000
   39       -7.445599   1.000000
   40       -7.340473   1.000000
   41       -7.281970   1.000000
   42       -7.238989   1.000000
   43       -7.180281   1.000000
   44       -7.002102   1.000000
   45       -6.938319   1.000000
   46       -6.827622   1.000000
   47       -6.714914   1.000000
   48       -6.659248   1.000000
   49       -6.591177   1.000000
   50       -6.535602   1.000000
   51       -6.452538   1.000000
   52       -6.321320   1.000000
   53       -6.232263   1.000000
   54       -6.204278   1.000000
   55       -6.194163   1.000000
   56       -6.046570   1.000000
   57       -5.954828   1.000000
   58       -5.868387   1.000000
   59       -5.732210   1.000000
   60       -5.682397   1.000000
   61       -5.542049   1.000000
   62       -5.473525   1.000000
   63       -5.435100   1.000000
   64       -5.366181   1.000000
   65       -5.165212   1.000000
   66       -5.089785   1.000000
   67       -4.954056   1.000000
   68       -4.880986   1.000000
   69       -4.791668   1.000000
   70       -4.645229   1.000000
   71       -4.606746   1.000000
   72       -4.427456   1.000000
   73       -4.305656   1.000000
   74       -4.262333   1.000000
   75       -4.102435   1.000000
   76       -4.085012   1.000000
   77       -3.930219   0.999990
   78       -3.734585   0.998032
   79       -3.548337   0.941349
   80       -3.430025   0.767185
   81       -2.994314   0.009353
   82       -2.859079   0.000471
   83       -2.716342   0.000008
   84       -2.590763   0.000000
   85       -2.427278   0.000000
   86       -2.382745   0.000000
   87       -2.289535   0.000000
   88       -2.167029   0.000000
   89       -2.060918   0.000000
   90       -1.991296   0.000000
   91       -1.837353   0.000000
   92       -1.542717   0.000000
   93       -1.478154   0.000000
   94       -1.310863   0.000000
   95       -1.264997   0.000000
   96       -1.042761   0.000000
   97       -0.995229   0.000000
   98       -0.886065   0.000000
   99       -0.832404   0.000000
  100       -0.780827   0.000000
  101       -0.771003   0.000000
  102       -0.635186   0.000000
  103       -0.516598   0.000000
  104       -0.414238   0.000000
  105       -0.322225   0.000000
  106       -0.235389   0.000000
  107       -0.169857   0.000000
  108       -0.028212   0.000000
  109        0.028819   0.000000
  110        0.120355   0.000000
  111        0.473672   0.000000
  112        0.491089   0.000000
  113        0.721056   0.000000
  114        0.816369   0.000000
  115        0.955236   0.000000
  116        1.184204   0.000000
  117        1.341506   0.000000
  118        1.773084   0.000000
  119        1.945394   0.000000
  120        2.254104   0.000000
 
  0.2500000E+00  0.1250000E+00  0.0000000E+00  0.3125000E-01
    1      -17.630830   1.000000
    2      -17.107619   1.000000
    3      -16.865470   1.000000
    4      -16.665661   1.000000
    5      -16.505023   1.000000
    6      -16.439547   1.000000
    7      -16.303066   1.000000
    8      -16.224772   1.000000
    9      -16.173497   1.000000
   10      -16.058205   1.000000
   11      -15.973953   1.000000
   12      -15.868375   1.000000
   13      -15.738814   1.000000
   14      -15.678859   1.000000
   15      -15.595516   1.000000
   16      -15.532044   1.000000
   17      -15.407557   1.000000
   18      -15.277478   1.000000
   19       -9.570215   1.000000
   20       -9.409186   1.000000
   21       -9.212335   1.000000
   22       -9.045973   1.000000
   23       -8.837139   1.000000
   24       -8.757134   1.000000
   25       -8.635367   1.000000
   26       -8.514731   1.000000
   27       -8.427037   1.000000
   28       -8.335375   1.000000
   29       -8.298635   1.000000
   30       -8.194723   1.000000
   31       -8.159131   1.000000
   32       -8.084077   1.000000
   33       -7.996682   1.000000
   34       -7.901225   1.000000
   35       -7.789112   1.000000
   36       -7.620364   1.000000
   37       -7.502718   1.000000
   38       -7.435259   1.000000
   39       -7.377802   1.000000
   40       -7.305586   1.000000
   41       -7.220886   1.000000
   42       -7.180996   1.000000
   43       -7.121068   1.000000
   44       -7.005866   1.000000
   45       -6.876219   1.000000
   46       -6.745350   1.000000
   47       -6.721963   1.000000