<?xml version="1.0" encoding="ISO-8859-1"?>
<modeling>
 <generator>
  <i name="program" type="string">vasp </i>
  <i name="version" type="string">5.4.1  </i>
  <i name="subversion" type="string">05Feb16 (build Jul 05 2020 17:13:04) complex                          parallel </i>
  <i name="platform" type="string">IFC91_ompi </i>
  <i name="date" type="string">2024 04 23 </i>
  <i name="time" type="string">00:56:31 </i>
 </generator>
 <incar>
  <i type="int" name="ISTART">     0</i>
  <i type="string" name="PREC">normal</i>
  <i type="string" name="ALGO"> Normal</i>
  <i type="int" name="ISPIN">     1</i>
  <i type="int" name="ICHARG">     2</i>
  <i type="int" name="IBRION">     1</i>
  <i type="int" name="NSW">   100</i>
  <i type="int" name="ISIF">     3</i>
  <i type="int" name="ISYM">     0</i>
  <i name="SYMPREC">      0.00000001</i>
  <i name="POTIM">      0.50000000</i>
  <i type="logical" name="LREAL"> F  </i>
  <i type="logical" name="LPLANE"> F  </i>
  <i type="int" name="ISMEAR">     0</i>
  <i type="logical" name="LWAVE"> F  </i>
  <i type="logical" name="LCHARG"> F  </i>
  <v type="int" name="KPOINT_BSE">    -1     0     0     0</v>
 </incar>
 <kpoints>
  <generation param="Gamma">
   <v type="int" name="divisions">       8        8        1 </v>
   <v name="usershift">      0.00000000       0.00000000       0.00000000 </v>
   <v name="genvec1">      0.12500000       0.00000000       0.00000000 </v>
   <v name="genvec2">     -0.00000000       0.12500000       0.00000000 </v>
   <v name="genvec3">      0.00000000       0.00000000       1.00000000 </v>
   <v name="shift">      0.00000000       0.00000000       0.00000000 </v>
  </generation>
  <varray name="kpointlist" >
   <v>       0.00000000       0.00000000       0.00000000 </v>
   <v>       0.12500000       0.00000000       0.00000000 </v>
   <v>       0.25000000       0.00000000       0.00000000 </v>
   <v>       0.37500000       0.00000000       0.00000000 </v>
   <v>       0.50000000       0.00000000       0.00000000 </v>
   <v>       0.00000000       0.12500000       0.00000000 </v>
   <v>       0.12500000       0.12500000       0.00000000 </v>
   <v>       0.25000000       0.12500000       0.00000000 </v>
   <v>       0.37500000       0.12500000       0.00000000 </v>
   <v>       0.50000000       0.12500000       0.00000000 </v>
   <v>      -0.37500000       0.12500000       0.00000000 </v>
   <v>      -0.25000000       0.12500000       0.00000000 </v>
   <v>      -0.12500000       0.12500000       0.00000000 </v>
   <v>       0.00000000       0.25000000       0.00000000 </v>
   <v>       0.12500000       0.25000000       0.00000000 </v>
   <v>       0.25000000       0.25000000       0.00000000 </v>
   <v>       0.37500000       0.25000000       0.00000000 </v>
   <v>       0.50000000       0.25000000       0.00000000 </v>
   <v>      -0.37500000       0.25000000       0.00000000 </v>
   <v>      -0.25000000       0.25000000       0.00000000 </v>
   <v>      -0.12500000       0.25000000       0.00000000 </v>
   <v>      -0.00000000       0.37500000       0.00000000 </v>
   <v>       0.12500000       0.37500000       0.00000000 </v>
   <v>       0.25000000       0.37500000       0.00000000 </v>
   <v>       0.37500000       0.37500000       0.00000000 </v>
   <v>       0.50000000       0.37500000       0.00000000 </v>
   <v>      -0.37500000       0.37500000       0.00000000 </v>
   <v>      -0.25000000       0.37500000       0.00000000 </v>
   <v>      -0.12500000       0.37500000       0.00000000 </v>
   <v>       0.00000000       0.50000000       0.00000000 </v>
   <v>       0.12500000       0.50000000       0.00000000 </v>
   <v>       0.25000000       0.50000000       0.00000000 </v>
   <v>       0.37500000       0.50000000       0.00000000 </v>
   <v>       0.50000000       0.50000000       0.00000000 </v>
  </varray>
  <varray name="weights" >
   <v>       0.01562500 </v>
   <v>       0.03125000 </v>
   <v>       0.03125000 </v>
   <v>       0.03125000 </v>
   <v>       0.01562500 </v>
   <v>       0.03125000 </v>
   <v>       0.03125000 </v>
   <v>       0.03125000 </v>
   <v>       0.03125000 </v>
   <v>       0.03125000 </v>
   <v>       0.03125000 </v>
   <v>       0.03125000 </v>
   <v>       0.03125000 </v>
   <v>       0.03125000 </v>
   <v>       0.03125000 </v>
   <v>       0.03125000 </v>
   <v>       0.03125000 </v>
   <v>       0.03125000 </v>
   <v>       0.03125000 </v>
   <v>       0.03125000 </v>
   <v>       0.03125000 </v>
   <v>       0.03125000 </v>
   <v>       0.03125000 </v>
   <v>       0.03125000 </v>
   <v>       0.03125000 </v>
   <v>       0.03125000 </v>
   <v>       0.03125000 </v>
   <v>       0.03125000 </v>
   <v>       0.03125000 </v>
   <v>       0.01562500 </v>
   <v>       0.03125000 </v>
   <v>       0.03125000 </v>
   <v>       0.03125000 </v>
   <v>       0.01562500 </v>
  </varray>
 </kpoints>
 <parameters>
  <separator name="general" >
   <i type="string" name="SYSTEM">unknown system</i>
   <i type="logical" name="LCOMPAT"> F  </i>
  </separator>
  <separator name="electronic" >
   <i type="string" name="PREC">normal</i>
   <i name="ENMAX">    280.00000000</i>
   <i name="ENAUG">    373.43800000</i>
   <i name="EDIFF">      0.00010000</i>
   <i type="int" name="IALGO">    38</i>
   <i type="int" name="IWAVPR">    11</i>
   <i type="int" name="NBANDS">   120</i>
   <i name="NELECT">    159.00000000</i>
   <i type="int" name="TURBO">     0</i>
   <i type="int" name="IRESTART">     0</i>
   <i type="int" name="NREBOOT">     0</i>
   <i type="int" name="NMIN">     0</i>
   <i name="EREF">      0.00000000</i>
   <separator name="electronic smearing" >
    <i type="int" name="ISMEAR">     0</i>
    <i name="SIGMA">      0.20000000</i>
    <i name="KSPACING">      0.50000000</i>
    <i type="logical" name="KGAMMA"> T  </i>
   </separator>
   <separator name="electronic projectors" >
    <i type="logical" name="LREAL"> F  </i>
    <v name="ROPT">      0.00000000      0.00000000      0.00000000      0.00000000</v>
    <i type="int" name="LMAXPAW">  -100</i>
    <i type="int" name="LMAXMIX">     2</i>
    <i type="logical" name="NLSPLINE"> F  </i>
   </separator>
   <separator name="electronic startup" >
    <i type="int" name="ISTART">     0</i>
    <i type="int" name="ICHARG">     2</i>
    <i type="int" name="INIWAV">     1</i>
   </separator>
   <separator name="electronic spin" >
    <i type="int" name="ISPIN">     1</i>
    <i type="logical" name="LNONCOLLINEAR"> F  </i>
    <v name="MAGMOM">      1.00000000      1.00000000      1.00000000      1.00000000      1.00000000      1.00000000      1.00000000      1.00000000      1.00000000      1.00000000      1.00000000      1.00000000      1.00000000      1.00000000      1.00000000      1.00000000      1.00000000      1.00000000      1.00000000      1.00000000
      1.00000000      1.00000000      1.00000000      1.00000000      1.00000000      1.00000000      1.00000000</v>
    <i name="NUPDOWN">     -1.00000000</i>
    <i type="logical" name="LSORBIT"> F  </i>
    <v name="SAXIS">      0.00000000      0.00000000      1.00000000</v>
    <i type="logical" name="LSPIRAL"> F  </i>
    <v name="QSPIRAL">      0.00000000      0.00000000      0.00000000</v>
    <i type="logical" name="LZEROZ"> F  </i>
   </separator>
   <separator name="electronic exchange-correlation" >
    <i type="logical" name="LASPH"> F  </i>
    <i type="logical" name="LMETAGGA"> F  </i>
   </separator>
   <separator name="electronic convergence" >
    <i type="int" name="NELM">    60</i>
    <i type="int" name="NELMDL">    -5</i>
    <i type="int" name="NELMIN">     2</i>
    <i name="ENINI">    280.00000000</i>
    <separator name="electronic convergence detail" >
     <i type="logical" name="LDIAG"> T  </i>
     <i type="logical" name="LSUBROT"> F  </i>
     <i name="WEIMIN">      0.00100000</i>
     <i name="EBREAK">      0.00000021</i>
     <i name="DEPER">      0.30000000</i>
     <i type="int" name="NRMM">     4</i>
     <i name="TIME">      0.40000000</i>
    </separator>
   </separator>
   <separator name="electronic mixer" >
    <i name="AMIX">      0.40000000</i>
    <i name="BMIX">      1.00000000</i>
    <i name="AMIN">      0.10000000</i>
    <i name="AMIX_MAG">      1.60000000</i>
    <i name="BMIX_MAG">      1.00000000</i>
    <separator name="electronic mixer details" >
     <i type="int" name="IMIX">     4</i>
     <i type="logical" name="MIXFIRST"> F  </i>
     <i type="int" name="MAXMIX">   -45</i>
     <i name="WC">    100.00000000</i>
     <i type="int" name="INIMIX">     1</i>
     <i type="int" name="MIXPRE">     1</i>
     <i type="int" name="MREMOVE">     5</i>
    </separator>
   </separator>
   <separator name="electronic dipolcorrection" >
    <i type="logical" name="LDIPOL"> F  </i>
    <i type="logical" name="LMONO"> F  </i>
    <i type="int" name="IDIPOL">     0</i>
    <i name="EPSILON">      1.00000000</i>
    <v name="DIPOL">   -100.00000000   -100.00000000   -100.00000000</v>
    <i name="EFIELD">      0.00000000</i>
   </separator>
  </separator>
  <separator name="grids" >
   <i type="int" name="NGX">    42</i>
   <i type="int" name="NGY">    42</i>
   <i type="int" name="NGZ">   126</i>
   <i type="int" name="NGXF">    84</i>
   <i type="int" name="NGYF">    84</i>
   <i type="int" name="NGZF">   252</i>
   <i type="logical" name="ADDGRID"> F  </i>
  </separator>
  <separator name="ionic" >
   <i type="int" name="NSW">   100</i>
   <i type="int" name="IBRION">     1</i>
   <i type="int" name="ISIF">     3</i>
   <i name="PSTRESS">      0.00000000</i>
   <i name="EDIFFG">      0.00100000</i>
   <i type="int" name="NFREE">     0</i>
   <i name="POTIM">      0.50000000</i>
   <i name="SMASS">     -3.00000000</i>
   <i name="SCALEE">      1.00000000</i>
  </separator>
  <separator name="ionic md" >
   <i name="TEBEG">      0.00010000</i>
   <i name="TEEND">      0.00010000</i>
   <i type="int" name="NBLOCK">     1</i>
   <i type="int" name="KBLOCK">   100</i>
   <i type="int" name="NPACO">   256</i>
   <i name="APACO">     16.00000000</i>
  </separator>
  <separator name="symmetry" >
   <i type="int" name="ISYM">     0</i>
   <i name="SYMPREC">      0.00000001</i>
  </separator>
  <separator name="dos" >
   <i type="logical" name="LORBIT"> F  </i>
   <v name="RWIGS">     -1.00000000     -1.00000000     -1.00000000     -1.00000000</v>
   <i type="int" name="NEDOS">   301</i>
   <i name="EMIN">     10.00000000</i>
   <i name="EMAX">    -10.00000000</i>
   <i name="EFERMI">      0.00000000</i>
  </separator>
  <separator name="writing" >
   <i type="int" name="NWRITE">     2</i>
   <i type="logical" name="LWAVE"> F  </i>
   <i type="logical" name="LCHARG"> F  </i>
   <i type="logical" name="LPARD"> F  </i>
   <i type="logical" name="LVTOT"> F  </i>
   <i type="logical" name="LVHAR"> F  </i>
   <i type="logical" name="LELF"> F  </i>
   <i type="logical" name="LOPTICS"> F  </i>
   <v name="STM">      0.00000000      0.00000000      0.00000000      0.00000000      0.00000000      0.00000000      0.00000000</v>
  </separator>
  <separator name="performance" >
   <i type="int" name="NPAR">    40</i>
   <i type="int" name="NSIM">     4</i>
   <i type="int" name="NBLK">    -1</i>
   <i type="logical" name="LPLANE"> F  </i>
   <i type="logical" name="LSCALAPACK"> T  </i>
   <i type="logical" name="LSCAAWARE"> F  </i>
   <i type="logical" name="LSCALU"> F  </i>
   <i type="logical" name="LASYNC"> F  </i>
   <i type="logical" name="LORBITALREAL"> F  </i>
  </separator>
  <separator name="miscellaneous" >
   <i type="int" name="IDIOT">     3</i>
   <i type="logical" name="LMUSIC"> F  </i>
   <v name="POMASS">     50.94100000     95.94000000    183.85000000     32.06600000</v>
   <v name="DARWINR">      0.00000000      0.00000000      0.00000000      0.00000000</v>
   <v name="DARWINV">      1.00000000      1.00000000      1.00000000      1.00000000</v>
   <i type="logical" name="LCORR"> T  </i>
  </separator>
  <i type="logical" name="GGA_COMPAT"> T  </i>
  <i type="logical" name="LBERRY"> F  </i>
  <i type="int" name="ICORELEVEL">     0</i>
  <i type="logical" name="LDAU"> F  </i>
  <i type="int" name="I_CONSTRAINED_M">     0</i>
  <separator name="electronic exchange-correlation" >
   <i type="string" name="GGA">--</i>
   <i type="int" name="VOSKOWN">     0</i>
   <i type="logical" name="LHFCALC"> F  </i>
   <i type="string" name="PRECFOCK"></i>
   <i type="logical" name="LSYMGRAD"> F  </i>
   <i type="logical" name="LHFONE"> F  </i>
   <i type="logical" name="LRHFCALC"> F  </i>
   <i type="logical" name="LTHOMAS"> F  </i>
   <i type="logical" name="LMODELHF"> F  </i>
   <i name="ENCUT4O">     -1.00000000</i>
   <i type="int" name="EXXOEP">     0</i>
   <i type="int" name="FOURORBIT">     0</i>
   <i name="AEXX">      0.00000000</i>
   <i name="HFALPHA">      0.00000000</i>
   <i name="MCALPHA">      0.00000000</i>
   <i name="ALDAX">      1.00000000</i>
   <i name="AGGAX">      1.00000000</i>
   <i name="ALDAC">      1.00000000</i>
   <i name="AGGAC">      1.00000000</i>
   <i type="int" name="NKREDX">     1</i>
   <i type="int" name="NKREDY">     1</i>
   <i type="int" name="NKREDZ">     1</i>
   <i type="logical" name="SHIFTRED"> F  </i>
   <i type="logical" name="ODDONLY"> F  </i>
   <i type="logical" name="EVENONLY"> F  </i>
   <i type="int" name="LMAXFOCK">     0</i>
   <i type="int" name="NMAXFOCKAE">     0</i>
   <i type="logical" name="LFOCKAEDFT"> F  </i>
   <i name="HFSCREEN">      0.00000000</i>
   <i name="HFSCREENC">      0.00000000</i>
   <i type="int" name="NBANDSGWLOW">     0</i>
  </separator>
  <separator name="vdW DFT" >
   <i type="logical" name="LUSE_VDW"> F  </i>
   <i name="Zab_VDW">     -0.84910000</i>
   <i name="PARAM1">      0.12340000</i>
   <i name="PARAM2">      1.00000000</i>
   <i name="PARAM3">      0.00000000</i>
  </separator>
  <separator name="model GW" >
   <i type="int" name="MODEL_GW">     0</i>
   <i name="MODEL_EPS0">     58.26239943</i>
   <i name="MODEL_ALPHA">      1.00000000</i>
  </separator>
  <separator name="linear response parameters" >
   <i type="logical" name="LEPSILON"> F  </i>
   <i type="logical" name="LRPA"> F  </i>
   <i type="logical" name="LNABLA"> F  </i>
   <i type="logical" name="LVEL"> F  </i>
   <i type="int" name="KINTER">     0</i>
   <i name="CSHIFT">      0.10000000</i>
   <i name="OMEGAMAX">     -1.00000000</i>
   <i name="DEG_THRESHOLD">      0.00200000</i>
  </separator>
  <separator name="orbital magnetization" >
   <i type="logical" name="NUCIND"> F  </i>
   <v name="MAGPOS">      0.00000000      0.00000000      0.00000000</v>
   <i type="logical" name="LNICSALL"> T  </i>
   <i type="logical" name="ORBITALMAG"> F  </i>
   <i type="logical" name="LMAGBLOCH"> F  </i>
   <i type="logical" name="LCHIMAG"> F  </i>
   <i type="logical" name="LGAUGE"> T  </i>
   <i type="int" name="MAGATOM">     0</i>
   <v name="MAGDIPOL">      0.00000000      0.00000000      0.00000000</v>
   <v name="AVECCONST">      0.00000000      0.00000000      0.00000000</v>
  </separator>
  <separator name="response functions" >
   <i type="logical" name="LADDER"> F  </i>
   <i type="logical" name="LFXC"> F  </i>
   <i type="logical" name="LHARTREE"> T  </i>
   <i type="int" name="IBSE">     0</i>
   <v type="int" name="KPOINT">    -1     0     0     0</v>
   <i type="logical" name="LTCTE"> F  </i>
   <i type="logical" name="LTETE"> F  </i>
   <i type="logical" name="LTRIPLET"> F  </i>
   <i type="logical" name="LFXCEPS"> F  </i>
   <i type="logical" name="LFXHEG"> F  </i>
   <i type="int" name="NATURALO">     0</i>
   <i type="logical" name="L2ORDER"> F  </i>
   <i type="logical" name="LUSEW"> F  </i>
   <i name="ENCUTGW">     -2.00000000</i>
   <i name="ENCUTGWSOFT">     -2.00000000</i>
   <i name="ENCUTLF">     -1.00000000</i>
   <i type="int" name="LMAXMP2">    -1</i>
   <i name="SCISSOR">      0.00000000</i>
   <i type="int" name="NOMEGA">     0</i>
   <i type="int" name="NOMEGAR">     0</i>
   <i type="int" name="NBANDSGW">    -1</i>
   <i type="int" name="NBANDSO">    -1</i>
   <i type="int" name="NBANDSV">    -1</i>
   <i type="int" name="NELM">     1</i>
   <i type="int" name="NELMHF">     1</i>
   <i type="int" name="DIM">     3</i>
   <i type="int" name="ANTIRES">     0</i>
   <i name="OMEGAMAX">    -30.00000000</i>
   <i name="OMEGAMIN">    -30.00000000</i>
   <i name="OMEGATL">   -200.00000000</i>
   <i type="int" name="OMEGAGRID">     0</i>
   <i name="CSHIFT">     -0.10000000</i>
   <i type="logical" name="SELFENERGY"> F  </i>
   <i type="logical" name="LSPECTRAL"> F  </i>
   <i type="logical" name="LSPECTRALGW"> F  </i>
   <i type="logical" name="LSINGLES"> F  </i>
   <i type="logical" name="LFERMIGW"> F  </i>
   <i type="logical" name="ODDONLYGW"> F  </i>
   <i type="logical" name="EVENONLYGW"> F  </i>
   <i type="int" name="NKREDLFX">     1</i>
   <i type="int" name="NKREDLFY">     1</i>
   <i type="int" name="NKREDLFZ">     1</i>
   <i type="int" name="MAXMEM">  1800</i>
   <i type="int" name="TELESCOPE">     0</i>
   <i type="int" name="TAUPAR">     1</i>
   <i type="int" name="OMEGAPAR">    -1</i>
   <i name="LAMBDA">      1.00000000</i>
  </separator>
  <separator name="External order field" >
   <i name="OFIELD_KAPPA">      0.00000000</i>
   <v name="OFIELD_K">      0.00000000      0.00000000      0.00000000</v>
   <i name="OFIELD_Q6_NEAR">      0.00000000</i>
   <i name="OFIELD_Q6_FAR">      0.00000000</i>
   <i name="OFIELD_A">      0.00000000</i>
  </separator>
 </parameters>
 <atominfo>
  <atoms>      27 </atoms>
  <types>       4 </types>
  <array name="atoms" >
   <dimension dim="1">ion</dimension>
   <field type="string">element</field>
   <field type="int">atomtype</field>
   <set>
    <rc><c>V </c><c>   1</c></rc>
    <rc><c>V </c><c>   1</c></rc>
    <rc><c>V </c><c>   1</c></rc>
    <rc><c>Mo</c><c>   2</c></rc>
    <rc><c>Mo</c><c>   2</c></rc>
    <rc><c>Mo</c><c>   2</c></rc>
    <rc><c>W </c><c>   3</c></rc>
    <rc><c>W </c><c>   3</c></rc>
    <rc><c>W </c><c>   3</c></rc>
    <rc><c>S </c><c>   4</c></rc>
    <rc><c>S </c><c>   4</c></rc>
    <rc><c>S </c><c>   4</c></rc>
    <rc><c>S </c><c>   4</c></rc>
    <rc><c>S </c><c>   4</c></rc>
    <rc><c>S </c><c>   4</c></rc>
    <rc><c>S </c><c>   4</c></rc>
    <rc><c>S </c><c>   4</c></rc>
    <rc><c>S </c><c>   4</c></rc>
    <rc><c>S </c><c>   4</c></rc>
    <rc><c>S </c><c>   4</c></rc>
    <rc><c>S </c><c>   4</c></rc>
    <rc><c>S </c><c>   4</c></rc>
    <rc><c>S </c><c>   4</c></rc>
    <rc><c>S </c><c>   4</c></rc>
    <rc><c>S </c><c>   4</c></rc>
    <rc><c>S </c><c>   4</c></rc>
    <rc><c>S </c><c>   4</c></rc>
   </set>
  </array>
  <array name="atomtypes" >
   <dimension dim="1">type</dimension>
   <field type="int">atomspertype</field>
   <field type="string">element</field>
   <field>mass</field>
   <field>valence</field>
   <field type="string">pseudopotential</field>
   <set>
    <rc><c>   3</c><c>V </c><c>     50.94100000</c><c>      5.00000000</c><c> PAW_PBE V 08Apr2002                    </c></rc>
    <rc><c>   3</c><c>Mo</c><c>     95.94000000</c><c>      6.00000000</c><c> PAW_PBE Mo 08Apr2002                   </c></rc>
    <rc><c>   3</c><c>W </c><c>    183.85000000</c><c>      6.00000000</c><c> PAW_PBE W 08Apr2002                    </c></rc>
    <rc><c>  18</c><c>S </c><c>     32.06600000</c><c>      6.00000000</c><c>  PAW_PBE S 17Jan2003                   </c></rc>
   </set>
  </array>
 </atominfo>
 <structure name="initialpos" >
  <crystal>
   <varray name="basis" >
    <v>       8.66999996       5.03999989       0.00000000 </v>
    <v>      -8.66999982       5.04000013       0.00000000 </v>
    <v>       0.00000000       0.00000000      30.00000000 </v>
   </varray>
   <i name="volume">   2621.80797419 </i>
   <varray name="rec_basis" >
    <v>       0.05767013       0.09920635       0.00000000 </v>
    <v>      -0.05767013       0.09920635       0.00000000 </v>
    <v>       0.00000000       0.00000000       0.03333333 </v>
   </varray>
  </crystal>
  <varray name="positions" >
   <v>       0.66666669       0.00000000       0.00000000 </v>
   <v>       0.33333334       0.66666669       0.00000000 </v>
   <v>       0.33333334       0.00000000       0.00000000 </v>
   <v>       0.33333334       0.33333334       0.00000000 </v>
   <v>       0.00000000       0.00000000       0.00000000 </v>
   <v>       0.66666669       0.33333334       0.00000000 </v>
   <v>       1.00000000       0.33333334       0.00000000 </v>
   <v>       0.00000000       0.66666669       0.00000000 </v>
   <v>       0.66666669       0.66666669       0.00000000 </v>
   <v>       0.11068511       0.22244981       0.95539999 </v>
   <v>       0.22244981       0.11068511       0.04460000 </v>
   <v>       0.11068511       0.55578315       0.95539999 </v>
   <v>       0.22244981       0.44401845       0.04460000 </v>
   <v>       0.11068511       0.88911647       0.95539999 </v>
   <v>       0.22244981       0.77735180       0.04460000 </v>
   <v>       0.44401845       0.22244981       0.95539999 </v>
   <v>       0.55578315       0.11068511       0.04460000 </v>
   <v>       0.44401845       0.55578315       0.95539999 </v>
   <v>       0.55578315       0.44401845       0.04460000 </v>
   <v>       0.44401845       0.88911647       0.95539999 </v>
   <v>       0.55578315       0.77735180       0.04460000 </v>
   <v>       0.77735180       0.22244981       0.95539999 </v>
   <v>       0.88911647       0.11068511       0.04460000 </v>
   <v>       0.77735180       0.55578315       0.95539999 </v>
   <v>       0.88911647       0.44401845       0.04460000 </v>
   <v>       0.77735180       0.88911647       0.95539999 </v>
   <v>       0.88911647       0.77735180       0.04460000 </v>
  </varray>
 </structure>
 <calculation>
  <scstep>
   <time name="dav">   21.71   21.76</time>
   <time name="total">   21.75   21.81</time>
   <energy>
    <i name="alphaZ">     81.65567618 </i>
    <i name="ewald">  41891.17178115 </i>
    <i name="hartreedc"> -47723.81646491 </i>
    <i name="XCdc">   -242.92503243 </i>
    <i name="pawpsdc">   3467.42045192 </i>
    <i name="pawaedc">  -2871.19716117 </i>
    <i name="eentropy">     -0.54274669 </i>
    <i name="bandstr">   -238.58504795 </i>
    <i name="atom">   6761.44252427 </i>
    <i name="e_fr_energy">   1124.62398037 </i>
    <i name="e_wo_entrp">   1125.16672705 </i>
    <i name="e_0_energy">   1124.89535371 </i>
   </energy>
  </scstep>
  <scstep>
   <time name="dav">   27.93   28.00</time>
   <time name="total">   27.93   28.01</time>
   <energy>
    <i name="e_fr_energy">      0.49264369 </i>
    <i name="e_wo_entrp">      0.68660109 </i>
    <i name="e_0_energy">      0.58962239 </i>
   </energy>
  </scstep>
  <scstep>
   <time name="dav">   27.56   27.63</time>
   <time name="total">   27.57   27.64</time>
   <energy>
    <i name="e_fr_energy">   -199.66008046 </i>
    <i name="e_wo_entrp">   -199.40210510 </i>
    <i name="e_0_energy">   -199.53109278 </i>
   </energy>
  </scstep>
  <scstep>
   <time name="dav">   29.70   29.77</time>
   <time name="total">   29.70   29.78</time>
   <energy>
    <i name="e_fr_energy">   -208.97491639 </i>
    <i name="e_wo_entrp">   -208.68940371 </i>
    <i name="e_0_energy">   -208.83216005 </i>
   </energy>
  </scstep>
  <scstep>
   <time name="dav">   28.65   28.72</time>
   <time name="total">   29.12   29.20</time>
   <energy>
    <i name="e_fr_energy">   -209.31948204 </i>
    <i name="e_wo_entrp">   -209.03714465 </i>
    <i name="e_0_energy">   -209.17831335 </i>
   </energy>
  </scstep>
  <scstep>
   <time name="dav">   30.44   30.51</time>
   <time name="total">   30.94   31.02</time>
   <energy>
    <i name="e_fr_energy">   -237.92745126 </i>
    <i name="e_wo_entrp">   -237.66802017 </i>
    <i name="e_0_energy">   -237.79773572 </i>
   </energy>
  </scstep>
  <scstep>
   <time name="dav">   32.77   32.85</time>
   <time name="total">   33.28   33.37</time>
   <energy>
    <i name="e_fr_energy">   -196.56695920 </i>
    <i name="e_wo_entrp">   -196.22521347 </i>
    <i name="e_0_energy">   -196.39608633 </i>
   </energy>
  </scstep>
  <scstep>
   <time name="dav">   29.54   29.61</time>
   <time name="total">   30.06   30.14</time>
   <energy>
    <i name="e_fr_energy">   -189.47206359 </i>
    <i name="e_wo_entrp">   -189.16028220 </i>
    <i name="e_0_energy">   -189.31617290 </i>
   </energy>
  </scstep>
  <scstep>
   <time name="dav">   32.97   33.05</time>
   <time name="total">   33.49   33.58</time>
   <energy>
    <i name="e_fr_energy">   -188.15471556 </i>
    <i name="e_wo_entrp">   -187.83769563 </i>
    <i name="e_0_energy">   -187.99620559 </i>
   </energy>
  </scstep>
  <scstep>
   <time name="dav">   32.30   32.38</time>
   <time name="total">   32.84   32.92</time>
   <energy>
    <i name="e_fr_energy">   -186.95374535 </i>
    <i name="e_wo_entrp">   -186.60146859 </i>
    <i name="e_0_energy">   -186.77760697 </i>
   </energy>
  </scstep>
  <scstep>
   <time name="dav">   32.86   32.94</time>
   <time name="total">   33.40   33.49</time>
   <energy>
    <i name="e_fr_energy">   -187.05038192 </i>
    <i name="e_wo_entrp">   -186.70845246 </i>
    <i name="e_0_energy">   -186.87941719 </i>
   </energy>
  </scstep>
  <scstep>
   <time name="dav">   31.59   31.67</time>
   <time name="total">   32.13   32.21</time>
   <energy>
    <i name="e_fr_energy">   -186.98643132 </i>
    <i name="e_wo_entrp">   -186.65585215 </i>
    <i name="e_0_energy">   -186.82114174 </i>
   </energy>
  </scstep>
  <scstep>
   <time name="dav">   32.06   32.14</time>
   <time name="total">   32.60   32.69</time>
   <energy>
    <i name="e_fr_energy">   -186.88424326 </i>
    <i name="e_wo_entrp">   -186.54934417 </i>
    <i name="e_0_energy">   -186.71679371 </i>
   </energy>
  </scstep>
  <scstep>
   <time name="dav">   31.87   31.94</time>
   <time name="total">   32.40   32.48</time>
   <energy>
    <i name="e_fr_energy">   -186.84742431 </i>
    <i name="e_wo_entrp">   -186.50280147 </i>
    <i name="e_0_energy">   -186.67511289 </i>
   </energy>
  </scstep>
  <scstep>
   <time name="dav">   30.85   30.92</time>
   <time name="total">   31.38   31.47</time>
   <energy>
    <i name="e_fr_energy">   -186.84639539 </i>
    <i name="e_wo_entrp">   -186.50260264 </i>
    <i name="e_0_energy">   -186.67449901 </i>
   </energy>
  </scstep>
  <scstep>
   <time name="dav">   32.38   32.46</time>
   <time name="total">   32.92   33.00</time>
   <energy>
    <i name="e_fr_energy">   -186.84086839 </i>
    <i name="e_wo_entrp">   -186.49765667 </i>
    <i name="e_0_energy">   -186.66926253 </i>
   </energy>
  </scstep>
  <scstep>
   <time name="dav">   31.08   31.15</time>
   <time name="total">   31.61   31.70</time>
   <energy>
    <i name="e_fr_energy">   -186.83954473 </i>
    <i name="e_wo_entrp">   -186.49778659 </i>
    <i name="e_0_energy">   -186.66866566 </i>
   </energy>
  </scstep>
  <scstep>
   <time name="dav">   29.53   29.60</time>
   <time name="total">   30.06   30.14</time>
   <energy>
    <i name="e_fr_energy">   -186.83927859 </i>
    <i name="e_wo_entrp">   -186.49698303 </i>
    <i name="e_0_energy">   -186.66813081 </i>
   </energy>
  </scstep>
  <scstep>
   <time name="dav">   26.95   27.02</time>
   <time name="total">   27.49   27.57</time>
   <energy>
    <i name="e_fr_energy">   -186.83912826 </i>
    <i name="e_wo_entrp">   -186.49677870 </i>
    <i name="e_0_energy">   -186.66795348 </i>
   </energy>
  </scstep>
  <scstep>
   <time name="dav">   23.65   23.71</time>
   <time name="total">   24.19   24.25</time>
   <energy>
    <i name="e_fr_energy">   -186.83986784 </i>
    <i name="e_wo_entrp">   -186.49796282 </i>
    <i name="e_0_energy">   -186.66891533 </i>
   </energy>
  </scstep>
  <scstep>
   <time name="dav">   21.66   21.71</time>
   <time name="total">   22.19   22.25</time>
   <energy>
    <i name="e_fr_energy">   -186.84070312 </i>
    <i name="e_wo_entrp">   -186.49872821 </i>
    <i name="e_0_energy">   -186.66971567 </i>
   </energy>
  </scstep>
  <scstep>
   <time name="dav">   20.50   20.55</time>
   <time name="total">   21.03   21.09</time>
   <energy>
    <i name="e_fr_energy">   -186.84165501 </i>
    <i name="e_wo_entrp">   -186.49959532 </i>
    <i name="e_0_energy">   -186.67062516 </i>
   </energy>
  </scstep>
  <scstep>
   <time name="dav">   20.34   20.39</time>
   <time name="total">   20.87   20.93</time>
   <energy>
    <i name="e_fr_energy">   -186.84279906 </i>
    <i name="e_wo_entrp">   -186.50086855 </i>
    <i name="e_0_energy">   -186.67183380 </i>
   </energy>
  </scstep>
  <scstep>
   <time name="dav">   19.04   19.09</time>
   <time name="total">   19.58   19.63</time>
   <energy>
    <i name="e_fr_energy">   -186.84335400 </i>
    <i name="e_wo_entrp">   -186.50135258 </i>
    <i name="e_0_energy">   -186.67235329 </i>
   </energy>
  </scstep>
  <scstep>
   <time name="dav">   16.33   16.37</time>
   <time name="total">   16.87   16.91</time>
   <energy>
    <i name="e_fr_energy">   -186.84374874 </i>
    <i name="e_wo_entrp">   -186.50173729 </i>
    <i name="e_0_energy">   -186.67274302 </i>
   </energy>
  </scstep>
  <scstep>
   <time name="dav">   18.94   18.99</time>
   <time name="total">   19.48   19.53</time>
   <energy>
    <i name="e_fr_energy">   -186.84399339 </i>
    <i name="e_wo_entrp">   -186.50199809 </i>
    <i name="e_0_energy">   -186.67299574 </i>
   </energy>
  </scstep>
  <scstep>
   <time name="dav">   20.61   20.66</time>
   <time name="total">   20.65   20.70</time>
   <energy>
    <i name="alphaZ">     81.65567618 </i>
    <i name="ewald">  41891.17178115 </i>
    <i name="hartreedc"> -47833.64787451 </i>
    <i name="XCdc">   -231.60517421 </i>
    <i name="pawpsdc">   4192.07619083 </i>
    <i name="pawaedc">  -3610.07654810 </i>
    <i name="eentropy">     -0.34200087 </i>
    <i name="bandstr">  -1437.51865375 </i>
    <i name="atom">   6761.44252427 </i>
    <i name="e_fr_energy">   -186.84407900 </i>
    <i name="e_wo_entrp">   -186.50207813 </i>
    <i name="e_0_energy">   -186.67307857 </i>
   </energy>
  </scstep>
  <structure>
   <crystal>
    <varray name="basis" >
     <v>       8.66999996       5.03999989       0.00000000 </v>
     <v>      -8.66999982       5.04000013       0.00000000 </v>
     <v>       0.00000000       0.00000000      30.00000000 </v>
    </varray>
    <i name="volume">   2621.80797419 </i>
    <varray name="rec_basis" >
     <v>       0.05767013       0.09920635       0.00000000 </v>
     <v>      -0.05767013       0.09920635       0.00000000 </v>
     <v>       0.00000000       0.00000000       0.03333333 </v>
    </varray>
   </crystal>
   <varray name="positions" >
    <v>       0.66666669       0.00000000       0.00000000 </v>
    <v>       0.33333334       0.66666669       0.00000000 </v>
    <v>       0.33333334       0.00000000       0.00000000 </v>
    <v>       0.33333334       0.33333334       0.00000000 </v>
    <v>       0.00000000       0.00000000       0.00000000 </v>
    <v>       0.66666669       0.33333334       0.00000000 </v>
    <v>       1.00000000       0.33333334       0.00000000 </v>
    <v>       0.00000000       0.66666669       0.00000000 </v>
    <v>       0.66666669       0.66666669       0.00000000 </v>
    <v>       0.11068511       0.22244981       0.95539999 </v>
    <v>       0.22244981       0.11068511       0.04460000 </v>
    <v>       0.11068511       0.55578315       0.95539999 </v>
    <v>       0.22244981       0.44401845       0.04460000 </v>
    <v>       0.11068511       0.88911647       0.95539999 </v>
    <v>       0.22244981       0.77735180       0.04460000 </v>
    <v>       0.44401845       0.22244981       0.95539999 </v>
    <v>       0.55578315       0.11068511       0.04460000 </v>
    <v>       0.44401845       0.55578315       0.95539999 </v>
    <v>       0.55578315       0.44401845       0.04460000 </v>
    <v>       0.44401845       0.88911647       0.95539999 </v>
    <v>       0.55578315       0.77735180       0.04460000 </v>
    <v>       0.77735180       0.22244981       0.95539999 </v>
    <v>       0.88911647       0.11068511       0.04460000 </v>
    <v>       0.77735180       0.55578315       0.95539999 </v>
    <v>       0.88911647       0.44401845       0.04460000 </v>
    <v>       0.77735180       0.88911647       0.95539999 </v>
    <v>       0.88911647       0.77735180       0.04460000 </v>
   </varray>
  </structure>
  <varray name="forces" >
   <v>      -0.11194396       0.09247325      -0.03929148 </v>
   <v>       0.10859409       0.01995028      -0.03140304 </v>
   <v>      -0.23836472       0.24661432      -0.02118721 </v>
   <v>       0.27925318      -0.15512536       0.11624273 </v>
   <v>       0.01666971       0.26797755       0.09381823 </v>
   <v>      -0.24961351      -0.16708337      -0.06322689 </v>
   <v>       0.31521665      -0.18680499       0.14506366 </v>
   <v>      -0.23949304      -0.03487103      -0.07575249 </v>
   <v>       0.16525165      -0.16576908      -0.12340283 </v>
   <v>      -0.04322689       0.01433812      -2.89086154 </v>
   <v>       0.72946316       0.00748176       2.14983117 </v>
   <v>       0.43741925       0.57338129      -2.15005685 </v>
   <v>      -0.61040731       0.52756575       2.15035504 </v>
   <v>       0.63126884       0.53646945      -2.14435650 </v>
   <v>       0.24265318       0.52260797       1.39804805 </v>
   <v>       0.54531480      -0.68561628      -2.17151600 </v>
   <v>       0.32459453      -0.67361830       1.41488808 </v>
   <v>      -0.65524995       0.18027742      -2.08742021 </v>
   <v>      -0.22837158       0.12467651       2.89102894 </v>
   <v>       0.07658428       0.00262426      -0.76202823 </v>
   <v>      -0.75858024       0.00324551       1.45747246 </v>
   <v>       0.58804018      -0.54855101      -2.14353138 </v>
   <v>      -0.61581374      -0.51949566       2.18573899 </v>
   <v>       0.04797729       0.13917966      -2.98749555 </v>
   <v>      -0.02403196       0.13566394       2.84951146 </v>
   <v>      -0.65348894      -0.16371617      -2.06692351 </v>
   <v>      -0.07971494      -0.09387577       2.90645491 </v>
  </varray>
  <varray name="stress" >
   <v>       7.42304952      -0.04166682      -1.62808389 </v>
   <v>      -0.04166678       4.32771619      -0.01156930 </v>
   <v>      -1.62808383      -0.01156917      30.32055103 </v>
  </varray>
  <energy>
   <i name="e_fr_energy">   -186.84407900 </i>
   <i name="e_wo_entrp">   -186.67307857 </i>
   <i name="e_0_energy">     -0.34200087 </i>
  </energy>
  <time name="totalsc">  787.71  789.82</time>
 </calculation>
 <calculation>
  <scstep>
   <time name="dav">   21.72   21.78</time>
   <time name="total">   22.27   22.33</time>
   <energy>
    <i name="alphaZ">     78.92241114 </i>
    <i name="ewald">  39379.58811531 </i>
    <i name="hartreedc"> -45336.89217633 </i>
    <i name="XCdc">   -239.06864852 </i>
    <i name="pawpsdc">   4192.06241996 </i>
    <i name="pawaedc">  -3610.06288453 </i>
    <i name="eentropy">     -0.27854513 </i>
    <i name="bandstr">  -1413.21337119 </i>
    <i name="atom">   6761.44252427 </i>
    <i name="e_fr_energy">   -187.50015502 </i>
    <i name="e_wo_entrp">   -187.22160988 </i>
    <i name="e_0_energy">   -187.36088245 </i>
   </energy>
  </scstep>
  <scstep>
   <time name="dav">   30.21   30.28</time>
   <time name="total">   30.75   30.83</time>
   <energy>
    <i name="e_fr_energy">   -189.39187314 </i>
    <i name="e_wo_entrp">   -189.06386849 </i>
    <i name="e_0_energy">   -189.22787081 </i>
   </energy>
  </scstep>
  <scstep>
   <time name="dav">   30.38   30.46</time>
   <time name="total">   30.93   31.02</time>
   <energy>
    <i name="e_fr_energy">   -189.36765051 </i>
    <i name="e_wo_entrp">   -189.10992196 </i>
    <i name="e_0_energy">   -189.23878624 </i>
   </energy>
  </scstep>
  <scstep>
   <time name="dav">   30.59   30.66</time>
   <time name="total">   31.14   31.22</time>
   <energy>
    <i name="e_fr_energy">   -188.77729287 </i>
    <i name="e_wo_entrp">   -188.49745793 </i>
    <i name="e_0_energy">   -188.63737540 </i>
   </energy>
  </scstep>
  <scstep>
   <time name="dav">   27.72   27.79</time>
   <time name="total">   28.27   28.35</time>
   <energy>
    <i name="e_fr_energy">   -188.85540769 </i>
    <i name="e_wo_entrp">   -188.56727865 </i>
    <i name="e_0_energy">   -188.71134317 </i>
   </energy>
  </scstep>
  <scstep>
   <time name="dav">   30.04   30.11</time>
   <time name="total">   30.59   30.67</time>
   <energy>
    <i name="e_fr_energy">   -188.72131709 </i>
    <i name="e_wo_entrp">   -188.44080245 </i>
    <i name="e_0_energy">   -188.58105977 </i>
   </energy>
  </scstep>
  <scstep>
   <time name="dav">   27.28   27.34</time>
   <time name="total">   27.82   27.90</time>
   <energy>
    <i name="e_fr_energy">   -188.68463766 </i>
    <i name="e_wo_entrp">   -188.40342082 </i>
    <i name="e_0_energy">   -188.54402924 </i>
   </energy>
  </scstep>
  <scstep>
   <time name="dav">   32.42   32.50</time>
   <time name="total">   32.97   33.06</time>
   <energy>
    <i name="e_fr_energy">   -188.67559250 </i>
    <i name="e_wo_entrp">   -188.39471848 </i>
    <i name="e_0_energy">   -188.53515549 </i>
   </energy>
  </scstep>
  <scstep>
   <time name="dav">   29.05   29.12</time>
   <time name="total">   29.60   29.68</time>
   <energy>
    <i name="e_fr_energy">   -188.65951964 </i>
    <i name="e_wo_entrp">   -188.37950406 </i>
    <i name="e_0_energy">   -188.51951185 </i>
   </energy>
  </scstep>
  <scstep>
   <time name="dav">   28.91   28.98</time>
   <time name="total">   29.46   29.54</time>
   <energy>
    <i name="e_fr_energy">   -188.65646820 </i>
    <i name="e_wo_entrp">   -188.37771117 </i>
    <i name="e_0_energy">   -188.51708969 </i>
   </energy>
  </scstep>
  <scstep>
   <time name="dav">   31.99   32.07</time>
   <time name="total">   32.54   32.63</time>
   <energy>
    <i name="e_fr_energy">   -188.65571252 </i>
    <i name="e_wo_entrp">   -188.37800365 </i>
    <i name="e_0_energy">   -188.51685809 </i>
   </energy>
  </scstep>
  <scstep>
   <time name="dav">   29.84   29.91</time>
   <time name="total">   30.39   30.48</time>
   <energy>
    <i name="e_fr_energy">   -188.65562777 </i>
    <i name="e_wo_entrp">   -188.37806868 </i>
    <i name="e_0_energy">   -188.51684822 </i>
   </energy>
  </scstep>
  <scstep>
   <time name="dav">   22.07   22.13</time>
   <time name="total">   22.11   22.17</time>
   <energy>
    <i name="alphaZ">     78.92241114 </i>
    <i name="ewald">  39379.58811531 </i>
    <i name="hartreedc"> -45347.74311674 </i>
    <i name="XCdc">   -237.98002759 </i>
    <i name="pawpsdc">   3950.32474481 </i>
    <i name="pawaedc">  -3364.82619592 </i>
    <i name="eentropy">     -0.27790854 </i>
    <i name="bandstr">  -1408.10617655 </i>
    <i name="atom">   6761.44252427 </i>
    <i name="e_fr_energy">   -188.65562981 </i>
    <i name="e_wo_entrp">   -188.37772127 </i>
    <i name="e_0_energy">   -188.51667554 </i>
   </energy>
  </scstep>
  <structure>
   <crystal>
    <varray name="basis" >
     <v>       8.85755975       5.10271814       0.00000000 </v>
     <v>      -8.85878764       5.10483088       0.00000000 </v>
     <v>       0.00000000       0.00000000      30.00000000 </v>
    </varray>
    <i name="volume">   2712.60722829 </i>
    <varray name="rec_basis" >
     <v>       0.05645673       0.09797350       0.00000000 </v>
     <v>      -0.05643336       0.09795992       0.00000000 </v>
     <v>       0.00000000       0.00000000       0.03333333 </v>
    </varray>
   </crystal>
   <varray name="positions" >
    <v>       0.66679782       0.00075402      -0.00006318 </v>
    <v>       0.33373095       0.66646004      -0.00005050 </v>
    <v>       0.33385047       0.00184346      -0.00003407 </v>
    <v>       0.33336784       0.33181399       0.00018693 </v>
    <v>       0.00132891       0.00123616       0.00015087 </v>
    <v>       0.66517256       0.33322815      -0.00010167 </v>
    <v>       0.99998294       0.33156232       0.00023328 </v>
    <v>      -0.00083320       0.66716610      -0.00012182 </v>
    <v>       0.66633308       0.66541356      -0.00019844 </v>
    <v>       0.11063347       0.22263870       0.95075123 </v>
    <v>       0.22451510       0.10869143       0.04805712 </v>
    <v>       0.11464627       0.55731037       0.95194251 </v>
    <v>       0.22327648       0.44824162       0.04805796 </v>
    <v>       0.11500893       0.88992771       0.95195168 </v>
    <v>       0.22562610       0.77917789       0.04684818 </v>
    <v>       0.44225426       0.21765131       0.95190800 </v>
    <v>       0.55346230       0.10655811       0.04687526 </v>
    <v>       0.44305825       0.55846897       0.95204323 </v>
    <v>       0.55574449       0.44525052       0.04924903 </v>
    <v>       0.44424408       0.88891596       0.95417458 </v>
    <v>       0.55368819       0.77947782       0.04694374 </v>
    <v>       0.77636247       0.21818843       0.95195300 </v>
    <v>       0.88491688       0.10991211       0.04811486 </v>
    <v>       0.77815139       0.55631578       0.95059583 </v>
    <v>       0.88969889       0.44473460       0.04918227 </v>
    <v>       0.77475014       0.89015103       0.95207619 </v>
    <v>       0.88844540       0.77712429       0.04927384 </v>
   </varray>
  </structure>
  <varray name="forces" >
   <v>      -0.04906129       0.14492744      -0.07871977 </v>
   <v>       0.09673771      -0.02862750      -0.00383958 </v>
   <v>      -0.25124114       0.20235369       0.00621702 </v>
   <v>       0.20231366      -0.18931156       0.02842265 </v>
   <v>      -0.05538607       0.33143386      -0.04117375 </v>
   <v>      -0.42323734       0.13791939       0.03544351 </v>
   <v>       0.36404684      -0.15386140       0.03455010 </v>
   <v>      -0.36689087      -0.27824134       0.04754904 </v>
   <v>       0.47819130      -0.13365378      -0.05909696 </v>
   <v>      -0.13445464       0.01174083      -0.08291180 </v>
   <v>       0.08106670       0.00791543       0.20454102 </v>
   <v>      -0.06332262      -0.07045171       0.17331649 </v>
   <v>      -0.06715162      -0.05619641      -0.00647817 </v>
   <v>       0.08722258      -0.04325751       0.03164596 </v>
   <v>      -0.05911565      -0.05359263      -0.22811956 </v>
   <v>       0.03704321      -0.08005268      -0.14587505 </v>
   <v>       0.00516374      -0.06642121      -0.07562276 </v>
   <v>       0.03166175       0.10165051       0.03060311 </v>
   <v>      -0.06785326       0.10464689       0.13763993 </v>
   <v>       0.01005213       0.00842299       0.20228623 </v>
   <v>       0.08639016       0.00388389      -0.18584475 </v>
   <v>       0.07092661       0.04984011       0.05892075 </v>
   <v>      -0.07945524       0.04750371       0.09728004 </v>
   <v>      -0.08502768       0.09562218      -0.17738613 </v>
   <v>       0.07027004       0.10830269      -0.11172110 </v>
   <v>       0.02118973      -0.10724804       0.12068476 </v>
   <v>       0.05992125      -0.09524784      -0.01231124 </v>
  </varray>
  <varray name="stress" >
   <v>     -19.93318137       0.00663851       0.05020884 </v>
   <v>       0.00663840     -19.48259346       0.03234278 </v>
   <v>       0.05020892       0.03234292      -1.75225416 </v>
  </varray>
  <energy>
   <i name="e_fr_energy">   -188.65562981 </i>
   <i name="e_wo_entrp">   -188.51667554 </i>
   <i name="e_0_energy">     -0.27790854 </i>
  </energy>
  <time name="totalsc">  420.78  421.90</time>
 </calculation>
 <calculation>
  <scstep>
   <time name="dav">   23.82   23.87</time>
   <time name="total">   24.35   24.41</time>
   <energy>
    <i name="alphaZ">     82.36134002 </i>
    <i name="ewald">  41311.30319353 </i>
    <i name="hartreedc"> -47310.09832578 </i>
    <i name="XCdc">   -233.83994793 </i>
    <i name="pawpsdc">   3949.49629373 </i>
    <i name="pawaedc">  -3363.98975840 </i>
    <i name="eentropy">     -0.23206078 </i>
    <i name="bandstr">  -1387.02768667 </i>
    <i name="atom">   6761.44252427 </i>
    <i name="e_fr_energy">   -190.58442801 </i>
    <i name="e_wo_entrp">   -190.35236723 </i>
    <i name="e_0_energy">   -190.46839762 </i>
   </energy>
  </scstep>
  <scstep>
   <time name="dav">   28.66   28.73</time>
   <time name="total">   29.19   29.27</time>
   <energy>
    <i name="e_fr_energy">   -190.52989881 </i>
    <i name="e_wo_entrp">   -190.31312424 </i>
    <i name="e_0_energy">   -190.42151152 </i>
   </energy>
  </scstep>
  <scstep>
   <time name="dav">   30.14   30.21</time>
   <time name="total">   30.67   30.75</time>
   <energy>
    <i name="e_fr_energy">   -190.06584116 </i>
    <i name="e_wo_entrp">   -189.81591448 </i>
    <i name="e_0_energy">   -189.94087782 </i>
   </energy>
  </scstep>
  <scstep>
   <time name="dav">   31.54   31.61</time>
   <time name="total">   32.07   32.16</time>
   <energy>
    <i name="e_fr_energy">   -189.85241911 </i>
    <i name="e_wo_entrp">   -189.63000614 </i>
    <i name="e_0_energy">   -189.74121262 </i>
   </energy>
  </scstep>
  <scstep>
   <time name="dav">   29.99   30.06</time>
   <time name="total">   30.52   30.60</time>
   <energy>
    <i name="e_fr_energy">   -189.81671799 </i>
    <i name="e_wo_entrp">   -189.57585265 </i>
    <i name="e_0_energy">   -189.69628532 </i>
   </energy>
  </scstep>
  <scstep>
   <time name="dav">   31.01   31.09</time>
   <time name="total">   31.55   31.63</time>
   <energy>
    <i name="e_fr_energy">   -189.75110159 </i>
    <i name="e_wo_entrp">   -189.52028585 </i>
    <i name="e_0_energy">   -189.63569372 </i>
   </energy>
  </scstep>
  <scstep>
   <time name="dav">   28.80   28.87</time>
   <time name="total">   29.33   29.41</time>
   <energy>
    <i name="e_fr_energy">   -189.74595014 </i>
    <i name="e_wo_entrp">   -189.51327646 </i>
    <i name="e_0_energy">   -189.62961330 </i>
   </energy>
  </scstep>
  <scstep>
   <time name="dav">   30.86   30.93</time>
   <time name="total">   31.39   31.47</time>
   <energy>
    <i name="e_fr_energy">   -189.74590827 </i>
    <i name="e_wo_entrp">   -189.51358801 </i>
    <i name="e_0_energy">   -189.62974814 </i>
   </energy>
  </scstep>
  <scstep>
   <time name="dav">   28.48   28.55</time>
   <time name="total">   29.01   29.09</time>
   <energy>
    <i name="e_fr_energy">   -189.74499222 </i>
    <i name="e_wo_entrp">   -189.51269521 </i>
    <i name="e_0_energy">   -189.62884372 </i>
   </energy>
  </scstep>
  <scstep>
   <time name="dav">   26.96   27.02</time>
   <time name="total">   27.49   27.56</time>
   <energy>
    <i name="e_fr_energy">   -189.74542399 </i>
    <i name="e_wo_entrp">   -189.51279289 </i>
    <i name="e_0_energy">   -189.62910844 </i>
   </energy>
  </scstep>
  <scstep>
   <time name="dav">   24.05   24.10</time>
   <time name="total">   24.58   24.64</time>
   <energy>
    <i name="e_fr_energy">   -189.74512798 </i>
    <i name="e_wo_entrp">   -189.51255539 </i>
    <i name="e_0_energy">   -189.62884168 </i>
   </energy>
  </scstep>
  <scstep>
   <time name="dav">   19.99   20.04</time>
   <time name="total">   20.03   20.08</time>
   <energy>
    <i name="alphaZ">     82.36134002 </i>
    <i name="ewald">  41311.30319353 </i>
    <i name="hartreedc"> -47283.50322558 </i>
    <i name="XCdc">   -235.23877870 </i>
    <i name="pawpsdc">   4039.06285515 </i>
    <i name="pawaedc">  -3454.76367192 </i>
    <i name="eentropy">     -0.23256470 </i>
    <i name="bandstr">  -1410.17681996 </i>
    <i name="atom">   6761.44252427 </i>
    <i name="e_fr_energy">   -189.74514790 </i>
    <i name="e_wo_entrp">   -189.51258320 </i>
    <i name="e_0_energy">   -189.62886555 </i>
   </energy>
  </scstep>
  <structure>
   <crystal>
    <varray name="basis" >
     <v>       8.66856813       4.99634632       0.00000000 </v>
     <v>      -8.66969726       4.99828908       0.00000000 </v>
     <v>       0.00000000       0.00000000      30.00000000 </v>
    </varray>
    <i name="volume">   2599.34458188 </i>
    <varray name="rec_basis" >
     <v>       0.05768711       0.10006019       0.00000000 </v>
     <v>      -0.05766469       0.10004716       0.00000000 </v>
     <v>       0.00000000       0.00000000       0.03333333 </v>
    </varray>
   </crystal>
   <varray name="positions" >
    <v>       0.66699295       0.00104369      -0.00010798 </v>
    <v>       0.33377631       0.66631895      -0.00005268 </v>
    <v>       0.33394678       0.00242397      -0.00003053 </v>
    <v>       0.33324619       0.33130243       0.00020310 </v>
    <v>       0.00182993       0.00184385       0.00012744 </v>
    <v>       0.66499530       0.33386662      -0.00008150 </v>
    <v>       1.00007648       0.33095421       0.00025294 </v>
    <v>      -0.00165228       0.66705424      -0.00009476 </v>
    <v>       0.66657044       0.66472928      -0.00023208 </v>
    <v>       0.11052350       0.22278788       0.95070404 </v>
    <v>       0.22460648       0.10862656       0.04817353 </v>
    <v>       0.11446738       0.55725355       0.95204115 </v>
    <v>       0.22311775       0.44821233       0.04805427 </v>
    <v>       0.11502065       0.88977132       0.95196969 </v>
    <v>       0.22547947       0.77914521       0.04671836 </v>
    <v>       0.44215606       0.21748173       0.95182498 </v>
    <v>       0.55335618       0.10644205       0.04683223 </v>
    <v>       0.44325880       0.55860847       0.95206065 </v>
    <v>       0.55585413       0.44549092       0.04932736 </v>
    <v>       0.44426786       0.88892036       0.95428971 </v>
    <v>       0.55377796       0.77940108       0.04683798 </v>
    <v>       0.77651420       0.21820345       0.95198653 </v>
    <v>       0.88491975       0.11006812       0.04817022 </v>
    <v>       0.77822938       0.55655764       0.95049488 </v>
    <v>       0.88994779       0.44484803       0.04911868 </v>
    <v>       0.77459117       0.88995124       0.95214488 </v>
    <v>       0.88834383       0.77690725       0.04926683 </v>
   </varray>
  </structure>
  <varray name="forces" >
   <v>      -0.00862296       0.19412338      -0.06834737 </v>
   <v>       0.11009480      -0.07514612       0.00571689 </v>
   <v>      -0.28959560       0.18007179       0.01266978 </v>
   <v>       0.16889066      -0.19870920       0.00100839 </v>
   <v>      -0.08506312       0.34258357      -0.05565870 </v>
   <v>      -0.48032237       0.25095428       0.04092946 </v>
   <v>       0.38034922      -0.14209363      -0.00381177 </v>
   <v>      -0.40476956      -0.37902561       0.06176712 </v>
   <v>       0.59165611      -0.13034453      -0.02653875 </v>
   <v>      -0.05205449       0.02489239      -0.64341736 </v>
   <v>       0.16737274       0.00807937       0.72010628 </v>
   <v>       0.00940637       0.04115286      -0.31554110 </v>
   <v>      -0.05665296       0.08049084       0.49935808 </v>
   <v>       0.08993355       0.09346586      -0.46730315 </v>
   <v>       0.01212759       0.07988514       0.21360794 </v>
   <v>       0.07568794      -0.14199797      -0.64564091 </v>
   <v>       0.03915904      -0.12346977       0.36481733 </v>
   <v>      -0.07153133       0.02000698      -0.46431444 </v>
   <v>      -0.04247836       0.03527962       0.69998802 </v>
   <v>       0.00207402       0.00784777      -0.21074266 </v>
   <v>      -0.05518325       0.01024121       0.25814325 </v>
   <v>       0.05578124      -0.07144007      -0.42314648 </v>
   <v>      -0.07218226      -0.10433890       0.62359717 </v>
   <v>      -0.03698929       0.02503742      -0.78989615 </v>
   <v>       0.03900907       0.04234154       0.42858342 </v>
   <v>      -0.08611945      -0.04066329      -0.36014168 </v>
   <v>       0.00002264      -0.02922492       0.54420741 </v>
  </varray>
  <varray name="stress" >
   <v>     -10.16936632       0.00904420       0.04465672 </v>
   <v>       0.00904426      -9.79502084       0.03696341 </v>
   <v>       0.04465659       0.03696353       6.51252308 </v>
  </varray>
  <energy>
   <i name="e_fr_energy">   -189.74514790 </i>
   <i name="e_wo_entrp">   -189.62886555 </i>
   <i name="e_0_energy">     -0.23256470 </i>
  </energy>
  <time name="totalsc">  382.55  383.56</time>
 </calculation>
 <calculation>
  <scstep>
   <time name="dav">   21.69   21.74</time>
   <time name="total">   22.21   22.27</time>
   <energy>
    <i name="alphaZ">     85.84212685 </i>
    <i name="ewald">  42842.86805568 </i>
    <i name="hartreedc"> -48859.65611870 </i>
    <i name="XCdc">   -232.95540584 </i>
    <i name="pawpsdc">   4038.97116389 </i>
    <i name="pawaedc">  -3454.66724369 </i>
    <i name="eentropy">     -0.19022793 </i>
    <i name="bandstr">  -1372.97014017 </i>
    <i name="atom">   6761.44252427 </i>
    <i name="e_fr_energy">   -191.31526565 </i>
    <i name="e_wo_entrp">   -191.12503772 </i>
    <i name="e_0_energy">   -191.22015168 </i>
   </energy>
  </scstep>
  <scstep>
   <time name="dav">   32.64   32.72</time>
   <time name="total">   33.15   33.24</time>
   <energy>
    <i name="e_fr_energy">   -191.11629048 </i>
    <i name="e_wo_entrp">   -190.92756934 </i>
    <i name="e_0_energy">   -191.02192991 </i>
   </energy>
  </scstep>
  <scstep>
   <time name="dav">   29.97   30.04</time>
   <time name="total">   30.49   30.57</time>
   <energy>
    <i name="e_fr_energy">   -191.31744395 </i>
    <i name="e_wo_entrp">   -191.10260465 </i>
    <i name="e_0_energy">   -191.21002430 </i>
   </energy>
  </scstep>
  <scstep>
   <time name="dav">   29.51   29.58</time>
   <time name="total">   30.03   30.11</time>
   <energy>
    <i name="e_fr_energy">   -190.90359187 </i>
    <i name="e_wo_entrp">   -190.70581100 </i>
    <i name="e_0_energy">   -190.80470143 </i>
   </energy>
  </scstep>
  <scstep>
   <time name="dav">   27.36   27.43</time>
   <time name="total">   27.88   27.96</time>
   <energy>
    <i name="e_fr_energy">   -190.90871023 </i>
    <i name="e_wo_entrp">   -190.72532507 </i>
    <i name="e_0_energy">   -190.81701765 </i>
   </energy>
  </scstep>
  <scstep>
   <time name="dav">   28.96   29.03</time>
   <time name="total">   29.48   29.56</time>
   <energy>
    <i name="e_fr_energy">   -190.73422346 </i>
    <i name="e_wo_entrp">   -190.53908252 </i>
    <i name="e_0_energy">   -190.63665299 </i>
   </energy>
  </scstep>
  <scstep>
   <time name="dav">   30.07   30.14</time>
   <time name="total">   30.60   30.68</time>
   <energy>
    <i name="e_fr_energy">   -190.73589201 </i>
    <i name="e_wo_entrp">   -190.54113797 </i>
    <i name="e_0_energy">   -190.63851499 </i>
   </energy>
  </scstep>
  <scstep>
   <time name="dav">   28.87   28.94</time>
   <time name="total">   29.40   29.47</time>
   <energy>
    <i name="e_fr_energy">   -190.73324272 </i>
    <i name="e_wo_entrp">   -190.53867986 </i>
    <i name="e_0_energy">   -190.63596129 </i>
   </energy>
  </scstep>
  <scstep>
   <time name="dav">   28.54   28.61</time>
   <time name="total">   29.06   29.14</time>
   <energy>
    <i name="e_fr_energy">   -190.73038968 </i>
    <i name="e_wo_entrp">   -190.53566804 </i>
    <i name="e_0_energy">   -190.63302886 </i>
   </energy>
  </scstep>
  <scstep>
   <time name="dav">   26.09   26.15</time>
   <time name="total">   26.61   26.68</time>
   <energy>
    <i name="e_fr_energy">   -190.73070046 </i>
    <i name="e_wo_entrp">   -190.53586210 </i>
    <i name="e_0_energy">   -190.63328128 </i>
   </energy>
  </scstep>
  <scstep>
   <time name="dav">   25.61   25.67</time>
   <time name="total">   26.14   26.21</time>
   <energy>
    <i name="e_fr_energy">   -190.73053197 </i>
    <i name="e_wo_entrp">   -190.53566426 </i>
    <i name="e_0_energy">   -190.63309812 </i>
   </energy>
  </scstep>
  <scstep>
   <time name="dav">   19.62   19.66</time>
   <time name="total">   19.65   19.71</time>
   <energy>
    <i name="alphaZ">     85.84212685 </i>
    <i name="ewald">  42842.86805568 </i>
    <i name="hartreedc"> -48830.95845514 </i>
    <i name="XCdc">   -234.29201213 </i>
    <i name="pawpsdc">   4063.60824051 </i>
    <i name="pawaedc">  -3479.47692871 </i>
    <i name="eentropy">     -0.19491887 </i>
    <i name="bandstr">  -1399.56916638 </i>
    <i name="atom">   6761.44252427 </i>
    <i name="e_fr_energy">   -190.73053392 </i>
    <i name="e_wo_entrp">   -190.53561505 </i>
    <i name="e_0_energy">   -190.63307448 </i>
   </energy>
  </scstep>
  <structure>
   <crystal>
    <varray name="basis" >
     <v>       8.48589613       4.89736558       0.00000000 </v>
     <v>      -8.48663656       4.89863675       0.00000000 </v>
     <v>       0.00000000       0.00000000      30.00000000 </v>
    </varray>
    <i name="volume">   2493.94453277 </i>
    <varray name="rec_basis" >
     <v>       0.05892637       0.10208691       0.00000000 </v>
     <v>      -0.05891108       0.10207801       0.00000000 </v>
     <v>       0.00000000       0.00000000       0.03333333 </v>
    </varray>
   </crystal>
   <varray name="positions" >
    <v>       0.66835802       0.00235539      -0.00024072 </v>
    <v>       0.33360700       0.66531604      -0.00003279 </v>
    <v>       0.33391873       0.00459791       0.00000114 </v>
    <v>       0.33254020       0.32947169       0.00018207 </v>
    <v>       0.00365466       0.00436772       0.00000000 </v>
    <v>       0.66503092       0.33753577       0.00000785 </v>
    <v>       1.00061290       0.32869585       0.00021269 </v>
    <v>      -0.00579413       0.66594572       0.00004510 </v>
    <v>       0.66806190       0.66162155      -0.00025955 </v>
    <v>       0.11064170       0.22304683       0.94889942 </v>
    <v>       0.22538562       0.10794978       0.05009900 </v>
    <v>       0.11513980       0.55765020       0.95097567 </v>
    <v>       0.22377126       0.44924511       0.04951458 </v>
    <v>       0.11627414       0.89036710       0.95058155 </v>
    <v>       0.22645654       0.77983106       0.04753307 </v>
    <v>       0.44144136       0.21610987       0.95006698 </v>
    <v>       0.55263108       0.10533701       0.04795887 </v>
    <v>       0.44277591       0.55893721       0.95068210 </v>
    <v>       0.55578601       0.44565726       0.05125064 </v>
    <v>       0.44431171       0.88897201       0.95350512 </v>
    <v>       0.55345627       0.77988248       0.04774679 </v>
    <v>       0.77594581       0.21727536       0.95070404 </v>
    <v>       0.88363905       0.10928835       0.04990498 </v>
    <v>       0.77814627       0.55660460       0.94834318 </v>
    <v>       0.89014593       0.44485358       0.05046155 </v>
    <v>       0.77403691       0.89032578       0.95099385 </v>
    <v>       0.88823887       0.77697321       0.05086272 </v>
   </varray>
  </structure>
  <varray name="forces" >
   <v>       0.01669936       0.18153004      -0.01985604 </v>
   <v>       0.10310589      -0.05677628       0.02150782 </v>
   <v>      -0.24887696       0.14186820       0.02263481 </v>
   <v>       0.08271686      -0.22983422      -0.02858175 </v>
   <v>      -0.15436673       0.40684519      -0.02480225 </v>
   <v>      -0.55614496       0.37848213       0.01908009 </v>
   <v>       0.49168615      -0.10855718      -0.03104895 </v>
   <v>      -0.42952867      -0.48249073       0.03199460 </v>
   <v>       0.67357966      -0.16603885       0.02871469 </v>
   <v>       0.03394031       0.03795245      -0.50089278 </v>
   <v>       0.06401696       0.00979741       0.53387367 </v>
   <v>      -0.01645899      -0.02055698      -0.14131369 </v>
   <v>       0.02503009       0.00945347       0.36976681 </v>
   <v>       0.03117047       0.03560204      -0.27044768 </v>
   <v>      -0.05029186       0.00533137       0.09557750 </v>
   <v>       0.03593619      -0.02922755      -0.43646255 </v>
   <v>      -0.04203290       0.00776019       0.23896296 </v>
   <v>       0.03955539      -0.00556182      -0.28527290 </v>
   <v>      -0.05506395      -0.04093299       0.52267104 </v>
   <v>      -0.01987299       0.01551629      -0.21832510 </v>
   <v>       0.03489030       0.01394966       0.13787909 </v>
   <v>      -0.03627112      -0.01240519      -0.22768019 </v>
   <v>      -0.00082734      -0.05478619       0.46107413 </v>
   <v>       0.01213927      -0.02448252      -0.72318574 </v>
   <v>       0.03044017      -0.02267842       0.25362799 </v>
   <v>       0.02057552      -0.02241240      -0.18796471 </v>
   <v>      -0.08574612       0.03265290       0.35846909 </v>
  </varray>
  <varray name="stress" >
   <v>      -5.67845189      -0.05464992      -0.17910188 </v>
   <v>      -0.05464990      -5.90427059      -0.01720771 </v>
   <v>      -0.17910187      -0.01720756       4.55034078 </v>
  </varray>
  <energy>
   <i name="e_fr_energy">   -190.73053392 </i>
   <i name="e_wo_entrp">   -190.63307448 </i>
   <i name="e_0_energy">     -0.19491887 </i>
  </energy>
  <time name="totalsc">  376.79  377.79</time>
 </calculation>
 <calculation>
  <scstep>
   <time name="dav">   21.70   21.75</time>
   <time name="total">   22.21   22.26</time>
   <energy>
    <i name="alphaZ">     90.21464491 </i>
    <i name="ewald">  44694.44350756 </i>
    <i name="hartreedc"> -50737.48750569 </i>
    <i name="XCdc">   -231.78176525 </i>
    <i name="pawpsdc">   4063.55517912 </i>
    <i name="pawaedc">  -3479.42048094 </i>
    <i name="eentropy">     -0.17707823 </i>
    <i name="bandstr">  -1352.95409404 </i>
    <i name="atom">   6761.44252427 </i>
    <i name="e_fr_energy">   -192.16506829 </i>
    <i name="e_wo_entrp">   -191.98799006 </i>
    <i name="e_0_energy">   -192.07652917 </i>
   </energy>
  </scstep>
  <scstep>
   <time name="dav">   27.36   27.43</time>
   <time name="total">   27.87   27.95</time>
   <energy>
    <i name="e_fr_energy">   -191.87163801 </i>
    <i name="e_wo_entrp">   -191.67915299 </i>
    <i name="e_0_energy">   -191.77539550 </i>
   </energy>
  </scstep>
  <scstep>
   <time name="dav">   29.97   30.04</time>
   <time name="total">   30.48   30.56</time>
   <energy>
    <i name="e_fr_energy">   -192.33425663 </i>
    <i name="e_wo_entrp">   -192.15014689 </i>
    <i name="e_0_energy">   -192.24220176 </i>
   </energy>
  </scstep>
  <scstep>
   <time name="dav">   28.81   28.88</time>
   <time name="total">   29.32   29.40</time>
   <energy>
    <i name="e_fr_energy">   -191.66813115 </i>
    <i name="e_wo_entrp">   -191.48737185 </i>
    <i name="e_0_energy">   -191.57775150 </i>
   </energy>
  </scstep>
  <scstep>
   <time name="dav">   30.01   30.08</time>
   <time name="total">   30.52   30.60</time>
   <energy>
    <i name="e_fr_energy">   -191.61703166 </i>
    <i name="e_wo_entrp">   -191.42101197 </i>
    <i name="e_0_energy">   -191.51902182 </i>
   </energy>
  </scstep>
  <scstep>
   <time name="dav">   30.16   30.23</time>
   <time name="total">   30.67   30.75</time>
   <energy>
    <i name="e_fr_energy">   -191.46747766 </i>
    <i name="e_wo_entrp">   -191.28240769 </i>
    <i name="e_0_energy">   -191.37494268 </i>
   </energy>
  </scstep>
  <scstep>
   <time name="dav">   30.54   30.61</time>
   <time name="total">   31.05   31.13</time>
   <energy>
    <i name="e_fr_energy">   -191.45735336 </i>
    <i name="e_wo_entrp">   -191.27472482 </i>
    <i name="e_0_energy">   -191.36603909 </i>
   </energy>
  </scstep>
  <scstep>
   <time name="dav">   29.99   30.06</time>
   <time name="total">   30.50   30.58</time>
   <energy>
    <i name="e_fr_energy">   -191.44148119 </i>
    <i name="e_wo_entrp">   -191.25495597 </i>
    <i name="e_0_energy">   -191.34821858 </i>
   </energy>
  </scstep>
  <scstep>
   <time name="dav">   28.03   28.10</time>
   <time name="total">   28.54   28.62</time>
   <energy>
    <i name="e_fr_energy">   -191.43881756 </i>
    <i name="e_wo_entrp">   -191.25326252 </i>
    <i name="e_0_energy">   -191.34604004 </i>
   </energy>
  </scstep>
  <scstep>
   <time name="dav">   28.64   28.71</time>
   <time name="total">   29.15   29.23</time>
   <energy>
    <i name="e_fr_energy">   -191.43896396 </i>
    <i name="e_wo_entrp">   -191.25291009 </i>
    <i name="e_0_energy">   -191.34593702 </i>
   </energy>
  </scstep>
  <scstep>
   <time name="dav">   25.77   25.83</time>
   <time name="total">   25.81   25.88</time>
   <energy>
    <i name="alphaZ">     90.21464491 </i>
    <i name="ewald">  44694.44350756 </i>
    <i name="hartreedc"> -50703.41315278 </i>
    <i name="XCdc">   -233.29726074 </i>
    <i name="pawpsdc">   4088.10042515 </i>
    <i name="pawaedc">  -3504.09208041 </i>
    <i name="eentropy">     -0.18606382 </i>
    <i name="bandstr">  -1384.65143690 </i>
    <i name="atom">   6761.44252427 </i>
    <i name="e_fr_energy">   -191.43889276 </i>
    <i name="e_wo_entrp">   -191.25282894 </i>
    <i name="e_0_energy">   -191.34586085 </i>
   </energy>
  </scstep>
  <structure>
   <crystal>
    <varray name="basis" >
     <v>       8.28123113       4.77164324       0.00000000 </v>
     <v>      -8.28500838       4.77817461       0.00000000 </v>
     <v>       0.00000000       0.00000000      30.00000000 </v>
    </varray>
    <i name="volume">   2373.06817712 </i>
    <varray name="rec_basis" >
     <v>       0.06040502       0.10473793       0.00000000 </v>
     <v>      -0.06032245       0.10469018       0.00000000 </v>
     <v>       0.00000000       0.00000000       0.03333333 </v>
    </varray>
   </crystal>
   <varray name="positions" >
    <v>       0.67086991       0.00455112      -0.00033436 </v>
    <v>       0.33350838       0.66372176       0.00005283 </v>
    <v>       0.33379707       0.00815084       0.00009128 </v>
    <v>       0.33038848       0.32611153       0.00005878 </v>
    <v>       0.00744256       0.01027641      -0.00012757 </v>
    <v>       0.66581425       0.34612597       0.00009963 </v>
    <v>       1.00263332       0.32400688       0.00006805 </v>
    <v>      -0.01478166       0.66303185       0.00020020 </v>
    <v>       0.67092963       0.65487235      -0.00014421 </v>
    <v>       0.11140551       0.22323242       0.94631852 </v>
    <v>       0.22618449       0.10738350       0.05278992 </v>
    <v>       0.11532936       0.55778702       0.94986344 </v>
    <v>       0.22449791       0.44974129       0.05152003 </v>
    <v>       0.11745765       0.89099656       0.94893903 </v>
    <v>       0.22683680       0.78056732       0.04839102 </v>
    <v>       0.44108213       0.21505015       0.94776302 </v>
    <v>       0.55218993       0.10522141       0.04938473 </v>
    <v>       0.44252813       0.55867724       0.94899426 </v>
    <v>       0.55488884       0.44542377       0.05393724 </v>
    <v>       0.44435431       0.88927667       0.95225611 </v>
    <v>       0.55356817       0.78013149       0.04877475 </v>
    <v>       0.77516970       0.21688222       0.94924684 </v>
    <v>       0.88241086       0.10818199       0.05230688 </v>
    <v>       0.77784936       0.55607556       0.94487628 </v>
    <v>       0.88996305       0.44433028       0.05206568 </v>
    <v>       0.77379323       0.89033993       0.94970647 </v>
    <v>       0.88810308       0.77806691       0.05290105 </v>
   </varray>
  </structure>
  <varray name="forces" >
   <v>       0.00299545       0.05393221      -0.03522252 </v>
   <v>       0.08215332       0.06606526      -0.01971272 </v>
   <v>      -0.08790460       0.11471050      -0.00105353 </v>
   <v>      -0.10652519      -0.19893498      -0.00327692 </v>
   <v>      -0.17747200       0.34584930       0.03969113 </v>
   <v>      -0.33568739       0.24403051      -0.01792167 </v>
   <v>       0.52551689       0.02441531      -0.02824197 </v>
   <v>      -0.26241390      -0.37538768      -0.04668138 </v>
   <v>       0.32521327      -0.16535384       0.04433736 </v>
   <v>       0.09671343       0.05186632      -0.33201913 </v>
   <v>      -0.04666964       0.00611123       0.16651075 </v>
   <v>      -0.06658025      -0.11831713       0.14381702 </v>
   <v>       0.08730222      -0.09049784       0.11320102 </v>
   <v>      -0.04820410      -0.07501806       0.06393556 </v>
   <v>      -0.14843699      -0.16563211      -0.12585333 </v>
   <v>      -0.01680626       0.10342123      -0.07057241 </v>
   <v>      -0.13268081       0.19316870      -0.02573590 </v>
   <v>       0.14945330       0.02009767       0.00489159 </v>
   <v>      -0.08481473      -0.13268293       0.22978546 </v>
   <v>      -0.02999475       0.02660288      -0.02140774 </v>
   <v>       0.21043295       0.01821943      -0.06161660 </v>
   <v>      -0.12971725       0.10181915       0.12448836 </v>
   <v>       0.07582701       0.03888979       0.16029764 </v>
   <v>       0.02008053      -0.04442036      -0.46436780 </v>
   <v>       0.07410798      -0.08160633      -0.06393628 </v>
   <v>       0.17571885      -0.04658595       0.14423372 </v>
   <v>      -0.15160735       0.08523770       0.08243029 </v>
  </varray>
  <varray name="stress" >
   <v>       0.39368641      -0.17502979      -0.29261078 </v>
   <v>      -0.17502977       0.11752068      -0.16590468 </v>
   <v>      -0.29261093      -0.16590459      -0.05688822 </v>
  </varray>
  <energy>
   <i name="e_fr_energy">   -191.43889276 </i>
   <i name="e_wo_entrp">   -191.34586085 </i>
   <i name="e_0_energy">     -0.18606382 </i>
  </energy>
  <time name="totalsc">  358.42  359.36</time>
 </calculation>
 <calculation>
  <scstep>
   <time name="dav">   21.71   21.76</time>
   <time name="total">   22.22   22.27</time>
   <energy>
    <i name="alphaZ">     90.03531654 </i>
    <i name="ewald">  44588.03689846 </i>
    <i name="hartreedc"> -50595.99566789 </i>
    <i name="XCdc">   -233.52716218 </i>
    <i name="pawpsdc">   4088.55399784 </i>
    <i name="pawaedc">  -3504.54411157 </i>
    <i name="eentropy">     -0.18769737 </i>
    <i name="bandstr">  -1385.32786186 </i>
    <i name="atom">   6761.44252427 </i>
    <i name="e_fr_energy">   -191.51376376 </i>
    <i name="e_wo_entrp">   -191.32606638 </i>
    <i name="e_0_energy">   -191.41991507 </i>
   </energy>
  </scstep>
  <scstep>
   <time name="dav">   32.63   32.71</time>
   <time name="total">   33.14   33.23</time>
   <energy>
    <i name="e_fr_energy">   -191.59061529 </i>
    <i name="e_wo_entrp">   -191.39120074 </i>
    <i name="e_0_energy">   -191.49090801 </i>
   </energy>
  </scstep>
  <scstep>
   <time name="dav">   30.75   30.82</time>
   <time name="total">   31.26   31.34</time>
   <energy>
    <i name="e_fr_energy">   -191.52306749 </i>
    <i name="e_wo_entrp">   -191.33429062 </i>
    <i name="e_0_energy">   -191.42867906 </i>
   </energy>
  </scstep>
  <scstep>
   <time name="dav">   28.44   28.51</time>
   <time name="total">   28.95   29.03</time>
   <energy>
    <i name="e_fr_energy">   -191.52606439 </i>
    <i name="e_wo_entrp">   -191.33510993 </i>
    <i name="e_0_energy">   -191.43058716 </i>
   </energy>
  </scstep>
  <scstep>
   <time name="dav">   28.31   28.38</time>
   <time name="total">   28.82   28.90</time>
   <energy>
    <i name="e_fr_energy">   -191.52146324 </i>
    <i name="e_wo_entrp">   -191.33156662 </i>
    <i name="e_0_energy">   -191.42651493 </i>
   </energy>
  </scstep>
  <scstep>
   <time name="dav">   28.26   28.33</time>
   <time name="total">   28.77   28.85</time>
   <energy>
    <i name="e_fr_energy">   -191.52198972 </i>
    <i name="e_wo_entrp">   -191.33205110 </i>
    <i name="e_0_energy">   -191.42702041 </i>
   </energy>
  </scstep>
  <scstep>
   <time name="dav">   28.16   28.23</time>
   <time name="total">   28.67   28.74</time>
   <energy>
    <i name="e_fr_energy">   -191.52147772 </i>
    <i name="e_wo_entrp">   -191.33171959 </i>
    <i name="e_0_energy">   -191.42659865 </i>
   </energy>
  </scstep>
  <scstep>
   <time name="dav">   25.15   25.21</time>
   <time name="total">   25.66   25.73</time>
   <energy>
    <i name="e_fr_energy">   -191.52095255 </i>
    <i name="e_wo_entrp">   -191.33124949 </i>
    <i name="e_0_energy">   -191.42610102 </i>
   </energy>
  </scstep>
  <scstep>
   <time name="dav">   18.73   18.78</time>
   <time name="total">   18.77   18.82</time>
   <energy>
    <i name="alphaZ">     90.03531654 </i>
    <i name="ewald">  44588.03689846 </i>
    <i name="hartreedc"> -50598.64643840 </i>
    <i name="XCdc">   -233.43101177 </i>
    <i name="pawpsdc">   4084.43836687 </i>
    <i name="pawaedc">  -3500.36852229 </i>
    <i name="eentropy">     -0.18974268 </i>
    <i name="bandstr">  -1382.83834830 </i>
    <i name="atom">   6761.44252427 </i>
    <i name="e_fr_energy">   -191.52095731 </i>
    <i name="e_wo_entrp">   -191.33121463 </i>
    <i name="e_0_energy">   -191.42608597 </i>
   </energy>
  </scstep>
  <structure>
   <crystal>
    <varray name="basis" >
     <v>       8.29019269       4.77114913       0.00000000 </v>
     <v>      -8.29815755       4.78494039       0.00000000 </v>
     <v>       0.00000000       0.00000000      30.00000000 </v>
    </varray>
    <i name="volume">   2377.79474956 </i>
    <varray name="rec_basis" >
     <v>       0.06037031       0.10469563       0.00000000 </v>
     <v>      -0.06019631       0.10459514       0.00000000 </v>
     <v>       0.00000000       0.00000000       0.03333333 </v>
    </varray>
   </crystal>
   <varray name="positions" >
    <v>       0.67107695       0.00475015      -0.00038626 </v>
    <v>       0.33406312       0.66385350       0.00002036 </v>
    <v>       0.33411208       0.00886651       0.00008750 </v>
    <v>       0.32917587       0.32552451       0.00005682 </v>
    <v>       0.00853453       0.01231001      -0.00006279 </v>
    <v>       0.66603881       0.34804062       0.00006952 </v>
    <v>       1.00417542       0.32276769       0.00002825 </v>
    <v>      -0.01712049       0.66201543       0.00012399 </v>
    <v>       0.67096638       0.65332318      -0.00007854 </v>
    <v>       0.11190836       0.22320989       0.94587714 </v>
    <v>       0.22606079       0.10756083       0.05297353 </v>
    <v>       0.11455570       0.55739173       0.95012090 </v>
    <v>       0.22427877       0.44903780       0.05163824 </v>
    <v>       0.11692210       0.89074577       0.94908611 </v>
    <v>       0.22559829       0.78015625       0.04816852 </v>
    <v>       0.44154947       0.21563111       0.94771828 </v>
    <v>       0.55277014       0.10653952       0.04930327 </v>
    <v>       0.44305702       0.55836200       0.94905106 </v>
    <v>       0.55402962       0.44502499       0.05421797 </v>
    <v>       0.44439853       0.88948256       0.95225905 </v>
    <v>       0.55424744       0.77962078       0.04864733 </v>
    <v>       0.77532522       0.21775566       0.94948272 </v>
    <v>       0.88284991       0.10819233       0.05248779 </v>
    <v>       0.77769852       0.55581910       0.94425178 </v>
    <v>       0.88978085       0.44374065       0.05191905 </v>
    <v>       0.77406650       0.88961587       0.94996859 </v>
    <v>       0.88809454       0.77887605       0.05296971 </v>
   </varray>
  </structure>
  <varray name="forces" >
   <v>      -0.01482866       0.02979730      -0.04448500 </v>
   <v>       0.09636616       0.10625332       0.00243890 </v>
   <v>      -0.06325164       0.14461912       0.01359233 </v>
   <v>      -0.10873273      -0.21566212      -0.00549594 </v>
   <v>      -0.17143803       0.36989896       0.01235357 </v>
   <v>      -0.38572295       0.20120454      -0.00276107 </v>
   <v>       0.54504223       0.03478209      -0.03024125 </v>
   <v>      -0.30429870      -0.36221165       0.00447339 </v>
   <v>       0.36429718      -0.18039433       0.02685734 </v>
   <v>       0.08023819       0.03293921      -0.29149426 </v>
   <v>      -0.02025536       0.01146101       0.12600496 </v>
   <v>      -0.03781044      -0.09304885       0.15130281 </v>
   <v>       0.05547341      -0.05083854       0.09995903 </v>
   <v>      -0.03523429      -0.05778544       0.09115133 </v>
   <v>      -0.10386225      -0.13104831      -0.17386507 </v>
   <v>      -0.02205451       0.05878365      -0.03956004 </v>
   <v>      -0.08764615       0.13750032      -0.05205780 </v>
   <v>       0.09028856       0.00295271      -0.00120538 </v>
   <v>      -0.06356450      -0.10510117       0.15389718 </v>
   <v>      -0.01820675       0.01891117       0.01538158 </v>
   <v>       0.13574733       0.00936041      -0.05740341 </v>
   <v>      -0.07410366       0.08886362       0.15693546 </v>
   <v>       0.05089911       0.03238139       0.12085182 </v>
   <v>      -0.02215402      -0.04742779      -0.32614323 </v>
   <v>       0.08340676      -0.05516816      -0.12099838 </v>
   <v>       0.12580971      -0.03195319       0.17175075 </v>
   <v>      -0.09440400       0.05093072      -0.00123960 </v>
  </varray>
  <varray name="stress" >
   <v>      -0.07846036      -0.07456910      -0.13696445 </v>
   <v>      -0.07456910      -0.13369057      -0.07734229 </v>
   <v>      -0.13696427      -0.07734253      -1.04847226 </v>
  </varray>
  <energy>
   <i name="e_fr_energy">   -191.52095731 </i>
   <i name="e_wo_entrp">   -191.42608597 </i>
   <i name="e_0_energy">     -0.18974268 </i>
  </energy>
  <time name="totalsc">  288.80  289.56</time>
 </calculation>
 <calculation>
  <scstep>
   <time name="dav">   21.71   21.76</time>
   <time name="total">   22.22   22.27</time>
   <energy>
    <i name="alphaZ">     90.14489103 </i>
    <i name="ewald">  44630.58186805 </i>
    <i name="hartreedc"> -50642.31674670 </i>
    <i name="XCdc">   -233.39181742 </i>
    <i name="pawpsdc">   4084.22890929 </i>
    <i name="pawaedc">  -3500.15645779 </i>
    <i name="eentropy">     -0.18679646 </i>
    <i name="bandstr">  -1381.97381305 </i>
    <i name="atom">   6761.44252427 </i>
    <i name="e_fr_energy">   -191.62743878 </i>
    <i name="e_wo_entrp">   -191.44064232 </i>
    <i name="e_0_energy">   -191.53404055 </i>
   </energy>
  </scstep>
  <scstep>
   <time name="dav">   31.47   31.55</time>
   <time name="total">   31.98   32.06</time>
   <energy>
    <i name="e_fr_energy">   -191.74041741 </i>
    <i name="e_wo_entrp">   -191.53179440 </i>
    <i name="e_0_energy">   -191.63610591 </i>
   </energy>
  </scstep>
  <scstep>
   <time name="dav">   30.50   30.58</time>
   <time name="total">   31.02   31.12</time>
   <energy>
    <i name="e_fr_energy">   -191.64538212 </i>
    <i name="e_wo_entrp">   -191.45702789 </i>
    <i name="e_0_energy">   -191.55120500 </i>
   </energy>
  </scstep>
  <scstep>
   <time name="dav">   30.18   30.25</time>
   <time name="total">   30.69   30.77</time>
   <energy>
    <i name="e_fr_energy">   -191.65327225 </i>
    <i name="e_wo_entrp">   -191.46146534 </i>
    <i name="e_0_energy">   -191.55736879 </i>
   </energy>
  </scstep>
  <scstep>
   <time name="dav">   29.20   29.27</time>
   <time name="total">   29.71   29.79</time>
   <energy>
    <i name="e_fr_energy">   -191.63968134 </i>
    <i name="e_wo_entrp">   -191.44907242 </i>
    <i name="e_0_energy">   -191.54437688 </i>
   </energy>
  </scstep>
  <scstep>
   <time name="dav">   28.29   28.35</time>
   <time name="total">   28.79   28.87</time>
   <energy>
    <i name="e_fr_energy">   -191.64131487 </i>
    <i name="e_wo_entrp">   -191.44986871 </i>
    <i name="e_0_energy">   -191.54559179 </i>
   </energy>
  </scstep>
  <scstep>
   <time name="dav">   29.00   29.07</time>
   <time name="total">   29.51   29.58</time>
   <energy>
    <i name="e_fr_energy">   -191.63951566 </i>
    <i name="e_wo_entrp">   -191.44805585 </i>
    <i name="e_0_energy">   -191.54378576 </i>
   </energy>
  </scstep>
  <scstep>
   <time name="dav">   26.36   26.42</time>
   <time name="total">   26.86   26.94</time>
   <energy>
    <i name="e_fr_energy">   -191.63847119 </i>
    <i name="e_wo_entrp">   -191.44721143 </i>
    <i name="e_0_energy">   -191.54284131 </i>
   </energy>
  </scstep>
  <scstep>
[...]
      <set comment="kpoint 31">
       <r>  -17.5147    1.0000 </r>
       <r>  -17.2551    1.0000 </r>
       <r>  -16.9451    1.0000 </r>
       <r>  -16.6469    1.0000 </r>
       <r>  -16.5249    1.0000 </r>
       <r>  -16.4193    1.0000 </r>
       <r>  -16.3522    1.0000 </r>
       <r>  -16.1989    1.0000 </r>
       <r>  -16.0779    1.0000 </r>
       <r>  -15.9903    1.0000 </r>
       <r>  -15.9482    1.0000 </r>
       <r>  -15.8654    1.0000 </r>
       <r>  -15.7705    1.0000 </r>
       <r>  -15.6805    1.0000 </r>
       <r>  -15.6065    1.0000 </r>
       <r>  -15.5674    1.0000 </r>
       <r>  -15.4152    1.0000 </r>
       <r>  -15.2472    1.0000 </r>
       <r>   -9.7414    1.0000 </r>
       <r>   -9.4623    1.0000 </r>
       <r>   -9.3023    1.0000 </r>
       <r>   -9.0345    1.0000 </r>
       <r>   -8.8218    1.0000 </r>
       <r>   -8.7006    1.0000 </r>
       <r>   -8.6201    1.0000 </r>
       <r>   -8.4833    1.0000 </r>
       <r>   -8.3945    1.0000 </r>
       <r>   -8.2962    1.0000 </r>
       <r>   -8.2658    1.0000 </r>
       <r>   -8.1870    1.0000 </r>
       <r>   -8.1293    1.0000 </r>
       <r>   -8.0714    1.0000 </r>
       <r>   -8.0062    1.0000 </r>
       <r>   -7.9248    1.0000 </r>
       <r>   -7.7661    1.0000 </r>
       <r>   -7.6702    1.0000 </r>
       <r>   -7.5929    1.0000 </r>
       <r>   -7.3992    1.0000 </r>
       <r>   -7.3723    1.0000 </r>
       <r>   -7.2560    1.0000 </r>
       <r>   -7.1455    1.0000 </r>
       <r>   -7.0622    1.0000 </r>
       <r>   -6.9991    1.0000 </r>
       <r>   -6.9549    1.0000 </r>
       <r>   -6.8633    1.0000 </r>
       <r>   -6.7905    1.0000 </r>
       <r>   -6.7123    1.0000 </r>
       <r>   -6.6238    1.0000 </r>
       <r>   -6.5325    1.0000 </r>
       <r>   -6.5073    1.0000 </r>
       <r>   -6.4076    1.0000 </r>
       <r>   -6.3320    1.0000 </r>
       <r>   -6.2242    1.0000 </r>
       <r>   -6.1688    1.0000 </r>
       <r>   -6.1289    1.0000 </r>
       <r>   -6.0651    1.0000 </r>
       <r>   -6.0039    1.0000 </r>
       <r>   -5.9569    1.0000 </r>
       <r>   -5.8484    1.0000 </r>
       <r>   -5.8014    1.0000 </r>
       <r>   -5.7148    1.0000 </r>
       <r>   -5.6503    1.0000 </r>
       <r>   -5.5596    1.0000 </r>
       <r>   -5.3448    1.0000 </r>
       <r>   -5.2837    1.0000 </r>
       <r>   -5.1848    1.0000 </r>
       <r>   -5.0825    1.0000 </r>
       <r>   -4.9650    1.0000 </r>
       <r>   -4.7928    1.0000 </r>
       <r>   -4.6390    1.0000 </r>
       <r>   -4.5031    1.0000 </r>
       <r>   -4.3844    1.0000 </r>
       <r>   -4.3200    1.0000 </r>
       <r>   -4.2665    1.0000 </r>
       <r>   -4.1274    1.0000 </r>
       <r>   -4.0383    1.0000 </r>
       <r>   -3.9242    1.0000 </r>
       <r>   -3.6136    0.9787 </r>
       <r>   -3.5376    0.9319 </r>
       <r>   -3.3488    0.5616 </r>
       <r>   -2.9061    0.0015 </r>
       <r>   -2.7979    0.0001 </r>
       <r>   -2.6853    0.0000 </r>
       <r>   -2.5193    0.0000 </r>
       <r>   -2.4721    0.0000 </r>
       <r>   -2.4142    0.0000 </r>
       <r>   -2.1854    0.0000 </r>
       <r>   -2.1709    0.0000 </r>
       <r>   -1.9771    0.0000 </r>
       <r>   -1.8591    0.0000 </r>
       <r>   -1.7518    0.0000 </r>
       <r>   -1.5545    0.0000 </r>
       <r>   -1.5193    0.0000 </r>
       <r>   -1.3639    0.0000 </r>
       <r>   -1.2451    0.0000 </r>
       <r>   -1.2173    0.0000 </r>
       <r>   -1.1249    0.0000 </r>
       <r>   -1.0914    0.0000 </r>
       <r>   -0.9424    0.0000 </r>
       <r>   -0.8514    0.0000 </r>
       <r>   -0.7852    0.0000 </r>
       <r>   -0.7452    0.0000 </r>
       <r>   -0.6907    0.0000 </r>
       <r>   -0.5126    0.0000 </r>
       <r>   -0.4379    0.0000 </r>
       <r>   -0.3938    0.0000 </r>
       <r>   -0.2563    0.0000 </r>
       <r>   -0.1294    0.0000 </r>
       <r>   -0.0722    0.0000 </r>
       <r>    0.1782    0.0000 </r>
       <r>    0.4601    0.0000 </r>
       <r>    0.5975    0.0000 </r>
       <r>    0.7589    0.0000 </r>
       <r>    0.9959    0.0000 </r>
       <r>    1.1076    0.0000 </r>
       <r>    1.2262    0.0000 </r>
       <r>    1.3344    0.0000 </r>
       <r>    2.1284    0.0000 </r>
       <r>    2.2896    0.0000 </r>
       <r>    2.3889    0.0000 </r>
      </set>
      <set comment="kpoint 32">
       <r>  -17.5263    1.0000 </r>
       <r>  -17.1672    1.0000 </r>
       <r>  -17.0757    1.0000 </r>
       <r>  -16.6490    1.0000 </r>
       <r>  -16.4629    1.0000 </r>
       <r>  -16.3707    1.0000 </r>
       <r>  -16.2906    1.0000 </r>
       <r>  -16.2219    1.0000 </r>
       <r>  -16.1476    1.0000 </r>
       <r>  -16.0269    1.0000 </r>
       <r>  -15.9489    1.0000 </r>
       <r>  -15.8653    1.0000 </r>
       <r>  -15.7666    1.0000 </r>
       <r>  -15.6841    1.0000 </r>
       <r>  -15.6156    1.0000 </r>
       <r>  -15.5798    1.0000 </r>
       <r>  -15.3700    1.0000 </r>
       <r>  -15.2581    1.0000 </r>
       <r>   -9.6732    1.0000 </r>
       <r>   -9.5538    1.0000 </r>
       <r>   -9.3814    1.0000 </r>
       <r>   -9.0159    1.0000 </r>
       <r>   -8.7114    1.0000 </r>
       <r>   -8.6063    1.0000 </r>
       <r>   -8.5413    1.0000 </r>
       <r>   -8.4709    1.0000 </r>
       <r>   -8.4210    1.0000 </r>
       <r>   -8.2994    1.0000 </r>
       <r>   -8.2811    1.0000 </r>
       <r>   -8.2034    1.0000 </r>
       <r>   -8.1786    1.0000 </r>
       <r>   -8.1315    1.0000 </r>
       <r>   -8.0549    1.0000 </r>
       <r>   -7.9451    1.0000 </r>
       <r>   -7.8025    1.0000 </r>
       <r>   -7.6475    1.0000 </r>
       <r>   -7.5186    1.0000 </r>
       <r>   -7.4421    1.0000 </r>
       <r>   -7.3753    1.0000 </r>
       <r>   -7.2729    1.0000 </r>
       <r>   -7.1666    1.0000 </r>
       <r>   -7.0718    1.0000 </r>
       <r>   -7.0160    1.0000 </r>
       <r>   -6.9280    1.0000 </r>
       <r>   -6.8582    1.0000 </r>
       <r>   -6.7978    1.0000 </r>
       <r>   -6.7147    1.0000 </r>
       <r>   -6.5840    1.0000 </r>
       <r>   -6.5238    1.0000 </r>
       <r>   -6.4877    1.0000 </r>
       <r>   -6.3935    1.0000 </r>
       <r>   -6.3489    1.0000 </r>
       <r>   -6.3051    1.0000 </r>
       <r>   -6.1830    1.0000 </r>
       <r>   -6.1430    1.0000 </r>
       <r>   -6.0680    1.0000 </r>
       <r>   -6.0192    1.0000 </r>
       <r>   -5.8940    1.0000 </r>
       <r>   -5.8420    1.0000 </r>
       <r>   -5.7396    1.0000 </r>
       <r>   -5.6876    1.0000 </r>
       <r>   -5.6383    1.0000 </r>
       <r>   -5.4862    1.0000 </r>
       <r>   -5.4273    1.0000 </r>
       <r>   -5.3099    1.0000 </r>
       <r>   -5.1191    1.0000 </r>
       <r>   -5.0898    1.0000 </r>
       <r>   -5.0001    1.0000 </r>
       <r>   -4.8030    1.0000 </r>
       <r>   -4.6561    1.0000 </r>
       <r>   -4.4942    1.0000 </r>
       <r>   -4.3685    1.0000 </r>
       <r>   -4.3243    1.0000 </r>
       <r>   -4.3014    1.0000 </r>
       <r>   -4.1589    1.0000 </r>
       <r>   -4.0506    1.0000 </r>
       <r>   -3.9262    1.0000 </r>
       <r>   -3.6750    0.9931 </r>
       <r>   -3.4934    0.8806 </r>
       <r>   -3.3351    0.5232 </r>
       <r>   -3.0214    0.0154 </r>
       <r>   -2.7542    0.0000 </r>
       <r>   -2.6129    0.0000 </r>
       <r>   -2.4865    0.0000 </r>
       <r>   -2.4349    0.0000 </r>
       <r>   -2.3829    0.0000 </r>
       <r>   -2.1792    0.0000 </r>
       <r>   -2.1336    0.0000 </r>
       <r>   -1.9498    0.0000 </r>
       <r>   -1.8681    0.0000 </r>
       <r>   -1.7776    0.0000 </r>
       <r>   -1.5828    0.0000 </r>
       <r>   -1.5247    0.0000 </r>
       <r>   -1.4082    0.0000 </r>
       <r>   -1.2570    0.0000 </r>
       <r>   -1.2061    0.0000 </r>
       <r>   -1.1081    0.0000 </r>
       <r>   -1.0781    0.0000 </r>
       <r>   -0.9588    0.0000 </r>
       <r>   -0.8546    0.0000 </r>
       <r>   -0.7915    0.0000 </r>
       <r>   -0.7643    0.0000 </r>
       <r>   -0.6705    0.0000 </r>
       <r>   -0.5708    0.0000 </r>
       <r>   -0.4647    0.0000 </r>
       <r>   -0.3196    0.0000 </r>
       <r>   -0.2674    0.0000 </r>
       <r>   -0.0752    0.0000 </r>
       <r>   -0.0144    0.0000 </r>
       <r>    0.2362    0.0000 </r>
       <r>    0.3999    0.0000 </r>
       <r>    0.5925    0.0000 </r>
       <r>    0.7658    0.0000 </r>
       <r>    0.9340    0.0000 </r>
       <r>    1.0508    0.0000 </r>
       <r>    1.2260    0.0000 </r>
       <r>    1.3108    0.0000 </r>
       <r>    2.0935    0.0000 </r>
       <r>    2.2614    0.0000 </r>
       <r>    2.5575    0.0000 </r>
      </set>
      <set comment="kpoint 33">
       <r>  -17.5061    1.0000 </r>
       <r>  -17.2823    1.0000 </r>
       <r>  -16.9307    1.0000 </r>
       <r>  -16.6559    1.0000 </r>
       <r>  -16.5182    1.0000 </r>
       <r>  -16.4160    1.0000 </r>
       <r>  -16.2829    1.0000 </r>
       <r>  -16.1778    1.0000 </r>
       <r>  -16.1200    1.0000 </r>
       <r>  -16.0494    1.0000 </r>
       <r>  -15.9347    1.0000 </r>
       <r>  -15.8547    1.0000 </r>
       <r>  -15.7899    1.0000 </r>
       <r>  -15.7131    1.0000 </r>
       <r>  -15.6044    1.0000 </r>
       <r>  -15.5536    1.0000 </r>
       <r>  -15.3646    1.0000 </r>
       <r>  -15.2745    1.0000 </r>
       <r>   -9.7395    1.0000 </r>
       <r>   -9.4427    1.0000 </r>
       <r>   -9.3198    1.0000 </r>
       <r>   -9.0316    1.0000 </r>
       <r>   -8.8162    1.0000 </r>
       <r>   -8.7177    1.0000 </r>
       <r>   -8.5120    1.0000 </r>
       <r>   -8.4682    1.0000 </r>
       <r>   -8.4429    1.0000 </r>
       <r>   -8.3509    1.0000 </r>
       <r>   -8.2720    1.0000 </r>
       <r>   -8.1858    1.0000 </r>
       <r>   -8.1494    1.0000 </r>
       <r>   -8.0763    1.0000 </r>
       <r>   -8.0087    1.0000 </r>
       <r>   -7.8852    1.0000 </r>
       <r>   -7.7464    1.0000 </r>
       <r>   -7.7139    1.0000 </r>
       <r>   -7.5761    1.0000 </r>
       <r>   -7.4041    1.0000 </r>
       <r>   -7.3401    1.0000 </r>
       <r>   -7.2675    1.0000 </r>
       <r>   -7.1457    1.0000 </r>
       <r>   -7.0670    1.0000 </r>
       <r>   -7.0273    1.0000 </r>
       <r>   -6.9774    1.0000 </r>
       <r>   -6.8628    1.0000 </r>
       <r>   -6.7382    1.0000 </r>
       <r>   -6.6969    1.0000 </r>
       <r>   -6.6128    1.0000 </r>
       <r>   -6.5598    1.0000 </r>
       <r>   -6.4572    1.0000 </r>
       <r>   -6.4046    1.0000 </r>
       <r>   -6.3551    1.0000 </r>
       <r>   -6.2582    1.0000 </r>
       <r>   -6.2142    1.0000 </r>
       <r>   -6.1504    1.0000 </r>
       <r>   -6.0967    1.0000 </r>
       <r>   -6.0533    1.0000 </r>
       <r>   -5.8920    1.0000 </r>
       <r>   -5.8523    1.0000 </r>
       <r>   -5.7861    1.0000 </r>
       <r>   -5.7186    1.0000 </r>
       <r>   -5.6717    1.0000 </r>
       <r>   -5.5914    1.0000 </r>
       <r>   -5.4502    1.0000 </r>
       <r>   -5.2311    1.0000 </r>
       <r>   -5.1029    1.0000 </r>
       <r>   -5.0032    1.0000 </r>
       <r>   -4.8531    1.0000 </r>
       <r>   -4.7565    1.0000 </r>
       <r>   -4.6257    1.0000 </r>
       <r>   -4.5402    1.0000 </r>
       <r>   -4.4070    1.0000 </r>
       <r>   -4.3344    1.0000 </r>
       <r>   -4.2486    1.0000 </r>
       <r>   -4.2132    1.0000 </r>
       <r>   -4.0761    1.0000 </r>
       <r>   -3.9154    1.0000 </r>
       <r>   -3.7567    0.9988 </r>
       <r>   -3.5336    0.9281 </r>
       <r>   -3.3104    0.4536 </r>
       <r>   -3.1031    0.0569 </r>
       <r>   -2.7197    0.0000 </r>
       <r>   -2.5632    0.0000 </r>
       <r>   -2.4578    0.0000 </r>
       <r>   -2.4079    0.0000 </r>
       <r>   -2.3360    0.0000 </r>
       <r>   -2.1853    0.0000 </r>
       <r>   -2.1060    0.0000 </r>
       <r>   -1.8988    0.0000 </r>
       <r>   -1.8876    0.0000 </r>
       <r>   -1.7611    0.0000 </r>
       <r>   -1.6045    0.0000 </r>
       <r>   -1.5263    0.0000 </r>
       <r>   -1.4124    0.0000 </r>
       <r>   -1.2982    0.0000 </r>
       <r>   -1.2356    0.0000 </r>
       <r>   -1.0882    0.0000 </r>
       <r>   -1.0698    0.0000 </r>
       <r>   -0.9717    0.0000 </r>
       <r>   -0.8585    0.0000 </r>
       <r>   -0.7848    0.0000 </r>
       <r>   -0.7501    0.0000 </r>
       <r>   -0.6735    0.0000 </r>
       <r>   -0.6044    0.0000 </r>
       <r>   -0.4948    0.0000 </r>
       <r>   -0.3560    0.0000 </r>
       <r>   -0.2606    0.0000 </r>
       <r>   -0.0302    0.0000 </r>
       <r>    0.0785    0.0000 </r>
       <r>    0.2773    0.0000 </r>
       <r>    0.3317    0.0000 </r>
       <r>    0.5396    0.0000 </r>
       <r>    0.7984    0.0000 </r>
       <r>    0.8888    0.0000 </r>
       <r>    1.0782    0.0000 </r>
       <r>    1.2030    0.0000 </r>
       <r>    1.3319    0.0000 </r>
       <r>    2.1189    0.0000 </r>
       <r>    2.2950    0.0000 </r>
       <r>    2.3698    0.0000 </r>
      </set>
      <set comment="kpoint 34">
       <r>  -17.4778    1.0000 </r>
       <r>  -17.3513    1.0000 </r>
       <r>  -16.7812    1.0000 </r>
       <r>  -16.7057    1.0000 </r>
       <r>  -16.6012    1.0000 </r>
       <r>  -16.4332    1.0000 </r>
       <r>  -16.2793    1.0000 </r>
       <r>  -16.1848    1.0000 </r>
       <r>  -16.0706    1.0000 </r>
       <r>  -16.0560    1.0000 </r>
       <r>  -15.8924    1.0000 </r>
       <r>  -15.8636    1.0000 </r>
       <r>  -15.8205    1.0000 </r>
       <r>  -15.7223    1.0000 </r>
       <r>  -15.6049    1.0000 </r>
       <r>  -15.5269    1.0000 </r>
       <r>  -15.3765    1.0000 </r>
       <r>  -15.2816    1.0000 </r>
       <r>   -9.7746    1.0000 </r>
       <r>   -9.3603    1.0000 </r>
       <r>   -9.2184    1.0000 </r>
       <r>   -9.0654    1.0000 </r>
       <r>   -8.8895    1.0000 </r>
       <r>   -8.8622    1.0000 </r>
       <r>   -8.5016    1.0000 </r>
       <r>   -8.4726    1.0000 </r>
       <r>   -8.4426    1.0000 </r>
       <r>   -8.3820    1.0000 </r>
       <r>   -8.2742    1.0000 </r>
       <r>   -8.1750    1.0000 </r>
       <r>   -8.0951    1.0000 </r>
       <r>   -8.0265    1.0000 </r>
       <r>   -8.0180    1.0000 </r>
       <r>   -7.8222    1.0000 </r>
       <r>   -7.8043    1.0000 </r>
       <r>   -7.6938    1.0000 </r>
       <r>   -7.4757    1.0000 </r>
       <r>   -7.4270    1.0000 </r>
       <r>   -7.3489    1.0000 </r>
       <r>   -7.2317    1.0000 </r>
       <r>   -7.2021    1.0000 </r>
       <r>   -7.0664    1.0000 </r>
       <r>   -7.0406    1.0000 </r>
       <r>   -6.9823    1.0000 </r>
       <r>   -6.8823    1.0000 </r>
       <r>   -6.6951    1.0000 </r>
       <r>   -6.6892    1.0000 </r>
       <r>   -6.6026    1.0000 </r>
       <r>   -6.5708    1.0000 </r>
       <r>   -6.4598    1.0000 </r>
       <r>   -6.4061    1.0000 </r>
       <r>   -6.3228    1.0000 </r>
       <r>   -6.2852    1.0000 </r>
       <r>   -6.2339    1.0000 </r>
       <r>   -6.1651    1.0000 </r>
       <r>   -6.1061    1.0000 </r>
       <r>   -6.0328    1.0000 </r>
       <r>   -5.9253    1.0000 </r>
       <r>   -5.8930    1.0000 </r>
       <r>   -5.8328    1.0000 </r>
       <r>   -5.7139    1.0000 </r>
       <r>   -5.6463    1.0000 </r>
       <r>   -5.6088    1.0000 </r>
       <r>   -5.5502    1.0000 </r>
       <r>   -5.1783    1.0000 </r>
       <r>   -5.1409    1.0000 </r>
       <r>   -4.8453    1.0000 </r>
       <r>   -4.7591    1.0000 </r>
       <r>   -4.7239    1.0000 </r>
       <r>   -4.6374    1.0000 </r>
       <r>   -4.5756    1.0000 </r>
       <r>   -4.4597    1.0000 </r>
       <r>   -4.3336    1.0000 </r>
       <r>   -4.2649    1.0000 </r>
       <r>   -4.1706    1.0000 </r>
       <r>   -4.0905    1.0000 </r>
       <r>   -3.9071    1.0000 </r>
       <r>   -3.7867    0.9994 </r>
       <r>   -3.5877    0.9674 </r>
       <r>   -3.3258    0.4971 </r>
       <r>   -3.1098    0.0624 </r>
       <r>   -2.7090    0.0000 </r>
       <r>   -2.5398    0.0000 </r>
       <r>   -2.4530    0.0000 </r>
       <r>   -2.4004    0.0000 </r>
       <r>   -2.3124    0.0000 </r>
       <r>   -2.1907    0.0000 </r>
       <r>   -2.0915    0.0000 </r>
       <r>   -1.8982    0.0000 </r>
       <r>   -1.8679    0.0000 </r>
       <r>   -1.7569    0.0000 </r>
       <r>   -1.5967    0.0000 </r>
       <r>   -1.5270    0.0000 </r>
       <r>   -1.4127    0.0000 </r>
       <r>   -1.3275    0.0000 </r>
       <r>   -1.2482    0.0000 </r>
       <r>   -1.0879    0.0000 </r>
       <r>   -1.0654    0.0000 </r>
       <r>   -0.9379    0.0000 </r>
       <r>   -0.8979    0.0000 </r>
       <r>   -0.7849    0.0000 </r>
       <r>   -0.7189    0.0000 </r>
       <r>   -0.6986    0.0000 </r>
       <r>   -0.5996    0.0000 </r>
       <r>   -0.5206    0.0000 </r>
       <r>   -0.3692    0.0000 </r>
       <r>   -0.2765    0.0000 </r>
       <r>   -0.0051    0.0000 </r>
       <r>    0.1420    0.0000 </r>
       <r>    0.2260    0.0000 </r>
       <r>    0.3439    0.0000 </r>
       <r>    0.5043    0.0000 </r>
       <r>    0.8026    0.0000 </r>
       <r>    0.9019    0.0000 </r>
       <r>    1.0955    0.0000 </r>
       <r>    1.1967    0.0000 </r>
       <r>    1.3511    0.0000 </r>
       <r>    2.1846    0.0000 </r>
       <r>    2.2359    0.0000 </r>
       <r>    2.3740    0.0000 </r>
      </set>
     </set>
    </set>
   </array>
  </eigenvalues>
  <separator name="orbital magnetization" >
   <v name="MAGDIPOLOUT">      0.00000000      0.00000000      0.00000000</v>
  </separator>
 </calculation>
 <structure name="finalpos" >
  <crystal>
   <varray name="basis" >
    <v>       8.37990924       4.81660636       0.00000000 </v>
    <v>      -8.38034324       4.81709392       0.00000000 </v>
    <v>       0.00000000       0.00000000      30.00000000 </v>
   </varray>
   <i name="volume">   2421.94873216 </i>
   <varray name="rec_basis" >
    <v>       0.05966799       0.10380496       0.00000000 </v>
    <v>      -0.05966195       0.10379959       0.00000000 </v>
    <v>       0.00000000       0.00000000       0.03333333 </v>
   </varray>
  </crystal>
  <varray name="positions" >
   <v>       0.64740280       0.01929211      -0.00263701 </v>
   <v>       0.34980813       0.64924042       0.00180776 </v>
   <v>       0.33605052       0.02287983      -0.00004399 </v>
   <v>       0.33355344       0.32901523       0.00046481 </v>
   <v>       0.03181717       0.01456707       0.00067755 </v>
   <v>       0.64815823       0.34354357      -0.00088319 </v>
   <v>       1.02642101       0.31608287       0.00179680 </v>
   <v>      -0.02900715       0.67539244      -0.00266536 </v>
   <v>       0.65633753       0.63839137       0.00032437 </v>
   <v>       0.11845306       0.21867673       0.94459647 </v>
   <v>       0.23142021       0.11106509       0.05573954 </v>
   <v>       0.11214105       0.55456050       0.95576733 </v>
   <v>       0.22935160       0.44577692       0.05489129 </v>
   <v>       0.11865736       0.89089265       0.94678003 </v>
   <v>       0.22124350       0.77491902       0.04090560 </v>
   <v>       0.44088217       0.21656393       0.94522643 </v>
   <v>       0.54950680       0.11262915       0.05123703 </v>
   <v>       0.44377234       0.55432940       0.94678730 </v>
   <v>       0.55177470       0.44224519       0.05678803 </v>
   <v>       0.43683346       0.88543974       0.95326662 </v>
   <v>       0.55660414       0.78222894       0.04839625 </v>
   <v>       0.78442063       0.22903459       0.95194742 </v>
   <v>       0.88352934       0.10379994       0.05014585 </v>
   <v>       0.76844516       0.55330181       0.94221631 </v>
   <v>       0.89322106       0.44191479       0.04403362 </v>
   <v>       0.77408743       0.89276283       0.95953960 </v>
   <v>       0.88332874       0.77966833       0.05289344 </v>
  </varray>
 </structure>
</modeling>
