unknown system                          
           1
     8.857560    5.102718    0.000000
    -8.858788    5.104831    0.000000
     0.000000    0.000000   30.000000
   V    Mo   W    S 
   3   3   3  18
Direct configuration=     1
   0.66666669  0.00000000  0.00000000
   0.33333334  0.66666669  0.00000000
   0.33333334  0.00000000  0.00000000
   0.33333334  0.33333334  0.00000000
   0.00000000  0.00000000  0.00000000
   0.66666669  0.33333334  0.00000000
   1.00000000  0.33333334  0.00000000
   0.00000000  0.66666669  0.00000000
   0.66666669  0.66666669  0.00000000
   0.11068511  0.22244981  0.95539999
   0.22244981  0.11068511  0.04460000
   0.11068511  0.55578315  0.95539999
   0.22244981  0.44401845  0.04460000
   0.11068511  0.88911647  0.95539999
   0.22244981  0.77735180  0.04460000
   0.44401845  0.22244981  0.95539999
   0.55578315  0.11068511  0.04460000
   0.44401845  0.55578315  0.95539999
   0.55578315  0.44401845  0.04460000
   0.44401845  0.88911647  0.95539999
   0.55578315  0.77735180  0.04460000
   0.77735180  0.22244981  0.95539999
   0.88911647  0.11068511  0.04460000
   0.77735180  0.55578315  0.95539999
   0.88911647  0.44401845  0.04460000
   0.77735180  0.88911647  0.95539999
   0.88911647  0.77735180  0.04460000
unknown system                          
           1
     8.668568    4.996346    0.000000
    -8.669697    4.998289    0.000000
     0.000000    0.000000   30.000000
   V    Mo   W    S 
   3   3   3  18
Direct configuration=     2
   0.66679782  0.00075402 -0.00006318
   0.33373095  0.66646004 -0.00005050
   0.33385047  0.00184346 -0.00003407
   0.33336784  0.33181399  0.00018693
   0.00132891  0.00123616  0.00015087
   0.66517256  0.33322815 -0.00010167
   0.99998294  0.33156232  0.00023328
  -0.00083320  0.66716610 -0.00012182
   0.66633308  0.66541356 -0.00019844
   0.11063347  0.22263870  0.95075123
   0.22451510  0.10869143  0.04805712
   0.11464627  0.55731037  0.95194251
   0.22327648  0.44824162  0.04805796
   0.11500893  0.88992771  0.95195168
   0.22562610  0.77917789  0.04684818
   0.44225426  0.21765131  0.95190800
   0.55346230  0.10655811  0.04687526
   0.44305825  0.55846897  0.95204323
   0.55574449  0.44525052  0.04924903
   0.44424408  0.88891596  0.95417458
   0.55368819  0.77947782  0.04694374
   0.77636247  0.21818843  0.95195300
   0.88491688  0.10991211  0.04811486
   0.77815139  0.55631578  0.95059583
   0.88969889  0.44473460  0.04918227
   0.77475014  0.89015103  0.95207619
   0.88844540  0.77712429  0.04927384
unknown system                          
           1
     8.485896    4.897366    0.000000
    -8.486637    4.898637    0.000000
     0.000000    0.000000   30.000000
   V    Mo   W    S 
   3   3   3  18
Direct configuration=     3
   0.66699295  0.00104369 -0.00010798
   0.33377631  0.66631895 -0.00005268
   0.33394678  0.00242397 -0.00003053
   0.33324619  0.33130243  0.00020310
   0.00182993  0.00184385  0.00012744
   0.66499530  0.33386662 -0.00008150
   1.00007648  0.33095421  0.00025294
  -0.00165228  0.66705424 -0.00009476
   0.66657044  0.66472928 -0.00023208
   0.11052350  0.22278788  0.95070404
   0.22460648  0.10862656  0.04817353
   0.11446738  0.55725355  0.95204115
   0.22311775  0.44821233  0.04805427
   0.11502065  0.88977132  0.95196969
   0.22547947  0.77914521  0.04671836
   0.44215606  0.21748173  0.95182498
   0.55335618  0.10644205  0.04683223
   0.44325880  0.55860847  0.95206065
   0.55585413  0.44549092  0.04932736
   0.44426786  0.88892036  0.95428971
   0.55377796  0.77940108  0.04683798
   0.77651420  0.21820345  0.95198653
   0.88491975  0.11006812  0.04817022
   0.77822938  0.55655764  0.95049488
   0.88994779  0.44484803  0.04911868
   0.77459117  0.88995124  0.95214488
   0.88834383  0.77690725  0.04926683
unknown system                          
           1
     8.281231    4.771643    0.000000
    -8.285008    4.778175    0.000000
     0.000000    0.000000   30.000000
   V    Mo   W    S 
   3   3   3  18
Direct configuration=     4
   0.66835802  0.00235539 -0.00024072
   0.33360700  0.66531604 -0.00003279
   0.33391873  0.00459791  0.00000114
   0.33254020  0.32947169  0.00018207
   0.00365466  0.00436772  0.00000000
   0.66503092  0.33753577  0.00000785
   1.00061290  0.32869585  0.00021269
  -0.00579413  0.66594572  0.00004510
   0.66806190  0.66162155 -0.00025955
   0.11064170  0.22304683  0.94889942
   0.22538562  0.10794978  0.05009900
   0.11513980  0.55765020  0.95097567
   0.22377126  0.44924511  0.04951458
   0.11627414  0.89036710  0.95058155
   0.22645654  0.77983106  0.04753307
   0.44144136  0.21610987  0.95006698
   0.55263108  0.10533701  0.04795887
   0.44277591  0.55893721  0.95068210
   0.55578601  0.44565726  0.05125064
   0.44431171  0.88897201  0.95350512
   0.55345627  0.77988248  0.04774679
   0.77594581  0.21727536  0.95070404
   0.88363905  0.10928835  0.04990498
   0.77814627  0.55660460  0.94834318
   0.89014593  0.44485358  0.05046155
   0.77403691  0.89032578  0.95099385
   0.88823887  0.77697321  0.05086272
unknown system                          
           1
     8.290193    4.771149    0.000000
    -8.298158    4.784940    0.000000
     0.000000    0.000000   30.000000
   V    Mo   W    S 
   3   3   3  18
Direct configuration=     5
   0.67086991  0.00455112 -0.00033436
   0.33350838  0.66372176  0.00005283
   0.33379707  0.00815084  0.00009128
   0.33038848  0.32611153  0.00005878
   0.00744256  0.01027641 -0.00012757
   0.66581425  0.34612597  0.00009963
   1.00263332  0.32400688  0.00006805
  -0.01478166  0.66303185  0.00020020
   0.67092963  0.65487235 -0.00014421
   0.11140551  0.22323242  0.94631852
   0.22618449  0.10738350  0.05278992
   0.11532936  0.55778702  0.94986344
   0.22449791  0.44974129  0.05152003
   0.11745765  0.89099656  0.94893903
   0.22683680  0.78056732  0.04839102
   0.44108213  0.21505015  0.94776302
   0.55218993  0.10522141  0.04938473
   0.44252813  0.55867724  0.94899426
   0.55488884  0.44542377  0.05393724
   0.44435431  0.88927667  0.95225611
   0.55356817  0.78013149  0.04877475
   0.77516970  0.21688222  0.94924684
   0.88241086  0.10818199  0.05230688
   0.77784936  0.55607556  0.94487628
   0.88996305  0.44433028  0.05206568
   0.77379323  0.89033993  0.94970647
   0.88810308  0.77806691  0.05290105
unknown system                          
           1
     8.284710    4.765084    0.000000
    -8.295632    4.784005    0.000000
     0.000000    0.000000   30.000000
   V    Mo   W    S 
   3   3   3  18
Direct configuration=     6
   0.67107695  0.00475015 -0.00038626
   0.33406312  0.66385350  0.00002036
   0.33411208  0.00886651  0.00008750
   0.32917587  0.32552451  0.00005682
   0.00853453  0.01231001 -0.00006279
   0.66603881  0.34804062  0.00006952
   1.00417542  0.32276769  0.00002825
  -0.01712049  0.66201543  0.00012399
   0.67096638  0.65332318 -0.00007854
   0.11190836  0.22320989  0.94587714
   0.22606079  0.10756083  0.05297353
   0.11455570  0.55739173  0.95012090
   0.22427877  0.44903780  0.05163824
   0.11692210  0.89074577  0.94908611
   0.22559829  0.78015625  0.04816852
   0.44154947  0.21563111  0.94771828
   0.55277014  0.10653952  0.04930327
   0.44305702  0.55836200  0.94905106
   0.55402962  0.44502499  0.05421797
   0.44439853  0.88948256  0.95225905
   0.55424744  0.77962078  0.04864733
   0.77532522  0.21775566  0.94948272
   0.88284991  0.10819233  0.05248779
   0.77769852  0.55581910  0.94425178
   0.88978085  0.44374065  0.05191905
   0.77406650  0.88961587  0.94996859
   0.88809454  0.77887605  0.05296971
unknown system                          
           1
     8.297284    4.769587    0.000000
    -8.309690    4.791078    0.000000
     0.000000    0.000000   30.000000
   V    Mo   W    S 
   3   3   3  18
Direct configuration=     7
   0.67128083  0.00507677 -0.00049573
   0.33529276  0.66421370  0.00002666
   0.33493154  0.01029917  0.00012133
   0.32701858  0.32430902  0.00004169
   0.01065763  0.01597123 -0.00003373
   0.66589694  0.35139898  0.00006366
   1.00687095  0.32057063 -0.00004758
  -0.02136063  0.66053934  0.00013539
   0.67123443  0.65025104 -0.00001082
   0.11252916  0.22311207  0.94512348
   0.22607012  0.10772848  0.05332542
   0.11367997  0.55685032  0.95046821
   0.22414642  0.44841057  0.05191566
   0.11634337  0.89047077  0.94927850
   0.22414199  0.77962383  0.04776352
   0.44190011  0.21616315  0.94758278
   0.55343050  0.10797938  0.04920214
   0.44347620  0.55798250  0.94901924
   0.55292753  0.44449496  0.05463948
   0.44446354  0.88971300  0.95227384
   0.55492283  0.77909769  0.04852644
   0.77566140  0.21875597  0.94983792
   0.88330207  0.10819512  0.05282301
   0.77723620  0.55554262  0.94339747
   0.88971919  0.44294182  0.05165482
   0.77437422  0.88881732  0.95036257
   0.88806662  0.77970502  0.05300451
unknown system                          
           1
     8.301564    4.768492    0.000000
    -8.316496    4.794361    0.000000
     0.000000    0.000000   30.000000
   V    Mo   W    S 
   3   3   3  18
Direct configuration=     8
   0.67119354  0.00505316 -0.00052788
   0.33577183  0.66434987  0.00002845
   0.33526612  0.01060944  0.00013321
   0.32667677  0.32421326  0.00003567
   0.01097761  0.01637812 -0.00002810
   0.66555485  0.35137439  0.00005327
   1.00739639  0.32042677 -0.00004293
  -0.02169282  0.66051004  0.00010774
   0.67092385  0.65004417  0.00000249
   0.11265926  0.22306525  0.94499475
   0.22607074  0.10772988  0.05333899
   0.11359240  0.55676898  0.95058616
   0.22415148  0.44839287  0.05194342
   0.11627155  0.89040867  0.94936228
   0.22390144  0.77950040  0.04763136
   0.44190236  0.21620917  0.94759172
   0.55351943  0.10814589  0.04916226
   0.44347596  0.55797192  0.94902799
   0.55267335  0.44438160  0.05468064
   0.44448556  0.88973086  0.95231081
   0.55497622  0.77903475  0.04849892
   0.77580902  0.21894627  0.94996375
   0.88338203  0.10820269  0.05282212
   0.77710985  0.55548267  0.94333019
   0.88973334  0.44272302  0.05153368
   0.77442762  0.88871353  0.95048803
   0.88800471  0.77984683  0.05297092
unknown system                          
           1
     8.310300    4.771797    0.000000
    -8.326063    4.799103    0.000000
     0.000000    0.000000   30.000000
   V    Mo   W    S 
   3   3   3  18
Direct configuration=     9
   0.67102682  0.00509231 -0.00062616
   0.33715990  0.66463771  0.00004369
   0.33622603  0.01167520  0.00017595
   0.32541549  0.32372555  0.00003024
   0.01227308  0.01830786 -0.00000783
   0.66486749  0.35257507  0.00004141
   1.00928502  0.31944926 -0.00006201
  -0.02384577  0.65998458  0.00008602
   0.67047392  0.64848395  0.00003614
   0.11301585  0.22294448  0.94459552
   0.22608125  0.10780942  0.05344104
   0.11320363  0.55649017  0.95093591
   0.22414636  0.44817909  0.05205293
   0.11598330  0.89021343  0.94958056
   0.22307826  0.77910835  0.04722854
   0.44195020  0.21643366  0.94756765
   0.55385307  0.10881094  0.04906606
   0.44353319  0.55782469  0.94903520
   0.55195082  0.44403984  0.05483293
   0.44454118  0.88980895  0.95239290
   0.55522594  0.77879904  0.04841821
   0.77619265  0.21958241  0.95031817
   0.88370336  0.10823843  0.05288180
   0.77666435  0.55529674  0.94303093
   0.88972612  0.44213987  0.05118289
   0.77461788  0.88831391  0.95085045
   0.88786504  0.78024952  0.05287078
unknown system                          
           1
     8.322286    4.774780    0.000000
    -8.339557    4.804689    0.000000
     0.000000    0.000000   30.000000
   V    Mo   W    S 
   3   3   3  18
Direct configuration=    10
   0.67093072  0.00512934 -0.00068085
   0.33796378  0.66475384  0.00005702
   0.33677213  0.01228930  0.00020156
   0.32491796  0.32351018  0.00002397
   0.01286369  0.01906009 -0.00000213
   0.66439011  0.35286919  0.00003106
   1.01008818  0.31907742 -0.00006389
  -0.02471775  0.65985608  0.00006552
   0.67011122  0.64787624  0.00005578
   0.11319796  0.22287403  0.94438638
   0.22611557  0.10783418  0.05350294
   0.11303474  0.55637738  0.95109795
   0.22418361  0.44811610  0.05213459
   0.11589660  0.89013051  0.94967183
   0.22270735  0.77893913  0.04702908
   0.44192915  0.21650142  0.94753157
   0.55399229  0.10907926  0.04904746
   0.44352035  0.55774891  0.94899595
   0.55157907  0.44386372  0.05493182
   0.44457264  0.88986393  0.95241305
   0.55535283  0.77873352  0.04841938
   0.77638697  0.21989255  0.95047651
   0.88383240  0.10823211  0.05291746
   0.77640963  0.55518751  0.94288159
   0.88972537  0.44183415  0.05101478
   0.77469887  0.88814070  0.95101456
   0.88775901  0.78044367  0.05284495
unknown system                          
           1
     8.330791    4.778606    0.000000
    -8.348748    4.809705    0.000000
     0.000000    0.000000   30.000000
   V    Mo   W    S 
   3   3   3  18
Direct configuration=    11
   0.67063970  0.00531497 -0.00085854
   0.34056355  0.66510193  0.00010948
   0.33852557  0.01428405  0.00029030
   0.32369761  0.32284095  0.00001568
   0.01448693  0.02095807  0.00001042
   0.66289326  0.35353263  0.00001076
   1.01219367  0.31801321 -0.00005499
  -0.02722645  0.65960562  0.00000840
   0.66902402  0.64615071  0.00009576
   0.11360415  0.22264334  0.94394378
   0.22619664  0.10790509  0.05359051
   0.11254206  0.55607775  0.95163670
   0.22424363  0.44787390  0.05229207
   0.11570379  0.88990315  0.94999000
   0.22166536  0.77848365  0.04636463
   0.44179788  0.21663900  0.94746522
   0.55432422  0.10973226  0.04896289
   0.44344564  0.55752627  0.94889955
   0.55063345  0.44339950  0.05510744
   0.44472173  0.89008509  0.95252087
   0.55571482  0.77864772  0.04841766
   0.77698048  0.22076658  0.95098078
   0.88427456  0.10824898  0.05290376
   0.77558310  0.55488799  0.94263596
   0.88968221  0.44102990  0.05042262
   0.77493929  0.88772260  0.95155285
   0.88736358  0.78083956  0.05268536
unknown system                          
           1
     8.337660    4.780416    0.000000
    -8.356312    4.812712    0.000000
     0.000000    0.000000   30.000000
   V    Mo   W    S 
   3   3   3  18
Direct configuration=    12
   0.67044870  0.00532303 -0.00092280
   0.34160804  0.66500798  0.00014036
   0.33919406  0.01499040  0.00032830
   0.32349732  0.32289717  0.00000920
   0.01496276  0.02132762  0.00000915
   0.66224922  0.35341641  0.00000217
   1.01290167  0.31795013 -0.00004398
  -0.02781400  0.65970117 -0.00002176
   0.66833941  0.64572623  0.00011289
   0.11375380  0.22257639  0.94380281
   0.22625492  0.10791286  0.05364860
   0.11248970  0.55607222  0.95182396
   0.22434242  0.44787486  0.05234835
   0.11570936  0.88983646  0.95005139
   0.22140729  0.77829967  0.04611932
   0.44171026  0.21667316  0.94738557
   0.55443098  0.10987764  0.04899839
   0.44332603  0.55745528  0.94882659
   0.55029247  0.44322668  0.05519346
   0.44473926  0.89009836  0.95254257
   0.55577756  0.77866186  0.04846442
   0.77718386  0.22107666  0.95110256
   0.88435790  0.10819039  0.05291666
   0.77524446  0.55476111  0.94254414
   0.88965345  0.44074744  0.05024293
   0.77499573  0.88759723  0.95170014
   0.88715781  0.78093605  0.05267450
unknown system                          
           1
     8.341541    4.782602    0.000000
    -8.359714    4.814062    0.000000
     0.000000    0.000000   30.000000
   V    Mo   W    S 
   3   3   3  18
Direct configuration=    13
   0.67004239  0.00545563 -0.00109812
   0.34415986  0.66481507  0.00021515
   0.34084604  0.01679136  0.00041717
   0.32296450  0.32284681  0.00000436
   0.01616348  0.02235883  0.00001716
   0.66079200  0.35343935 -0.00002678
   1.01451446  0.31749716 -0.00001700
  -0.02958415  0.65984164 -0.00007953
   0.66693547  0.64448367  0.00014008
   0.11404632  0.22239458  0.94354775
   0.22636705  0.10798488  0.05370808
   0.11229126  0.55602622  0.95232190
   0.22451651  0.44779199  0.05246350
   0.11568330  0.88966431  0.95025988
   0.22072525  0.77785822  0.04547352
   0.44150279  0.21675688  0.94726360
   0.55467406  0.11024813  0.04902311
   0.44308366  0.55727371  0.94866471
   0.54955237  0.44283835  0.05533013
   0.44483552  0.89016743  0.95264536
   0.55595842  0.77870380  0.04854658
   0.77769577  0.22179923  0.95147490
   0.88469305  0.10815960  0.05285408
   0.77440326  0.55449434  0.94243676
   0.88956536  0.44014015  0.04972854
   0.77515301  0.88731315  0.95212756
   0.88663347  0.78106996  0.05255743
unknown system                          
           1
     8.352243    4.788248    0.000000
    -8.368969    4.817181    0.000000
     0.000000    0.000000   30.000000
   V    Mo   W    S 
   3   3   3  18
Direct configuration=    14
   0.66994288  0.00553556 -0.00114022
   0.34464633  0.66462765  0.00023948
   0.34121277  0.01726425  0.00043736
   0.32301473  0.32285011  0.00000249
   0.01639595  0.02239703  0.00001527
   0.66041878  0.35325635 -0.00003499
   1.01473224  0.31749362 -0.00000472
  -0.02981125  0.65996356 -0.00009714
   0.66655545  0.64430598  0.00014644
   0.11409005  0.22235347  0.94351771
   0.22641913  0.10799765  0.05372086
   0.11228731  0.55606812  0.95242178
   0.22458510  0.44780719  0.05250420
   0.11573775  0.88965121  0.95028207
   0.22064940  0.77778945  0.04532526
   0.44143707  0.21674635  0.94722164
   0.55469941  0.11028261  0.04905121
   0.44302475  0.55722925  0.94858954
   0.54942005  0.44275744  0.05536732
   0.44483775  0.89017214  0.95266569
   0.55601809  0.77876128  0.04859972
   0.77779628  0.22194888  0.95152519
   0.88473973  0.10813561  0.05283512
   0.77419022  0.55443678  0.94242271
   0.88954248  0.44004562  0.04962669
   0.77517574  0.88727593  0.95220470
   0.88645624  0.78106136  0.05255450
unknown system                          
           1
     8.363466    4.791369    0.000000
    -8.379036    4.818266    0.000000
     0.000000    0.000000   30.000000
   V    Mo   W    S 
   3   3   3  18
Direct configuration=    15
   0.66949836  0.00582647 -0.00133162
   0.34705028  0.66382323  0.00035419
   0.34280822  0.01918171  0.00052828
   0.32298856  0.32304997 -0.00000806
   0.01743522  0.02288728  0.00001289
   0.65889397  0.35287932 -0.00006206
   1.01603653  0.31725057  0.00004954
  -0.03122222  0.66040682 -0.00017269
   0.66486810  0.64322603  0.00016299
   0.11429829  0.22217506  0.94339268
   0.22658957  0.10809225  0.05378349
   0.11225923  0.55621994  0.95292065
   0.22483857  0.44778887  0.05263662
   0.11588628  0.88957216  0.95040500
   0.22023218  0.77738308  0.04463182
   0.44121187  0.21683003  0.94703627
   0.55489467  0.11052986  0.04915583
   0.44277427  0.55704322  0.94832762
   0.54881604  0.44238549  0.05549659
   0.44488859  0.89015327  0.95278963
   0.55619483  0.77891564  0.04875530
   0.77830529  0.22268336  0.95180333
   0.88503267  0.10806679  0.05272938
   0.77322163  0.55417768  0.94237635
   0.88941051  0.43956310  0.04912626
   0.77529278  0.88706466  0.95260822
   0.88571016  0.78103859  0.05249138
unknown system                          
           1
     8.372638    4.798004    0.000000
    -8.386324    4.821620    0.000000
     0.000000    0.000000   30.000000
   V    Mo   W    S 
   3   3   3  18
Direct configuration=    16
   0.66850230  0.00664423 -0.00172808
   0.35111685  0.66172712  0.00060520
   0.34585395  0.02309520  0.00069955
   0.32329753  0.32350395 -0.00003178
   0.01957625  0.02352311  0.00002971
   0.65583388  0.35178530 -0.00014167
   1.01849416  0.31704747  0.00018275
  -0.03367599  0.66153118 -0.00032516
   0.66144395  0.64120566  0.00020939
   0.11472552  0.22184566  0.94316971
   0.22693722  0.10823171  0.05388567
   0.11227948  0.55659910  0.95389761
   0.22536250  0.44776054  0.05293196
   0.11625235  0.88946717  0.95060670
   0.21962110  0.77665927  0.04323235
   0.44081441  0.21696239  0.94667172
   0.55522389  0.11091434  0.04936843
   0.44235518  0.55665877  0.94774316
   0.54765482  0.44162720  0.05578861
   0.44493651  0.89005937  0.95309964
   0.55660852  0.77929490  0.04907600
   0.77934191  0.22411237  0.95230745
   0.88551031  0.10785386  0.05251103
   0.77134943  0.55371001  0.94228850
   0.88919963  0.43879174  0.04813433
   0.77549616  0.88673721  0.95340321
   0.88410265  0.78086562  0.05238392
unknown system                          
           1
     8.371247    4.796829    0.000000
    -8.384202    4.819166    0.000000
     0.000000    0.000000   30.000000
   V    Mo   W    S 
   3   3   3  18
Direct configuration=    17
   0.66835452  0.00691632 -0.00175821
   0.35065326  0.66125541  0.00065125
   0.34579850  0.02331049  0.00069527
   0.32367787  0.32358847 -0.00004730
   0.01973440  0.02332936  0.00001372
   0.65559963  0.35149851 -0.00015439
   1.01858709  0.31714492  0.00021583
  -0.03358776  0.66170641 -0.00036650
   0.66110382  0.64108755  0.00019374
   0.11476175  0.22178610  0.94316809
   0.22706166  0.10824162  0.05394126
   0.11234980  0.55666698  0.95392900
   0.22551007  0.44778002  0.05302056
   0.11640023  0.88957710  0.95055565
   0.21985761  0.77676207  0.04312716
   0.44079607  0.21695795  0.94659629
   0.55526422  0.11094266  0.04943162
   0.44240282  0.55658022  0.94764982
   0.54759184  0.44152977  0.05584895
   0.44484015  0.88999942  0.95314140
   0.55673373  0.77935794  0.04911917
   0.77946059  0.22428360  0.95228063
   0.88550572  0.10778194  0.05249682
   0.77111830  0.55366010  0.94227311
   0.88924772  0.43881512  0.04806188
   0.77549183  0.88675757  0.95348051
   0.88389900  0.78089686  0.05243456
unknown system                          
           1
     8.375262    4.798942    0.000000
    -8.387291    4.819662    0.000000
     0.000000    0.000000   30.000000
   V    Mo   W    S 
   3   3   3  18
Direct configuration=    18
   0.66797211  0.00732549 -0.00185580
   0.35115735  0.66042612  0.00074848
   0.34631393  0.02422958  0.00072799
   0.32395989  0.32377951 -0.00005924
   0.02031918  0.02337163  0.00002521
   0.65487382  0.35115715 -0.00017428
   1.01922716  0.31710472  0.00027681
  -0.03412630  0.66212656 -0.00041524
   0.66022591  0.64051629  0.00020382
   0.11487333  0.22171420  0.94317787
   0.22719945  0.10828792  0.05397087
   0.11237855  0.55676087  0.95415488
   0.22567955  0.44770720  0.05310446
   0.11654656  0.88961427  0.95056426
   0.21988227  0.77668146  0.04276691
   0.44073627  0.21700499  0.94648954
   0.55532909  0.11102194  0.04950038
   0.44234259  0.55646412  0.94750870
   0.54738501  0.44133346  0.05590505
   0.44479056  0.88993583  0.95325765
   0.55680721  0.77941844  0.04915802
   0.77981155  0.22470986  0.95237005
   0.88566504  0.10773446  0.05240349
   0.77063193  0.55356164  0.94228758
   0.88925668  0.43873224  0.04778590
   0.77552518  0.88671013  0.95372174
   0.88345060  0.78078439  0.05239481
unknown system                          
           1
     8.391269    4.808126    0.000000
    -8.398588    4.820628    0.000000
     0.000000    0.000000   30.000000
   V    Mo   W    S 
   3   3   3  18
Direct configuration=    19
   0.66755359  0.00780000 -0.00193687
   0.35132181  0.65965288  0.00083529
   0.34659197  0.02490461  0.00074145
   0.32430161  0.32396608 -0.00007286
   0.02077284  0.02326398  0.00003451
   0.65433691  0.35075610 -0.00019860
   1.01966999  0.31711313  0.00033262
  -0.03442414  0.66253510 -0.00047656
   0.65952095  0.64011475  0.00020677
   0.11497671  0.22164768  0.94317759
   0.22734915  0.10831794  0.05402465
   0.11240634  0.55683308  0.95430735
   0.22585527  0.44763550  0.05320900
   0.11669874  0.88967866  0.95053284
   0.21997836  0.77667467  0.04250433
   0.44071398  0.21703472  0.94638272
   0.55537074  0.11106875  0.04957635
   0.44230413  0.55637294  0.94738739
   0.54723965  0.44115794  0.05597666
   0.44471172  0.88987140  0.95335199
   0.55686698  0.77946743  0.04918077
   0.78014177  0.22507434  0.95240759
   0.88577004  0.10766267  0.05234105
   0.77025007  0.55348294  0.94228054
   0.88932383  0.43871455  0.04757567
   0.77552785  0.88669132  0.95392645
   0.88308358  0.78072129  0.05239118
unknown system                          
           1
     8.382898    4.803865    0.000000
    -8.390833    4.817443    0.000000
     0.000000    0.000000   30.000000
   V    Mo   W    S 
   3   3   3  18
Direct configuration=    20
   0.66529825  0.01027281 -0.00227966
   0.35167194  0.65610364  0.00122608
   0.34741943  0.02761734  0.00077392
   0.32588996  0.32486497 -0.00010970
   0.02297685  0.02284515  0.00007426
   0.65205375  0.34897558 -0.00028305
   1.02175183  0.31718781  0.00059307
  -0.03544458  0.66439835 -0.00075585
   0.65647300  0.63815223  0.00020752
   0.11546845  0.22135276  0.94327067
   0.22808998  0.10853677  0.05423171
   0.11250032  0.55705659  0.95496707
   0.22662437  0.44714836  0.05363742
   0.11733767  0.89001512  0.95034150
   0.22047111  0.77668439  0.04138926
   0.44069492  0.21721986  0.94595486
   0.55548796  0.11122230  0.04990588
   0.44210033  0.55595624  0.94693261
   0.54681204  0.44036855  0.05620823
   0.44425216  0.88954709  0.95378083
   0.55703723  0.77961922  0.04918704
   0.78170661  0.22669006  0.95251469
   0.88621012  0.10732589  0.05202544
   0.76863862  0.55315028  0.94228888
   0.88974834  0.43884424  0.04662247
   0.77539197  0.88667255  0.95492830
   0.88155182  0.78038629  0.05236644
unknown system                          
           1
     8.383793    4.804576    0.000000
    -8.390733    4.816417    0.000000
     0.000000    0.000000   30.000000
   V    Mo   W    S 
   3   3   3  18
Direct configuration=    21
   0.66524773  0.01026963 -0.00223920
   0.35143064  0.65651920  0.00118072
   0.34705006  0.02705472  0.00074567
   0.32579185  0.32482951 -0.00011041
   0.02279237  0.02276351  0.00008057
   0.65253278  0.34914160 -0.00029641
   1.02145773  0.31716677  0.00058085
  -0.03523491  0.66419368 -0.00073831
   0.65699831  0.63848819  0.00019287
   0.11547856  0.22139035  0.94326516
   0.22804605  0.10855084  0.05423610
   0.11247419  0.55696760  0.95486215
   0.22655041  0.44711070  0.05361671
   0.11725116  0.89001361  0.95031361
   0.22044467  0.77671070  0.04157332
   0.44073796  0.21724361  0.94600776
   0.55542714  0.11118323  0.04989245
   0.44210601  0.55596420  0.94701036
   0.54693373  0.44042847  0.05619720
   0.44418845  0.88952842  0.95370813
   0.55698564  0.77956631  0.04914623
   0.78159626  0.22651749  0.95245546
   0.88613845  0.10734494  0.05204240
   0.76888874  0.55319792  0.94229088
   0.88979892  0.43893383  0.04673983
   0.77532480  0.88673964  0.95488572
   0.88177677  0.78039580  0.05236008
unknown system                          
           1
     8.382945    4.804024    0.000000
    -8.390129    4.816290    0.000000
     0.000000    0.000000   30.000000
   V    Mo   W    S 
   3   3   3  18
Direct configuration=    22
   0.66444169  0.01114150 -0.00228449
   0.35124568  0.65567095  0.00127243
   0.34694791  0.02745229  0.00072907
   0.32623695  0.32508711 -0.00010888
   0.02340290  0.02256972  0.00009680
   0.65217127  0.34870811 -0.00031696
   1.02194157  0.31718415  0.00064874
  -0.03534040  0.66467347 -0.00082558
   0.65645518  0.63804859  0.00019461
   0.11563684  0.22133021  0.94329117
   0.22827237  0.10864735  0.05431836
   0.11246502  0.55696071  0.95496566
   0.22673317  0.44691025  0.05374488
   0.11738764  0.89009807  0.95020502
   0.22054976  0.77671951  0.04139323
   0.44077312  0.21731707  0.94590153
   0.55540292  0.11119235  0.05000624
   0.44205015  0.55583392  0.94690656
   0.54695039  0.44023150  0.05624937
   0.44394524  0.88940743  0.95375531
   0.55704112  0.77962221  0.04912726
   0.78203598  0.22692778  0.95240114
   0.88617301  0.10721642  0.05197184
   0.76859844  0.55313236  0.94226815
   0.88999901  0.43902948  0.04655433
   0.77520954  0.88679423  0.95515981
   0.88148799  0.78030772  0.05237430
unknown system                          
           1
     8.378817    4.800092    0.000000
    -8.386688    4.813556    0.000000
     0.000000    0.000000   30.000000
   V    Mo   W    S 
   3   3   3  18
Direct configuration=    23
   0.66451788  0.01106730 -0.00226433
   0.35120197  0.65579450  0.00125789
   0.34689419  0.02733937  0.00072680
   0.32618667  0.32505653 -0.00010508
   0.02333112  0.02258566  0.00009544
   0.65226367  0.34878775 -0.00031103
   1.02187625  0.31718499  0.00063787
  -0.03529715  0.66460735 -0.00081845
   0.65657987  0.63810503  0.00019713
   0.11562100  0.22134419  0.94328646
   0.22824915  0.10864523  0.05431424
   0.11245631  0.55694905  0.95493529
   0.22670318  0.44692051  0.05373213
   0.11736271  0.89008167  0.95020618
   0.22052466  0.77671684  0.04144265
   0.44077614  0.21731491  0.94591447
   0.55539956  0.11118650  0.04999866
   0.44205725  0.55584310  0.94691847
   0.54697528  0.44025967  0.05623895
   0.44395007  0.88941663  0.95373083
   0.55704657  0.77962682  0.04913047
   0.78198442  0.22687721  0.95238808
   0.88614557  0.10722129  0.05198797
   0.76866387  0.55314499  0.94226242
   0.88998757  0.43902144  0.04659555
   0.77520968  0.88679394  0.95512020
   0.88154701  0.78032202  0.05238064
unknown system                          
           1
     8.392140    4.810896    0.000000
    -8.399663    4.823759    0.000000
     0.000000    0.000000   30.000000
   V    Mo   W    S 
   3   3   3  18
Direct configuration=    24
   0.66402285  0.01158788 -0.00224384
   0.35098613  0.65545470  0.00127373
   0.34657409  0.02725383  0.00069279
   0.32648569  0.32532379 -0.00011180
   0.02359855  0.02239814  0.00010839
   0.65230996  0.34859322 -0.00033973
   1.02206508  0.31721493  0.00067408
  -0.03518016  0.66484874 -0.00084794
   0.65642956  0.63797811  0.00017006
   0.11578176  0.22132234  0.94330406
   0.22840231  0.10874462  0.05436792
   0.11244786  0.55693436  0.95489923
   0.22682463  0.44678730  0.05380548
   0.11743350  0.89014308  0.95009784
   0.22054727  0.77671662  0.04145766
   0.44080667  0.21735185  0.94589681
   0.55527416  0.11116632  0.05007109
   0.44206057  0.55580459  0.94690494
   0.54704960  0.44015851  0.05627296
   0.44375146  0.88935495  0.95371051