   27   27  100    1
  0.9710400E+02  0.1002848E-08  0.1002848E-08  0.3000000E-08  0.5000000E-15
  1.000000000000000E-004
  CAR 
 unknown system                          
    159     34    120
 
  0.0000000E+00  0.0000000E+00  0.0000000E+00  0.1562500E-01
    1      -17.861347   1.000000
    2      -16.800271   1.000000
    3      -16.689041   1.000000
    4      -16.606119   1.000000
    5      -16.579185   1.000000
    6      -16.432257   1.000000
    7      -16.354219   1.000000
    8      -16.338387   1.000000
    9      -16.245603   1.000000
   10      -16.141382   1.000000
   11      -16.075736   1.000000
   12      -15.982629   1.000000
   13      -15.869551   1.000000
   14      -15.631858   1.000000
   15      -15.585102   1.000000
   16      -15.461445   1.000000
   17      -15.223372   1.000000
   18      -15.189549   1.000000
   19       -9.473366   1.000000
   20       -9.058194   1.000000
   21       -9.030815   1.000000
   22       -8.926318   1.000000
   23       -8.757819   1.000000
   24       -8.712113   1.000000
   25       -8.645650   1.000000
   26       -8.570870   1.000000
   27       -8.487716   1.000000
   28       -8.454181   1.000000
   29       -8.408874   1.000000
   30       -8.362190   1.000000
   31       -8.236006   1.000000
   32       -8.201232   1.000000
   33       -8.155728   1.000000
   34       -8.057562   1.000000
   35       -7.810120   1.000000
   36       -7.771287   1.000000
   37       -7.630631   1.000000
   38       -7.615671   1.000000
   39       -7.499538   1.000000
   40       -7.373601   1.000000
   41       -7.307278   1.000000
   42       -7.212914   1.000000
   43       -7.087131   1.000000
   44       -6.963662   1.000000
   45       -6.830513   1.000000
   46       -6.824637   1.000000
   47       -6.752602   1.000000
   48       -6.718280   1.000000
   49       -6.640203   1.000000
   50       -6.509502   1.000000
   51       -6.398306   1.000000
   52       -6.251924   1.000000
   53       -6.207953   1.000000
   54       -6.181096   1.000000
   55       -6.118789   1.000000
   56       -6.040839   1.000000
   57       -5.981154   1.000000
   58       -5.874130   1.000000
   59       -5.853999   1.000000
   60       -5.727610   1.000000
   61       -5.604611   1.000000
   62       -5.342815   1.000000
   63       -5.294829   1.000000
   64       -5.047989   1.000000
   65       -4.987291   1.000000
   66       -4.896872   1.000000
   67       -4.853348   1.000000
   68       -4.779736   1.000000
   69       -4.749156   1.000000
   70       -4.721831   1.000000
   71       -4.658743   1.000000
   72       -4.618886   1.000000
   73       -4.408857   1.000000
   74       -4.360329   1.000000
   75       -4.283409   1.000000
   76       -3.989120   1.000000
   77       -3.750514   0.999912
   78       -3.577403   0.994268
   79       -3.498333   0.975529
   80       -3.187575   0.409706
   81       -3.149627   0.309722
   82       -2.849428   0.004405
   83       -2.690419   0.000091
   84       -2.665705   0.000045
   85       -2.515914   0.000000
   86       -2.512102   0.000000
   87       -2.292260   0.000000
   88       -2.230019   0.000000
   89       -2.184065   0.000000
   90       -1.918917   0.000000
   91       -1.731041   0.000000
   92       -1.614500   0.000000
   93       -1.500265   0.000000
   94       -1.185069   0.000000
   95       -1.131101   0.000000
   96       -1.015737   0.000000
   97       -0.951672   0.000000
   98       -0.876975   0.000000
   99       -0.813825   0.000000
  100       -0.634199   0.000000
  101       -0.545113   0.000000
  102       -0.498849   0.000000
  103       -0.376696   0.000000
  104       -0.228769   0.000000
  105       -0.128057   0.000000
  106       -0.063567   0.000000
  107       -0.029399   0.000000
  108        0.019722   0.000000
  109        0.128493   0.000000
  110        0.184292   0.000000
  111        0.441133   0.000000
  112        0.540858   0.000000
  113        0.617052   0.000000
  114        0.897406   0.000000
  115        0.984015   0.000000
  116        1.020984   0.000000
  117        1.141792   0.000000
  118        1.649069   0.000000
  119        1.842624   0.000000
  120        2.171996   0.000000
 
  0.1250000E+00  0.2775558E-16  0.0000000E+00  0.3125000E-01
    1      -17.837066   1.000000
    2      -16.830812   1.000000
    3      -16.781861   1.000000
    4      -16.610931   1.000000
    5      -16.541267   1.000000
    6      -16.444789   1.000000
    7      -16.383686   1.000000
    8      -16.325406   1.000000
    9      -16.269810   1.000000
   10      -16.052424   1.000000
   11      -16.023933   1.000000
   12      -16.001633   1.000000
   13      -15.835388   1.000000
   14      -15.631316   1.000000
   15      -15.579794   1.000000
   16      -15.467353   1.000000
   17      -15.249526   1.000000
   18      -15.188411   1.000000
   19       -9.482673   1.000000
   20       -9.152823   1.000000
   21       -9.109328   1.000000
   22       -9.042668   1.000000
   23       -8.784638   1.000000
   24       -8.700106   1.000000
   25       -8.634918   1.000000
   26       -8.576974   1.000000
   27       -8.508011   1.000000
   28       -8.491309   1.000000
   29       -8.396243   1.000000
   30       -8.313119   1.000000
   31       -8.204590   1.000000
   32       -8.079650   1.000000
   33       -8.012437   1.000000
   34       -7.915456   1.000000
   35       -7.839686   1.000000
   36       -7.756789   1.000000
   37       -7.699621   1.000000
   38       -7.495957   1.000000
   39       -7.436942   1.000000
   40       -7.406374   1.000000
   41       -7.340296   1.000000
   42       -7.202773   1.000000
   43       -7.138633   1.000000
   44       -7.003927   1.000000
   45       -6.884760   1.000000
   46       -6.852560   1.000000
   47       -6.742505   1.000000
   48       -6.679243   1.000000
   49       -6.617278   1.000000
   50       -6.538966   1.000000
   51       -6.383700   1.000000
   52       -6.273844   1.000000
   53       -6.241353   1.000000
   54       -6.171713   1.000000
   55       -6.128482   1.000000
   56       -6.033430   1.000000
   57       -5.978144   1.000000
   58       -5.851584   1.000000
   59       -5.778909   1.000000
   60       -5.662612   1.000000
   61       -5.560895   1.000000
   62       -5.365439   1.000000
   63       -5.314879   1.000000
   64       -5.213757   1.000000
   65       -5.058995   1.000000
   66       -5.012377   1.000000
   67       -4.888524   1.000000
   68       -4.863049   1.000000
   69       -4.774444   1.000000
   70       -4.650573   1.000000
   71       -4.581894   1.000000
   72       -4.476826   1.000000
   73       -4.376557   1.000000
   74       -4.299522   1.000000
   75       -4.274729   1.000000
   76       -3.907018   0.999999
   77       -3.810778   0.999985
   78       -3.671977   0.999306
   79       -3.477673   0.965848
   80       -3.395942   0.893447
   81       -2.958981   0.032540
   82       -2.860168   0.005489
   83       -2.707707   0.000146
   84       -2.638985   0.000020
   85       -2.513626   0.000000
   86       -2.503010   0.000000
   87       -2.289044   0.000000
   88       -2.198281   0.000000
   89       -2.156554   0.000000
   90       -1.925588   0.000000
   91       -1.735419   0.000000
   92       -1.596930   0.000000
   93       -1.481291   0.000000
   94       -1.185215   0.000000
   95       -1.132900   0.000000
   96       -1.006382   0.000000
   97       -0.961741   0.000000
   98       -0.880576   0.000000
   99       -0.820569   0.000000
  100       -0.671005   0.000000
  101       -0.603326   0.000000
  102       -0.559729   0.000000
  103       -0.461617   0.000000
  104       -0.315721   0.000000
  105       -0.200712   0.000000
  106       -0.132641   0.000000
  107       -0.056302   0.000000
  108        0.070297   0.000000
  109        0.166124   0.000000
  110        0.220417   0.000000
  111        0.434761   0.000000
  112        0.541124   0.000000
  113        0.627235   0.000000
  114        0.821203   0.000000
  115        0.999414   0.000000
  116        1.089893   0.000000
  117        1.232317   0.000000
  118        1.694310   0.000000
  119        1.881843   0.000000
  120        2.207496   0.000000
 
  0.2500000E+00  0.5551115E-16  0.0000000E+00  0.3125000E-01
    1      -17.766500   1.000000
    2      -17.018886   1.000000
    3      -16.780376   1.000000
    4      -16.640856   1.000000
    5      -16.594819   1.000000
    6      -16.481895   1.000000
    7      -16.367853   1.000000
    8      -16.280360   1.000000
    9      -16.220851   1.000000
   10      -16.051520   1.000000
   11      -15.971888   1.000000
   12      -15.917930   1.000000
   13      -15.776104   1.000000
   14      -15.612751   1.000000
   15      -15.563413   1.000000
   16      -15.475420   1.000000
   17      -15.303166   1.000000
   18      -15.202302   1.000000
   19       -9.598594   1.000000
   20       -9.335607   1.000000
   21       -9.202591   1.000000
   22       -9.107065   1.000000
   23       -8.889790   1.000000
   24       -8.721580   1.000000
   25       -8.632148   1.000000
   26       -8.553252   1.000000
   27       -8.488602   1.000000
   28       -8.457520   1.000000
   29       -8.356544   1.000000
   30       -8.259276   1.000000
   31       -8.088476   1.000000
   32       -8.046257   1.000000
   33       -7.952625   1.000000
   34       -7.820240   1.000000
   35       -7.738057   1.000000
   36       -7.616193   1.000000
   37       -7.577171   1.000000
   38       -7.543812   1.000000
   39       -7.429451   1.000000
   40       -7.391110   1.000000
   41       -7.306790   1.000000
   42       -7.209113   1.000000
   43       -7.132926   1.000000
   44       -7.028299   1.000000
   45       -6.950452   1.000000
   46       -6.841241   1.000000
   47       -6.761182   1.000000
   48       -6.680952   1.000000
   49       -6.542877   1.000000
   50       -6.508301   1.000000
   51       -6.366620   1.000000
   52       -6.306486   1.000000
   53       -6.269835   1.000000
   54       -6.193596   1.000000
   55       -6.099475   1.000000
   56       -6.077796   1.000000
   57       -5.864194   1.000000
   58       -5.815857   1.000000
   59       -5.763565   1.000000
   60       -5.685145   1.000000
   61       -5.527352   1.000000
   62       -5.496964   1.000000
   63       -5.439436   1.000000
   64       -5.261134   1.000000
   65       -5.186251   1.000000
   66       -5.122545   1.000000
   67       -5.014343   1.000000
   68       -4.852152   1.000000
   69       -4.765452   1.000000
   70       -4.599795   1.000000
   71       -4.447554   1.000000
   72       -4.419772   1.000000
   73       -4.275626   1.000000
   74       -4.254649   1.000000
   75       -4.136810   1.000000
   76       -4.058200   1.000000
   77       -3.921250   1.000000
   78       -3.723619   0.999816
   79       -3.483869   0.969036
   80       -3.405761   0.905662
   81       -2.929648   0.020079
   82       -2.848738   0.004342
   83       -2.695778   0.000105
   84       -2.588624   0.000004
   85       -2.520251   0.000000
   86       -2.468625   0.000000
   87       -2.284151   0.000000
   88       -2.139088   0.000000
   89       -2.073572   0.000000
   90       -1.939217   0.000000
   91       -1.747754   0.000000
   92       -1.534698   0.000000
   93       -1.431797   0.000000
   94       -1.214982   0.000000
   95       -1.141269   0.000000
   96       -1.010405   0.000000
   97       -0.988661   0.000000
   98       -0.879960   0.000000
   99       -0.861834   0.000000
  100       -0.789264   0.000000
  101       -0.702930   0.000000
  102       -0.680607   0.000000
  103       -0.589172   0.000000
  104       -0.464797   0.000000
  105       -0.340305   0.000000
  106       -0.199370   0.000000
  107       -0.089670   0.000000
  108        0.020738   0.000000
  109        0.145942   0.000000
  110        0.217692   0.000000
  111        0.411422   0.000000
  112        0.556768   0.000000
  113        0.692361   0.000000
  114        0.777354   0.000000
  115        1.092036   0.000000
  116        1.164734   0.000000
  117        1.400117   0.000000
  118        1.819416   0.000000
  119        1.994608   0.000000
  120        2.312434   0.000000
 
  0.3750000E+00  0.0000000E+00  0.0000000E+00  0.3125000E-01
    1      -17.660762   1.000000
    2      -17.213661   1.000000
    3      -16.767013   1.000000
    4      -16.669756   1.000000
    5      -16.654553   1.000000
    6      -16.517072   1.000000
    7      -16.339975   1.000000
    8      -16.229535   1.000000
    9      -16.183510   1.000000
   10      -16.057793   1.000000
   11      -15.892651   1.000000
   12      -15.881708   1.000000
   13      -15.764110   1.000000
   14      -15.588481   1.000000
   15      -15.542943   1.000000
   16      -15.448663   1.000000
   17      -15.351729   1.000000
   18      -15.233588   1.000000
   19       -9.778491   1.000000
   20       -9.444951   1.000000
   21       -9.217889   1.000000
   22       -9.118164   1.000000
   23       -8.957696   1.000000
   24       -8.772890   1.000000
   25       -8.615711   1.000000
   26       -8.539328   1.000000
   27       -8.459724   1.000000
   28       -8.361615   1.000000
   29       -8.291395   1.000000
   30       -8.255213   1.000000
   31       -8.104735   1.000000
   32       -8.008042   1.000000
   33       -7.938974   1.000000
   34       -7.802854   1.000000
   35       -7.739419   1.000000
   36       -7.616285   1.000000
   37       -7.591502   1.000000
   38       -7.551847   1.000000
   39       -7.416042   1.000000
   40       -7.315444   1.000000
   41       -7.212147   1.000000
   42       -7.139127   1.000000
   43       -7.034627   1.000000
   44       -6.999225   1.000000
   45       -6.911552   1.000000
   46       -6.807742   1.000000
   47       -6.732266   1.000000
   48       -6.582960   1.000000
   49       -6.512997   1.000000
   50       -6.471892   1.000000
   51       -6.353128   1.000000
   52       -6.268407   1.000000
   53       -6.219372   1.000000
   54       -6.184237   1.000000
   55       -6.115984   1.000000
   56       -6.079455   1.000000
   57       -6.025168   1.000000
   58       -5.954117   1.000000
   59       -5.814557   1.000000
   60       -5.714407   1.000000
   61       -5.660156   1.000000
   62       -5.513148   1.000000
   63       -5.460154   1.000000
   64       -5.317484   1.000000
   65       -5.177444   1.000000
   66       -5.108553   1.000000
   67       -5.017042   1.000000
   68       -4.822143   1.000000
   69       -4.777985   1.000000
   70       -4.678375   1.000000
   71       -4.490120   1.000000
   72       -4.421264   1.000000
   73       -4.261579   1.000000
   74       -4.223617   1.000000
   75       -4.142985   1.000000
   76       -4.027478   1.000000
   77       -3.915567   1.000000
   78       -3.732707   0.999856
   79       -3.551552   0.990497
   80       -3.225326   0.515409
   81       -2.985715   0.048895
   82       -2.871531   0.006888
   83       -2.661319   0.000039
   84       -2.578306   0.000003
   85       -2.523246   0.000000
   86       -2.414970   0.000000
   87       -2.255633   0.000000
   88       -2.099311   0.000000
   89       -2.012757   0.000000
   90       -1.897923   0.000000
   91       -1.763855   0.000000
   92       -1.485148   0.000000
   93       -1.356666   0.000000
   94       -1.278738   0.000000
   95       -1.152974   0.000000
   96       -1.062850   0.000000
   97       -1.039067   0.000000
   98       -0.962513   0.000000
   99       -0.891681   0.000000
  100       -0.839781   0.000000
  101       -0.772986   0.000000
  102       -0.743891   0.000000
  103       -0.702078   0.000000
  104       -0.552422   0.000000
  105       -0.488641   0.000000
  106       -0.235890   0.000000
  107       -0.134863   0.000000
  108       -0.035059   0.000000
  109        0.052703   0.000000
  110        0.165339   0.000000
  111        0.421615   0.000000
  112        0.559995   0.000000
  113        0.703188   0.000000
  114        0.856725   0.000000
  115        1.174461   0.000000
  116        1.237713   0.000000
  117        1.535899   0.000000
  118        2.005509   0.000000
  119        2.171482   0.000000
  120        2.472720   0.000000
 
  0.5000000E+00  0.1110223E-15  0.0000000E+00  0.1562500E-01
    1      -17.583395   1.000000
    2      -17.322999   1.000000
    3      -16.756853   1.000000
    4      -16.697169   1.000000
    5      -16.662861   1.000000
    6      -16.530981   1.000000
    7      -16.327562   1.000000
    8      -16.218122   1.000000
    9      -16.172384   1.000000
   10      -16.043301   1.000000
   11      -15.885599   1.000000
   12      -15.847560   1.000000
   13      -15.764709   1.000000
   14      -15.603025   1.000000
   15      -15.518677   1.000000
   16      -15.441795   1.000000
   17      -15.348385   1.000000
   18      -15.259734   1.000000
   19       -9.851421   1.000000
   20       -9.484520   1.000000
   21       -9.231992   1.000000
   22       -9.108468   1.000000
   23       -8.952380   1.000000
   24       -8.796309   1.000000
   25       -8.613422   1.000000
   26       -8.581606   1.000000
   27       -8.424833   1.000000
   28       -8.329201   1.000000
   29       -8.256753   1.000000
   30       -8.190448   1.000000
   31       -8.107263   1.000000
   32       -8.032209   1.000000
   33       -7.966111   1.000000
   34       -7.780104   1.000000
   35       -7.738466   1.000000
   36       -7.722048   1.000000
   37       -7.583049   1.000000
   38       -7.549541   1.000000
   39       -7.475683   1.000000
   40       -7.302437   1.000000
   41       -7.200133   1.000000
   42       -7.031920   1.000000
   43       -6.967195   1.000000
   44       -6.926714   1.000000
   45       -6.804653   1.000000
   46       -6.678194   1.000000
   47       -6.638443   1.000000
   48       -6.581520   1.000000
   49       -6.552674   1.000000
   50       -6.521256   1.000000
   51       -6.394308   1.000000
   52       -6.344953   1.000000
   53       -6.337152   1.000000
   54       -6.222988   1.000000
   55       -6.144269   1.000000
   56       -6.055855   1.000000
   57       -5.983129   1.000000
   58       -5.888263   1.000000
   59       -5.776497   1.000000
   60       -5.748427   1.000000
   61       -5.631650   1.000000
   62       -5.578191   1.000000
   63       -5.510165   1.000000
   64       -5.375919   1.000000
   65       -5.184082   1.000000
   66       -5.057740   1.000000
   67       -5.011984   1.000000
   68       -4.970105   1.000000
   69       -4.787212   1.000000
   70       -4.610059   1.000000
   71       -4.517745   1.000000
   72       -4.456309   1.000000
   73       -4.289722   1.000000
   74       -4.207492   1.000000
   75       -4.159334   1.000000
   76       -3.956648   1.000000
   77       -3.851340   0.999996
   78       -3.739419   0.999881
   79       -3.606953   0.996901
   80       -3.096436   0.191399
   81       -3.003959   0.063422
   82       -2.943972   0.025538
   83       -2.653062   0.000031
   84       -2.573321   0.000002
   85       -2.521610   0.000000
   86       -2.389318   0.000000
   87       -2.237553   0.000000
   88       -2.080066   0.000000
   89       -2.005282   0.000000
   90       -1.861341   0.000000
   91       -1.770414   0.000000
   92       -1.467411   0.000000
   93       -1.322812   0.000000
   94       -1.306781   0.000000
   95       -1.144894   0.000000
   96       -1.101914   0.000000
   97       -1.094047   0.000000
   98       -0.989363   0.000000
   99       -0.930150   0.000000
  100       -0.819663   0.000000
  101       -0.809375   0.000000
  102       -0.762807   0.000000
  103       -0.728738   0.000000
  104       -0.593380   0.000000
  105       -0.550113   0.000000
  106       -0.234933   0.000000
  107       -0.166763   0.000000
  108       -0.064222   0.000000
  109        0.021742   0.000000
  110        0.134692   0.000000
  111        0.434556   0.000000
  112        0.555799   0.000000
  113        0.711661   0.000000
  114        0.888780   0.000000
  115        1.198994   0.000000
  116        1.272930   0.000000
  117        1.587411   0.000000
  118        2.234645   0.000000
  119        2.244316   0.000000
  120        2.400629   0.000000
 
  0.0000000E+00  0.1250000E+00  0.0000000E+00  0.3125000E-01
    1      -17.838646   1.000000
    2      -16.838610   1.000000
    3      -16.719657   1.000000
    4      -16.658653   1.000000
    5      -16.596362   1.000000
    6      -16.431803   1.000000
    7      -16.348961   1.000000
    8      -16.309769   1.000000
    9      -16.244572   1.000000
   10      -16.115302   1.000000
   11      -16.000046   1.000000
   12      -15.965637   1.000000
   13      -15.864435   1.000000
   14      -15.643780   1.000000
   15      -15.583126   1.000000
   16      -15.479051   1.000000
   17      -15.224558   1.000000
   18      -15.193152   1.000000
   19       -9.466890   1.000000
   20       -9.203548   1.000000
   21       -9.062041   1.000000
   22       -9.013829   1.000000
   23       -8.834461   1.000000
   24       -8.750864   1.000000
   25       -8.669317   1.000000
   26       -8.576974   1.000000
   27       -8.492564   1.000000
   28       -8.448453   1.000000
   29       -8.358219   1.000000
   30       -8.244280   1.000000
   31       -8.151366   1.000000
   32       -8.111825   1.000000
   33       -8.052928   1.000000
   34       -8.025972   1.000000
   35       -7.747188   1.000000
   36       -7.727494   1.000000
   37       -7.655852   1.000000
   38       -7.583365   1.000000
   39       -7.488065   1.000000
   40       -7.479322   1.000000
   41       -7.265948   1.000000
   42       -7.222160   1.000000
   43       -7.122073   1.000000
   44       -7.012244   1.000000
   45       -6.903921   1.000000
   46       -6.799798   1.000000
   47       -6.731780   1.000000
   48       -6.667166   1.000000
   49       -6.567619   1.000000
   50       -6.458323   1.000000
   51       -6.419823   1.000000
   52       -6.304421   1.000000
   53       -6.212738   1.000000
   54       -6.160354   1.000000
   55       -6.126302   1.000000
   56       -6.067082   1.000000
   57       -5.994096   1.000000
   58       -5.933242   1.000000
   59       -5.769586   1.000000
   60       -5.682229   1.000000
   61       -5.573435   1.000000
   62       -5.454325   1.000000
   63       -5.378329   1.000000
   64       -5.137747   1.000000
   65       -5.060541   1.000000
   66       -4.927074   1.000000
   67       -4.844704   1.000000
   68       -4.793869   1.000000
   69       -4.750171   1.000000
   70       -4.653664   1.000000
   71       -4.604354   1.000000
   72       -4.537709   1.000000
   73       -4.420196   1.000000
   74       -4.295254   1.000000
   75       -4.252866   1.000000
   76       -4.053596   1.000000
   77       -3.756507   0.999926
   78       -3.651394   0.998861
   79       -3.564839   0.992643
   80       -3.147558   0.304583
   81       -3.112001   0.222823
   82       -2.811157   0.001926
   83       -2.671770   0.000053
   84       -2.640195   0.000021
   85       -2.513333   0.000000
   86       -2.496844   0.000000
   87       -2.272929   0.000000
   88       -2.205316   0.000000
   89       -2.133959   0.000000
   90       -1.924308   0.000000
   91       -1.749360   0.000000
   92       -1.603860   0.000000
   93       -1.479556   0.000000
   94       -1.194387   0.000000
   95       -1.144793   0.000000
   96       -1.032600   0.000000
   97       -0.943864   0.000000
   98       -0.884735   0.000000
   99       -0.819969   0.000000
  100       -0.709800   0.000000
  101       -0.644755   0.000000
  102       -0.548472   0.000000
  103       -0.476302   0.000000
  104       -0.308667   0.000000
  105       -0.180259   0.000000
  106       -0.073529   0.000000
  107        0.003646   0.000000
  108        0.042744   0.000000
  109        0.138550   0.000000
  110        0.238069   0.000000
  111        0.485771   0.000000
  112        0.547769   0.000000
  113        0.595111   0.000000
  114        0.938961   0.000000
  115        0.974016   0.000000
  116        1.045557   0.000000
  117        1.105075   0.000000
  118        1.690894   0.000000
  119        1.883447   0.000000
  120        2.206578   0.000000
 
  0.1250000E+00  0.1250000E+00  0.0000000E+00  0.3125000E-01
    1      -17.793204   1.000000
    2      -16.918071   1.000000
    3      -16.821805   1.000000
    4      -16.706724   1.000000
    5      -16.525167   1.000000
    6      -16.423683   1.000000
    7      -16.347102   1.000000
    8      -16.331692   1.000000
    9      -16.251609   1.000000
   10      -16.020863   1.000000
   11      -15.997909   1.000000
   12      -15.913104   1.000000
   13      -15.813724   1.000000
   14      -15.654589   1.000000
   15      -15.576929   1.000000
   16      -15.493225   1.000000
   17      -15.257198   1.000000
   18      -15.190157   1.000000
   19       -9.499047   1.000000
   20       -9.321441   1.000000
   21       -9.240300   1.000000
   22       -9.109172   1.000000
   23       -8.856956   1.000000
   24       -8.687749   1.000000
   25       -8.651550   1.000000
   26       -8.552510   1.000000
   27       -8.485003   1.000000
   28       -8.440748   1.000000
   29       -8.335598   1.000000
   30       -8.253967   1.000000
   31       -8.119813   1.000000
   32       -8.055745   1.000000
   33       -7.981284   1.000000
   34       -7.868239   1.000000
   35       -7.744030   1.000000
   36       -7.709393   1.000000
   37       -7.604212   1.000000
   38       -7.538742   1.000000
   39       -7.465751   1.000000
   40       -7.373160   1.000000
   41       -7.255281   1.000000
   42       -7.222948   1.000000
   43       -7.183885   1.000000
   44       -7.021928   1.000000
   45       -6.925244   1.000000
   46       -6.809454   1.000000
   47       -6.776169   1.000000
   48       -6.667460   1.000000
   49       -6.501193   1.000000
   50       -6.470565   1.000000
   51       -6.389260   1.000000
   52       -6.295676   1.000000
   53       -6.266513   1.000000
   54       -6.204647   1.000000
   55       -6.116044   1.000000
   56       -6.042668   1.000000
   57       -5.969425   1.000000
   58       -5.907202   1.000000
   59       -5.762003   1.000000
   60       -5.607084   1.000000
   61       -5.559370   1.000000
   62       -5.490034   1.000000
   63       -5.451162   1.000000
   64       -5.273832   1.000000
   65       -5.208431   1.000000
   66       -5.054791   1.000000
   67       -4.886822   1.000000
   68       -4.805489   1.000000
   69       -4.746666   1.000000
   70       -4.624620   1.000000
   71       -4.489743   1.000000
   72       -4.401682   1.000000
   73       -4.367607   1.000000
   74       -4.246167   1.000000
   75       -4.213549   1.000000
   76       -4.097245   1.000000
   77       -3.913210   1.000000
   78       -3.666904   0.999214
   79       -3.540106   0.988227
   80       -3.294888   0.702123
   81       -2.936234   0.022452
   82       -2.810225   0.001886
   83       -2.666246   0.000045
   84       -2.611359   0.000008
   85       -2.505116   0.000000
   86       -2.469433   0.000000
   87       -2.241503   0.000000
   88       -2.151473   0.000000
   89       -2.082084   0.000000
   90       -1.935373   0.000000
   91       -1.744247   0.000000
   92       -1.585371   0.000000
   93       -1.455726   0.000000
   94       -1.201768   0.000000
   95       -1.172754   0.000000
   96       -1.055395   0.000000
   97       -0.949273   0.000000
   98       -0.892822   0.000000
   99       -0.854807   0.000000
  100       -0.776711   0.000000
  101       -0.740317   0.000000
  102       -0.663417   0.000000
  103       -0.569046   0.000000
  104       -0.430685   0.000000
  105       -0.220782   0.000000
  106       -0.115797   0.000000
  107       -0.084913   0.000000
  108        0.054292   0.000000
  109        0.193944   0.000000
  110        0.278290   0.000000
  111        0.419624   0.000000
  112        0.532649   0.000000
  113        0.625735   0.000000
  114        0.873457   0.000000
  115        1.043384   0.000000
  116        1.082015   0.000000
  117        1.237434   0.000000
  118        1.773958   0.000000
  119        1.961235   0.000000
  120        2.276139   0.000000
 
  0.2500000E+00  0.1250000E+00  0.0000000E+00  0.3125000E-01
    1      -17.705922   1.000000
    2      -17.092431   1.000000
    3      -16.900452   1.000000
    4      -16.706312   1.000000
    5      -16.506199   1.000000
    6      -16.439874   1.000000
    7      -16.365833   1.000000
    8      -16.277993   1.000000
    9      -16.212699   1.000000
   10      -16.042091   1.000000
   11      -15.946106   1.000000
   12      -15.839756   1.000000
   13      -15.777423   1.000000
   14      -15.632737   1.000000
   15      -15.567085   1.000000
   16      -15.480342   1.000000
   17      -15.315700   1.000000
   18      -15.198518   1.000000
   19       -9.661238   1.000000
   20       -9.440792   1.000000
   21       -9.367747   1.000000
   22       -9.133493   1.000000
   23       -8.860347   1.000000
   24       -8.653821   1.000000
   25       -8.583674   1.000000
   26       -8.485466   1.000000
   27       -8.465042   1.000000
   28       -8.424626   1.000000
   29       -8.321360   1.000000
   30       -8.265095   1.000000
   31       -8.106603   1.000000
   32       -8.027809   1.000000
   33       -7.976776   1.000000
   34       -7.910228   1.000000
   35       -7.746501   1.000000
   36       -7.641982   1.000000
   37       -7.573447   1.000000
   38       -7.467533   1.000000
   39       -7.353367   1.000000
   40       -7.341576   1.000000
   41       -7.265648   1.000000
   42       -7.199251   1.000000
   43       -7.104601   1.000000
   44       -7.020584   1.000000
   45       -6.882930   1.000000
   46       -6.809283   1.000000
   47       -6.723906   1.000000