       N       E                     dE             d eps       ncg     rms          rms(c)
DAV:   1     0.111976279718E+04    0.11198E+04   -0.35915E+04  8200   0.577E+02
DAV:   2    -0.466779288884E+01   -0.11244E+04   -0.10840E+04 11200   0.173E+02
DAV:   3    -0.199867681664E+03   -0.19520E+03   -0.18754E+03 10920   0.817E+01
DAV:   4    -0.208947417948E+03   -0.90797E+01   -0.87881E+01 12080   0.258E+01
DAV:   5    -0.209271497294E+03   -0.32408E+00   -0.32302E+00 11520   0.360E+00    0.275E+01
DAV:   6    -0.237502483014E+03   -0.28231E+02   -0.10902E+02 12320   0.599E+01    0.594E+01
DAV:   7    -0.196680715219E+03    0.40822E+02   -0.17491E+02 13440   0.152E+02    0.202E+01
DAV:   8    -0.189729743430E+03    0.69510E+01   -0.18377E+01 11960   0.129E+01    0.130E+01
DAV:   9    -0.188205022986E+03    0.15247E+01   -0.32766E+00 12840   0.622E+00    0.938E+00
DAV:  10    -0.186933872175E+03    0.12712E+01   -0.17654E+00 13440   0.804E+00    0.213E+00
DAV:  11    -0.187005914864E+03   -0.72043E-01   -0.53469E-01 13280   0.241E+00    0.321E+00
DAV:  12    -0.186910413399E+03    0.95501E-01   -0.41279E-01 12880   0.307E+00    0.276E+00
DAV:  13    -0.186869270347E+03    0.41143E-01   -0.23848E-01 13120   0.278E+00    0.216E+00
DAV:  14    -0.186827514460E+03    0.41756E-01   -0.10599E-01 12960   0.175E+00    0.614E-01
DAV:  15    -0.186822222814E+03    0.52916E-02   -0.12292E-02 11440   0.391E-01    0.356E-01
DAV:  16    -0.186820342812E+03    0.18800E-02   -0.60841E-03 12800   0.358E-01    0.186E-01
DAV:  17    -0.186819962084E+03    0.38073E-03   -0.16980E-03 12800   0.196E-01    0.142E-01
DAV:  18    -0.186819963840E+03   -0.17565E-05   -0.88776E-04 10560   0.161E-01
   1 F= -.18681996E+03 E0= -.18664859E+03  d E =-.186820E+03
       N       E                     dE             d eps       ncg     rms          rms(c)
DAV:   1    -0.187479392325E+03   -0.65943E+00   -0.27534E+02  8160   0.352E+01    0.468E+00
DAV:   2    -0.189434929781E+03   -0.19555E+01   -0.20213E+01 11880   0.155E+01    0.922E+00
DAV:   3    -0.189294902992E+03    0.14003E+00   -0.37925E+00 12280   0.122E+01    0.640E+00
DAV:   4    -0.188726217081E+03    0.56869E+00   -0.63748E-01 12440   0.455E+00    0.178E+00
DAV:   5    -0.188729217705E+03   -0.30006E-02   -0.30313E-01 11160   0.170E+00    0.243E+00
DAV:   6    -0.188705419400E+03    0.23798E-01   -0.38195E-01 12560   0.281E+00    0.274E+00
DAV:   7    -0.188674794013E+03    0.30625E-01   -0.22757E-01 12320   0.276E+00    0.196E+00
DAV:   8    -0.188637285460E+03    0.37509E-01   -0.72108E-02 11800   0.136E+00    0.441E-01
DAV:   9    -0.188634970365E+03    0.23151E-02   -0.83899E-03 10560   0.316E-01    0.231E-01
DAV:  10    -0.188636375439E+03   -0.14051E-02   -0.54338E-03 13040   0.404E-01    0.480E-01
DAV:  11    -0.188634752717E+03    0.16227E-02   -0.39608E-03 11560   0.345E-01    0.117E-01
DAV:  12    -0.188634874902E+03   -0.12218E-03   -0.88995E-04 10720   0.102E-01    0.837E-02
DAV:  13    -0.188634996881E+03   -0.12198E-03   -0.20699E-04  6480   0.540E-02    0.216E-02
DAV:  14    -0.188635211071E+03   -0.21419E-03   -0.73454E-05  6560   0.276E-02    0.341E-02
DAV:  15    -0.188635318536E+03   -0.10746E-03   -0.34662E-05  7040   0.204E-02    0.689E-03
DAV:  16    -0.188635487261E+03   -0.16873E-03   -0.94889E-06  6040   0.906E-03    0.325E-03
DAV:  17    -0.188635668906E+03   -0.18164E-03   -0.57429E-06  6680   0.644E-03    0.308E-03
DAV:  18    -0.188635763391E+03   -0.94485E-04   -0.29055E-06  6600   0.457E-03
   2 F= -.18863576E+03 E0= -.18849579E+03  d E =-.181580E+01
       N       E                     dE             d eps       ncg     rms          rms(c)
DAV:   1    -0.190581525173E+03   -0.19459E+01   -0.31648E+01  9240   0.143E+01    0.445E+00
DAV:   2    -0.190512188138E+03    0.69337E-01   -0.27571E+00 12200   0.939E+00    0.710E+00
DAV:   3    -0.190061883067E+03    0.45031E+00   -0.13048E+00 12320   0.859E+00    0.421E+00
DAV:   4    -0.189848044525E+03    0.21384E+00   -0.68739E-01 13120   0.434E+00    0.245E+00
DAV:   5    -0.189757523769E+03    0.90521E-01   -0.29115E-01 11880   0.198E+00    0.863E-01
DAV:   6    -0.189747409460E+03    0.10114E-01   -0.46101E-02 11960   0.103E+00    0.706E-01
DAV:   7    -0.189744276585E+03    0.31329E-02   -0.13023E-02 11600   0.649E-01    0.271E-01
DAV:   8    -0.189743713331E+03    0.56325E-03   -0.19970E-03 11720   0.189E-01    0.134E-01
DAV:   9    -0.189744685257E+03   -0.97193E-03   -0.19351E-03 11560   0.280E-01    0.329E-01
DAV:  10    -0.189743964851E+03    0.72041E-03   -0.18597E-03 10920   0.277E-01    0.101E-01
DAV:  11    -0.189743838246E+03    0.12661E-03   -0.25922E-04  6080   0.694E-02    0.264E-02
DAV:  12    -0.189743857558E+03   -0.19312E-04   -0.71395E-05  7400   0.279E-02
   3 F= -.18974386E+03 E0= -.18962522E+03  d E =-.110809E+01
       N       E                     dE             d eps       ncg     rms          rms(c)
DAV:   1    -0.191373595978E+03   -0.16298E+01   -0.80333E+01  8160   0.204E+01    0.466E+00
DAV:   2    -0.191170969471E+03    0.20263E+00   -0.54424E+00 13040   0.768E+00    0.457E+00
DAV:   3    -0.191307079755E+03   -0.13611E+00   -0.15332E+00 12360   0.916E+00    0.654E+00
DAV:   4    -0.190904724831E+03    0.40235E+00   -0.12771E+00 12920   0.772E+00    0.278E+00
DAV:   5    -0.190782481632E+03    0.12224E+00   -0.31353E-01 11920   0.230E+00    0.927E-01
DAV:   6    -0.190767177953E+03    0.15304E-01   -0.74905E-02 10840   0.112E+00    0.678E-01
DAV:   7    -0.190772497874E+03   -0.53199E-02   -0.39223E-02 11920   0.127E+00    0.102E+00
DAV:   8    -0.190762394842E+03    0.10103E-01   -0.14451E-02 11960   0.811E-01    0.154E-01
DAV:   9    -0.190762750360E+03   -0.35552E-03   -0.17467E-03 10440   0.151E-01    0.156E-01
DAV:  10    -0.190762751708E+03   -0.13475E-05   -0.14776E-03 11800   0.215E-01    0.172E-01
DAV:  11    -0.190762571433E+03    0.18027E-03   -0.76621E-04  9160   0.187E-01    0.807E-02
DAV:  12    -0.190762523786E+03    0.47648E-04   -0.14215E-04  6240   0.695E-02
   4 F= -.19076252E+03 E0= -.19065893E+03  d E =-.101867E+01
       N       E                     dE             d eps       ncg     rms          rms(c)
DAV:   1    -0.192059201992E+03   -0.12966E+01   -0.16786E+02  8160   0.288E+01    0.554E+00
DAV:   2    -0.191822344016E+03    0.23686E+00   -0.92024E+00 11320   0.786E+00    0.363E+00
DAV:   3    -0.191936011971E+03   -0.11367E+00   -0.18470E+00 11800   0.766E+00    0.737E+00
DAV:   4    -0.191762223860E+03    0.17379E+00   -0.24050E+00 11040   0.103E+01    0.453E+00
DAV:   5    -0.191561881589E+03    0.20034E+00   -0.61800E-01 12560   0.549E+00    0.316E+00
DAV:   6    -0.191440485224E+03    0.12140E+00   -0.25367E-01 12440   0.377E+00    0.139E+00
DAV:   7    -0.191423449383E+03    0.17036E-01   -0.59277E-02 12320   0.133E+00    0.547E-01
DAV:   8    -0.191418692731E+03    0.47567E-02   -0.10370E-02 10600   0.450E-01    0.216E-01
DAV:   9    -0.191420053485E+03   -0.13608E-02   -0.40490E-03 12480   0.369E-01    0.359E-01
DAV:  10    -0.191419026536E+03    0.10269E-02   -0.33836E-03 12160   0.410E-01    0.165E-01
DAV:  11    -0.191418797764E+03    0.22877E-03   -0.79125E-04 10400   0.158E-01    0.560E-02
DAV:  12    -0.191418778930E+03    0.18834E-04   -0.12312E-04  6880   0.513E-02
   5 F= -.19141878E+03 E0= -.19131685E+03  d E =-.656255E+00
       N       E                     dE             d eps       ncg     rms          rms(c)
DAV:   1    -0.191464902836E+03   -0.46105E-01   -0.43633E+00  8160   0.439E+00    0.542E-01
DAV:   2    -0.191501871972E+03   -0.36969E-01   -0.21698E-01 13600   0.220E+00    0.155E+00
DAV:   3    -0.191477673441E+03    0.24199E-01   -0.56164E-02 12520   0.173E+00    0.444E-01
DAV:   4    -0.191478598762E+03   -0.92532E-03   -0.12066E-02 11120   0.708E-01    0.566E-01
DAV:   5    -0.191475299157E+03    0.32996E-02   -0.69150E-03 10600   0.564E-01    0.176E-01
DAV:   6    -0.191475260659E+03    0.38498E-04   -0.18082E-03 11280   0.184E-01    0.112E-01
DAV:   7    -0.191474958274E+03    0.30239E-03   -0.81967E-04 10160   0.102E-01    0.257E-02
DAV:   8    -0.191474985430E+03   -0.27156E-04   -0.10449E-04  6640   0.356E-02
   6 F= -.19147499E+03 E0= -.19137127E+03  d E =-.562065E-01
       N       E                     dE             d eps       ncg     rms          rms(c)
DAV:   1    -0.191519845705E+03   -0.44887E-01   -0.44051E+00  8160   0.442E+00    0.488E-01
DAV:   2    -0.191541880587E+03   -0.22035E-01   -0.13983E-01 13520   0.165E+00    0.119E+00
DAV:   3    -0.191526954174E+03    0.14926E-01   -0.39290E-02 12480   0.145E+00    0.412E-01
DAV:   4    -0.191527268920E+03   -0.31475E-03   -0.84893E-03 11160   0.591E-01    0.486E-01
DAV:   5    -0.191525123702E+03    0.21452E-02   -0.59879E-03 10440   0.521E-01    0.205E-01
DAV:   6    -0.191524936906E+03    0.18680E-03   -0.17970E-03 10280   0.209E-01    0.111E-01
DAV:   7    -0.191524802257E+03    0.13465E-03   -0.86029E-04 10080   0.151E-01    0.106E-01
DAV:   8    -0.191524711475E+03    0.90783E-04   -0.32785E-04  7760   0.123E-01
   7 F= -.19152471E+03 E0= -.19141951E+03  d E =-.497260E-01
       N       E                     dE             d eps       ncg     rms          rms(c)
DAV:   1    -0.191534075863E+03   -0.92736E-02   -0.14620E-01  8160   0.816E-01    0.108E-01
DAV:   2    -0.191534871990E+03   -0.79613E-03   -0.55241E-03 13320   0.358E-01    0.245E-01
DAV:   3    -0.191534210511E+03    0.66148E-03   -0.16285E-03 10800   0.294E-01    0.707E-02
DAV:   4    -0.191534164388E+03    0.46123E-04   -0.19248E-04  6120   0.820E-02
   8 F= -.19153416E+03 E0= -.19142873E+03  d E =-.945291E-02
       N       E                     dE             d eps       ncg     rms          rms(c)
DAV:   1    -0.191478811269E+03    0.55399E-01   -0.78633E+00  8160   0.599E+00    0.817E-01
DAV:   2    -0.191510144768E+03   -0.31333E-01   -0.27138E-01 13600   0.240E+00    0.160E+00
DAV:   3    -0.191482077713E+03    0.28067E-01   -0.75002E-02 12240   0.204E+00    0.638E-01
DAV:   4    -0.191479091891E+03    0.29858E-02   -0.21285E-02 11080   0.875E-01    0.576E-01
DAV:   5    -0.191478202741E+03    0.88915E-03   -0.16999E-02 12600   0.886E-01    0.574E-01
DAV:   6    -0.191474944511E+03    0.32582E-02   -0.91786E-03 11680   0.602E-01    0.170E-01
DAV:   7    -0.191474882662E+03    0.61849E-04   -0.21893E-03 11360   0.240E-01    0.173E-01
DAV:   8    -0.191474694681E+03    0.18798E-03   -0.11370E-03  9760   0.227E-01    0.116E-01
DAV:   9    -0.191474559137E+03    0.13554E-03   -0.28420E-04  7480   0.106E-01    0.265E-02
DAV:  10    -0.191474573950E+03   -0.14813E-04   -0.60378E-05  6800   0.288E-02
   9 F= -.19147457E+03 E0= -.19137077E+03  d E =0.595904E-01
       N       E                     dE             d eps       ncg     rms          rms(c)
DAV:   1    -0.191565265165E+03   -0.90706E-01   -0.13039E+01  8160   0.777E+00    0.109E+00
DAV:   2    -0.191631968801E+03   -0.66704E-01   -0.47322E-01 13600   0.338E+00    0.248E+00
DAV:   3    -0.191569585212E+03    0.62384E-01   -0.16622E-01 12240   0.300E+00    0.756E-01
DAV:   4    -0.191565024348E+03    0.45609E-02   -0.31284E-02 12280   0.106E+00    0.791E-01
DAV:   5    -0.191563907294E+03    0.11171E-02   -0.33014E-02 11600   0.120E+00    0.848E-01
DAV:   6    -0.191557554965E+03    0.63523E-02   -0.19779E-02 11480   0.797E-01    0.226E-01
DAV:   7    -0.191556941169E+03    0.61380E-03   -0.32346E-03 10040   0.236E-01    0.116E-01
DAV:   8    -0.191556870462E+03    0.70707E-04   -0.97004E-04 11400   0.190E-01
  10 F= -.19155687E+03 E0= -.19145060E+03  d E =-.822965E-01
       N       E                     dE             d eps       ncg     rms          rms(c)
DAV:   1    -0.191560460644E+03   -0.35195E-02   -0.99119E-02  8160   0.745E-01    0.177E-01
DAV:   2    -0.191560083668E+03    0.37698E-03   -0.55087E-03 11400   0.294E-01    0.206E-01
DAV:   3    -0.191560157569E+03   -0.73902E-04   -0.29002E-03 11240   0.379E-01    0.243E-01
DAV:   4    -0.191559657909E+03    0.49966E-03   -0.20984E-03 10000   0.296E-01    0.150E-01
DAV:   5    -0.191559671146E+03   -0.13237E-04   -0.11661E-03  9600   0.237E-01    0.155E-01
DAV:   6    -0.191559393232E+03    0.27791E-03   -0.50260E-04  8120   0.157E-01    0.339E-02
DAV:   7    -0.191559411159E+03   -0.17927E-04   -0.98365E-05  6160   0.644E-02
  11 F= -.19155941E+03 E0= -.19145299E+03  d E =-.254070E-02
       N       E                     dE             d eps       ncg     rms          rms(c)
DAV:   1    -0.191607705446E+03   -0.48312E-01   -0.39865E+00  8160   0.422E+00    0.453E-01
DAV:   2    -0.191620931005E+03   -0.13226E-01   -0.10686E-01 13520   0.139E+00    0.924E-01
DAV:   3    -0.191612754746E+03    0.81763E-02   -0.30025E-02 12680   0.119E+00    0.422E-01
DAV:   4    -0.191612800338E+03   -0.45592E-04   -0.97326E-03 11840   0.594E-01    0.492E-01
DAV:   5    -0.191610756578E+03    0.20438E-02   -0.60016E-03 11360   0.544E-01    0.225E-01
DAV:   6    -0.191610356650E+03    0.39993E-03   -0.20365E-03 11240   0.254E-01    0.968E-02
DAV:   7    -0.191610226663E+03    0.12999E-03   -0.63765E-04 10680   0.101E-01    0.404E-02
DAV:   8    -0.191610186960E+03    0.39703E-04   -0.76730E-05  7560   0.386E-02
  12 F= -.19161019E+03 E0= -.19150425E+03  d E =-.507758E-01
       N       E                     dE             d eps       ncg     rms          rms(c)
DAV:   1    -0.191465492171E+03    0.14473E+00   -0.31845E+01  8160   0.119E+01    0.130E+00
DAV:   2    -0.191570710274E+03   -0.10522E+00   -0.87202E-01 12920   0.381E+00    0.242E+00
DAV:   3    -0.191509516383E+03    0.61194E-01   -0.20929E-01 11560   0.317E+00    0.139E+00
DAV:   4    -0.191505241992E+03    0.42744E-02   -0.99107E-02 12480   0.181E+00    0.129E+00
DAV:   5    -0.191492016841E+03    0.13225E-01   -0.45681E-02 12160   0.147E+00    0.693E-01
DAV:   6    -0.191486709922E+03    0.53069E-02   -0.16212E-02 12360   0.821E-01    0.283E-01
DAV:   7    -0.191485983997E+03    0.72593E-03   -0.53821E-03 12160   0.315E-01    0.144E-01
DAV:   8    -0.191485642487E+03    0.34151E-03   -0.12748E-03 10640   0.184E-01    0.124E-01
DAV:   9    -0.191485584338E+03    0.58150E-04   -0.70092E-04  9080   0.174E-01
  13 F= -.19148558E+03 E0= -.19137919E+03  d E =0.124603E+00
       N       E                     dE             d eps       ncg     rms          rms(c)
DAV:   1    -0.191483829512E+03    0.18130E-02   -0.18009E+00  8160   0.284E+00    0.353E-01
DAV:   2    -0.191490179222E+03   -0.63497E-02   -0.52842E-02 13600   0.102E+00    0.764E-01
DAV:   3    -0.191485808958E+03    0.43703E-02   -0.20021E-02 12080   0.957E-01    0.430E-01
DAV:   4    -0.191484612747E+03    0.11962E-02   -0.66519E-03 11080   0.487E-01    0.287E-01
DAV:   5    -0.191484246558E+03    0.36619E-03   -0.39290E-03 11320   0.427E-01    0.255E-01
DAV:   6    -0.191483518986E+03    0.72757E-03   -0.19319E-03 11040   0.264E-01    0.756E-02
DAV:   7    -0.191483474804E+03    0.44183E-04   -0.40767E-04  8160   0.843E-02
  14 F= -.19148347E+03 E0= -.19137519E+03  d E =0.210953E-02
       N       E                     dE             d eps       ncg     rms          rms(c)
DAV:   1    -0.191507626034E+03   -0.24107E-01   -0.21108E+00  8160   0.308E+00    0.313E-01
DAV:   2    -0.191513064651E+03   -0.54386E-02   -0.60414E-02 12400   0.788E-01    0.480E-01
DAV:   3    -0.191512701111E+03    0.36354E-03   -0.14806E-02 12600   0.785E-01    0.497E-01
DAV:   4    -0.191510649428E+03    0.20517E-02   -0.52771E-03 11280   0.460E-01    0.211E-01
DAV:   5    -0.191510378593E+03    0.27083E-03   -0.20672E-03 10000   0.296E-01    0.187E-01
DAV:   6    -0.191510204743E+03    0.17385E-03   -0.15341E-03 11120   0.251E-01    0.131E-01
DAV:   7    -0.191510301161E+03   -0.96418E-04   -0.11457E-03  9880   0.217E-01    0.170E-01
DAV:   8    -0.191510008685E+03    0.29248E-03   -0.54286E-04  8400   0.162E-01    0.288E-02
DAV:   9    -0.191510011368E+03   -0.26830E-05   -0.39783E-05  5920   0.295E-02
  15 F= -.19151001E+03 E0= -.19140018E+03  d E =-.265366E-01
       N       E                     dE             d eps       ncg     rms          rms(c)
DAV:   1    -0.191518916138E+03   -0.89075E-02   -0.23480E-01  8160   0.104E+00    0.135E-01
DAV:   2    -0.191520167621E+03   -0.12515E-02   -0.90688E-03 12560   0.406E-01    0.325E-01
DAV:   3    -0.191519283253E+03    0.88437E-03   -0.32012E-03 11720   0.384E-01    0.149E-01
DAV:   4    -0.191519236394E+03    0.46859E-04   -0.92713E-04  8800   0.189E-01
  16 F= -.19151924E+03 E0= -.19140863E+03  d E =-.922503E-02
       N       E                     dE             d eps       ncg     rms          rms(c)
DAV:   1    -0.191525969209E+03   -0.66860E-02   -0.56059E-01  8160   0.162E+00    0.211E-01
DAV:   2    -0.191526128381E+03   -0.15917E-03   -0.13826E-02 12560   0.357E-01    0.180E-01
DAV:   3    -0.191526301348E+03   -0.17297E-03   -0.32085E-03 11360   0.370E-01    0.252E-01
DAV:   4    -0.191525664006E+03    0.63734E-03   -0.21889E-03  9760   0.327E-01    0.140E-01
DAV:   5    -0.191525594649E+03    0.69358E-04   -0.11135E-03  9520   0.196E-01    0.141E-01
DAV:   6    -0.191525460049E+03    0.13460E-03   -0.72930E-04  8160   0.180E-01    0.845E-02
DAV:   7    -0.191525390161E+03    0.69889E-04   -0.17490E-04  5880   0.860E-02
  17 F= -.19152539E+03 E0= -.19141492E+03  d E =-.615377E-02
       N       E                     dE             d eps       ncg     rms          rms(c)
DAV:   1    -0.191551236762E+03   -0.25777E-01   -0.16717E+00  8160   0.275E+00    0.301E-01
DAV:   2    -0.191555622449E+03   -0.43857E-02   -0.46675E-02 12240   0.727E-01    0.495E-01
DAV:   3    -0.191554572626E+03    0.10498E-02   -0.12790E-02 12440   0.760E-01    0.436E-01
DAV:   4    -0.191553331115E+03    0.12415E-02   -0.50549E-03 11160   0.444E-01    0.255E-01
DAV:   5    -0.191552821907E+03    0.50921E-03   -0.26410E-03  9800   0.335E-01    0.182E-01
DAV:   6    -0.191552549238E+03    0.27267E-03   -0.12014E-03 11280   0.207E-01    0.880E-02
DAV:   7    -0.191552645317E+03   -0.96079E-04   -0.67974E-04  8640   0.167E-01
  18 F= -.19155265E+03 E0= -.19144068E+03  d E =-.272552E-01
       N       E                     dE             d eps       ncg     rms          rms(c)
DAV:   1    -0.191562917544E+03   -0.10368E-01   -0.37740E-01  8160   0.130E+00    0.130E-01
DAV:   2    -0.191563533017E+03   -0.61547E-03   -0.86734E-03 11880   0.250E-01    0.124E-01
DAV:   3    -0.191563631023E+03   -0.98006E-04   -0.17988E-03 12000   0.242E-01    0.197E-01
DAV:   4    -0.191563338539E+03    0.29248E-03   -0.10151E-03  8480   0.206E-01    0.917E-02
DAV:   5    -0.191563255126E+03    0.83413E-04   -0.21913E-04  5560   0.894E-02
  19 F= -.19156326E+03 E0= -.19145136E+03  d E =-.106098E-01
       N       E                     dE             d eps       ncg     rms          rms(c)
DAV:   1    -0.191567445497E+03   -0.41070E-02   -0.69503E-01  8160   0.176E+00    0.221E-01
DAV:   2    -0.191573443332E+03   -0.59978E-02   -0.25940E-02 13560   0.814E-01    0.741E-01
DAV:   3    -0.191568347412E+03    0.50959E-02   -0.12513E-02 11680   0.756E-01    0.203E-01
DAV:   4    -0.191568241378E+03    0.10603E-03   -0.19468E-03  9960   0.255E-01    0.172E-01
DAV:   5    -0.191567994666E+03    0.24671E-03   -0.10790E-03 10600   0.224E-01    0.100E-01
DAV:   6    -0.191567881586E+03    0.11308E-03   -0.32511E-04  7280   0.993E-02    0.396E-02
DAV:   7    -0.191567938338E+03   -0.56751E-04   -0.20962E-04  6560   0.955E-02
  20 F= -.19156794E+03 E0= -.19145476E+03  d E =-.468321E-02
       N       E                     dE             d eps       ncg     rms          rms(c)
DAV:   1    -0.191604851421E+03   -0.36970E-01   -0.27094E+00  8160   0.358E+00    0.491E-01
DAV:   2    -0.191610520180E+03   -0.56688E-02   -0.91956E-02 12640   0.112E+00    0.710E-01
DAV:   3    -0.191608445238E+03    0.20749E-02   -0.27237E-02 12080   0.116E+00    0.586E-01
DAV:   4    -0.191605422245E+03    0.30230E-02   -0.11051E-02 11560   0.698E-01    0.398E-01
DAV:   5    -0.191604837255E+03    0.58499E-03   -0.82764E-03 10960   0.578E-01    0.358E-01
DAV:   6    -0.191603635652E+03    0.12016E-02   -0.40103E-03 10480   0.361E-01    0.131E-01
DAV:   7    -0.191603761468E+03   -0.12582E-03   -0.15197E-03  9760   0.245E-01    0.187E-01
DAV:   8    -0.191603418870E+03    0.34260E-03   -0.76988E-04  8320   0.190E-01    0.468E-02
DAV:   9    -0.191603395391E+03    0.23479E-04   -0.83390E-05  6280   0.445E-02
  21 F= -.19160340E+03 E0= -.19148892E+03  d E =-.354571E-01
       N       E                     dE             d eps       ncg     rms          rms(c)
DAV:   1    -0.191633772722E+03   -0.30354E-01   -0.38090E+00  8160   0.416E+00    0.475E-01
DAV:   2    -0.191644384921E+03   -0.10612E-01   -0.10963E-01 12120   0.116E+00    0.839E-01
DAV:   3    -0.191641072593E+03    0.33123E-02   -0.34663E-02 12000   0.119E+00    0.683E-01
DAV:   4    -0.191636945125E+03    0.41275E-02   -0.10830E-02 11840   0.597E-01    0.211E-01
DAV:   5    -0.191636711094E+03    0.23403E-03   -0.36235E-03 11560   0.366E-01    0.235E-01
DAV:   6    -0.191636599137E+03    0.11196E-03   -0.27962E-03 12080   0.376E-01    0.190E-01
DAV:   7    -0.191636201290E+03    0.39785E-03   -0.11428E-03 10240   0.215E-01    0.103E-01
DAV:   8    -0.191636106059E+03    0.95231E-04   -0.29647E-04  7680   0.118E-01
  22 F= -.19163611E+03 E0= -.19152093E+03  d E =-.327107E-01
       N       E                     dE             d eps       ncg     rms          rms(c)
DAV:   1    -0.191659806968E+03   -0.23606E-01   -0.15369E+00  8160   0.264E+00    0.296E-01
DAV:   2    -0.191662255650E+03   -0.24487E-02   -0.40424E-02 12240   0.631E-01    0.357E-01
DAV:   3    -0.191663091818E+03   -0.83617E-03   -0.12328E-02 11240   0.678E-01    0.487E-01
DAV:   4    -0.191660921863E+03    0.21700E-02   -0.63346E-03 11160   0.486E-01    0.181E-01
DAV:   5    -0.191660782224E+03    0.13964E-03   -0.15971E-03  9600   0.263E-01    0.174E-01
DAV:   6    -0.191660527631E+03    0.25459E-03   -0.12026E-03 11280   0.247E-01    0.838E-02
DAV:   7    -0.191660461107E+03    0.66524E-04   -0.27909E-04  7160   0.973E-02
  23 F= -.19166046E+03 E0= -.19154593E+03  d E =-.243550E-01
       N       E                     dE             d eps       ncg     rms          rms(c)
DAV:   1    -0.191679721255E+03   -0.19194E-01   -0.89213E-01  8160   0.202E+00    0.237E-01
DAV:   2    -0.191680741553E+03   -0.10203E-02   -0.24881E-02 12200   0.443E-01    0.187E-01
DAV:   3    -0.191681263897E+03   -0.52234E-03   -0.44085E-03 12200   0.429E-01    0.306E-01
DAV:   4    -0.191680312722E+03    0.95117E-03   -0.27491E-03 10840   0.378E-01    0.142E-01
DAV:   5    -0.191680246595E+03    0.66127E-04   -0.10423E-03  9640   0.208E-01    0.142E-01
DAV:   6    -0.191680130890E+03    0.11570E-03   -0.78669E-04  9400   0.199E-01    0.853E-02
DAV:   7    -0.191680072822E+03    0.58069E-04   -0.23334E-04  6120   0.102E-01
  24 F= -.19168007E+03 E0= -.19156614E+03  d E =-.196117E-01
       N       E                     dE             d eps       ncg     rms          rms(c)
DAV:   1    -0.191736999548E+03   -0.56869E-01   -0.11623E+01  8160   0.724E+00    0.776E-01
DAV:   2    -0.191752202223E+03   -0.15203E-01   -0.30036E-01 12240   0.149E+00    0.553E-01
DAV:   3    -0.191754933069E+03   -0.27308E-02   -0.40672E-02 11320   0.114E+00    0.841E-01
DAV:   4    -0.191748888994E+03    0.60441E-02   -0.26784E-02 11000   0.114E+00    0.565E-01
DAV:   5    -0.191746354301E+03    0.25347E-02   -0.11861E-02 12160   0.675E-01    0.377E-01
DAV:   6    -0.191746100812E+03    0.25349E-03   -0.78152E-03 12680   0.644E-01    0.323E-01
DAV:   7    -0.191744979368E+03    0.11214E-02   -0.28860E-03 10960   0.363E-01    0.108E-01
DAV:   8    -0.191744885537E+03    0.93831E-04   -0.67277E-04  9600   0.172E-01
  25 F= -.19174489E+03 E0= -.19163352E+03  d E =-.648127E-01
       N       E                     dE             d eps       ncg     rms          rms(c)
DAV:   1    -0.191755684474E+03   -0.10705E-01   -0.42268E-01  8160   0.140E+00    0.223E-01
DAV:   2    -0.191757948923E+03   -0.22644E-02   -0.19405E-02 12200   0.704E-01    0.457E-01
DAV:   3    -0.191755675263E+03    0.22737E-02   -0.67323E-03 11400   0.600E-01    0.160E-01
DAV:   4    -0.191755453886E+03    0.22138E-03   -0.16296E-03 10240   0.235E-01    0.132E-01
DAV:   5    -0.191755503521E+03   -0.49635E-04   -0.11846E-03 10160   0.245E-01    0.172E-01
DAV:   6    -0.191755191746E+03    0.31177E-03   -0.64205E-04  8840   0.185E-01    0.406E-02
DAV:   7    -0.191755204011E+03   -0.12265E-04   -0.12569E-04  5920   0.697E-02
  26 F= -.19175520E+03 E0= -.19164424E+03  d E =-.103185E-01
       N       E                     dE             d eps       ncg     rms          rms(c)
DAV:   1    -0.191775787115E+03   -0.20595E-01   -0.16444E+00  8160   0.269E+00    0.273E-01
DAV:   2    -0.191778407469E+03   -0.26204E-02   -0.40609E-02 12240   0.607E-01    0.266E-01
DAV:   3    -0.191778870468E+03   -0.46300E-03   -0.74946E-03 11280   0.554E-01    0.378E-01
DAV:   4    -0.191777549402E+03    0.13211E-02   -0.41600E-03 11520   0.437E-01    0.167E-01
DAV:   5    -0.191777468948E+03    0.80454E-04   -0.13887E-03 10200   0.254E-01    0.162E-01
DAV:   6    -0.191777275212E+03    0.19374E-03   -0.96187E-04 11120   0.231E-01    0.810E-02
DAV:   7    -0.191777242381E+03    0.32831E-04   -0.25565E-04  7040   0.105E-01
  27 F= -.19177724E+03 E0= -.19166731E+03  d E =-.220384E-01
       N       E                     dE             d eps       ncg     rms          rms(c)
DAV:   1    -0.191795768465E+03   -0.18493E-01   -0.13571E+00  8160   0.246E+00    0.269E-01
DAV:   2    -0.191799417045E+03   -0.36486E-02   -0.38457E-02 12600   0.753E-01    0.443E-01
DAV:   3    -0.191798075949E+03    0.13411E-02   -0.99450E-03 11920   0.679E-01    0.312E-01
DAV:   4    -0.191797351247E+03    0.72470E-03   -0.37448E-03 11400   0.389E-01    0.200E-01
DAV:   5    -0.191797118728E+03    0.23252E-03   -0.16305E-03 10200   0.299E-01    0.156E-01
DAV:   6    -0.191796877808E+03    0.24092E-03   -0.81286E-04 10040   0.195E-01    0.575E-02
DAV:   7    -0.191796937387E+03   -0.59579E-04   -0.29886E-04  8080   0.118E-01
  28 F= -.19179694E+03 E0= -.19168794E+03  d E =-.196950E-01
       N       E                     dE             d eps       ncg     rms          rms(c)
DAV:   1    -0.191821001071E+03   -0.24123E-01   -0.25843E+00  8160   0.338E+00    0.355E-01
DAV:   2    -0.191829259388E+03   -0.82583E-02   -0.70917E-02 12280   0.108E+00    0.697E-01
DAV:   3    -0.191825444723E+03    0.38147E-02   -0.20944E-02 11280   0.957E-01    0.398E-01
DAV:   4    -0.191824310864E+03    0.11339E-02   -0.58384E-03 12000   0.482E-01    0.256E-01
DAV:   5    -0.191823832722E+03    0.47814E-03   -0.24864E-03 11200   0.383E-01    0.183E-01
DAV:   6    -0.191823508466E+03    0.32426E-03   -0.12293E-03 11320   0.235E-01    0.691E-02
DAV:   7    -0.191823490261E+03    0.18205E-04   -0.33367E-04  8320   0.798E-02
  29 F= -.19182349E+03 E0= -.19171588E+03  d E =-.265529E-01
       N       E                     dE             d eps       ncg     rms          rms(c)
DAV:   1    -0.191827930806E+03   -0.44223E-02   -0.74176E-02  8160   0.576E-01    0.709E-02
DAV:   2    -0.191828319549E+03   -0.38874E-03   -0.25541E-03 12240   0.245E-01    0.170E-01
DAV:   3    -0.191828028579E+03    0.29097E-03   -0.87534E-04 10240   0.206E-01    0.638E-02
DAV:   4    -0.191828024223E+03    0.43559E-05   -0.18610E-04  5920   0.949E-02
  30 F= -.19182802E+03 E0= -.19172076E+03  d E =-.453396E-02
       N       E                     dE             d eps       ncg     rms          rms(c)
DAV:   1    -0.191823897200E+03    0.41314E-02   -0.65825E-02  8160   0.543E-01    0.600E-02
DAV:   2    -0.191824406277E+03   -0.50908E-03   -0.22450E-03 13120   0.260E-01    0.183E-01
DAV:   3    -0.191823951245E+03    0.45503E-03   -0.70789E-04  9120   0.212E-01    0.221E-02
DAV:   4    -0.191823957974E+03   -0.67299E-05   -0.46484E-05  6080   0.303E-02
  31 F= -.19182396E+03 E0= -.19171627E+03  d E =0.406625E-02
       N       E                     dE             d eps       ncg     rms          rms(c)
DAV:   1    -0.191816196531E+03    0.77547E-02   -0.64196E-01  8160   0.173E+00    0.295E-01
DAV:   2    -0.191823558517E+03   -0.73620E-02   -0.35126E-02 12000   0.119E+00    0.799E-01
DAV:   3    -0.191815708069E+03    0.78504E-02   -0.13238E-02 12240   0.898E-01    0.163E-01
DAV:   4    -0.191816321577E+03   -0.61351E-03   -0.29661E-03 10800   0.370E-01    0.313E-01
DAV:   5    -0.191815472901E+03    0.84868E-03   -0.27624E-03 10000   0.358E-01    0.138E-01
DAV:   6    -0.191815211086E+03    0.26181E-03   -0.93596E-04 10040   0.153E-01    0.379E-02
DAV:   7    -0.191815219260E+03   -0.81740E-05   -0.14642E-04  7400   0.712E-02
  32 F= -.19181522E+03 E0= -.19170672E+03  d E =0.873871E-02
       N       E                     dE             d eps       ncg     rms          rms(c)
DAV:   1    -0.191846400044E+03   -0.31189E-01   -0.39858E+00  8160   0.422E+00    0.519E-01
DAV:   2    -0.191864882564E+03   -0.18483E-01   -0.12453E-01 13200   0.184E+00    0.118E+00
DAV:   3    -0.191849211597E+03    0.15671E-01   -0.40255E-02 12240   0.148E+00    0.349E-01
DAV:   4    -0.191849303970E+03   -0.92374E-04   -0.10317E-02 12120   0.596E-01    0.440E-01
DAV:   5    -0.191848149395E+03    0.11546E-02   -0.78805E-03 12400   0.641E-01    0.327E-01
DAV:   6    -0.191846906038E+03    0.12434E-02   -0.27172E-03 11200   0.341E-01    0.692E-02
DAV:   7    -0.191846893694E+03    0.12344E-04   -0.52206E-04  9960   0.944E-02
  33 F= -.19184689E+03 E0= -.19174066E+03  d E =-.316744E-01
       N       E                     dE             d eps       ncg     rms          rms(c)
DAV:   1    -0.191862516172E+03   -0.15610E-01   -0.97625E-01  8160   0.208E+00    0.242E-01
DAV:   2    -0.191868322096E+03   -0.58059E-02   -0.32499E-02 12040   0.897E-01    0.668E-01
DAV:   3    -0.191863975186E+03    0.43469E-02   -0.12029E-02 12280   0.762E-01    0.203E-01
DAV:   4    -0.191863835655E+03    0.13953E-03   -0.19085E-03 10720   0.281E-01    0.171E-01
DAV:   5    -0.191863598851E+03    0.23680E-03   -0.10261E-03 10600   0.254E-01    0.112E-01
DAV:   6    -0.191863506977E+03    0.91874E-04   -0.47527E-04  8760   0.147E-01
  34 F= -.19186351E+03 E0= -.19175825E+03  d E =-.166133E-01
       N       E                     dE             d eps       ncg     rms          rms(c)
DAV:   1    -0.191862562983E+03    0.10359E-02   -0.23206E-02  9920   0.391E-01    0.137E-01
DAV:   2    -0.191865898963E+03   -0.33360E-02   -0.67985E-03 11880   0.670E-01    0.571E-01
DAV:   3    -0.191862281585E+03    0.36174E-02   -0.44350E-03 10280   0.573E-01    0.507E-02
DAV:   4    -0.191862301170E+03   -0.19585E-04   -0.20133E-04  5880   0.794E-02
  35 F= -.19186230E+03 E0= -.19175749E+03  d E =0.120581E-02
       N       E                     dE             d eps       ncg     rms          rms(c)
DAV:   1    -0.191885679744E+03   -0.23398E-01   -0.23040E+00  8160   0.319E+00    0.331E-01
DAV:   2    -0.191895939278E+03   -0.10260E-01   -0.64818E-02 12000   0.117E+00    0.857E-01
DAV:   3    -0.191889214947E+03    0.67243E-02   -0.21925E-02 12000   0.100E+00    0.300E-01
DAV:   4    -0.191888722019E+03    0.49293E-03   -0.34573E-03 11080   0.381E-01    0.224E-01
DAV:   5    -0.191888298594E+03    0.42342E-03   -0.18297E-03 10640   0.343E-01    0.154E-01
DAV:   6    -0.191888140843E+03    0.15775E-03   -0.98081E-04 11280   0.209E-01    0.839E-02
DAV:   7    -0.191888226561E+03   -0.85718E-04   -0.52120E-04  8560   0.178E-01
  36 F= -.19188823E+03 E0= -.19178516E+03  d E =-.259254E-01
       N       E                     dE             d eps       ncg     rms          rms(c)
DAV:   1    -0.191883652801E+03    0.44880E-02   -0.65250E-02  8160   0.561E-01    0.872E-02
DAV:   2    -0.191884233280E+03   -0.58048E-03   -0.31360E-03 11360   0.318E-01    0.235E-01
DAV:   3    -0.191883635985E+03    0.59730E-03   -0.12261E-03 10160   0.259E-01    0.622E-02
DAV:   4    -0.191883656145E+03   -0.20160E-04   -0.27757E-04  7120   0.119E-01
  37 F= -.19188366E+03 E0= -.19178024E+03  d E =0.457042E-02
       N       E                     dE             d eps       ncg     rms          rms(c)
DAV:   1    -0.191877505028E+03    0.61310E-02   -0.12258E-01  8160   0.747E-01    0.945E-02
DAV:   2    -0.191878427076E+03   -0.92205E-03   -0.46126E-03 13280   0.349E-01    0.275E-01
DAV:   3    -0.191877651929E+03    0.77515E-03   -0.16569E-03 10040   0.305E-01    0.695E-02
DAV:   4    -0.191877609142E+03    0.42787E-04   -0.15617E-04  5600   0.702E-02
  38 F= -.19187761E+03 E0= -.19177386E+03  d E =0.604700E-02
       N       E                     dE             d eps       ncg     rms          rms(c)
DAV:   1    -0.191849949312E+03    0.27703E-01   -0.24807E+00  8160   0.330E+00    0.419E-01
DAV:   2    -0.191873259467E+03   -0.23310E-01   -0.97232E-02 12520   0.174E+00    0.135E+00
DAV:   3    -0.191852787341E+03    0.20472E-01   -0.36031E-02 11720   0.144E+00    0.261E-01
DAV:   4    -0.191852725553E+03    0.61788E-04   -0.35512E-03 11040   0.390E-01    0.261E-01
DAV:   5    -0.191852049975E+03    0.67558E-03   -0.23163E-03 12760   0.382E-01    0.155E-01
DAV:   6    -0.191851939738E+03    0.11024E-03   -0.12367E-03 10440   0.232E-01    0.107E-01
DAV:   7    -0.191852002858E+03   -0.63121E-04   -0.68684E-04  9360   0.208E-01
  39 F= -.19185200E+03 E0= -.19174649E+03  d E =0.256063E-01
       N       E                     dE             d eps       ncg     rms          rms(c)
DAV:   1    -0.191842573722E+03    0.93660E-02   -0.41707E-01  8160   0.136E+00    0.171E-01
DAV:   2    -0.191846639215E+03   -0.40655E-02   -0.16247E-02 12480   0.677E-01    0.571E-01
DAV:   3    -0.191843034034E+03    0.36052E-02   -0.68513E-03 11840   0.606E-01    0.111E-01
DAV:   4    -0.191843026096E+03    0.79383E-05   -0.55782E-04  9680   0.139E-01
  40 F= -.19184303E+03 E0= -.19173658E+03  d E =0.897676E-02
       N       E                     dE             d eps       ncg     rms          rms(c)
DAV:   1    -0.191860887479E+03   -0.17853E-01   -0.16830E+00  8160   0.278E+00    0.437E-01
DAV:   2    -0.191882718834E+03   -0.21831E-01   -0.10061E-01 12000   0.187E+00    0.137E+00
DAV:   3    -0.191863139503E+03    0.19579E-01   -0.35387E-02 12280   0.150E+00    0.256E-01
DAV:   4    -0.191863400798E+03   -0.26130E-03   -0.45058E-03 12240   0.508E-01    0.340E-01
DAV:   5    -0.191862178292E+03    0.12225E-02   -0.32315E-03 11480   0.458E-01    0.162E-01
DAV:   6    -0.191861948141E+03    0.23015E-03   -0.15724E-03 10360   0.214E-01    0.100E-01
DAV:   7    -0.191861996602E+03   -0.48462E-04   -0.92181E-04 10160   0.205E-01
  41 F= -.19186200E+03 E0= -.19175605E+03  d E =-.189705E-01
       N       E                     dE             d eps       ncg     rms          rms(c)
DAV:   1    -0.191845329631E+03    0.16619E-01   -0.27053E+00  8160   0.344E+00    0.478E-01
DAV:   2    -0.191879076376E+03   -0.33747E-01   -0.12406E-01 12960   0.215E+00    0.164E+00
DAV:   3    -0.191847442758E+03    0.31634E-01   -0.50269E-02 11600   0.172E+00    0.281E-01
DAV:   4    -0.191847408831E+03    0.33927E-04   -0.42685E-03 10880   0.443E-01    0.285E-01
DAV:   5    -0.191846591994E+03    0.81684E-03   -0.26693E-03 12520   0.409E-01    0.163E-01
DAV:   6    -0.191846371291E+03    0.22070E-03   -0.12784E-03 10800   0.224E-01    0.831E-02
DAV:   7    -0.191846312967E+03    0.58324E-04   -0.35088E-04  8920   0.110E-01
  42 F= -.19184631E+03 E0= -.19173911E+03  d E =0.156836E-01
       N       E                     dE             d eps       ncg     rms          rms(c)
DAV:   1    -0.191863009313E+03   -0.16638E-01   -0.17829E+00  8160   0.281E+00    0.353E-01
DAV:   2    -0.191876135458E+03   -0.13126E-01   -0.61294E-02 13560   0.139E+00    0.107E+00
DAV:   3    -0.191864559463E+03    0.11576E-01   -0.26247E-02 12200   0.117E+00    0.255E-01
DAV:   4    -0.191864295768E+03    0.26370E-03   -0.34247E-03 11480   0.386E-01    0.238E-01
DAV:   5    -0.191863878514E+03    0.41725E-03   -0.22521E-03 11360   0.377E-01    0.180E-01
DAV:   6    -0.191863582620E+03    0.29589E-03   -0.11840E-03 10160   0.231E-01    0.977E-02
DAV:   7    -0.191863640469E+03   -0.57850E-04   -0.61399E-04  8600   0.201E-01
  43 F= -.19186364E+03 E0= -.19175761E+03  d E =-.173275E-01
       N       E                     dE             d eps       ncg     rms          rms(c)
DAV:   1    -0.191869674885E+03   -0.60923E-02   -0.21679E-01  8160   0.987E-01    0.108E-01
DAV:   2    -0.191870425942E+03   -0.75106E-03   -0.63964E-03 11440   0.316E-01    0.208E-01
DAV:   3    -0.191870096397E+03    0.32954E-03   -0.18578E-03 11480   0.300E-01    0.129E-01
DAV:   4    -0.191869947780E+03    0.14862E-03   -0.37803E-04  8280   0.131E-01    0.532E-02
DAV:   5    -0.191869938792E+03    0.89878E-05   -0.11406E-04  5920   0.840E-02
  44 F= -.19186994E+03 E0= -.19176420E+03  d E =-.629832E-02
       N       E                     dE             d eps       ncg     rms          rms(c)
DAV:   1    -0.191884344005E+03   -0.14396E-01   -0.11846E+00  8160   0.228E+00    0.252E-01
DAV:   2    -0.191890995661E+03   -0.66517E-02   -0.33904E-02 12080   0.899E-01    0.715E-01
DAV:   3    -0.191885772989E+03    0.52227E-02   -0.12728E-02 11560   0.800E-01    0.194E-01
DAV:   4    -0.191885868823E+03   -0.95834E-04   -0.18741E-03 10520   0.311E-01    0.207E-01
DAV:   5    -0.191885404861E+03    0.46396E-03   -0.10945E-03 10560   0.273E-01    0.842E-02
DAV:   6    -0.191885383610E+03    0.21251E-04   -0.37166E-04  9000   0.108E-01
  45 F= -.19188538E+03 E0= -.19178096E+03  d E =-.154448E-01
       N       E                     dE             d eps       ncg     rms          rms(c)
DAV:   1    -0.191865606721E+03    0.19798E-01   -0.17360E+00  8160   0.275E+00    0.303E-01
DAV:   2    -0.191876227468E+03   -0.10621E-01   -0.52310E-02 12080   0.119E+00    0.860E-01
DAV:   3    -0.191867619773E+03    0.86077E-02   -0.16419E-02 11520   0.965E-01    0.212E-01
DAV:   4    -0.191867761329E+03   -0.14156E-03   -0.24324E-03 10960   0.356E-01    0.238E-01
DAV:   5    -0.191867147242E+03    0.61409E-03   -0.14975E-03 11360   0.316E-01    0.994E-02
DAV:   6    -0.191867117386E+03    0.29856E-04   -0.55678E-04 10280   0.130E-01
  46 F= -.19186712E+03 E0= -.19176120E+03  d E =0.182662E-01
       N       E                     dE             d eps       ncg     rms          rms(c)
DAV:   1    -0.191828809299E+03    0.38338E-01   -0.85970E+00  8160   0.612E+00    0.706E-01
DAV:   2    -0.191888411318E+03   -0.59602E-01   -0.28533E-01 12280   0.273E+00    0.199E+00
DAV:   3    -0.191839862091E+03    0.48549E-01   -0.86415E-02 11680   0.225E+00    0.481E-01
DAV:   4    -0.191840339313E+03   -0.47722E-03   -0.11629E-02 11960   0.773E-01    0.523E-01
DAV:   5    -0.191837210125E+03    0.31292E-02   -0.71448E-03 12680   0.686E-01    0.219E-01
DAV:   6    -0.191837244565E+03   -0.34440E-04   -0.30196E-03 11480   0.310E-01    0.158E-01
DAV:   7    -0.191836776226E+03    0.46834E-03   -0.10829E-03 11560   0.151E-01    0.435E-02
DAV:   8    -0.191836810890E+03   -0.34664E-04   -0.19008E-04  8600   0.100E-01
  47 F= -.19183681E+03 E0= -.19172858E+03  d E =0.303065E-01
       N       E                     dE             d eps       ncg     rms          rms(c)
DAV:   1    -0.191832660669E+03    0.41156E-02   -0.11994E+00  8160   0.229E+00    0.278E-01
DAV:   2    -0.191842125774E+03   -0.94651E-02   -0.39062E-02 12200   0.113E+00    0.848E-01
DAV:   3    -0.191833648296E+03    0.84775E-02   -0.15117E-02 11640   0.936E-01    0.185E-01
DAV:   4    -0.191833686155E+03   -0.37859E-04   -0.17640E-03 10600   0.289E-01    0.187E-01
DAV:   5    -0.191833355247E+03    0.33091E-03   -0.10833E-03 11240   0.266E-01    0.103E-01
DAV:   6    -0.191833274779E+03    0.80468E-04   -0.46597E-04  9640   0.137E-01
  48 F= -.19183327E+03 E0= -.19172471E+03  d E =0.353611E-02
       N       E                     dE             d eps       ncg     rms          rms(c)
DAV:   1    -0.191840163771E+03   -0.68085E-02   -0.50037E-01  8160   0.152E+00    0.197E-01
DAV:   2    -0.191841951144E+03   -0.17874E-02   -0.21442E-02 11400   0.600E-01    0.302E-01
DAV:   3    -0.191841176908E+03    0.77424E-03   -0.39853E-03 11960   0.467E-01    0.168E-01
DAV:   4    -0.191840919336E+03    0.25757E-03   -0.14026E-03 11160   0.239E-01    0.133E-01
DAV:   5    -0.191840875856E+03    0.43480E-04   -0.89235E-04  9800   0.224E-01
  49 F= -.19184088E+03 E0= -.19173194E+03  d E =-.760108E-02
       N       E                     dE             d eps       ncg     rms          rms(c)
DAV:   1    -0.191839114372E+03    0.18050E-02   -0.29567E-02  8160   0.406E-01    0.599E-02
DAV:   2    -0.191839528326E+03   -0.41395E-03   -0.17255E-03 11440   0.224E-01    0.180E-01
DAV:   3    -0.191839154990E+03    0.37334E-03   -0.70729E-04  8960   0.213E-01    0.590E-02
DAV:   4    -0.191839115628E+03    0.39362E-04   -0.12836E-04  5760   0.645E-02
  50 F= -.19183912E+03 E0= -.19173044E+03  d E =0.176023E-02
       N       E                     dE             d eps       ncg     rms          rms(c)
DAV:   1    -0.191841814290E+03   -0.26593E-02   -0.94468E-02  8160   0.671E-01    0.940E-02
DAV:   2    -0.191841922666E+03   -0.10838E-03   -0.37283E-03 10600   0.204E-01    0.871E-02
DAV:   3    -0.191841959199E+03   -0.36534E-04   -0.74126E-04 10200   0.186E-01
  51 F= -.19184196E+03 E0= -.19173356E+03  d E =-.284357E-02
       N       E                     dE             d eps       ncg     rms          rms(c)
DAV:   1    -0.191846808506E+03   -0.48858E-02   -0.26273E-01  8160   0.111E+00    0.149E-01
DAV:   2    -0.191848605103E+03   -0.17966E-02   -0.10080E-02 12240   0.484E-01    0.377E-01
DAV:   3    -0.191847095137E+03    0.15100E-02   -0.35328E-03 11680   0.438E-01    0.112E-01
DAV:   4    -0.191847095159E+03   -0.21520E-07   -0.63813E-04  9000   0.179E-01
  52 F= -.19184710E+03 E0= -.19173904E+03  d E =-.513596E-02
       N       E                     dE             d eps       ncg     rms          rms(c)
DAV:   1    -0.191847342649E+03   -0.24751E-03   -0.13712E-02 10840   0.337E-01    0.859E-02
DAV:   2    -0.191847973456E+03   -0.63081E-03   -0.21885E-03 12400   0.320E-01    0.226E-01
DAV:   3    -0.191847246989E+03    0.72647E-03   -0.11712E-03 10200   0.286E-01    0.508E-02
DAV:   4    -0.191847228864E+03    0.18125E-04   -0.11243E-04  6080   0.610E-02
  53 F= -.19184723E+03 E0= -.19173896E+03  d E =-.133705E-03
       N       E                     dE             d eps       ncg     rms          rms(c)
DAV:   1    -0.191845208132E+03    0.20389E-02   -0.81656E-02  8160   0.619E-01    0.118E-01
DAV:   2    -0.191847505770E+03   -0.22976E-02   -0.69913E-03 12280   0.608E-01    0.438E-01
DAV:   3    -0.191845210865E+03    0.22949E-02   -0.29381E-03 11320   0.451E-01    0.619E-02
DAV:   4    -0.191845276860E+03   -0.65995E-04   -0.29631E-04  8320   0.127E-01
  54 F= -.19184528E+03 E0= -.19173694E+03  d E =0.195200E-02
       N       E                     dE             d eps       ncg     rms          rms(c)
DAV:   1    -0.191847544635E+03   -0.23338E-02   -0.22876E-01  8160   0.104E+00    0.148E-01
DAV:   2    -0.191848883953E+03   -0.13393E-02   -0.12006E-02 11880   0.460E-01    0.278E-01
DAV:   3    -0.191848111226E+03    0.77273E-03   -0.27788E-03 11640   0.381E-01    0.134E-01
DAV:   4    -0.191848016225E+03    0.95001E-04   -0.63702E-04  8920   0.190E-01
  55 F= -.19184802E+03 E0= -.19173971E+03  d E =-.273936E-02
       N       E                     dE             d eps       ncg     rms          rms(c)
DAV:   1    -0.191849823738E+03   -0.17125E-02   -0.15991E-01  8160   0.865E-01    0.174E-01
DAV:   2    -0.191854730098E+03   -0.49064E-02   -0.14322E-02 12160   0.890E-01    0.620E-01
DAV:   3    -0.191849708399E+03    0.50217E-02   -0.65178E-03 11280   0.679E-01    0.539E-02
DAV:   4    -0.191849877269E+03   -0.16887E-03   -0.42287E-04  8880   0.147E-01    0.122E-01
DAV:   5    -0.191849713398E+03    0.16387E-03   -0.30191E-04  8040   0.135E-01    0.307E-02
DAV:   6    -0.191849714229E+03   -0.83150E-06   -0.87737E-05  5880   0.383E-02
  56 F= -.19184971E+03 E0= -.19174158E+03  d E =-.169800E-02
       N       E                     dE             d eps       ncg     rms          rms(c)
DAV:   1    -0.191852939748E+03   -0.32264E-02   -0.19155E-01  8160   0.927E-01    0.125E-01
DAV:   2    -0.191854362673E+03   -0.14229E-02   -0.75324E-03 13520   0.515E-01    0.327E-01
DAV:   3    -0.191853038671E+03    0.13240E-02   -0.24955E-03 11960   0.380E-01    0.639E-02
DAV:   4    -0.191853147773E+03   -0.10910E-03   -0.43690E-04  8680   0.150E-01    0.122E-01
DAV:   5    -0.191852993354E+03    0.15442E-03   -0.34048E-04  7880   0.153E-01    0.440E-02
DAV:   6    -0.191852985267E+03    0.80870E-05   -0.90456E-05  5880   0.537E-02
  57 F= -.19185299E+03 E0= -.19174501E+03  d E =-.327104E-02
       N       E                     dE             d eps       ncg     rms          rms(c)
DAV:   1    -0.191858336575E+03   -0.53432E-02   -0.32257E-01  8160   0.122E+00    0.151E-01
DAV:   2    -0.191859527701E+03   -0.11911E-02   -0.11462E-02 13200   0.495E-01    0.276E-01
DAV:   3    -0.191858719658E+03    0.80804E-03   -0.25943E-03 11880   0.378E-01    0.107E-01
DAV:   4    -0.191858686597E+03    0.33061E-04   -0.69072E-04  9400   0.172E-01
  58 F= -.19185869E+03 E0= -.19175109E+03  d E =-.570133E-02
       N       E                     dE             d eps       ncg     rms          rms(c)
DAV:   1    -0.191856757885E+03    0.19618E-02   -0.41403E-02  8400   0.475E-01    0.120E-01
DAV:   2    -0.191859843823E+03   -0.30859E-02   -0.67420E-03 12240   0.636E-01    0.516E-01
DAV:   3    -0.191856666872E+03    0.31770E-02   -0.38050E-03 10840   0.521E-01    0.545E-02
DAV:   4    -0.191856698773E+03   -0.31900E-04   -0.19979E-04  7360   0.982E-02
  59 F= -.19185670E+03 E0= -.19174872E+03  d E =0.198782E-02
       N       E                     dE             d eps       ncg     rms          rms(c)
DAV:   1    -0.191859264072E+03   -0.25972E-02   -0.19263E-01  8160   0.975E-01    0.197E-01
DAV:   2    -0.191862199318E+03   -0.29352E-02   -0.13198E-02 11480   0.726E-01    0.542E-01
DAV:   3    -0.191859001845E+03    0.31975E-02   -0.58567E-03 11520   0.615E-01    0.131E-01
DAV:   4    -0.191859050362E+03   -0.48517E-04   -0.11237E-03  9560   0.244E-01    0.158E-01
DAV:   5    -0.191858786545E+03    0.26382E-03   -0.92450E-04 10240   0.235E-01    0.835E-02
DAV:   6    -0.191858704885E+03    0.81660E-04   -0.33593E-04  7440   0.101E-01
  60 F= -.19185870E+03 E0= -.19175093E+03  d E =-.200611E-02
       N       E                     dE             d eps       ncg     rms          rms(c)
DAV:   1    -0.191865092573E+03   -0.63060E-02   -0.28844E-01  8160   0.119E+00    0.234E-01
DAV:   2    -0.191868901101E+03   -0.38085E-02   -0.17697E-02 12200   0.857E-01    0.635E-01
DAV:   3    -0.191864469345E+03    0.44318E-02   -0.77383E-03 11680   0.714E-01    0.147E-01
DAV:   4    -0.191864767680E+03   -0.29834E-03   -0.18402E-03 10080   0.322E-01    0.228E-01
DAV:   5    -0.191864197878E+03    0.56980E-03   -0.15672E-03 10040   0.294E-01    0.967E-02
DAV:   6    -0.191864055476E+03    0.14240E-03   -0.54196E-04  8120   0.114E-01    0.283E-02
DAV:   7    -0.191864047971E+03    0.75049E-05   -0.93780E-05  6800   0.453E-02
  61 F= -.19186405E+03 E0= -.19175673E+03  d E =-.534309E-02
       N       E                     dE             d eps       ncg     rms          rms(c)
DAV:   1    -0.191872241459E+03   -0.81860E-02   -0.76036E-01  8160   0.185E+00    0.198E-01
DAV:   2    -0.191874425989E+03   -0.21845E-02   -0.21054E-02 12480   0.616E-01    0.340E-01
DAV:   3    -0.191873325738E+03    0.11003E-02   -0.45705E-03 11800   0.494E-01    0.170E-01
DAV:   4    -0.191873231806E+03    0.93932E-04   -0.13442E-03 10080   0.251E-01    0.160E-01
DAV:   5    -0.191873028409E+03    0.20340E-03   -0.82525E-04  9840   0.234E-01    0.973E-02
DAV:   6    -0.191872960638E+03    0.67771E-04   -0.32976E-04  7200   0.114E-01
  62 F= -.19187296E+03 E0= -.19176653E+03  d E =-.891267E-02
       N       E                     dE             d eps       ncg     rms          rms(c)
DAV:   1    -0.191854748862E+03    0.18280E-01   -0.24915E+00  8160   0.333E+00    0.343E-01
DAV:   2    -0.191862938655E+03   -0.81898E-02   -0.69160E-02 12160   0.114E+00    0.647E-01
DAV:   3    -0.191858579012E+03    0.43596E-02   -0.14352E-02 11640   0.881E-01    0.294E-01
DAV:   4    -0.191858318138E+03    0.26087E-03   -0.38101E-03 11800   0.433E-01    0.276E-01
DAV:   5    -0.191857640164E+03    0.67797E-03   -0.22873E-03 11120   0.394E-01    0.147E-01
DAV:   6    -0.191857513307E+03    0.12686E-03   -0.92011E-04 10440   0.175E-01    0.596E-02
DAV:   7    -0.191857419784E+03    0.93524E-04   -0.23771E-04  6520   0.643E-02
  63 F= -.19185742E+03 E0= -.19174963E+03  d E =0.155409E-01
       N       E                     dE             d eps       ncg     rms          rms(c)
DAV:   1    -0.191840389178E+03    0.17124E-01   -0.32082E+00  8160   0.377E+00    0.373E-01
DAV:   2    -0.191850386703E+03   -0.99975E-02   -0.81380E-02 12280   0.115E+00    0.708E-01
DAV:   3    -0.191845310893E+03    0.50758E-02   -0.17567E-02 11440   0.976E-01    0.344E-01
DAV:   4    -0.191844811328E+03    0.49957E-03   -0.42320E-03 12240   0.460E-01    0.281E-01
DAV:   5    -0.191844087640E+03    0.72369E-03   -0.24353E-03 10600   0.406E-01    0.152E-01
DAV:   6    -0.191844007292E+03    0.80348E-04   -0.10109E-03 10520   0.188E-01    0.727E-02
DAV:   7    -0.191843884623E+03    0.12267E-03   -0.31755E-04  8720   0.802E-02    0.272E-02
DAV:   8    -0.191843888931E+03   -0.43083E-05   -0.66574E-05  6920   0.567E-02
  64 F= -.19184389E+03 E0= -.19173505E+03  d E =0.135309E-01
       N       E                     dE             d eps       ncg     rms          rms(c)
DAV:   1    -0.191849296252E+03   -0.54116E-02   -0.43115E-01  8160   0.141E+00    0.149E-01
DAV:   2    -0.191850182358E+03   -0.88611E-03   -0.13784E-02 11320   0.340E-01    0.120E-01
DAV:   3    -0.191850488226E+03   -0.30587E-03   -0.16404E-03 12120   0.309E-01    0.203E-01
DAV:   4    -0.191849990603E+03    0.49762E-03   -0.80408E-04 10080   0.234E-01    0.642E-02
DAV:   5    -0.191850103905E+03   -0.11330E-03   -0.42029E-04  8680   0.160E-01    0.116E-01
DAV:   6    -0.191849957403E+03    0.14650E-03   -0.28915E-04  8440   0.130E-01    0.219E-02
DAV:   7    -0.191849955631E+03    0.17720E-05   -0.37780E-05  6160   0.262E-02
  65 F= -.19184996E+03 E0= -.19174144E+03  d E =-.606670E-02
       N       E                     dE             d eps       ncg     rms          rms(c)
DAV:   1    -0.191851745265E+03   -0.17879E-02   -0.36819E-02  8160   0.416E-01    0.559E-02
DAV:   2    -0.191851889589E+03   -0.14432E-03   -0.15173E-03 11760   0.159E-01    0.100E-01
DAV:   3    -0.191851796261E+03    0.93328E-04   -0.34175E-04  9240   0.144E-01
  66 F= -.19185180E+03 E0= -.19174344E+03  d E =-.184063E-02
       N       E                     dE             d eps       ncg     rms          rms(c)
DAV:   1    -0.191845245853E+03    0.66437E-02   -0.46104E-01  8160   0.147E+00    0.191E-01
DAV:   2    -0.191848080840E+03   -0.28350E-02   -0.18465E-02 12680   0.645E-01    0.475E-01
DAV:   3    -0.191845697724E+03    0.23831E-02   -0.56167E-03 12240   0.562E-01    0.134E-01
DAV:   4    -0.191845668439E+03    0.29285E-04   -0.83607E-04  9560   0.203E-01
  67 F= -.19184567E+03 E0= -.19173679E+03  d E =0.612782E-02
       N       E                     dE             d eps       ncg     rms          rms(c)
DAV:   1    -0.191842157654E+03    0.35401E-02   -0.16833E-01  8160   0.902E-01    0.147E-01
DAV:   2    -0.191843494896E+03   -0.13372E-02   -0.80024E-03 13280   0.428E-01    0.346E-01
DAV:   3    -0.191842178296E+03    0.13166E-02   -0.37469E-03 11240   0.426E-01    0.125E-01
DAV:   4    -0.191842149990E+03    0.28306E-04   -0.59360E-04  9440   0.167E-01
  68 F= -.19184215E+03 E0= -.19173313E+03  d E =0.351845E-02
       N       E                     dE             d eps       ncg     rms          rms(c)
DAV:   1    -0.191848015909E+03   -0.58376E-02   -0.55440E-01  8160   0.161E+00    0.158E-01
DAV:   2    -0.191849048370E+03   -0.10325E-02   -0.15952E-02 12320   0.363E-01    0.144E-01
DAV:   3    -0.191849431494E+03   -0.38312E-03   -0.22419E-03 12200   0.350E-01    0.239E-01
DAV:   4    -0.191848795756E+03    0.63574E-03   -0.10756E-03 10000   0.265E-01    0.691E-02
DAV:   5    -0.191848842891E+03   -0.47135E-04   -0.35619E-04  8320   0.136E-01
  69 F= -.19184884E+03 E0= -.19173997E+03  d E =-.669290E-02
       N       E                     dE             d eps       ncg     rms          rms(c)
DAV:   1    -0.191848132955E+03    0.66280E-03   -0.79948E-03  8200   0.251E-01    0.592E-02
DAV:   2    -0.191848570581E+03   -0.43763E-03   -0.16868E-03 11600   0.227E-01    0.180E-01
DAV:   3    -0.191848117945E+03    0.45264E-03   -0.93407E-04 10040   0.213E-01    0.537E-02
DAV:   4    -0.191848088329E+03    0.29617E-04   -0.68087E-05  5480   0.589E-02
  70 F= -.19184809E+03 E0= -.19173928E+03  d E =0.754562E-03
       N       E                     dE             d eps       ncg     rms          rms(c)
DAV:   1    -0.191852283668E+03   -0.41657E-02   -0.28883E-01  8160   0.115E+00    0.119E-01
DAV:   2    -0.191852762867E+03   -0.47920E-03   -0.83103E-03 11920   0.253E-01    0.740E-02
DAV:   3    -0.191852809770E+03   -0.46903E-04   -0.67698E-04 11200   0.154E-01
  71 F= -.19185281E+03 E0= -.19174469E+03  d E =-.472144E-02
       N       E                     dE             d eps       ncg     rms          rms(c)
DAV:   1    -0.191846372615E+03    0.63903E-02   -0.47804E-01  8160   0.149E+00    0.163E-01
DAV:   2    -0.191849370763E+03   -0.29981E-02   -0.16353E-02 13240   0.612E-01    0.440E-01
DAV:   3    -0.191847057438E+03    0.23133E-02   -0.43151E-03 11320   0.522E-01    0.105E-01
DAV:   4    -0.191847169472E+03   -0.11203E-03   -0.68808E-04  8760   0.199E-01    0.139E-01
DAV:   5    -0.191846947149E+03    0.22232E-03   -0.44504E-04  8720   0.170E-01    0.404E-02
DAV:   6    -0.191846947524E+03   -0.37449E-06   -0.11877E-04  6400   0.480E-02
  72 F= -.19184695E+03 E0= -.19173802E+03  d E =0.586225E-02
       N       E                     dE             d eps       ncg     rms          rms(c)
DAV:   1    -0.191843845999E+03    0.31012E-02   -0.26449E-01  8160   0.113E+00    0.164E-01
DAV:   2    -0.191843846093E+03   -0.94100E-07   -0.87241E-03 11200   0.275E-01    0.128E-01
DAV:   3    -0.191844206354E+03   -0.36026E-03   -0.20711E-03 11480   0.334E-01    0.245E-01
DAV:   4    -0.191843559068E+03    0.64729E-03   -0.12762E-03 10120   0.290E-01    0.745E-02
DAV:   5    -0.191843475263E+03    0.83805E-04   -0.25785E-04  5840   0.827E-02
  73 F= -.19184348E+03 E0= -.19173372E+03  d E =0.347226E-02
       N       E                     dE             d eps       ncg     rms          rms(c)
DAV:   1    -0.191849911536E+03   -0.63525E-02   -0.64162E-01  8160   0.172E+00    0.201E-01
DAV:   2    -0.191852673085E+03   -0.27615E-02   -0.20363E-02 12680   0.607E-01    0.427E-01
DAV:   3    -0.191850724214E+03    0.19489E-02   -0.54814E-03 11880   0.569E-01    0.170E-01
DAV:   4    -0.191850692677E+03    0.31537E-04   -0.11301E-03  9560   0.248E-01    0.162E-01
DAV:   5    -0.191850435427E+03    0.25725E-03   -0.85960E-04 10400   0.226E-01    0.804E-02
DAV:   6    -0.191850384758E+03    0.50670E-04   -0.36322E-04  8520   0.975E-02
  74 F= -.19185038E+03 E0= -.19174130E+03  d E =-.690949E-02
       N       E                     dE             d eps       ncg     rms          rms(c)
DAV:   1    -0.191853476195E+03   -0.30408E-02   -0.12817E-01  8160   0.772E-01    0.920E-02
DAV:   2    -0.191853797624E+03   -0.32143E-03   -0.44776E-03 11440   0.208E-01    0.109E-01
DAV:   3    -0.191853814079E+03   -0.16455E-04   -0.89577E-04 11200   0.215E-01
  75 F= -.19185381E+03 E0= -.19174524E+03  d E =-.342932E-02
       N       E                     dE             d eps       ncg     rms          rms(c)
DAV:   1    -0.191855430027E+03   -0.16324E-02   -0.43531E-02  8160   0.470E-01    0.795E-02
DAV:   2    -0.191855845219E+03   -0.41519E-03   -0.20317E-03 13600   0.231E-01    0.184E-01
DAV:   3    -0.191855453348E+03    0.39187E-03   -0.88272E-04  9560   0.232E-01    0.725E-02
DAV:   4    -0.191855428374E+03    0.24974E-04   -0.22228E-04  6960   0.955E-02
  76 F= -.19185543E+03 E0= -.19174695E+03  d E =-.161430E-02
       N       E                     dE             d eps       ncg     rms          rms(c)
DAV:   1    -0.191856875410E+03   -0.14221E-02   -0.39870E-02  8160   0.434E-01    0.765E-02
DAV:   2    -0.191857729781E+03   -0.85437E-03   -0.24630E-03 12760   0.335E-01    0.268E-01
DAV:   3    -0.191856886162E+03    0.84362E-03   -0.11616E-03 10120   0.284E-01    0.426E-02
DAV:   4    -0.191856901377E+03   -0.15215E-04   -0.12554E-04  5560   0.779E-02
  77 F= -.19185690E+03 E0= -.19174840E+03  d E =-.147300E-02
       N       E                     dE             d eps       ncg     rms          rms(c)
DAV:   1    -0.191860410259E+03   -0.35241E-02   -0.15494E-01  8160   0.849E-01    0.137E-01
DAV:   2    -0.191862221278E+03   -0.18110E-02   -0.76294E-03 12360   0.523E-01    0.408E-01
DAV:   3    -0.191860378950E+03    0.18423E-02   -0.33422E-03 11080   0.453E-01    0.936E-02
DAV:   4    -0.191860378936E+03    0.13812E-07   -0.45845E-04  8800   0.145E-01
  78 F= -.19186038E+03 E0= -.19175244E+03  d E =-.347756E-02
       N       E                     dE             d eps       ncg     rms          rms(c)
DAV:   1    -0.191864633687E+03   -0.42547E-02   -0.25280E-01  8160   0.110E+00    0.137E-01
DAV:   2    -0.191865165387E+03   -0.53170E-03   -0.79735E-03 12200   0.268E-01    0.152E-01
DAV:   3    -0.191865054734E+03    0.11065E-03   -0.19659E-03 12400   0.295E-01    0.154E-01
DAV:   4    -0.191864826081E+03    0.22865E-03   -0.60353E-04  8880   0.193E-01    0.710E-02
DAV:   5    -0.191864824182E+03    0.18991E-05   -0.37817E-04  9080   0.131E-01
  79 F= -.19186482E+03 E0= -.19175731E+03  d E =-.444525E-02
       N       E                     dE             d eps       ncg     rms          rms(c)
DAV:   1    -0.191868461238E+03   -0.36352E-02   -0.17579E-01  8160   0.908E-01    0.102E-01
DAV:   2    -0.191868801654E+03   -0.34042E-03   -0.50018E-03 11880   0.204E-01    0.118E-01
DAV:   3    -0.191868881837E+03   -0.80184E-04   -0.10427E-03 11040   0.243E-01    0.150E-01
DAV:   4    -0.191868642844E+03    0.23899E-03   -0.35202E-04  8200   0.147E-01    0.325E-02
DAV:   5    -0.191868658330E+03   -0.15486E-04   -0.95284E-05  6240   0.593E-02
  80 F= -.19186866E+03 E0= -.19176164E+03  d E =-.383415E-02
       N       E                     dE             d eps       ncg     rms          rms(c)
DAV:   1    -0.191866884359E+03    0.17585E-02   -0.35295E-02  8160   0.408E-01    0.584E-02
DAV:   2    -0.191867392823E+03   -0.50846E-03   -0.18289E-03 13080   0.246E-01    0.201E-01
DAV:   3    -0.191866914083E+03    0.47874E-03   -0.80305E-04  8960   0.220E-01    0.349E-02
DAV:   4    -0.191866927304E+03   -0.13222E-04   -0.74554E-05  5560   0.645E-02
  81 F= -.19186693E+03 E0= -.19175963E+03  d E =0.173103E-02
       N       E                     dE             d eps       ncg     rms          rms(c)
DAV:   1    -0.191870901482E+03   -0.39874E-02   -0.21259E-01  8160   0.992E-01    0.117E-01
DAV:   2    -0.191871439762E+03   -0.53828E-03   -0.71345E-03 12320   0.337E-01    0.169E-01
DAV:   3    -0.191871208213E+03    0.23155E-03   -0.13383E-03 10080   0.276E-01    0.104E-01
DAV:   4    -0.191871104869E+03    0.10334E-03   -0.49483E-04  8480   0.148E-01    0.774E-02
DAV:   5    -0.191871091802E+03    0.13067E-04   -0.29997E-04  7800   0.134E-01
  82 F= -.19187109E+03 E0= -.19176406E+03  d E =-.416450E-02
       N       E                     dE             d eps       ncg     rms          rms(c)
DAV:   1    -0.191870061244E+03    0.10436E-02   -0.20977E-02  8160   0.347E-01    0.615E-02
DAV:   2    -0.191870286507E+03   -0.22526E-03   -0.13394E-03 11480   0.193E-01    0.151E-01
DAV:   3    -0.191870040690E+03    0.24582E-03   -0.58111E-04  8440   0.191E-01    0.595E-02
DAV:   4    -0.191870004453E+03    0.36237E-04   -0.13502E-04  5440   0.699E-02
  83 F= -.19187000E+03 E0= -.19176315E+03  d E =0.108735E-02
       N       E                     dE             d eps       ncg     rms          rms(c)
DAV:   1    -0.191876134943E+03   -0.60943E-02   -0.53659E-01  8160   0.156E+00    0.155E-01
DAV:   2    -0.191877075623E+03   -0.94068E-03   -0.14278E-02 11680   0.356E-01    0.134E-01
DAV:   3    -0.191877431984E+03   -0.35636E-03   -0.18452E-03 12280   0.322E-01    0.233E-01
DAV:   4    -0.191876859736E+03    0.57225E-03   -0.10701E-03 10160   0.254E-01    0.655E-02
DAV:   5    -0.191876847854E+03    0.11882E-04   -0.31685E-04  7840   0.872E-02
  84 F= -.19187685E+03 E0= -.19177082E+03  d E =-.684340E-02
       N       E                     dE             d eps       ncg     rms          rms(c)
DAV:   1    -0.191878670456E+03   -0.18107E-02   -0.41121E-02  8160   0.453E-01    0.798E-02
DAV:   2    -0.191879473073E+03   -0.80262E-03   -0.26924E-03 13040   0.335E-01    0.253E-01
DAV:   3    -0.191878664090E+03    0.80898E-03   -0.13494E-03 10040   0.291E-01    0.459E-02
DAV:   4    -0.191878710382E+03   -0.46292E-04   -0.16997E-04  6520   0.995E-02
  85 F= -.19187871E+03 E0= -.19177318E+03  d E =-.186253E-02
       N       E                     dE             d eps       ncg     rms          rms(c)
DAV:   1    -0.191885052603E+03   -0.63885E-02   -0.51931E-01  8160   0.154E+00    0.163E-01
DAV:   2    -0.191886198896E+03   -0.11463E-02   -0.13831E-02 13160   0.451E-01    0.220E-01
DAV:   3    -0.191885857887E+03    0.34101E-03   -0.24793E-03 11960   0.372E-01    0.152E-01
DAV:   4    -0.191885656173E+03    0.20171E-03   -0.85710E-04  8920   0.201E-01    0.101E-01
DAV:   5    -0.191885661167E+03   -0.49943E-05   -0.56761E-04  9200   0.185E-01
  86 F= -.19188566E+03 E0= -.19178094E+03  d E =-.695078E-02
       N       E                     dE             d eps       ncg     rms          rms(c)
DAV:   1    -0.191880924572E+03    0.47316E-02   -0.21752E-01  8160   0.101E+00    0.118E-01
DAV:   2    -0.191881789121E+03   -0.86455E-03   -0.74715E-03 12560   0.368E-01    0.232E-01
DAV:   3    -0.191881262390E+03    0.52673E-03   -0.19879E-03 11840   0.331E-01    0.127E-01
DAV:   4    -0.191881115957E+03    0.14643E-03   -0.58092E-04  8160   0.158E-01    0.649E-02
DAV:   5    -0.191881102086E+03    0.13871E-04   -0.23972E-04  7640   0.114E-01
  87 F= -.19188110E+03 E0= -.19177613E+03  d E =0.455908E-02
       N       E                     dE             d eps       ncg     rms          rms(c)
DAV:   1    -0.191880376108E+03    0.73985E-03   -0.79994E-02  8160   0.627E-01    0.158E-01
DAV:   2    -0.191881650676E+03   -0.12746E-02   -0.69990E-03 11480   0.517E-01    0.403E-01
DAV:   3    -0.191879939094E+03    0.17116E-02   -0.37060E-03 11440   0.471E-01    0.111E-01
DAV:   4    -0.191879937189E+03    0.19055E-05   -0.72866E-04  9200   0.202E-01
  88 F= -.19187994E+03 E0= -.19177517E+03  d E =0.116490E-02
       N       E                     dE             d eps       ncg     rms          rms(c)
DAV:   1    -0.191888063853E+03   -0.81248E-02   -0.66036E-01  8160   0.174E+00    0.250E-01
DAV:   2    -0.191893125270E+03   -0.50614E-02   -0.28985E-02 12760   0.997E-01    0.643E-01
DAV:   3    -0.191888280492E+03    0.48448E-02   -0.10271E-02 12040   0.757E-01    0.148E-01
DAV:   4    -0.191888705796E+03   -0.42530E-03   -0.21763E-03 10880   0.345E-01    0.259E-01
DAV:   5    -0.191887979606E+03    0.72619E-03   -0.14834E-03 10280   0.310E-01    0.892E-02
DAV:   6    -0.191887908585E+03    0.71021E-04   -0.55212E-04  8680   0.112E-01
  89 F= -.19188791E+03 E0= -.19178380E+03  d E =-.797140E-02
       N       E                     dE             d eps       ncg     rms          rms(c)
DAV:   1    -0.191896619720E+03   -0.86401E-02   -0.90590E-01  8160   0.203E+00    0.229E-01
DAV:   2    -0.191899175176E+03   -0.25555E-02   -0.27156E-02 13320   0.697E-01    0.380E-01
DAV:   3    -0.191897776806E+03    0.13984E-02   -0.53285E-03 12200   0.555E-01    0.181E-01
DAV:   4    -0.191897697861E+03    0.78946E-04   -0.15943E-03 11000   0.284E-01    0.193E-01
DAV:   5    -0.191897420482E+03    0.27738E-03   -0.12405E-03 10840   0.279E-01    0.120E-01
DAV:   6    -0.191897309766E+03    0.11072E-03   -0.58297E-04  8720   0.139E-01    0.438E-02
DAV:   7    -0.191897261605E+03    0.48161E-04   -0.13861E-04  6680   0.458E-02
  90 F= -.19189726E+03 E0= -.19179408E+03  d E =-.935302E-02
       N       E                     dE             d eps       ncg     rms          rms(c)
DAV:   1    -0.191899496144E+03   -0.21864E-02   -0.51006E-02  8160   0.482E-01    0.548E-02
DAV:   2    -0.191899562145E+03   -0.66001E-04   -0.14695E-03 11720   0.111E-01    0.360E-02
DAV:   3    -0.191899553347E+03    0.87979E-05   -0.11930E-04  6120   0.604E-02
  91 F= -.19189955E+03 E0= -.19179677E+03  d E =-.229174E-02
       N       E                     dE             d eps       ncg     rms          rms(c)
DAV:   1    -0.191907218072E+03   -0.76559E-02   -0.65131E-01  8160   0.171E+00    0.177E-01
DAV:   2    -0.191908873003E+03   -0.16549E-02   -0.16174E-02 12160   0.435E-01    0.281E-01
DAV:   3    -0.191908241840E+03    0.63116E-03   -0.40404E-03 11520   0.450E-01    0.189E-01
DAV:   4    -0.191908010918E+03    0.23092E-03   -0.11509E-03 10280   0.231E-01    0.126E-01
DAV:   5    -0.191907912102E+03    0.98816E-04   -0.58515E-04  9120   0.204E-01
  92 F= -.19190791E+03 E0= -.19180633E+03  d E =-.835876E-02
       N       E                     dE             d eps       ncg     rms          rms(c)
DAV:   1    -0.191904863463E+03    0.31475E-02   -0.79580E-02  8160   0.614E-01    0.729E-02
DAV:   2    -0.191905307171E+03   -0.44371E-03   -0.28588E-03 12680   0.250E-01    0.172E-01
DAV:   3    -0.191904994841E+03    0.31233E-03   -0.92704E-04  9920   0.231E-01    0.812E-02
DAV:   4    -0.191904921337E+03    0.73504E-04   -0.19033E-04  5920   0.909E-02
  93 F= -.19190492E+03 E0= -.19180317E+03  d E =0.299077E-02
       N       E                     dE             d eps       ncg     rms          rms(c)
DAV:   1    -0.191893698746E+03    0.11296E-01   -0.15043E+00  8160   0.263E+00    0.368E-01
DAV:   2    -0.191899567755E+03   -0.58690E-02   -0.49781E-02 12680   0.106E+00    0.739E-01
DAV:   3    -0.191894299726E+03    0.52680E-02   -0.16224E-02 12040   0.974E-01    0.328E-01
DAV:   4    -0.191893504014E+03    0.79571E-03   -0.44293E-03 11240   0.450E-01    0.238E-01
DAV:   5    -0.191893158993E+03    0.34502E-03   -0.28604E-03 10960   0.421E-01    0.204E-01
DAV:   6    -0.191892750185E+03    0.40881E-03   -0.17794E-03 11560   0.279E-01    0.101E-01
DAV:   7    -0.191892771356E+03   -0.21171E-04   -0.59773E-04  8680   0.187E-01
  94 F= -.19189277E+03 E0= -.19179030E+03  d E =0.121500E-01
       N       E                     dE             d eps       ncg     rms          rms(c)
DAV:   1    -0.191914351969E+03   -0.21602E-01   -0.46427E+00  8160   0.457E+00    0.556E-01
DAV:   2    -0.191934983491E+03   -0.20632E-01   -0.14495E-01 13360   0.186E+00    0.131E+00
DAV:   3    -0.191918429488E+03    0.16554E-01   -0.52249E-02 12000   0.158E+00    0.438E-01
DAV:   4    -0.191917718627E+03    0.71086E-03   -0.90942E-03 12240   0.696E-01    0.422E-01
DAV:   5    -0.191916030964E+03    0.16877E-02   -0.62129E-03 12040   0.663E-01    0.263E-01
DAV:   6    -0.191915312722E+03    0.71824E-03   -0.31493E-03 11240   0.338E-01    0.942E-02
DAV:   7    -0.191915113787E+03    0.19893E-03   -0.61877E-04 10600   0.989E-02    0.284E-02
DAV:   8    -0.191915099460E+03    0.14327E-04   -0.55268E-05  7520   0.332E-02
  95 F= -.19191510E+03 E0= -.19181462E+03  d E =-.223281E-01
       N       E                     dE             d eps       ncg     rms          rms(c)
DAV:   1    -0.191921940439E+03   -0.68267E-02   -0.45980E-01  8160   0.143E+00    0.147E-01
DAV:   2    -0.191923388230E+03   -0.14478E-02   -0.12091E-02 12520   0.465E-01    0.284E-01
DAV:   3    -0.191922648824E+03    0.73941E-03   -0.30255E-03 12120   0.397E-01    0.143E-01
DAV:   4    -0.191922559001E+03    0.89822E-04   -0.66116E-04  8360   0.188E-01
  96 F= -.19192256E+03 E0= -.19182342E+03  d E =-.745954E-02
       N       E                     dE             d eps       ncg     rms          rms(c)
DAV:   1    -0.191898061074E+03    0.24588E-01   -0.38447E+00  8160   0.414E+00    0.433E-01
DAV:   2    -0.191915313449E+03   -0.17252E-01   -0.11119E-01 13160   0.155E+00    0.100E+00
DAV:   3    -0.191903117478E+03    0.12196E-01   -0.28541E-02 11800   0.128E+00    0.310E-01
DAV:   4    -0.191903720203E+03   -0.60273E-03   -0.59475E-03 11240   0.561E-01    0.406E-01
DAV:   5    -0.191902032481E+03    0.16877E-02   -0.37622E-03 11360   0.492E-01    0.148E-01
DAV:   6    -0.191901954292E+03    0.78189E-04   -0.12667E-03 10760   0.179E-01    0.843E-02
DAV:   7    -0.191901860181E+03    0.94112E-04   -0.59324E-04 10920   0.131E-01
  97 F= -.19190186E+03 E0= -.19179936E+03  d E =0.206988E-01
       N       E                     dE             d eps       ncg     rms          rms(c)
DAV:   1    -0.191888079493E+03    0.13875E-01   -0.18681E+00  8160   0.288E+00    0.300E-01
DAV:   2    -0.191893953336E+03   -0.58738E-02   -0.48583E-02 12960   0.833E-01    0.566E-01
DAV:   3    -0.191891027599E+03    0.29257E-02   -0.12051E-02 11680   0.811E-01    0.316E-01
DAV:   4    -0.191890193814E+03    0.83378E-03   -0.25559E-03 12400   0.340E-01    0.164E-01
DAV:   5    -0.191890054285E+03    0.13953E-03   -0.12705E-03 11120   0.285E-01    0.143E-01
DAV:   6    -0.191889950417E+03    0.10387E-03   -0.85540E-04 10440   0.213E-01    0.842E-02
DAV:   7    -0.191889875533E+03    0.74884E-04   -0.33961E-04  8960   0.121E-01
  98 F= -.19188988E+03 E0= -.19178541E+03  d E =0.119846E-01
       N       E                     dE             d eps       ncg     rms          rms(c)
DAV:   1    -0.191883813103E+03    0.61373E-02   -0.80360E-01  8160   0.188E+00    0.211E-01
DAV:   2    -0.191888220260E+03   -0.44072E-02   -0.25218E-02 12320   0.808E-01    0.543E-01
DAV:   3    -0.191884845740E+03    0.33745E-02   -0.76350E-03 11680   0.647E-01    0.159E-01
DAV:   4    -0.191884822992E+03    0.22747E-04   -0.10383E-03  9880   0.234E-01    0.143E-01
DAV:   5    -0.191884635151E+03    0.18784E-03   -0.64468E-04  9640   0.212E-01    0.858E-02
DAV:   6    -0.191884606914E+03    0.28237E-04   -0.31907E-04  8400   0.122E-01
  99 F= -.19188461E+03 E0= -.19177943E+03  d E =0.526862E-02
       N       E                     dE             d eps       ncg     rms          rms(c)
DAV:   1    -0.191889578205E+03   -0.49431E-02   -0.31721E-01  8160   0.121E+00    0.151E-01
DAV:   2    -0.191891553024E+03   -0.19748E-02   -0.12502E-02 11320   0.529E-01    0.382E-01
DAV:   3    -0.191890027120E+03    0.15259E-02   -0.36228E-03 11880   0.459E-01    0.118E-01
DAV:   4    -0.191889947846E+03    0.79274E-04   -0.57098E-04  9160   0.159E-01
 100 F= -.19188995E+03 E0= -.19178590E+03  d E =-.534093E-02
