<?xml version="1.0" encoding="ISO-8859-1"?>
<modeling>
 <generator>
  <i name="program" type="string">vasp </i>
  <i name="version" type="string">5.4.1  </i>
  <i name="subversion" type="string">05Feb16 (build Jul 05 2020 17:13:04) complex                          parallel </i>
  <i name="platform" type="string">IFC91_ompi </i>
  <i name="date" type="string">2024 04 21 </i>
  <i name="time" type="string">03:55:55 </i>
 </generator>
 <incar>
  <i type="int" name="ISTART">     0</i>
  <i type="string" name="PREC">normal</i>
  <i type="string" name="ALGO"> Normal</i>
  <i type="int" name="ISPIN">     1</i>
  <i type="int" name="ICHARG">     2</i>
  <i type="int" name="IBRION">     1</i>
  <i type="int" name="NSW">   100</i>
  <i type="int" name="ISIF">     3</i>
  <i type="int" name="ISYM">     0</i>
  <i name="SYMPREC">      0.00000001</i>
  <i name="POTIM">      0.50000000</i>
  <i type="logical" name="LREAL"> F  </i>
  <i type="logical" name="LPLANE"> F  </i>
  <i type="int" name="ISMEAR">     0</i>
  <i type="logical" name="LWAVE"> F  </i>
  <i type="logical" name="LCHARG"> F  </i>
  <v type="int" name="KPOINT_BSE">    -1     0     0     0</v>
 </incar>
 <kpoints>
  <generation param="Gamma">
   <v type="int" name="divisions">       8        8        1 </v>
   <v name="usershift">      0.00000000       0.00000000       0.00000000 </v>
   <v name="genvec1">      0.12500000       0.00000000       0.00000000 </v>
   <v name="genvec2">     -0.00000000       0.12500000       0.00000000 </v>
   <v name="genvec3">      0.00000000       0.00000000       1.00000000 </v>
   <v name="shift">      0.00000000       0.00000000       0.00000000 </v>
  </generation>
  <varray name="kpointlist" >
   <v>       0.00000000       0.00000000       0.00000000 </v>
   <v>       0.12500000       0.00000000       0.00000000 </v>
   <v>       0.25000000       0.00000000       0.00000000 </v>
   <v>       0.37500000       0.00000000       0.00000000 </v>
   <v>       0.50000000       0.00000000       0.00000000 </v>
   <v>       0.00000000       0.12500000       0.00000000 </v>
   <v>       0.12500000       0.12500000       0.00000000 </v>
   <v>       0.25000000       0.12500000       0.00000000 </v>
   <v>       0.37500000       0.12500000       0.00000000 </v>
   <v>       0.50000000       0.12500000       0.00000000 </v>
   <v>      -0.37500000       0.12500000       0.00000000 </v>
   <v>      -0.25000000       0.12500000       0.00000000 </v>
   <v>      -0.12500000       0.12500000       0.00000000 </v>
   <v>       0.00000000       0.25000000       0.00000000 </v>
   <v>       0.12500000       0.25000000       0.00000000 </v>
   <v>       0.25000000       0.25000000       0.00000000 </v>
   <v>       0.37500000       0.25000000       0.00000000 </v>
   <v>       0.50000000       0.25000000       0.00000000 </v>
   <v>      -0.37500000       0.25000000       0.00000000 </v>
   <v>      -0.25000000       0.25000000       0.00000000 </v>
   <v>      -0.12500000       0.25000000       0.00000000 </v>
   <v>      -0.00000000       0.37500000       0.00000000 </v>
   <v>       0.12500000       0.37500000       0.00000000 </v>
   <v>       0.25000000       0.37500000       0.00000000 </v>
   <v>       0.37500000       0.37500000       0.00000000 </v>
   <v>       0.50000000       0.37500000       0.00000000 </v>
   <v>      -0.37500000       0.37500000       0.00000000 </v>
   <v>      -0.25000000       0.37500000       0.00000000 </v>
   <v>      -0.12500000       0.37500000       0.00000000 </v>
   <v>       0.00000000       0.50000000       0.00000000 </v>
   <v>       0.12500000       0.50000000       0.00000000 </v>
   <v>       0.25000000       0.50000000       0.00000000 </v>
   <v>       0.37500000       0.50000000       0.00000000 </v>
   <v>       0.50000000       0.50000000       0.00000000 </v>
  </varray>
  <varray name="weights" >
   <v>       0.01562500 </v>
   <v>       0.03125000 </v>
   <v>       0.03125000 </v>
   <v>       0.03125000 </v>
   <v>       0.01562500 </v>
   <v>       0.03125000 </v>
   <v>       0.03125000 </v>
   <v>       0.03125000 </v>
   <v>       0.03125000 </v>
   <v>       0.03125000 </v>
   <v>       0.03125000 </v>
   <v>       0.03125000 </v>
   <v>       0.03125000 </v>
   <v>       0.03125000 </v>
   <v>       0.03125000 </v>
   <v>       0.03125000 </v>
   <v>       0.03125000 </v>
   <v>       0.03125000 </v>
   <v>       0.03125000 </v>
   <v>       0.03125000 </v>
   <v>       0.03125000 </v>
   <v>       0.03125000 </v>
   <v>       0.03125000 </v>
   <v>       0.03125000 </v>
   <v>       0.03125000 </v>
   <v>       0.03125000 </v>
   <v>       0.03125000 </v>
   <v>       0.03125000 </v>
   <v>       0.03125000 </v>
   <v>       0.01562500 </v>
   <v>       0.03125000 </v>
   <v>       0.03125000 </v>
   <v>       0.03125000 </v>
   <v>       0.01562500 </v>
  </varray>
 </kpoints>
 <parameters>
  <separator name="general" >
   <i type="string" name="SYSTEM">unknown system</i>
   <i type="logical" name="LCOMPAT"> F  </i>
  </separator>
  <separator name="electronic" >
   <i type="string" name="PREC">normal</i>
   <i name="ENMAX">    280.00000000</i>
   <i name="ENAUG">    373.43800000</i>
   <i name="EDIFF">      0.00010000</i>
   <i type="int" name="IALGO">    38</i>
   <i type="int" name="IWAVPR">    11</i>
   <i type="int" name="NBANDS">   120</i>
   <i name="NELECT">    159.00000000</i>
   <i type="int" name="TURBO">     0</i>
   <i type="int" name="IRESTART">     0</i>
   <i type="int" name="NREBOOT">     0</i>
   <i type="int" name="NMIN">     0</i>
   <i name="EREF">      0.00000000</i>
   <separator name="electronic smearing" >
    <i type="int" name="ISMEAR">     0</i>
    <i name="SIGMA">      0.20000000</i>
    <i name="KSPACING">      0.50000000</i>
    <i type="logical" name="KGAMMA"> T  </i>
   </separator>
   <separator name="electronic projectors" >
    <i type="logical" name="LREAL"> F  </i>
    <v name="ROPT">      0.00000000      0.00000000      0.00000000      0.00000000</v>
    <i type="int" name="LMAXPAW">  -100</i>
    <i type="int" name="LMAXMIX">     2</i>
    <i type="logical" name="NLSPLINE"> F  </i>
   </separator>
   <separator name="electronic startup" >
    <i type="int" name="ISTART">     0</i>
    <i type="int" name="ICHARG">     2</i>
    <i type="int" name="INIWAV">     1</i>
   </separator>
   <separator name="electronic spin" >
    <i type="int" name="ISPIN">     1</i>
    <i type="logical" name="LNONCOLLINEAR"> F  </i>
    <v name="MAGMOM">      1.00000000      1.00000000      1.00000000      1.00000000      1.00000000      1.00000000      1.00000000      1.00000000      1.00000000      1.00000000      1.00000000      1.00000000      1.00000000      1.00000000      1.00000000      1.00000000      1.00000000      1.00000000      1.00000000      1.00000000
      1.00000000      1.00000000      1.00000000      1.00000000      1.00000000      1.00000000      1.00000000</v>
    <i name="NUPDOWN">     -1.00000000</i>
    <i type="logical" name="LSORBIT"> F  </i>
    <v name="SAXIS">      0.00000000      0.00000000      1.00000000</v>
    <i type="logical" name="LSPIRAL"> F  </i>
    <v name="QSPIRAL">      0.00000000      0.00000000      0.00000000</v>
    <i type="logical" name="LZEROZ"> F  </i>
   </separator>
   <separator name="electronic exchange-correlation" >
    <i type="logical" name="LASPH"> F  </i>
    <i type="logical" name="LMETAGGA"> F  </i>
   </separator>
   <separator name="electronic convergence" >
    <i type="int" name="NELM">    60</i>
    <i type="int" name="NELMDL">    -5</i>
    <i type="int" name="NELMIN">     2</i>
    <i name="ENINI">    280.00000000</i>
    <separator name="electronic convergence detail" >
     <i type="logical" name="LDIAG"> T  </i>
     <i type="logical" name="LSUBROT"> F  </i>
     <i name="WEIMIN">      0.00100000</i>
     <i name="EBREAK">      0.00000021</i>
     <i name="DEPER">      0.30000000</i>
     <i type="int" name="NRMM">     4</i>
     <i name="TIME">      0.40000000</i>
    </separator>
   </separator>
   <separator name="electronic mixer" >
    <i name="AMIX">      0.40000000</i>
    <i name="BMIX">      1.00000000</i>
    <i name="AMIN">      0.10000000</i>
    <i name="AMIX_MAG">      1.60000000</i>
    <i name="BMIX_MAG">      1.00000000</i>
    <separator name="electronic mixer details" >
     <i type="int" name="IMIX">     4</i>
     <i type="logical" name="MIXFIRST"> F  </i>
     <i type="int" name="MAXMIX">   -45</i>
     <i name="WC">    100.00000000</i>
     <i type="int" name="INIMIX">     1</i>
     <i type="int" name="MIXPRE">     1</i>
     <i type="int" name="MREMOVE">     5</i>
    </separator>
   </separator>
   <separator name="electronic dipolcorrection" >
    <i type="logical" name="LDIPOL"> F  </i>
    <i type="logical" name="LMONO"> F  </i>
    <i type="int" name="IDIPOL">     0</i>
    <i name="EPSILON">      1.00000000</i>
    <v name="DIPOL">   -100.00000000   -100.00000000   -100.00000000</v>
    <i name="EFIELD">      0.00000000</i>
   </separator>
  </separator>
  <separator name="grids" >
   <i type="int" name="NGX">    42</i>
   <i type="int" name="NGY">    42</i>
   <i type="int" name="NGZ">   126</i>
   <i type="int" name="NGXF">    84</i>
   <i type="int" name="NGYF">    84</i>
   <i type="int" name="NGZF">   252</i>
   <i type="logical" name="ADDGRID"> F  </i>
  </separator>
  <separator name="ionic" >
   <i type="int" name="NSW">   100</i>
   <i type="int" name="IBRION">     1</i>
   <i type="int" name="ISIF">     3</i>
   <i name="PSTRESS">      0.00000000</i>
   <i name="EDIFFG">      0.00100000</i>
   <i type="int" name="NFREE">     0</i>
   <i name="POTIM">      0.50000000</i>
   <i name="SMASS">     -3.00000000</i>
   <i name="SCALEE">      1.00000000</i>
  </separator>
  <separator name="ionic md" >
   <i name="TEBEG">      0.00010000</i>
   <i name="TEEND">      0.00010000</i>
   <i type="int" name="NBLOCK">     1</i>
   <i type="int" name="KBLOCK">   100</i>
   <i type="int" name="NPACO">   256</i>
   <i name="APACO">     16.00000000</i>
  </separator>
  <separator name="symmetry" >
   <i type="int" name="ISYM">     0</i>
   <i name="SYMPREC">      0.00000001</i>
  </separator>
  <separator name="dos" >
   <i type="logical" name="LORBIT"> F  </i>
   <v name="RWIGS">     -1.00000000     -1.00000000     -1.00000000     -1.00000000</v>
   <i type="int" name="NEDOS">   301</i>
   <i name="EMIN">     10.00000000</i>
   <i name="EMAX">    -10.00000000</i>
   <i name="EFERMI">      0.00000000</i>
  </separator>
  <separator name="writing" >
   <i type="int" name="NWRITE">     2</i>
   <i type="logical" name="LWAVE"> F  </i>
   <i type="logical" name="LCHARG"> F  </i>
   <i type="logical" name="LPARD"> F  </i>
   <i type="logical" name="LVTOT"> F  </i>
   <i type="logical" name="LVHAR"> F  </i>
   <i type="logical" name="LELF"> F  </i>
   <i type="logical" name="LOPTICS"> F  </i>
   <v name="STM">      0.00000000      0.00000000      0.00000000      0.00000000      0.00000000      0.00000000      0.00000000</v>
  </separator>
  <separator name="performance" >
   <i type="int" name="NPAR">    40</i>
   <i type="int" name="NSIM">     4</i>
   <i type="int" name="NBLK">    -1</i>
   <i type="logical" name="LPLANE"> F  </i>
   <i type="logical" name="LSCALAPACK"> T  </i>
   <i type="logical" name="LSCAAWARE"> F  </i>
   <i type="logical" name="LSCALU"> F  </i>
   <i type="logical" name="LASYNC"> F  </i>
   <i type="logical" name="LORBITALREAL"> F  </i>
  </separator>
  <separator name="miscellaneous" >
   <i type="int" name="IDIOT">     3</i>
   <i type="logical" name="LMUSIC"> F  </i>
   <v name="POMASS">     50.94100000     95.94000000    183.85000000     32.06600000</v>
   <v name="DARWINR">      0.00000000      0.00000000      0.00000000      0.00000000</v>
   <v name="DARWINV">      1.00000000      1.00000000      1.00000000      1.00000000</v>
   <i type="logical" name="LCORR"> T  </i>
  </separator>
  <i type="logical" name="GGA_COMPAT"> T  </i>
  <i type="logical" name="LBERRY"> F  </i>
  <i type="int" name="ICORELEVEL">     0</i>
  <i type="logical" name="LDAU"> F  </i>
  <i type="int" name="I_CONSTRAINED_M">     0</i>
  <separator name="electronic exchange-correlation" >
   <i type="string" name="GGA">--</i>
   <i type="int" name="VOSKOWN">     0</i>
   <i type="logical" name="LHFCALC"> F  </i>
   <i type="string" name="PRECFOCK"></i>
   <i type="logical" name="LSYMGRAD"> F  </i>
   <i type="logical" name="LHFONE"> F  </i>
   <i type="logical" name="LRHFCALC"> F  </i>
   <i type="logical" name="LTHOMAS"> F  </i>
   <i type="logical" name="LMODELHF"> F  </i>
   <i name="ENCUT4O">     -1.00000000</i>
   <i type="int" name="EXXOEP">     0</i>
   <i type="int" name="FOURORBIT">     0</i>
   <i name="AEXX">      0.00000000</i>
   <i name="HFALPHA">      0.00000000</i>
   <i name="MCALPHA">      0.00000000</i>
   <i name="ALDAX">      1.00000000</i>
   <i name="AGGAX">      1.00000000</i>
   <i name="ALDAC">      1.00000000</i>
   <i name="AGGAC">      1.00000000</i>
   <i type="int" name="NKREDX">     1</i>
   <i type="int" name="NKREDY">     1</i>
   <i type="int" name="NKREDZ">     1</i>
   <i type="logical" name="SHIFTRED"> F  </i>
   <i type="logical" name="ODDONLY"> F  </i>
   <i type="logical" name="EVENONLY"> F  </i>
   <i type="int" name="LMAXFOCK">     0</i>
   <i type="int" name="NMAXFOCKAE">     0</i>
   <i type="logical" name="LFOCKAEDFT"> F  </i>
   <i name="HFSCREEN">      0.00000000</i>
   <i name="HFSCREENC">      0.00000000</i>
   <i type="int" name="NBANDSGWLOW">     0</i>
  </separator>
  <separator name="vdW DFT" >
   <i type="logical" name="LUSE_VDW"> F  </i>
   <i name="Zab_VDW">     -0.84910000</i>
   <i name="PARAM1">      0.12340000</i>
   <i name="PARAM2">      1.00000000</i>
   <i name="PARAM3">      0.00000000</i>
  </separator>
  <separator name="model GW" >
   <i type="int" name="MODEL_GW">     0</i>
   <i name="MODEL_EPS0">     58.26239943</i>
   <i name="MODEL_ALPHA">      1.00000000</i>
  </separator>
  <separator name="linear response parameters" >
   <i type="logical" name="LEPSILON"> F  </i>
   <i type="logical" name="LRPA"> F  </i>
   <i type="logical" name="LNABLA"> F  </i>
   <i type="logical" name="LVEL"> F  </i>
   <i type="int" name="KINTER">     0</i>
   <i name="CSHIFT">      0.10000000</i>
   <i name="OMEGAMAX">     -1.00000000</i>
   <i name="DEG_THRESHOLD">      0.00200000</i>
  </separator>
  <separator name="orbital magnetization" >
   <i type="logical" name="NUCIND"> F  </i>
   <v name="MAGPOS">      0.00000000      0.00000000      0.00000000</v>
   <i type="logical" name="LNICSALL"> T  </i>
   <i type="logical" name="ORBITALMAG"> F  </i>
   <i type="logical" name="LMAGBLOCH"> F  </i>
   <i type="logical" name="LCHIMAG"> F  </i>
   <i type="logical" name="LGAUGE"> T  </i>
   <i type="int" name="MAGATOM">     0</i>
   <v name="MAGDIPOL">      0.00000000      0.00000000      0.00000000</v>
   <v name="AVECCONST">      0.00000000      0.00000000      0.00000000</v>
  </separator>
  <separator name="response functions" >
   <i type="logical" name="LADDER"> F  </i>
   <i type="logical" name="LFXC"> F  </i>
   <i type="logical" name="LHARTREE"> T  </i>
   <i type="int" name="IBSE">     0</i>
   <v type="int" name="KPOINT">    -1     0     0     0</v>
   <i type="logical" name="LTCTE"> F  </i>
   <i type="logical" name="LTETE"> F  </i>
   <i type="logical" name="LTRIPLET"> F  </i>
   <i type="logical" name="LFXCEPS"> F  </i>
   <i type="logical" name="LFXHEG"> F  </i>
   <i type="int" name="NATURALO">     0</i>
   <i type="logical" name="L2ORDER"> F  </i>
   <i type="logical" name="LUSEW"> F  </i>
   <i name="ENCUTGW">     -2.00000000</i>
   <i name="ENCUTGWSOFT">     -2.00000000</i>
   <i name="ENCUTLF">     -1.00000000</i>
   <i type="int" name="LMAXMP2">    -1</i>
   <i name="SCISSOR">      0.00000000</i>
   <i type="int" name="NOMEGA">     0</i>
   <i type="int" name="NOMEGAR">     0</i>
   <i type="int" name="NBANDSGW">    -1</i>
   <i type="int" name="NBANDSO">    -1</i>
   <i type="int" name="NBANDSV">    -1</i>
   <i type="int" name="NELM">     1</i>
   <i type="int" name="NELMHF">     1</i>
   <i type="int" name="DIM">     3</i>
   <i type="int" name="ANTIRES">     0</i>
   <i name="OMEGAMAX">    -30.00000000</i>
   <i name="OMEGAMIN">    -30.00000000</i>
   <i name="OMEGATL">   -200.00000000</i>
   <i type="int" name="OMEGAGRID">     0</i>
   <i name="CSHIFT">     -0.10000000</i>
   <i type="logical" name="SELFENERGY"> F  </i>
   <i type="logical" name="LSPECTRAL"> F  </i>
   <i type="logical" name="LSPECTRALGW"> F  </i>
   <i type="logical" name="LSINGLES"> F  </i>
   <i type="logical" name="LFERMIGW"> F  </i>
   <i type="logical" name="ODDONLYGW"> F  </i>
   <i type="logical" name="EVENONLYGW"> F  </i>
   <i type="int" name="NKREDLFX">     1</i>
   <i type="int" name="NKREDLFY">     1</i>
   <i type="int" name="NKREDLFZ">     1</i>
   <i type="int" name="MAXMEM">  1800</i>
   <i type="int" name="TELESCOPE">     0</i>
   <i type="int" name="TAUPAR">     1</i>
   <i type="int" name="OMEGAPAR">    -1</i>
   <i name="LAMBDA">      1.00000000</i>
  </separator>
  <separator name="External order field" >
   <i name="OFIELD_KAPPA">      0.00000000</i>
   <v name="OFIELD_K">      0.00000000      0.00000000      0.00000000</v>
   <i name="OFIELD_Q6_NEAR">      0.00000000</i>
   <i name="OFIELD_Q6_FAR">      0.00000000</i>
   <i name="OFIELD_A">      0.00000000</i>
  </separator>
 </parameters>
 <atominfo>
  <atoms>      27 </atoms>
  <types>       4 </types>
  <array name="atoms" >
   <dimension dim="1">ion</dimension>
   <field type="string">element</field>
   <field type="int">atomtype</field>
   <set>
    <rc><c>V </c><c>   1</c></rc>
    <rc><c>V </c><c>   1</c></rc>
    <rc><c>V </c><c>   1</c></rc>
    <rc><c>Mo</c><c>   2</c></rc>
    <rc><c>Mo</c><c>   2</c></rc>
    <rc><c>Mo</c><c>   2</c></rc>
    <rc><c>W </c><c>   3</c></rc>
    <rc><c>W </c><c>   3</c></rc>
    <rc><c>W </c><c>   3</c></rc>
    <rc><c>S </c><c>   4</c></rc>
    <rc><c>S </c><c>   4</c></rc>
    <rc><c>S </c><c>   4</c></rc>
    <rc><c>S </c><c>   4</c></rc>
    <rc><c>S </c><c>   4</c></rc>
    <rc><c>S </c><c>   4</c></rc>
    <rc><c>S </c><c>   4</c></rc>
    <rc><c>S </c><c>   4</c></rc>
    <rc><c>S </c><c>   4</c></rc>
    <rc><c>S </c><c>   4</c></rc>
    <rc><c>S </c><c>   4</c></rc>
    <rc><c>S </c><c>   4</c></rc>
    <rc><c>S </c><c>   4</c></rc>
    <rc><c>S </c><c>   4</c></rc>
    <rc><c>S </c><c>   4</c></rc>
    <rc><c>S </c><c>   4</c></rc>
    <rc><c>S </c><c>   4</c></rc>
    <rc><c>S </c><c>   4</c></rc>
   </set>
  </array>
  <array name="atomtypes" >
   <dimension dim="1">type</dimension>
   <field type="int">atomspertype</field>
   <field type="string">element</field>
   <field>mass</field>
   <field>valence</field>
   <field type="string">pseudopotential</field>
   <set>
    <rc><c>   3</c><c>V </c><c>     50.94100000</c><c>      5.00000000</c><c> PAW_PBE V 08Apr2002                    </c></rc>
    <rc><c>   3</c><c>Mo</c><c>     95.94000000</c><c>      6.00000000</c><c> PAW_PBE Mo 08Apr2002                   </c></rc>
    <rc><c>   3</c><c>W </c><c>    183.85000000</c><c>      6.00000000</c><c> PAW_PBE W 08Apr2002                    </c></rc>
    <rc><c>  18</c><c>S </c><c>     32.06600000</c><c>      6.00000000</c><c>  PAW_PBE S 17Jan2003                   </c></rc>
   </set>
  </array>
 </atominfo>
 <structure name="initialpos" >
  <crystal>
   <varray name="basis" >
    <v>       8.66999996       5.03999989       0.00000000 </v>
    <v>      -8.66999982       5.04000013       0.00000000 </v>
    <v>       0.00000000       0.00000000      30.00000000 </v>
   </varray>
   <i name="volume">   2621.80797419 </i>
   <varray name="rec_basis" >
    <v>       0.05767013       0.09920635       0.00000000 </v>
    <v>      -0.05767013       0.09920635       0.00000000 </v>
    <v>       0.00000000       0.00000000       0.03333333 </v>
   </varray>
  </crystal>
  <varray name="positions" >
   <v>       1.00000000       0.33333334       0.00000000 </v>
   <v>       0.00000000       0.66666669       0.00000000 </v>
   <v>       0.33333334       0.66666669       0.00000000 </v>
   <v>       0.66666669       0.33333334       0.00000000 </v>
   <v>       0.66666669       0.00000000       0.00000000 </v>
   <v>       0.33333334       0.00000000       0.00000000 </v>
   <v>       0.00000000       0.00000000       0.00000000 </v>
   <v>       0.33333334       0.33333334       0.00000000 </v>
   <v>       0.66666669       0.66666669       0.00000000 </v>
   <v>       0.11068511       0.22244981       0.95539999 </v>
   <v>       0.22244981       0.11068511       0.04460000 </v>
   <v>       0.11068511       0.55578315       0.95539999 </v>
   <v>       0.22244981       0.44401845       0.04460000 </v>
   <v>       0.11068511       0.88911647       0.95539999 </v>
   <v>       0.22244981       0.77735180       0.04460000 </v>
   <v>       0.44401845       0.22244981       0.95539999 </v>
   <v>       0.55578315       0.11068511       0.04460000 </v>
   <v>       0.44401845       0.55578315       0.95539999 </v>
   <v>       0.55578315       0.44401845       0.04460000 </v>
   <v>       0.44401845       0.88911647       0.95539999 </v>
   <v>       0.55578315       0.77735180       0.04460000 </v>
   <v>       0.77735180       0.22244981       0.95539999 </v>
   <v>       0.88911647       0.11068511       0.04460000 </v>
   <v>       0.77735180       0.55578315       0.95539999 </v>
   <v>       0.88911647       0.44401845       0.04460000 </v>
   <v>       0.77735180       0.88911647       0.95539999 </v>
   <v>       0.88911647       0.77735180       0.04460000 </v>
  </varray>
 </structure>
 <calculation>
  <scstep>
   <time name="dav">   21.85   21.90</time>
   <time name="total">   21.90   21.95</time>
   <energy>
    <i name="alphaZ">     81.65567618 </i>
    <i name="ewald">  41891.17178070 </i>
    <i name="hartreedc"> -47723.81787229 </i>
    <i name="XCdc">   -242.92476646 </i>
    <i name="pawpsdc">   3467.42045192 </i>
    <i name="pawaedc">  -2871.19716117 </i>
    <i name="eentropy">     -0.52611659 </i>
    <i name="bandstr">   -243.46171937 </i>
    <i name="atom">   6761.44252427 </i>
    <i name="e_fr_energy">   1119.76279718 </i>
    <i name="e_wo_entrp">   1120.28891377 </i>
    <i name="e_0_energy">   1120.02585548 </i>
   </energy>
  </scstep>
  <scstep>
   <time name="dav">   28.31   28.38</time>
   <time name="total">   28.31   28.39</time>
   <energy>
    <i name="e_fr_energy">     -4.66779289 </i>
    <i name="e_wo_entrp">     -4.47941929 </i>
    <i name="e_0_energy">     -4.57360609 </i>
   </energy>
  </scstep>
  <scstep>
   <time name="dav">   27.66   27.72</time>
   <time name="total">   27.66   27.73</time>
   <energy>
    <i name="e_fr_energy">   -199.86768166 </i>
    <i name="e_wo_entrp">   -199.59879085 </i>
    <i name="e_0_energy">   -199.73323626 </i>
   </energy>
  </scstep>
  <scstep>
   <time name="dav">   30.04   30.11</time>
   <time name="total">   30.04   30.12</time>
   <energy>
    <i name="e_fr_energy">   -208.94741795 </i>
    <i name="e_wo_entrp">   -208.64155304 </i>
    <i name="e_0_energy">   -208.79448549 </i>
   </energy>
  </scstep>
  <scstep>
   <time name="dav">   28.81   28.88</time>
   <time name="total">   29.28   29.36</time>
   <energy>
    <i name="e_fr_energy">   -209.27149729 </i>
    <i name="e_wo_entrp">   -208.96941162 </i>
    <i name="e_0_energy">   -209.12045446 </i>
   </energy>
  </scstep>
  <scstep>
   <time name="dav">   30.28   30.35</time>
   <time name="total">   30.78   30.86</time>
   <energy>
    <i name="e_fr_energy">   -237.50248301 </i>
    <i name="e_wo_entrp">   -237.25062174 </i>
    <i name="e_0_energy">   -237.37655238 </i>
   </energy>
  </scstep>
  <scstep>
   <time name="dav">   32.76   32.84</time>
   <time name="total">   33.26   33.35</time>
   <energy>
    <i name="e_fr_energy">   -196.68071522 </i>
    <i name="e_wo_entrp">   -196.33165375 </i>
    <i name="e_0_energy">   -196.50618448 </i>
   </energy>
  </scstep>
  <scstep>
   <time name="dav">   29.69   29.76</time>
   <time name="total">   30.21   30.29</time>
   <energy>
    <i name="e_fr_energy">   -189.72974343 </i>
    <i name="e_wo_entrp">   -189.42050162 </i>
    <i name="e_0_energy">   -189.57512253 </i>
   </energy>
  </scstep>
  <scstep>
   <time name="dav">   31.53   31.61</time>
   <time name="total">   32.06   32.14</time>
   <energy>
    <i name="e_fr_energy">   -188.20502299 </i>
    <i name="e_wo_entrp">   -187.86826960 </i>
    <i name="e_0_energy">   -188.03664630 </i>
   </energy>
  </scstep>
  <scstep>
   <time name="dav">   32.77   32.85</time>
   <time name="total">   33.31   33.40</time>
   <energy>
    <i name="e_fr_energy">   -186.93387218 </i>
    <i name="e_wo_entrp">   -186.58246565 </i>
    <i name="e_0_energy">   -186.75816891 </i>
   </energy>
  </scstep>
  <scstep>
   <time name="dav">   32.40   32.48</time>
   <time name="total">   32.94   33.03</time>
   <energy>
    <i name="e_fr_energy">   -187.00591486 </i>
    <i name="e_wo_entrp">   -186.66532709 </i>
    <i name="e_0_energy">   -186.83562098 </i>
   </energy>
  </scstep>
  <scstep>
   <time name="dav">   31.60   31.68</time>
   <time name="total">   32.14   32.23</time>
   <energy>
    <i name="e_fr_energy">   -186.91041340 </i>
    <i name="e_wo_entrp">   -186.57580056 </i>
    <i name="e_0_energy">   -186.74310698 </i>
   </energy>
  </scstep>
  <scstep>
   <time name="dav">   32.09   32.16</time>
   <time name="total">   32.62   32.71</time>
   <energy>
    <i name="e_fr_energy">   -186.86927035 </i>
    <i name="e_wo_entrp">   -186.53262207 </i>
    <i name="e_0_energy">   -186.70094621 </i>
   </energy>
  </scstep>
  <scstep>
   <time name="dav">   31.72   31.80</time>
   <time name="total">   32.26   32.35</time>
   <energy>
    <i name="e_fr_energy">   -186.82751446 </i>
    <i name="e_wo_entrp">   -186.48343381 </i>
    <i name="e_0_energy">   -186.65547413 </i>
   </energy>
  </scstep>
  <scstep>
   <time name="dav">   28.60   28.67</time>
   <time name="total">   29.14   29.22</time>
   <energy>
    <i name="e_fr_energy">   -186.82222281 </i>
    <i name="e_wo_entrp">   -186.47847644 </i>
    <i name="e_0_energy">   -186.65034963 </i>
   </energy>
  </scstep>
  <scstep>
   <time name="dav">   31.33   31.40</time>
   <time name="total">   31.87   31.95</time>
   <energy>
    <i name="e_fr_energy">   -186.82034281 </i>
    <i name="e_wo_entrp">   -186.47813277 </i>
    <i name="e_0_energy">   -186.64923779 </i>
   </energy>
  </scstep>
  <scstep>
   <time name="dav">   31.44   31.52</time>
   <time name="total">   31.98   32.07</time>
   <energy>
    <i name="e_fr_energy">   -186.81996208 </i>
    <i name="e_wo_entrp">   -186.47718080 </i>
    <i name="e_0_energy">   -186.64857144 </i>
   </energy>
  </scstep>
  <scstep>
   <time name="dav">   26.89   26.96</time>
   <time name="total">   26.93   27.00</time>
   <energy>
    <i name="alphaZ">     81.65567618 </i>
    <i name="ewald">  41891.17178070 </i>
    <i name="hartreedc"> -47817.67089744 </i>
    <i name="XCdc">   -231.70622196 </i>
    <i name="pawpsdc">   4194.48280586 </i>
    <i name="pawaedc">  -3612.50142040 </i>
    <i name="eentropy">     -0.34274238 </i>
    <i name="bandstr">  -1453.35146867 </i>
    <i name="atom">   6761.44252427 </i>
    <i name="e_fr_energy">   -186.81996384 </i>
    <i name="e_wo_entrp">   -186.47722146 </i>
    <i name="e_0_energy">   -186.64859265 </i>
   </energy>
  </scstep>
  <structure>
   <crystal>
    <varray name="basis" >
     <v>       8.66999996       5.03999989       0.00000000 </v>
     <v>      -8.66999982       5.04000013       0.00000000 </v>
     <v>       0.00000000       0.00000000      30.00000000 </v>
    </varray>
    <i name="volume">   2621.80797419 </i>
    <varray name="rec_basis" >
     <v>       0.05767013       0.09920635       0.00000000 </v>
     <v>      -0.05767013       0.09920635       0.00000000 </v>
     <v>       0.00000000       0.00000000       0.03333333 </v>
    </varray>
   </crystal>
   <varray name="positions" >
    <v>       1.00000000       0.33333334       0.00000000 </v>
    <v>       0.00000000       0.66666669       0.00000000 </v>
    <v>       0.33333334       0.66666669       0.00000000 </v>
    <v>       0.66666669       0.33333334       0.00000000 </v>
    <v>       0.66666669       0.00000000       0.00000000 </v>
    <v>       0.33333334       0.00000000       0.00000000 </v>
    <v>       0.00000000       0.00000000       0.00000000 </v>
    <v>       0.33333334       0.33333334       0.00000000 </v>
    <v>       0.66666669       0.66666669       0.00000000 </v>
    <v>       0.11068511       0.22244981       0.95539999 </v>
    <v>       0.22244981       0.11068511       0.04460000 </v>
    <v>       0.11068511       0.55578315       0.95539999 </v>
    <v>       0.22244981       0.44401845       0.04460000 </v>
    <v>       0.11068511       0.88911647       0.95539999 </v>
    <v>       0.22244981       0.77735180       0.04460000 </v>
    <v>       0.44401845       0.22244981       0.95539999 </v>
    <v>       0.55578315       0.11068511       0.04460000 </v>
    <v>       0.44401845       0.55578315       0.95539999 </v>
    <v>       0.55578315       0.44401845       0.04460000 </v>
    <v>       0.44401845       0.88911647       0.95539999 </v>
    <v>       0.55578315       0.77735180       0.04460000 </v>
    <v>       0.77735180       0.22244981       0.95539999 </v>
    <v>       0.88911647       0.11068511       0.04460000 </v>
    <v>       0.77735180       0.55578315       0.95539999 </v>
    <v>       0.88911647       0.44401845       0.04460000 </v>
    <v>       0.77735180       0.88911647       0.95539999 </v>
    <v>       0.88911647       0.77735180       0.04460000 </v>
   </varray>
  </structure>
  <varray name="forces" >
   <v>      -0.30015151      -0.21790823       0.01958405 </v>
   <v>       0.18200172      -0.00392768      -0.03037038 </v>
   <v>      -0.30481922       0.20882497       0.01938651 </v>
   <v>       0.29950535      -0.40466358      -0.10852477 </v>
   <v>      -0.53867753       0.00656612       0.08307214 </v>
   <v>       0.28944506       0.40341591      -0.11030766 </v>
   <v>       0.00305574       0.00534844       0.09383700 </v>
   <v>       0.41766622      -0.00944495      -0.03818653 </v>
   <v>       0.01291913      -0.00904957       0.09594436 </v>
   <v>      -0.60288765       0.02074004      -2.11515136 </v>
   <v>      -0.29192432      -0.03196068       2.87513791 </v>
   <v>       0.05135312      -0.00906463      -0.77958586 </v>
   <v>      -0.74547242      -0.00866787       1.40656508 </v>
   <v>       0.37526103      -0.68248354      -2.11731511 </v>
   <v>       0.32515993      -0.67782355       1.40649765 </v>
   <v>      -0.05670052       0.00156414      -2.96247371 </v>
   <v>      -0.08460126       0.00147591       2.93474572 </v>
   <v>      -0.59345330      -0.01487374      -2.11925392 </v>
   <v>      -0.29359587       0.03747270       2.87270262 </v>
   <v>       0.50205468      -0.70463457      -2.16481188 </v>
   <v>      -0.34954344      -0.67829072       2.15176790 </v>
   <v>       0.50376511       0.71251861      -2.16723707 </v>
   <v>      -0.35106272       0.68619606       2.15434112 </v>
   <v>       0.37150310       0.68429777      -2.12305124 </v>
   <v>       0.33657807       0.67970681       1.40500467 </v>
   <v>       0.26582268       0.00237615      -2.83701621 </v>
   <v>       0.57679883       0.00228968       2.15469897 </v>
  </varray>
  <varray name="stress" >
   <v>       7.27500095      -0.00976939      -1.38270996 </v>
   <v>      -0.00976940       4.71683395      -0.00054269 </v>
   <v>      -1.38271011      -0.00054285      31.21142924 </v>
  </varray>
  <energy>
   <i name="e_fr_energy">   -186.81996384 </i>
   <i name="e_wo_entrp">   -186.64859265 </i>
   <i name="e_0_energy">     -0.34274238 </i>
  </energy>
  <time name="totalsc">  588.78  590.34</time>
 </calculation>
 <calculation>
  <scstep>
   <time name="dav">   21.84   21.89</time>
   <time name="total">   22.38   22.44</time>
   <energy>
    <i name="alphaZ">     78.86725358 </i>
    <i name="ewald">  39350.26642752 </i>
    <i name="hartreedc"> -45296.85439264 </i>
    <i name="XCdc">   -239.19150397 </i>
    <i name="pawpsdc">   4193.28880766 </i>
    <i name="pawaedc">  -3611.28780062 </i>
    <i name="eentropy">     -0.28300567 </i>
    <i name="bandstr">  -1423.72770246 </i>
    <i name="atom">   6761.44252427 </i>
    <i name="e_fr_energy">   -187.47939233 </i>
    <i name="e_wo_entrp">   -187.19638666 </i>
    <i name="e_0_energy">   -187.33788949 </i>
   </energy>
  </scstep>
  <scstep>
   <time name="dav">   29.55   29.62</time>
   <time name="total">   30.08   30.16</time>
   <energy>
    <i name="e_fr_energy">   -189.43492978 </i>
    <i name="e_wo_entrp">   -189.11189358 </i>
    <i name="e_0_energy">   -189.27341168 </i>
   </energy>
  </scstep>
  <scstep>
   <time name="dav">   30.19   30.26</time>
   <time name="total">   30.75   30.83</time>
   <energy>
    <i name="e_fr_energy">   -189.29490299 </i>
    <i name="e_wo_entrp">   -189.02868281 </i>
    <i name="e_0_energy">   -189.16179290 </i>
   </energy>
  </scstep>
  <scstep>
   <time name="dav">   30.57   30.64</time>
   <time name="total">   31.12   31.20</time>
   <energy>
    <i name="e_fr_energy">   -188.72621708 </i>
    <i name="e_wo_entrp">   -188.44213100 </i>
    <i name="e_0_energy">   -188.58417404 </i>
   </energy>
  </scstep>
  <scstep>
   <time name="dav">   27.97   28.04</time>
   <time name="total">   28.51   28.59</time>
   <energy>
    <i name="e_fr_energy">   -188.72921770 </i>
    <i name="e_wo_entrp">   -188.44802130 </i>
    <i name="e_0_energy">   -188.58861950 </i>
   </energy>
  </scstep>
  <scstep>
   <time name="dav">   30.78   30.86</time>
   <time name="total">   31.33   31.42</time>
   <energy>
    <i name="e_fr_energy">   -188.70541940 </i>
    <i name="e_wo_entrp">   -188.42113271 </i>
    <i name="e_0_energy">   -188.56327605 </i>
   </energy>
  </scstep>
  <scstep>
   <time name="dav">   30.32   30.39</time>
   <time name="total">   30.87   30.95</time>
   <energy>
    <i name="e_fr_energy">   -188.67479401 </i>
    <i name="e_wo_entrp">   -188.39146159 </i>
    <i name="e_0_energy">   -188.53312780 </i>
   </energy>
  </scstep>
  <scstep>
   <time name="dav">   29.26   29.33</time>
   <time name="total">   29.81   29.89</time>
   <energy>
    <i name="e_fr_energy">   -188.63728546 </i>
    <i name="e_wo_entrp">   -188.35639263 </i>
    <i name="e_0_energy">   -188.49683905 </i>
   </energy>
  </scstep>
  <scstep>
   <time name="dav">   26.70   26.76</time>
   <time name="total">   27.24   27.32</time>
   <energy>
    <i name="e_fr_energy">   -188.63497037 </i>
    <i name="e_wo_entrp">   -188.35451443 </i>
    <i name="e_0_energy">   -188.49474240 </i>
   </energy>
  </scstep>
  <scstep>
   <time name="dav">   31.90   31.98</time>
   <time name="total">   32.45   32.53</time>
   <energy>
    <i name="e_fr_energy">   -188.63637544 </i>
    <i name="e_wo_entrp">   -188.35616125 </i>
    <i name="e_0_energy">   -188.49626834 </i>
   </energy>
  </scstep>
  <scstep>
   <time name="dav">   28.79   28.86</time>
   <time name="total">   29.34   29.42</time>
   <energy>
    <i name="e_fr_energy">   -188.63475272 </i>
    <i name="e_wo_entrp">   -188.35493004 </i>
    <i name="e_0_energy">   -188.49484138 </i>
   </energy>
  </scstep>
  <scstep>
   <time name="dav">   27.02   27.09</time>
   <time name="total">   27.57   27.65</time>
   <energy>
    <i name="e_fr_energy">   -188.63487490 </i>
    <i name="e_wo_entrp">   -188.35505342 </i>
    <i name="e_0_energy">   -188.49496416 </i>
   </energy>
  </scstep>
  <scstep>
   <time name="dav">   18.39   18.43</time>
   <time name="total">   18.93   18.99</time>
   <energy>
    <i name="e_fr_energy">   -188.63499688 </i>
    <i name="e_wo_entrp">   -188.35512069 </i>
    <i name="e_0_energy">   -188.49505878 </i>
   </energy>
  </scstep>
  <scstep>
   <time name="dav">   18.62   18.66</time>
   <time name="total">   19.17   19.22</time>
   <energy>
    <i name="e_fr_energy">   -188.63521107 </i>
    <i name="e_wo_entrp">   -188.35529032 </i>
    <i name="e_0_energy">   -188.49525070 </i>
   </energy>
  </scstep>
  <scstep>
   <time name="dav">   19.63   19.68</time>
   <time name="total">   20.18   20.24</time>
   <energy>
    <i name="e_fr_energy">   -188.63531854 </i>
    <i name="e_wo_entrp">   -188.35537471 </i>
    <i name="e_0_energy">   -188.49534662 </i>
   </energy>
  </scstep>
  <scstep>
   <time name="dav">   17.51   17.55</time>
   <time name="total">   18.06   18.11</time>
   <energy>
    <i name="e_fr_energy">   -188.63548726 </i>
    <i name="e_wo_entrp">   -188.35553371 </i>
    <i name="e_0_energy">   -188.49551048 </i>
   </energy>
  </scstep>
  <scstep>
   <time name="dav">   18.82   18.86</time>
   <time name="total">   19.37   19.42</time>
   <energy>
    <i name="e_fr_energy">   -188.63566891 </i>
    <i name="e_wo_entrp">   -188.35571926 </i>
    <i name="e_0_energy">   -188.49569408 </i>
   </energy>
  </scstep>
  <scstep>
   <time name="dav">   18.69   18.73</time>
   <time name="total">   18.73   18.78</time>
   <energy>
    <i name="alphaZ">     78.86725358 </i>
    <i name="ewald">  39350.26642752 </i>
    <i name="hartreedc"> -45316.43200366 </i>
    <i name="XCdc">   -238.02928104 </i>
    <i name="pawpsdc">   3948.22365877 </i>
    <i name="pawaedc">  -3362.70600971 </i>
    <i name="eentropy">     -0.27994673 </i>
    <i name="bandstr">  -1409.98838640 </i>
    <i name="atom">   6761.44252427 </i>
    <i name="e_fr_energy">   -188.63576339 </i>
    <i name="e_wo_entrp">   -188.35581666 </i>
    <i name="e_0_energy">   -188.49579002 </i>
   </energy>
  </scstep>
  <structure>
   <crystal>
    <varray name="basis" >
     <v>       8.85427679       5.10926089       0.00000000 </v>
     <v>      -8.85456458       5.10975644       0.00000000 </v>
     <v>       0.00000000       0.00000000      30.00000000 </v>
    </varray>
    <i name="volume">   2714.50435030 </i>
    <varray name="rec_basis" >
     <v>       0.05647171       0.09785836       0.00000000 </v>
     <v>      -0.05646623       0.09785518       0.00000000 </v>
     <v>       0.00000000       0.00000000       0.03333333 </v>
    </varray>
   </crystal>
   <varray name="positions" >
    <v>       0.99812203       0.33312551       0.00003149 </v>
    <v>       0.00048756       0.66614153      -0.00004884 </v>
    <v>       0.33348472       0.66851417       0.00003118 </v>
    <v>       0.66556325       0.33056336      -0.00017452 </v>
    <v>       0.66519942       0.00153011       0.00013359 </v>
    <v>       0.33606937       0.00112546      -0.00017738 </v>
    <v>       0.00003410       0.00001710       0.00015090 </v>
    <v>       0.33445015       0.33212613      -0.00006141 </v>
    <v>       0.66665932       0.66658743       0.00015429 </v>
    <v>       0.10910704       0.22422640       0.95199864 </v>
    <v>       0.22148467       0.11134433       0.04922347 </v>
    <v>       0.11078460       0.55559690       0.95414635 </v>
    <v>       0.22033430       0.44605099       0.04686188 </v>
    <v>       0.10846280       0.88480608       0.95199516 </v>
    <v>       0.22011041       0.77320310       0.04686177 </v>
    <v>       0.44386819       0.22261505       0.95063607 </v>
    <v>       0.55555484       0.11092755       0.04931933 </v>
    <v>       0.44229619       0.55736305       0.95199204 </v>
    <v>       0.55514567       0.44501463       0.04921956 </v>
    <v>       0.44204288       0.88434730       0.95191878 </v>
    <v>       0.55156438       0.77507800       0.04806023 </v>
    <v>       0.78216345       0.22445835       0.95191488 </v>
    <v>       0.89142387       0.11494594       0.04806437 </v>
    <v>       0.78166041       0.55802461       0.95198594 </v>
    <v>       0.89330594       0.44633510       0.04685937 </v>
    <v>       0.77810273       0.88838828       0.95083782 </v>
    <v>       0.89073217       0.77575801       0.04806495 </v>
   </varray>
  </structure>
  <varray name="forces" >
   <v>      -0.17920273      -0.22618868       0.09425959 </v>
   <v>       0.01466765      -0.00038746      -0.06512088 </v>
   <v>      -0.17783001       0.22725004       0.09327280 </v>
   <v>       0.09649550      -0.66424754      -0.03144214 </v>
   <v>      -0.47782436       0.00050505       0.01808558 </v>
   <v>       0.09633978       0.66194827      -0.03196427 </v>
   <v>      -0.00197345      -0.06150329      -0.06604044 </v>
   <v>       0.56003677      -0.00119772       0.05554097 </v>
   <v>      -0.00011714       0.06023452      -0.06616283 </v>
   <v>       0.09381726       0.01365534       0.13761970 </v>
   <v>      -0.09197624      -0.00627465      -0.00538055 </v>
   <v>       0.00741497       0.00286458       0.13903485 </v>
   <v>       0.09915057       0.00341884      -0.34122456 </v>
   <v>      -0.10703761      -0.03810189       0.13760114 </v>
   <v>       0.01909811      -0.04260055      -0.09133193 </v>
   <v>      -0.11695581       0.00075539      -0.31331564 </v>
   <v>       0.00821326       0.00122001       0.35110690 </v>
   <v>       0.08909627      -0.01489961       0.14280758 </v>
   <v>      -0.09179774       0.00719786      -0.00597488 </v>
   <v>       0.02152995      -0.07092155      -0.15255071 </v>
   <v>       0.09666095      -0.04681658      -0.02288454 </v>
   <v>       0.02002774       0.06789227      -0.15654356 </v>
   <v>       0.09926020       0.04371133      -0.01866368 </v>
   <v>      -0.10651626       0.03829122       0.13795474 </v>
   <v>       0.01550872       0.04306951      -0.08826628 </v>
   <v>       0.09543398       0.00047659       0.14843067 </v>
   <v>      -0.08152033       0.00064872       0.00115241 </v>
  </varray>
  <varray name="stress" >
   <v>     -19.98988150       0.00752564       0.05531143 </v>
   <v>       0.00752567     -19.60470935       0.00284379 </v>
   <v>       0.05531147       0.00284382      -1.70919376 </v>
  </varray>
  <energy>
   <i name="e_fr_energy">   -188.63576339 </i>
   <i name="e_wo_entrp">   -188.49579002 </i>
   <i name="e_0_energy">     -0.27994673 </i>
  </energy>
  <time name="totalsc">  507.96  509.33</time>
 </calculation>
 <calculation>
  <scstep>
   <time name="dav">   23.96   24.02</time>
   <time name="total">   24.50   24.56</time>
   <energy>
    <i name="alphaZ">     82.29950937 </i>
    <i name="ewald">  41278.70544050 </i>
    <i name="hartreedc"> -47275.96904318 </i>
    <i name="XCdc">   -233.88905953 </i>
    <i name="pawpsdc">   3948.28613048 </i>
    <i name="pawaedc">  -3362.76955620 </i>
    <i name="eentropy">     -0.23591273 </i>
    <i name="bandstr">  -1388.45155815 </i>
    <i name="atom">   6761.44252427 </i>
    <i name="e_fr_energy">   -190.58152517 </i>
    <i name="e_wo_entrp">   -190.34561244 </i>
    <i name="e_0_energy">   -190.46356881 </i>
   </energy>
  </scstep>
  <scstep>
   <time name="dav">   30.18   30.25</time>
   <time name="total">   30.70   30.78</time>
   <energy>
    <i name="e_fr_energy">   -190.51218814 </i>
    <i name="e_wo_entrp">   -190.28659668 </i>
    <i name="e_0_energy">   -190.39939241 </i>
   </energy>
  </scstep>
  <scstep>
   <time name="dav">   30.27   30.35</time>
   <time name="total">   30.81   30.89</time>
   <energy>
    <i name="e_fr_energy">   -190.06188307 </i>
    <i name="e_wo_entrp">   -189.81126495 </i>
    <i name="e_0_energy">   -189.93657401 </i>
   </energy>
  </scstep>
  <scstep>
   <time name="dav">   32.08   32.16</time>
   <time name="total">   32.61   32.70</time>
   <energy>
    <i name="e_fr_energy">   -189.84804453 </i>
    <i name="e_wo_entrp">   -189.61797864 </i>
    <i name="e_0_energy">   -189.73301158 </i>
   </energy>
  </scstep>
  <scstep>
   <time name="dav">   29.39   29.46</time>
   <time name="total">   29.93   30.01</time>
   <energy>
    <i name="e_fr_energy">   -189.75752377 </i>
    <i name="e_wo_entrp">   -189.52059344 </i>
    <i name="e_0_energy">   -189.63905860 </i>
   </energy>
  </scstep>
  <scstep>
   <time name="dav">   29.66   29.73</time>
   <time name="total">   30.19   30.27</time>
   <energy>
    <i name="e_fr_energy">   -189.74740946 </i>
    <i name="e_wo_entrp">   -189.51006444 </i>
    <i name="e_0_energy">   -189.62873695 </i>
   </energy>
  </scstep>
  <scstep>
   <time name="dav">   28.82   28.89</time>
   <time name="total">   29.35   29.43</time>
   <energy>
    <i name="e_fr_energy">   -189.74427659 </i>
    <i name="e_wo_entrp">   -189.50701175 </i>
    <i name="e_0_energy">   -189.62564417 </i>
   </energy>
  </scstep>
  <scstep>
   <time name="dav">   29.07   29.14</time>
   <time name="total">   29.60   29.68</time>
   <energy>
    <i name="e_fr_energy">   -189.74371333 </i>
    <i name="e_wo_entrp">   -189.50660745 </i>
    <i name="e_0_energy">   -189.62516039 </i>
   </energy>
  </scstep>
  <scstep>
   <time name="dav">   28.82   28.89</time>
   <time name="total">   29.35   29.43</time>
   <energy>
    <i name="e_fr_energy">   -189.74468526 </i>
    <i name="e_wo_entrp">   -189.50755704 </i>
    <i name="e_0_energy">   -189.62612115 </i>
   </energy>
  </scstep>
  <scstep>
   <time name="dav">   27.49   27.55</time>
   <time name="total">   28.02   28.09</time>
   <energy>
    <i name="e_fr_energy">   -189.74396485 </i>
    <i name="e_wo_entrp">   -189.50677926 </i>
    <i name="e_0_energy">   -189.62537206 </i>
   </energy>
  </scstep>
  <scstep>
   <time name="dav">   17.59   17.63</time>
   <time name="total">   18.12   18.17</time>
   <energy>
    <i name="e_fr_energy">   -189.74383825 </i>
    <i name="e_wo_entrp">   -189.50655076 </i>
    <i name="e_0_energy">   -189.62519451 </i>
   </energy>
  </scstep>
  <scstep>
   <time name="dav">   20.35   20.40</time>
   <time name="total">   20.38   20.44</time>
   <energy>
    <i name="alphaZ">     82.29950937 </i>
    <i name="ewald">  41278.70544050 </i>
    <i name="hartreedc"> -47250.37796842 </i>
    <i name="XCdc">   -235.27946164 </i>
    <i name="pawpsdc">   4037.97714784 </i>
    <i name="pawaedc">  -3453.66749439 </i>
    <i name="eentropy">     -0.23727283 </i>
    <i name="bandstr">  -1410.60628225 </i>
    <i name="atom">   6761.44252427 </i>
    <i name="e_fr_energy">   -189.74385756 </i>
    <i name="e_wo_entrp">   -189.50658472 </i>
    <i name="e_0_energy">   -189.62522114 </i>
   </energy>
  </scstep>
  <structure>
   <crystal>
    <varray name="basis" >
     <v>       8.66590513       5.00270534       0.00000000 </v>
     <v>      -8.66610493       5.00304868       0.00000000 </v>
     <v>       0.00000000       0.00000000      30.00000000 </v>
    </varray>
    <i name="volume">   2601.29743863 </i>
    <varray name="rec_basis" >
     <v>       0.05769869       0.09994365       0.00000000 </v>
     <v>      -0.05769473       0.09994134       0.00000000 </v>
     <v>       0.00000000       0.00000000       0.03333333 </v>
    </varray>
   </crystal>
   <varray name="positions" >
    <v>       0.99757486       0.33292169       0.00008479 </v>
    <v>       0.00050097       0.66612684      -0.00008566 </v>
    <v>       0.33369161       0.66906176       0.00008392 </v>
    <v>       0.66455299       0.32936826      -0.00019230 </v>
    <v>       0.66474251       0.00198866       0.00014381 </v>
    <v>       0.33726054       0.00213202      -0.00019546 </v>
    <v>      -0.00006989      -0.00008311       0.00011355 </v>
    <v>       0.33498468       0.33158768      -0.00003000 </v>
    <v>       0.66675920       0.66668754       0.00011687 </v>
    <v>       0.10921959       0.22415920       0.95207646 </v>
    <v>       0.22138614       0.11142201       0.04922043 </v>
    <v>       0.11079646       0.55559455       0.95422497 </v>
    <v>       0.22043496       0.44596169       0.04666893 </v>
    <v>       0.10829700       0.88484536       0.95207297 </v>
    <v>       0.22005798       0.77311409       0.04681013 </v>
    <v>       0.44375740       0.22272833       0.95045890 </v>
    <v>       0.55556474       0.11092171       0.04951787 </v>
    <v>       0.44235680       0.55725297       0.95207280 </v>
    <v>       0.55506967       0.44511451       0.04921618 </v>
    <v>       0.44194577       0.88420895       0.95183252 </v>
    <v>       0.55157926       0.77490769       0.04804729 </v>
    <v>       0.78229534       0.22455187       0.95182636 </v>
    <v>       0.89159153       0.11492342       0.04805382 </v>
    <v>       0.78162194       0.55819020       0.95206395 </v>
    <v>       0.89339230       0.44639174       0.04680946 </v>
    <v>       0.77819495       0.88829765       0.95092175 </v>
    <v>       0.89065515       0.77583717       0.04806560 </v>
   </varray>
  </structure>
  <varray name="forces" >
   <v>      -0.12394925      -0.26125986       0.09322527 </v>
   <v>      -0.07774609      -0.00165505      -0.05221262 </v>
   <v>      -0.12293563       0.25866075       0.09243955 </v>
   <v>       0.02616018      -0.74153619      -0.00654988 </v>
   <v>      -0.43911356      -0.00078045      -0.00402486 </v>
   <v>       0.02627537       0.73647145      -0.00633233 </v>
   <v>      -0.00110943      -0.08991051      -0.08369542 </v>
   <v>       0.61920217      -0.00258880       0.06714390 </v>
   <v>       0.00039915       0.08710055      -0.08458579 </v>
   <v>      -0.05943990       0.02800143      -0.35560433 </v>
   <v>       0.00170063      -0.01187964       0.54702957 </v>
   <v>       0.01923990       0.00231774      -0.27383038 </v>
   <v>      -0.04269082       0.00303136       0.08682891 </v>
   <v>       0.02789932      -0.07961972      -0.34181022 </v>
   <v>       0.03653278      -0.08462376       0.34156634 </v>
   <v>      -0.02535618       0.00177044      -0.91357107 </v>
   <v>       0.00148771       0.00169892       0.91345952 </v>
   <v>      -0.06237174      -0.02796687      -0.35141628 </v>
   <v>       0.00207155       0.01318763       0.54652478 </v>
   <v>       0.05870520      -0.12854152      -0.64982014 </v>
   <v>      -0.03070474      -0.09759461       0.47517125 </v>
   <v>       0.05790043       0.12863997      -0.65265740 </v>
   <v>      -0.02865160       0.09718401       0.47808287 </v>
   <v>       0.02879086       0.08081680      -0.34148178 </v>
   <v>       0.03455652       0.08664744       0.34332238 </v>
   <v>      -0.00506740       0.00089497      -0.39130394 </v>
   <v>       0.07821457       0.00153350       0.52410211 </v>
  </varray>
  <varray name="stress" >
   <v>     -10.23495369       0.00526249       0.00714463 </v>
   <v>       0.00526260      -9.99575697       0.00242587 </v>
   <v>       0.00714469       0.00242601       6.40939318 </v>
  </varray>
  <energy>
   <i name="e_fr_energy">   -189.74385756 </i>
   <i name="e_wo_entrp">   -189.62522114 </i>
   <i name="e_0_energy">     -0.23727283 </i>
  </energy>
  <time name="totalsc">  375.52  376.52</time>
 </calculation>
 <calculation>
  <scstep>
   <time name="dav">   21.75   21.81</time>
   <time name="total">   22.28   22.33</time>
   <energy>
    <i name="alphaZ">     85.83523665 </i>
    <i name="ewald">  42844.42261560 </i>
    <i name="hartreedc"> -48861.02239999 </i>
    <i name="XCdc">   -232.91885305 </i>
    <i name="pawpsdc">   4037.92892563 </i>
    <i name="pawaedc">  -3453.61565750 </i>
    <i name="eentropy">     -0.20295336 </i>
    <i name="bandstr">  -1373.24303424 </i>
    <i name="atom">   6761.44252427 </i>
    <i name="e_fr_energy">   -191.37359598 </i>
    <i name="e_wo_entrp">   -191.17064262 </i>
    <i name="e_0_energy">   -191.27211930 </i>
   </energy>
  </scstep>
  <scstep>
   <time name="dav">   31.89   31.97</time>
   <time name="total">   32.41   32.49</time>
   <energy>
    <i name="e_fr_energy">   -191.17096947 </i>
    <i name="e_wo_entrp">   -190.97560236 </i>
    <i name="e_0_energy">   -191.07328592 </i>
   </energy>
  </scstep>
  <scstep>
   <time name="dav">   30.36   30.43</time>
   <time name="total">   30.87   30.95</time>
   <energy>
    <i name="e_fr_energy">   -191.30707976 </i>
    <i name="e_wo_entrp">   -191.08178550 </i>
    <i name="e_0_energy">   -191.19443263 </i>
   </energy>
  </scstep>
  <scstep>
   <time name="dav">   31.63   31.71</time>
   <time name="total">   32.15   32.24</time>
   <energy>
    <i name="e_fr_energy">   -190.90472483 </i>
    <i name="e_wo_entrp">   -190.70559678 </i>
    <i name="e_0_energy">   -190.80516081 </i>
   </energy>
  </scstep>
  <scstep>
   <time name="dav">   29.55   29.62</time>
   <time name="total">   30.07   30.15</time>
   <energy>
    <i name="e_fr_energy">   -190.78248163 </i>
    <i name="e_wo_entrp">   -190.57845890 </i>
    <i name="e_0_energy">   -190.68047027 </i>
   </energy>
  </scstep>
  <scstep>
   <time name="dav">   27.35   27.41</time>
   <time name="total">   27.87   27.94</time>
   <energy>
    <i name="e_fr_energy">   -190.76717795 </i>
    <i name="e_wo_entrp">   -190.55920074 </i>
    <i name="e_0_energy">   -190.66318935 </i>
   </energy>
  </scstep>
  <scstep>
   <time name="dav">   29.49   29.56</time>
   <time name="total">   30.01   30.09</time>
   <energy>
    <i name="e_fr_energy">   -190.77249787 </i>
    <i name="e_wo_entrp">   -190.56492361 </i>
    <i name="e_0_energy">   -190.66871074 </i>
   </energy>
  </scstep>
  <scstep>
   <time name="dav">   29.65   29.72</time>
   <time name="total">   30.17   30.26</time>
   <energy>
    <i name="e_fr_energy">   -190.76239484 </i>
    <i name="e_wo_entrp">   -190.55535539 </i>
    <i name="e_0_energy">   -190.65887512 </i>
   </energy>
  </scstep>
  <scstep>
   <time name="dav">   26.48   26.54</time>
   <time name="total">   27.00   27.07</time>
   <energy>
    <i name="e_fr_energy">   -190.76275036 </i>
    <i name="e_wo_entrp">   -190.55569583 </i>
    <i name="e_0_energy">   -190.65922310 </i>
   </energy>
  </scstep>
  <scstep>
   <time name="dav">   29.32   29.39</time>
   <time name="total">   29.85   29.93</time>
   <energy>
    <i name="e_fr_energy">   -190.76275171 </i>
    <i name="e_wo_entrp">   -190.55573363 </i>
    <i name="e_0_energy">   -190.65924267 </i>
   </energy>
  </scstep>
  <scstep>
   <time name="dav">   23.90   23.95</time>
   <time name="total">   24.42   24.48</time>
   <energy>
    <i name="e_fr_energy">   -190.76257143 </i>
    <i name="e_wo_entrp">   -190.55547117 </i>
    <i name="e_0_energy">   -190.65902130 </i>
   </energy>
  </scstep>
  <scstep>
   <time name="dav">   17.98   18.02</time>
   <time name="total">   18.02   18.07</time>
   <energy>
    <i name="alphaZ">     85.83523665 </i>
    <i name="ewald">  42844.42261560 </i>
    <i name="hartreedc"> -48832.25877522 </i>
    <i name="XCdc">   -234.26662300 </i>
    <i name="pawpsdc">   4064.97210934 </i>
    <i name="pawaedc">  -3480.87262192 </i>
    <i name="eentropy">     -0.20718182 </i>
    <i name="bandstr">  -1399.82980769 </i>
    <i name="atom">   6761.44252427 </i>
    <i name="e_fr_energy">   -190.76252379 </i>
    <i name="e_wo_entrp">   -190.55534196 </i>
    <i name="e_0_energy">   -190.65893287 </i>
   </energy>
  </scstep>
  <structure>
   <crystal>
    <varray name="basis" >
     <v>       8.48295399       4.90025738       0.00000000 </v>
     <v>      -8.48299803       4.90033118       0.00000000 </v>
     <v>       0.00000000       0.00000000      30.00000000 </v>
    </varray>
    <i name="volume">   2494.14472759 </i>
    <varray name="rec_basis" >
     <v>       0.05894202       0.10203495       0.00000000 </v>
     <v>      -0.05894114       0.10203442       0.00000000 </v>
     <v>       0.00000000       0.00000000       0.03333333 </v>
    </varray>
   </crystal>
   <varray name="positions" >
    <v>       0.99547895       0.33156279       0.00027728 </v>
    <v>       0.00007120       0.66652941      -0.00018287 </v>
    <v>       0.33502813       0.67112893       0.00027495 </v>
    <v>       0.65969855       0.32452925      -0.00018449 </v>
    <v>       0.66320021       0.00351459       0.00011646 </v>
    <v>       0.34206171       0.00694680      -0.00018656 </v>
    <v>      -0.00070836      -0.00071604      -0.00007523 </v>
    <v>       0.33729392       0.32923907       0.00011925 </v>
    <v>       0.66737559       0.66729951      -0.00007442 </v>
    <v>       0.10899297       0.22480950       0.95091488 </v>
    <v>       0.22144005       0.11119079       0.05082996 </v>
    <v>       0.11089653       0.55552080       0.95330208 </v>
    <v>       0.22009181       0.44634089       0.04721698 </v>
    <v>       0.10799033       0.88394361       0.95095187 </v>
    <v>       0.21957880       0.77231950       0.04789074 </v>
    <v>       0.44381262       0.22270046       0.94804794 </v>
    <v>       0.55557220       0.11093798       0.05189602 </v>
    <v>       0.44170190       0.55749102       0.95091904 </v>
    <v>       0.55531172       0.44506816       0.05082474 </v>
    <v>       0.44126079       0.88299045       0.95005717 </v>
    <v>       0.55054221       0.77446401       0.04946104 </v>
    <v>       0.78352049       0.22524726       0.95004612 </v>
    <v>       0.89204606       0.11595802       0.04947248 </v>
    <v>       0.78253755       0.55850317       0.95094351 </v>
    <v>       0.89419872       0.44689235       0.04789259 </v>
    <v>       0.77803691       0.88846902       0.94964614 </v>
    <v>       0.89118292       0.77533315       0.04960224 </v>
   </varray>
  </structure>
  <varray name="forces" >
   <v>      -0.10191022      -0.25640204       0.05908569 </v>
   <v>      -0.14907630      -0.00245032      -0.00452366 </v>
   <v>      -0.10131521       0.25182281       0.05924928 </v>
   <v>      -0.04092100      -0.74902227       0.02685630 </v>
   <v>      -0.35121892      -0.00160993      -0.04538604 </v>
   <v>      -0.03998528       0.74426005       0.02765840 </v>
   <v>      -0.01653846      -0.16216810      -0.05961373 </v>
   <v>       0.68654709      -0.00222456       0.03577739 </v>
   <v>      -0.01546749       0.15942679      -0.06017326 </v>
   <v>      -0.01398445       0.05166331      -0.18776936 </v>
   <v>       0.07521487      -0.02107602       0.36015755 </v>
   <v>       0.01401546       0.00255864      -0.25648834 </v>
   <v>       0.04884035       0.00323159       0.01984496 </v>
   <v>       0.08552562       0.05774302      -0.21118926 </v>
   <v>      -0.03747161       0.06002060       0.23331417 </v>
   <v>       0.04777900       0.00115545      -0.79768799 </v>
   <v>       0.00973757       0.00091632       0.70900237 </v>
   <v>      -0.01630078      -0.05006722      -0.18478929 </v>
   <v>       0.07501201       0.02194218       0.35982208 </v>
   <v>      -0.03230147      -0.01295941      -0.46115538 </v>
   <v>      -0.04472660       0.00652009       0.35103469 </v>
   <v>      -0.03274777       0.01390814      -0.46278539 </v>
   <v>      -0.04421112      -0.00610572       0.35314315 </v>
   <v>       0.08601106      -0.05475197      -0.21073019 </v>
   <v>      -0.03952097      -0.05767349       0.23441898 </v>
   <v>      -0.10320716       0.00072076      -0.27129655 </v>
   <v>       0.05222177       0.00062130       0.38422344 </v>
  </varray>
  <varray name="stress" >
   <v>      -5.79166939      -0.00129791       0.06245102 </v>
   <v>      -0.00129773      -5.52512960      -0.00154696 </v>
   <v>       0.06245085      -0.00154686       4.61178779 </v>
  </varray>
  <energy>
   <i name="e_fr_energy">   -190.76252379 </i>
   <i name="e_wo_entrp">   -190.65893287 </i>
   <i name="e_0_energy">     -0.20718182 </i>
  </energy>
  <time name="totalsc">  377.45  378.45</time>
 </calculation>
 <calculation>
  <scstep>
   <time name="dav">   21.81   21.86</time>
   <time name="total">   22.32   22.37</time>
   <energy>
    <i name="alphaZ">     90.03476904 </i>
    <i name="ewald">  44597.97410300 </i>
    <i name="hartreedc"> -50639.55532545 </i>
    <i name="XCdc">   -231.95810135 </i>
    <i name="pawpsdc">   4064.93816251 </i>
    <i name="pawaedc">  -3480.83496263 </i>
    <i name="eentropy">     -0.19631403 </i>
    <i name="bandstr">  -1353.90405735 </i>
    <i name="atom">   6761.44252427 </i>
    <i name="e_fr_energy">   -192.05920199 </i>
    <i name="e_wo_entrp">   -191.86288796 </i>
    <i name="e_0_energy">   -191.96104498 </i>
   </energy>
  </scstep>
  <scstep>
   <time name="dav">   28.26   28.33</time>
   <time name="total">   28.77   28.84</time>
   <energy>
    <i name="e_fr_energy">   -191.82234402 </i>
    <i name="e_wo_entrp">   -191.62394826 </i>
    <i name="e_0_energy">   -191.72314614 </i>
   </energy>
  </scstep>
  <scstep>
   <time name="dav">   29.24   29.31</time>
   <time name="total">   29.75   29.83</time>
   <energy>
    <i name="e_fr_energy">   -191.93601197 </i>
    <i name="e_wo_entrp">   -191.72441379 </i>
    <i name="e_0_energy">   -191.83021288 </i>
   </energy>
  </scstep>
  <scstep>
   <time name="dav">   27.68   27.75</time>
   <time name="total">   28.19   28.27</time>
   <energy>
    <i name="e_fr_energy">   -191.76222386 </i>
    <i name="e_wo_entrp">   -191.56147465 </i>
    <i name="e_0_energy">   -191.66184926 </i>
   </energy>
  </scstep>
  <scstep>
   <time name="dav">   30.82   30.90</time>
   <time name="total">   31.33   31.41</time>
   <energy>
    <i name="e_fr_energy">   -191.56188159 </i>
    <i name="e_wo_entrp">   -191.37474727 </i>
    <i name="e_0_energy">   -191.46831443 </i>
   </energy>
  </scstep>
  <scstep>
   <time name="dav">   30.59   30.67</time>
   <time name="total">   31.11   31.19</time>
   <energy>
    <i name="e_fr_energy">   -191.44048522 </i>
    <i name="e_wo_entrp">   -191.23582697 </i>
    <i name="e_0_energy">   -191.33815610 </i>
   </energy>
  </scstep>
  <scstep>
   <time name="dav">   30.32   30.39</time>
   <time name="total">   30.83   30.91</time>
   <energy>
    <i name="e_fr_energy">   -191.42344938 </i>
    <i name="e_wo_entrp">   -191.21991637 </i>
    <i name="e_0_energy">   -191.32168288 </i>
   </energy>
  </scstep>
  <scstep>
   <time name="dav">   26.83   26.89</time>
   <time name="total">   27.34   27.41</time>
   <energy>
    <i name="e_fr_energy">   -191.41869273 </i>
    <i name="e_wo_entrp">   -191.21553669 </i>
    <i name="e_0_energy">   -191.31711471 </i>
   </energy>
  </scstep>
  <scstep>
   <time name="dav">   30.65   30.72</time>
   <time name="total">   31.16   31.24</time>
   <energy>
    <i name="e_fr_energy">   -191.42005349 </i>
    <i name="e_wo_entrp">   -191.21665327 </i>
    <i name="e_0_energy">   -191.31835338 </i>
   </energy>
  </scstep>
  <scstep>
   <time name="dav">   30.09   30.16</time>
   <time name="total">   30.60   30.68</time>
   <energy>
    <i name="e_fr_energy">   -191.41902654 </i>
    <i name="e_wo_entrp">   -191.21545550 </i>
    <i name="e_0_energy">   -191.31724102 </i>
   </energy>
  </scstep>
  <scstep>
   <time name="dav">   26.41   26.48</time>
   <time name="total">   26.92   27.00</time>
   <energy>
    <i name="e_fr_energy">   -191.41879776 </i>
    <i name="e_wo_entrp">   -191.21499735 </i>
    <i name="e_0_energy">   -191.31689756 </i>
   </energy>
  </scstep>
  <scstep>
   <time name="dav">   19.33   19.38</time>
   <time name="total">   19.37   19.42</time>
   <energy>
    <i name="alphaZ">     90.03476904 </i>
    <i name="ewald">  44597.97410300 </i>
    <i name="hartreedc"> -50607.20396465 </i>
    <i name="XCdc">   -233.41895836 </i>
    <i name="pawpsdc">   4084.97328437 </i>
    <i name="pawaedc">  -3500.95152410 </i>
    <i name="eentropy">     -0.20386156 </i>
    <i name="bandstr">  -1384.06515094 </i>
    <i name="atom">   6761.44252427 </i>
    <i name="e_fr_energy">   -191.41877893 </i>
    <i name="e_wo_entrp">   -191.21491737 </i>
    <i name="e_0_energy">   -191.31684815 </i>
   </energy>
  </scstep>
  <structure>
   <crystal>
    <varray name="basis" >
     <v>       8.27646037       4.78815904       0.00000000 </v>
     <v>      -8.27658114       4.78836585       0.00000000 </v>
     <v>       0.00000000       0.00000000      30.00000000 </v>
    </varray>
    <i name="volume">   2377.80920891 </i>
    <varray name="rec_basis" >
     <v>       0.06041316       0.10442277       0.00000000 </v>
     <v>      -0.06041055       0.10442125       0.00000000 </v>
     <v>       0.00000000       0.00000000       0.03333333 </v>
    </varray>
   </crystal>
   <varray name="positions" >
    <v>       0.99164088       0.32900537       0.00052625 </v>
    <v>      -0.00108239       0.66761932      -0.00021311 </v>
    <v>       0.33752721       0.67490070       0.00052426 </v>
    <v>       0.65012665       0.31563064      -0.00007245 </v>
    <v>       0.66071336       0.00595803      -0.00006156 </v>
    <v>       0.35090084       0.01644674      -0.00007097 </v>
    <v>      -0.00272537      -0.00253448      -0.00033900 </v>
    <v>       0.34207667       0.32439374       0.00028734 </v>
    <v>       0.66916382       0.66927170      -0.00034130 </v>
    <v>       0.10922806       0.22582409       0.94961517 </v>
    <v>       0.22179252       0.11032843       0.05287386 </v>
    <v>       0.11104720       0.55542795       0.95188816 </v>
    <v>       0.22015244       0.44635531       0.04774160 </v>
    <v>       0.10910743       0.88353800       0.94959284 </v>
    <v>       0.21978565       0.77285252       0.04928029 </v>
    <v>       0.44424376       0.22230492       0.94427594 </v>
    <v>       0.55563497       0.11090254       0.05532931 </v>
    <v>       0.44069380       0.55729001       0.94963071 </v>
    <v>       0.55618578       0.44472851       0.05286732 </v>
    <v>       0.44067518       0.88256278       0.94766854 </v>
    <v>       0.54980248       0.77473595       0.05138409 </v>
    <v>       0.78396475       0.22585407       0.94765157 </v>
    <v>       0.89178951       0.11670484       0.05140298 </v>
    <v>       0.78298354       0.55741772       0.94958619 </v>
    <v>       0.89368629       0.44672923       0.04928556 </v>
    <v>       0.77725669       0.88926951       0.94799845 </v>
    <v>       0.89184272       0.77469632       0.05168785 </v>
   </varray>
  </structure>
  <varray name="forces" >
   <v>      -0.14708306      -0.20316994      -0.00923352 </v>
   <v>      -0.10032317      -0.00085429      -0.01985841 </v>
   <v>      -0.14852924       0.20019394      -0.00835001 </v>
   <v>      -0.02114249      -0.08537040       0.01384979 </v>
   <v>       0.03988225      -0.00159091       0.04162188 </v>
   <v>      -0.01916553       0.08607741       0.01338822 </v>
   <v>      -0.06894411      -0.27770474      -0.00661444 </v>
   <v>       0.37928977      -0.00104792      -0.09931841 </v>
   <v>      -0.06978754       0.27705588      -0.00572203 </v>
   <v>       0.08108185       0.06059180       0.12251549 </v>
   <v>       0.12155964      -0.03517402       0.02914513 </v>
   <v>      -0.00783180       0.00006904       0.01426097 </v>
   <v>       0.24892552      -0.00031772      -0.21150794 </v>
   <v>       0.07672225       0.20928622       0.10396884 </v>
   <v>      -0.13588701       0.21845309      -0.03653352 </v>
   <v>       0.04763313      -0.00060093      -0.32552644 </v>
   <v>       0.05935787       0.00025167       0.22240961 </v>
   <v>       0.08201645      -0.06005034       0.12125830 </v>
   <v>       0.12192468       0.03517405       0.02828260 </v>
   <v>      -0.14585632       0.09263736      -0.07032304 </v>
   <v>       0.00205215       0.11290441       0.04425749 </v>
   <v>      -0.14540763      -0.09092313      -0.06792178 </v>
   <v>      -0.00002005      -0.11026180       0.04284813 </v>
   <v>       0.07763540      -0.20806157       0.10325393 </v>
   <v>      -0.13572498      -0.21807611      -0.03800759 </v>
   <v>      -0.16157659       0.00034185      -0.11136401 </v>
   <v>      -0.03080141       0.00016709       0.10922077 </v>
  </varray>
  <varray name="stress" >
   <v>      -0.31101278       0.00090298       0.37116103 </v>
   <v>       0.00090301       0.38206105       0.00002735 </v>
   <v>       0.37116085       0.00002743      -0.76494589 </v>
  </varray>
  <energy>
   <i name="e_fr_energy">   -191.41877893 </i>
   <i name="e_wo_entrp">   -191.31684815 </i>
   <i name="e_0_energy">     -0.20386156 </i>
  </energy>
  <time name="totalsc">  379.95  380.96</time>
 </calculation>
 <calculation>
  <scstep>
   <time name="dav">   21.74   21.79</time>
   <time name="total">   22.25   22.30</time>
   <energy>
    <i name="alphaZ">     90.04202931 </i>
    <i name="ewald">  44585.36138815 </i>
    <i name="hartreedc"> -50595.53248445 </i>
    <i name="XCdc">   -233.48090950 </i>
    <i name="pawpsdc">   4084.77632762 </i>
    <i name="pawaedc">  -3500.74799211 </i>
    <i name="eentropy">     -0.20624005 </i>
    <i name="bandstr">  -1383.11954607 </i>
    <i name="atom">   6761.44252427 </i>
    <i name="e_fr_energy">   -191.46490284 </i>
    <i name="e_wo_entrp">   -191.25866278 </i>
    <i name="e_0_energy">   -191.36178281 </i>
   </energy>
  </scstep>
  <scstep>
   <time name="dav">   33.14   33.22</time>
   <time name="total">   33.65   33.74</time>
   <energy>
    <i name="e_fr_energy">   -191.50187197 </i>
    <i name="e_wo_entrp">   -191.28742910 </i>
    <i name="e_0_energy">   -191.39465054 </i>
   </energy>
  </scstep>
  <scstep>
   <time name="dav">   30.72   30.79</time>
   <time name="total">   31.23   31.31</time>
   <energy>
    <i name="e_fr_energy">   -191.47767344 </i>
    <i name="e_wo_entrp">   -191.27116766 </i>
    <i name="e_0_energy">   -191.37442055 </i>
   </energy>
  </scstep>
  <scstep>
   <time name="dav">   27.84   27.91</time>
   <time name="total">   28.35   28.43</time>
   <energy>
    <i name="e_fr_energy">   -191.47859876 </i>
    <i name="e_wo_entrp">   -191.27242241 </i>
    <i name="e_0_energy">   -191.37551059 </i>
   </energy>
  </scstep>
  <scstep>
   <time name="dav">   26.76   26.84</time>
   <time name="total">   27.28   27.36</time>
   <energy>
    <i name="e_fr_energy">   -191.47529916 </i>
    <i name="e_wo_entrp">   -191.26734253 </i>
    <i name="e_0_energy">   -191.37132084 </i>
   </energy>
  </scstep>
  <scstep>
   <time name="dav">   28.21   28.27</time>
   <time name="total">   28.72   28.80</time>
   <energy>
    <i name="e_fr_energy">   -191.47526066 </i>
    <i name="e_wo_entrp">   -191.26789503 </i>
    <i name="e_0_energy">   -191.37157784 </i>
   </energy>
  </scstep>
  <scstep>
   <time name="dav">   25.92   25.99</time>
   <time name="total">   26.44   26.51</time>
   <energy>
    <i name="e_fr_energy">   -191.47495827 </i>
    <i name="e_wo_entrp">   -191.26746536 </i>
    <i name="e_0_energy">   -191.37121182 </i>
   </energy>
  </scstep>
  <scstep>
   <time name="dav">   18.77   18.82</time>
   <time name="total">   18.80   18.86</time>
   <energy>
    <i name="alphaZ">     90.04202931 </i>
    <i name="ewald">  44585.36138815 </i>
    <i name="hartreedc"> -50596.39963776 </i>
    <i name="XCdc">   -233.46746028 </i>
    <i name="pawpsdc">   4082.29416631 </i>
    <i name="pawaedc">  -3498.23230830 </i>
    <i name="eentropy">     -0.20743105 </i>
    <i name="bandstr">  -1382.30825608 </i>
    <i name="atom">   6761.44252427 </i>
    <i name="e_fr_energy">   -191.47498543 </i>
    <i name="e_wo_entrp">   -191.26755438 </i>
    <i name="e_0_energy">   -191.37126990 </i>
   </energy>
  </scstep>
  <structure>
   <crystal>
    <varray name="basis" >
     <v>       8.26835473       4.79249258       0.00000000 </v>
     <v>      -8.26845279       4.79266053       0.00000000 </v>
     <v>       0.00000000       0.00000000      30.00000000 </v>
    </varray>
    <i name="volume">   2377.61748122 </i>
    <varray name="rec_basis" >
     <v>       0.06047222       0.10432863       0.00000000 </v>
     <v>      -0.06047010       0.10432740       0.00000000 </v>
     <v>       0.00000000       0.00000000       0.03333333 </v>
    </varray>
   </crystal>
   <varray name="positions" >
    <v>       0.99012573       0.32837381       0.00051374 </v>
    <v>      -0.00139617       0.66792368      -0.00024596 </v>
    <v>       0.33813860       0.67640416       0.00051320 </v>
    <v>       0.64952948       0.31516621      -0.00004864 </v>
    <v>       0.66079847       0.00585617       0.00000473 </v>
    <v>       0.35137410       0.01704088      -0.00004788 </v>
    <v>      -0.00437198      -0.00377067      -0.00035265 </v>
    <v>       0.34324324       0.32321579       0.00012680 </v>
    <v>       0.67039387       0.67091698      -0.00035352 </v>
    <v>       0.10977908       0.22590633       0.94979869 </v>
    <v>       0.22197668       0.10977883       0.05294620 </v>
    <v>       0.11102600       0.55545040       0.95189461 </v>
    <v>       0.22088694       0.44561832       0.04740405 </v>
    <v>       0.11041681       0.88437517       0.94974567 </v>
    <v>       0.22050226       0.77437644       0.04923765 </v>
    <v>       0.44438672       0.22215621       0.94370171 </v>
    <v>       0.55581269       0.11072771       0.05573163 </v>
    <v>       0.44061720       0.55673934       0.94981229 </v>
    <v>       0.55673661       0.44454342       0.05293823 </v>
    <v>       0.44071021       0.88346187       0.94752580 </v>
    <v>       0.55037606       0.77531011       0.05147935 </v>
    <v>       0.78307597       0.22582673       0.94751270 </v>
    <v>       0.89122294       0.11615106       0.05149600 </v>
    <v>       0.78215576       0.55611224       0.94973787 </v>
    <v>       0.89216500       0.44601451       0.04924053 </v>
    <v>       0.77677133       0.88975858       0.94779594 </v>
    <v>       0.89176085       0.77478018       0.05189118 </v>
   </varray>
  </structure>
  <varray name="forces" >
   <v>      -0.18842181      -0.19978457      -0.00160853 </v>
   <v>      -0.06145629      -0.00120423      -0.04499936 </v>
   <v>      -0.18969751       0.19685560      -0.00098354 </v>
   <v>       0.02589935      -0.20147012       0.02187927 </v>
   <v>       0.06299686      -0.00031302       0.04048000 </v>
   <v>       0.02677717       0.20178362       0.02214453 </v>
   <v>      -0.09608132      -0.29914401      -0.00467085 </v>
   <v>       0.37767402      -0.00107119       0.00675365 </v>
   <v>      -0.09608756       0.29927558      -0.00469840 </v>
   <v>       0.06225783       0.01822990       0.13283174 </v>
   <v>       0.04573125      -0.03315305      -0.04693325 </v>
   <v>      -0.00928501       0.00077438       0.06532510 </v>
   <v>       0.15896042       0.00026441      -0.26248636 </v>
   <v>       0.03381785       0.10652517       0.10266149 </v>
   <v>      -0.08708305       0.11849434      -0.02428925 </v>
   <v>       0.08597061      -0.00027134      -0.19331154 </v>
   <v>       0.03118278       0.00015224       0.08013437 </v>
   <v>       0.06280525      -0.01796726       0.13280072 </v>
   <v>       0.04546986       0.03321246      -0.04737314 </v>
   <v>      -0.06599472       0.06084069      -0.04939393 </v>
   <v>       0.00267882       0.06073495       0.04020621 </v>
   <v>      -0.06614888      -0.05995673      -0.04815032 </v>
   <v>       0.00177081      -0.05917508       0.03980156 </v>
   <v>       0.03411936      -0.10570867       0.10198656 </v>
   <v>      -0.08742159      -0.11818493      -0.02474731 </v>
   <v>      -0.08738655       0.00002035      -0.13511316 </v>
   <v>      -0.02304798       0.00024049       0.10175374 </v>
  </varray>
  <varray name="stress" >
   <v>       0.01657308       0.00010480       0.02569696 </v>
   <v>       0.00010451      -0.12935567      -0.00037893 </v>
   <v>       0.02569697      -0.00037900      -1.47632966 </v>
  </varray>
  <energy>
   <i name="e_fr_energy">   -191.47498543 </i>
   <i name="e_wo_entrp">   -191.37126990 </i>
   <i name="e_0_energy">     -0.20743105 </i>
  </energy>
  <time name="totalsc">  259.10  259.81</time>
 </calculation>
 <calculation>
  <scstep>
   <time name="dav">   21.79   21.84</time>
   <time name="total">   22.30   22.35</time>
   <energy>
    <i name="alphaZ">     90.07986500 </i>
    <i name="ewald">  44611.00326217 </i>
    <i name="hartreedc"> -50622.12283466 </i>
    <i name="XCdc">   -233.41190683 </i>
    <i name="pawpsdc">   4082.24945242 </i>
    <i name="pawaedc">  -3498.18710323 </i>
    <i name="eentropy">     -0.20913248 </i>
    <i name="bandstr">  -1382.36397237 </i>
    <i name="atom">   6761.44252427 </i>
    <i name="e_fr_energy">   -191.51984571 </i>
    <i name="e_wo_entrp">   -191.31071322 </i>
    <i name="e_0_energy">   -191.41527946 </i>
   </energy>
  </scstep>
  <scstep>
   <time name="dav">   32.99   33.07</time>
   <time name="total">   33.50   33.58</time>
   <energy>
    <i name="e_fr_energy">   -191.54188059 </i>
    <i name="e_wo_entrp">   -191.32459745 </i>
    <i name="e_0_energy">   -191.43323902 </i>
   </energy>
  </scstep>
  <scstep>
   <time name="dav">   30.64   30.71</time>
   <time name="total">   31.15   31.23</time>
   <energy>
    <i name="e_fr_energy">   -191.52695417 </i>
    <i name="e_wo_entrp">   -191.31806211 </i>
    <i name="e_0_energy">   -191.42250814 </i>
   </energy>
  </scstep>
  <scstep>
   <time name="dav">   27.94   28.01</time>
   <time name="total">   28.45   28.52</time>
   <energy>
    <i name="e_fr_energy">   -191.52726892 </i>
    <i name="e_wo_entrp">   -191.31791051 </i>
    <i name="e_0_energy">   -191.42258972 </i>
   </energy>
  </scstep>
  <scstep>
   <time name="dav">   26.51   26.58</time>
   <time name="total">   27.02   27.10</time>
   <energy>
    <i name="e_fr_energy">   -191.52512370 </i>
    <i name="e_wo_entrp">   -191.31441967 </i>
    <i name="e_0_energy">   -191.41977169 </i>
   </energy>
  </scstep>
  <scstep>
   <time name="dav">   26.11   26.18</time>
   <time name="total">   26.62   26.69</time>
   <energy>
    <i name="e_fr_energy">   -191.52493691 </i>
    <i name="e_wo_entrp">   -191.31472611 </i>
    <i name="e_0_energy">   -191.41983151 </i>
   </energy>
  </scstep>
  <scstep>
   <time name="dav">   25.74   25.80</time>
   <time name="total">   26.25   26.32</time>
   <energy>
    <i name="e_fr_energy">   -191.52480226 </i>
    <i name="e_wo_entrp">   -191.31437627 </i>
    <i name="e_0_energy">   -191.41958927 </i>
   </energy>
  </scstep>
  <scstep>
   <time name="dav">   21.03   21.08</time>
   <time name="total">   21.06   21.12</time>
   <energy>
    <i name="alphaZ">     90.07986500 </i>
    <i name="ewald">  44611.00326217 </i>
    <i name="hartreedc"> -50622.49005085 </i>
    <i name="XCdc">   -233.40581583 </i>
    <i name="pawpsdc">   4085.22401634 </i>
    <i name="pawaedc">  -3501.20463470 </i>
    <i name="eentropy">     -0.21040880 </i>
    <i name="bandstr">  -1381.96346908 </i>
    <i name="atom">   6761.44252427 </i>
    <i name="e_fr_energy">   -191.52471147 </i>
    <i name="e_wo_entrp">   -191.31430267 </i>
    <i name="e_0_energy">   -191.41950707 </i>
   </energy>
  </scstep>
  <structure>
   <crystal>
    <varray name="basis" >
     <v>       8.26828839       4.79052124       0.00000000 </v>
     <v>      -8.26838369       4.79068434       0.00000000 </v>
     <v>       0.00000000       0.00000000      30.00000000 </v>
    </varray>
    <i name="volume">   2376.61882514 </i>
    <varray name="rec_basis" >
     <v>       0.06047269       0.10437160       0.00000000 </v>
     <v>      -0.06047063       0.10437040       0.00000000 </v>
     <v>       0.00000000       0.00000000       0.03333333 </v>
    </varray>
   </crystal>
   <varray name="positions" >
    <v>       0.98841746       0.32786657       0.00051178 </v>
    <v>      -0.00160319       0.66811726      -0.00032473 </v>
[...]
      <set comment="kpoint 31">
       <r>  -17.4937    1.0000 </r>
       <r>  -17.2727    1.0000 </r>
       <r>  -16.8931    1.0000 </r>
       <r>  -16.5563    1.0000 </r>
       <r>  -16.4818    1.0000 </r>
       <r>  -16.4229    1.0000 </r>
       <r>  -16.2539    1.0000 </r>
       <r>  -16.1776    1.0000 </r>
       <r>  -16.1547    1.0000 </r>
       <r>  -16.0598    1.0000 </r>
       <r>  -15.9859    1.0000 </r>
       <r>  -15.8432    1.0000 </r>
       <r>  -15.7530    1.0000 </r>
       <r>  -15.7078    1.0000 </r>
       <r>  -15.6262    1.0000 </r>
       <r>  -15.5192    1.0000 </r>
       <r>  -15.4244    1.0000 </r>
       <r>  -15.3351    1.0000 </r>
       <r>   -9.7372    1.0000 </r>
       <r>   -9.4184    1.0000 </r>
       <r>   -9.3090    1.0000 </r>
       <r>   -8.9371    1.0000 </r>
       <r>   -8.8451    1.0000 </r>
       <r>   -8.7340    1.0000 </r>
       <r>   -8.5742    1.0000 </r>
       <r>   -8.5154    1.0000 </r>
       <r>   -8.3947    1.0000 </r>
       <r>   -8.3339    1.0000 </r>
       <r>   -8.2690    1.0000 </r>
       <r>   -8.1897    1.0000 </r>
       <r>   -8.1063    1.0000 </r>
       <r>   -8.0699    1.0000 </r>
       <r>   -7.9782    1.0000 </r>
       <r>   -7.9151    1.0000 </r>
       <r>   -7.7866    1.0000 </r>
       <r>   -7.6708    1.0000 </r>
       <r>   -7.5590    1.0000 </r>
       <r>   -7.4197    1.0000 </r>
       <r>   -7.3340    1.0000 </r>
       <r>   -7.1887    1.0000 </r>
       <r>   -7.1197    1.0000 </r>
       <r>   -7.0510    1.0000 </r>
       <r>   -7.0051    1.0000 </r>
       <r>   -6.9530    1.0000 </r>
       <r>   -6.8804    1.0000 </r>
       <r>   -6.8004    1.0000 </r>
       <r>   -6.7220    1.0000 </r>
       <r>   -6.6684    1.0000 </r>
       <r>   -6.5172    1.0000 </r>
       <r>   -6.4306    1.0000 </r>
       <r>   -6.3882    1.0000 </r>
       <r>   -6.3503    1.0000 </r>
       <r>   -6.2832    1.0000 </r>
       <r>   -6.1563    1.0000 </r>
       <r>   -6.0848    1.0000 </r>
       <r>   -6.0801    1.0000 </r>
       <r>   -6.0354    1.0000 </r>
       <r>   -5.9320    1.0000 </r>
       <r>   -5.8848    1.0000 </r>
       <r>   -5.8281    1.0000 </r>
       <r>   -5.7341    1.0000 </r>
       <r>   -5.6392    1.0000 </r>
       <r>   -5.5309    1.0000 </r>
       <r>   -5.4563    1.0000 </r>
       <r>   -5.3424    1.0000 </r>
       <r>   -5.1479    1.0000 </r>
       <r>   -5.1126    1.0000 </r>
       <r>   -4.9330    1.0000 </r>
       <r>   -4.8199    1.0000 </r>
       <r>   -4.7078    1.0000 </r>
       <r>   -4.5565    1.0000 </r>
       <r>   -4.3908    1.0000 </r>
       <r>   -4.2958    1.0000 </r>
       <r>   -4.2344    1.0000 </r>
       <r>   -4.0885    1.0000 </r>
       <r>   -3.9866    1.0000 </r>
       <r>   -3.8168    0.9999 </r>
       <r>   -3.6137    0.9881 </r>
       <r>   -3.4986    0.9261 </r>
       <r>   -3.2573    0.3978 </r>
       <r>   -3.0849    0.0698 </r>
       <r>   -2.8493    0.0008 </r>
       <r>   -2.8116    0.0003 </r>
       <r>   -2.6639    0.0000 </r>
       <r>   -2.5628    0.0000 </r>
       <r>   -2.3761    0.0000 </r>
       <r>   -2.2714    0.0000 </r>
       <r>   -2.1530    0.0000 </r>
       <r>   -2.1077    0.0000 </r>
       <r>   -2.0355    0.0000 </r>
       <r>   -1.7850    0.0000 </r>
       <r>   -1.5914    0.0000 </r>
       <r>   -1.4909    0.0000 </r>
       <r>   -1.3507    0.0000 </r>
       <r>   -1.2841    0.0000 </r>
       <r>   -1.2111    0.0000 </r>
       <r>   -1.1165    0.0000 </r>
       <r>   -1.0792    0.0000 </r>
       <r>   -0.9579    0.0000 </r>
       <r>   -0.9260    0.0000 </r>
       <r>   -0.8500    0.0000 </r>
       <r>   -0.7561    0.0000 </r>
       <r>   -0.5766    0.0000 </r>
       <r>   -0.5388    0.0000 </r>
       <r>   -0.4235    0.0000 </r>
       <r>   -0.3849    0.0000 </r>
       <r>   -0.2756    0.0000 </r>
       <r>   -0.1521    0.0000 </r>
       <r>    0.0023    0.0000 </r>
       <r>    0.2543    0.0000 </r>
       <r>    0.3958    0.0000 </r>
       <r>    0.5285    0.0000 </r>
       <r>    0.7914    0.0000 </r>
       <r>    0.8779    0.0000 </r>
       <r>    1.1026    0.0000 </r>
       <r>    1.2278    0.0000 </r>
       <r>    1.3192    0.0000 </r>
       <r>    2.1313    0.0000 </r>
       <r>    2.2862    0.0000 </r>
       <r>    2.3876    0.0000 </r>
      </set>
      <set comment="kpoint 32">
       <r>  -17.5204    1.0000 </r>
       <r>  -17.1574    1.0000 </r>
       <r>  -17.0321    1.0000 </r>
       <r>  -16.5392    1.0000 </r>
       <r>  -16.4814    1.0000 </r>
       <r>  -16.3057    1.0000 </r>
       <r>  -16.2802    1.0000 </r>
       <r>  -16.2166    1.0000 </r>
       <r>  -16.1545    1.0000 </r>
       <r>  -16.0492    1.0000 </r>
       <r>  -15.9980    1.0000 </r>
       <r>  -15.8795    1.0000 </r>
       <r>  -15.7897    1.0000 </r>
       <r>  -15.6853    1.0000 </r>
       <r>  -15.6041    1.0000 </r>
       <r>  -15.5087    1.0000 </r>
       <r>  -15.4264    1.0000 </r>
       <r>  -15.3309    1.0000 </r>
       <r>   -9.6530    1.0000 </r>
       <r>   -9.5878    1.0000 </r>
       <r>   -9.3397    1.0000 </r>
       <r>   -8.9211    1.0000 </r>
       <r>   -8.7696    1.0000 </r>
       <r>   -8.6071    1.0000 </r>
       <r>   -8.5489    1.0000 </r>
       <r>   -8.4814    1.0000 </r>
       <r>   -8.4030    1.0000 </r>
       <r>   -8.3246    1.0000 </r>
       <r>   -8.2916    1.0000 </r>
       <r>   -8.2259    1.0000 </r>
       <r>   -8.1569    1.0000 </r>
       <r>   -8.1019    1.0000 </r>
       <r>   -8.0213    1.0000 </r>
       <r>   -7.9387    1.0000 </r>
       <r>   -7.8161    1.0000 </r>
       <r>   -7.6263    1.0000 </r>
       <r>   -7.5232    1.0000 </r>
       <r>   -7.4596    1.0000 </r>
       <r>   -7.3174    1.0000 </r>
       <r>   -7.2344    1.0000 </r>
       <r>   -7.1758    1.0000 </r>
       <r>   -7.0613    1.0000 </r>
       <r>   -6.9939    1.0000 </r>
       <r>   -6.8841    1.0000 </r>
       <r>   -6.8470    1.0000 </r>
       <r>   -6.8079    1.0000 </r>
       <r>   -6.7211    1.0000 </r>
       <r>   -6.6304    1.0000 </r>
       <r>   -6.5401    1.0000 </r>
       <r>   -6.4523    1.0000 </r>
       <r>   -6.3826    1.0000 </r>
       <r>   -6.3395    1.0000 </r>
       <r>   -6.2979    1.0000 </r>
       <r>   -6.1930    1.0000 </r>
       <r>   -6.1194    1.0000 </r>
       <r>   -6.0598    1.0000 </r>
       <r>   -5.9762    1.0000 </r>
       <r>   -5.9371    1.0000 </r>
       <r>   -5.8694    1.0000 </r>
       <r>   -5.7387    1.0000 </r>
       <r>   -5.6907    1.0000 </r>
       <r>   -5.5899    1.0000 </r>
       <r>   -5.4933    1.0000 </r>
       <r>   -5.4068    1.0000 </r>
       <r>   -5.3324    1.0000 </r>
       <r>   -5.2957    1.0000 </r>
       <r>   -5.1850    1.0000 </r>
       <r>   -5.0257    1.0000 </r>
       <r>   -4.8209    1.0000 </r>
       <r>   -4.6453    1.0000 </r>
       <r>   -4.5316    1.0000 </r>
       <r>   -4.4559    1.0000 </r>
       <r>   -4.3295    1.0000 </r>
       <r>   -4.2378    1.0000 </r>
       <r>   -4.0805    1.0000 </r>
       <r>   -4.0181    1.0000 </r>
       <r>   -3.8171    0.9999 </r>
       <r>   -3.5564    0.9683 </r>
       <r>   -3.4142    0.8025 </r>
       <r>   -3.2642    0.4170 </r>
       <r>   -3.1457    0.1473 </r>
       <r>   -2.8319    0.0005 </r>
       <r>   -2.8146    0.0004 </r>
       <r>   -2.6717    0.0000 </r>
       <r>   -2.5535    0.0000 </r>
       <r>   -2.4088    0.0000 </r>
       <r>   -2.2585    0.0000 </r>
       <r>   -2.1554    0.0000 </r>
       <r>   -2.1220    0.0000 </r>
       <r>   -2.0639    0.0000 </r>
       <r>   -1.7693    0.0000 </r>
       <r>   -1.5842    0.0000 </r>
       <r>   -1.4609    0.0000 </r>
       <r>   -1.3357    0.0000 </r>
       <r>   -1.3022    0.0000 </r>
       <r>   -1.2173    0.0000 </r>
       <r>   -1.1703    0.0000 </r>
       <r>   -1.0578    0.0000 </r>
       <r>   -0.9830    0.0000 </r>
       <r>   -0.9164    0.0000 </r>
       <r>   -0.8522    0.0000 </r>
       <r>   -0.7534    0.0000 </r>
       <r>   -0.5905    0.0000 </r>
       <r>   -0.4831    0.0000 </r>
       <r>   -0.4347    0.0000 </r>
       <r>   -0.3631    0.0000 </r>
       <r>   -0.2443    0.0000 </r>
       <r>   -0.1152    0.0000 </r>
       <r>    0.0251    0.0000 </r>
       <r>    0.1651    0.0000 </r>
       <r>    0.3978    0.0000 </r>
       <r>    0.5161    0.0000 </r>
       <r>    0.8299    0.0000 </r>
       <r>    0.8933    0.0000 </r>
       <r>    1.1165    0.0000 </r>
       <r>    1.1760    0.0000 </r>
       <r>    1.2907    0.0000 </r>
       <r>    2.1020    0.0000 </r>
       <r>    2.2516    0.0000 </r>
       <r>    2.5592    0.0000 </r>
      </set>
      <set comment="kpoint 33">
       <r>  -17.5185    1.0000 </r>
       <r>  -17.2160    1.0000 </r>
       <r>  -16.9185    1.0000 </r>
       <r>  -16.5454    1.0000 </r>
       <r>  -16.5244    1.0000 </r>
       <r>  -16.4302    1.0000 </r>
       <r>  -16.2427    1.0000 </r>
       <r>  -16.2094    1.0000 </r>
       <r>  -16.1242    1.0000 </r>
       <r>  -16.0258    1.0000 </r>
       <r>  -15.9592    1.0000 </r>
       <r>  -15.8663    1.0000 </r>
       <r>  -15.8172    1.0000 </r>
       <r>  -15.6757    1.0000 </r>
       <r>  -15.6205    1.0000 </r>
       <r>  -15.4835    1.0000 </r>
       <r>  -15.4377    1.0000 </r>
       <r>  -15.3430    1.0000 </r>
       <r>   -9.7435    1.0000 </r>
       <r>   -9.4702    1.0000 </r>
       <r>   -9.2598    1.0000 </r>
       <r>   -8.9781    1.0000 </r>
       <r>   -8.8527    1.0000 </r>
       <r>   -8.7021    1.0000 </r>
       <r>   -8.5967    1.0000 </r>
       <r>   -8.4925    1.0000 </r>
       <r>   -8.4118    1.0000 </r>
       <r>   -8.3446    1.0000 </r>
       <r>   -8.3026    1.0000 </r>
       <r>   -8.1950    1.0000 </r>
       <r>   -8.0698    1.0000 </r>
       <r>   -8.0196    1.0000 </r>
       <r>   -7.9492    1.0000 </r>
       <r>   -7.8605    1.0000 </r>
       <r>   -7.8137    1.0000 </r>
       <r>   -7.6593    1.0000 </r>
       <r>   -7.6121    1.0000 </r>
       <r>   -7.4897    1.0000 </r>
       <r>   -7.3412    1.0000 </r>
       <r>   -7.2804    1.0000 </r>
       <r>   -7.1007    1.0000 </r>
       <r>   -6.9882    1.0000 </r>
       <r>   -6.9418    1.0000 </r>
       <r>   -6.9131    1.0000 </r>
       <r>   -6.8613    1.0000 </r>
       <r>   -6.7664    1.0000 </r>
       <r>   -6.6998    1.0000 </r>
       <r>   -6.6031    1.0000 </r>
       <r>   -6.5644    1.0000 </r>
       <r>   -6.4950    1.0000 </r>
       <r>   -6.4176    1.0000 </r>
       <r>   -6.3482    1.0000 </r>
       <r>   -6.2707    1.0000 </r>
       <r>   -6.1920    1.0000 </r>
       <r>   -6.0912    1.0000 </r>
       <r>   -6.0408    1.0000 </r>
       <r>   -6.0056    1.0000 </r>
       <r>   -5.9422    1.0000 </r>
       <r>   -5.8754    1.0000 </r>
       <r>   -5.8364    1.0000 </r>
       <r>   -5.7352    1.0000 </r>
       <r>   -5.6805    1.0000 </r>
       <r>   -5.5047    1.0000 </r>
       <r>   -5.4241    1.0000 </r>
       <r>   -5.3435    1.0000 </r>
       <r>   -5.1595    1.0000 </r>
       <r>   -5.0919    1.0000 </r>
       <r>   -5.0109    1.0000 </r>
       <r>   -4.7996    1.0000 </r>
       <r>   -4.6725    1.0000 </r>
       <r>   -4.5700    1.0000 </r>
       <r>   -4.4089    1.0000 </r>
       <r>   -4.3148    1.0000 </r>
       <r>   -4.2369    1.0000 </r>
       <r>   -4.0958    1.0000 </r>
       <r>   -4.0643    1.0000 </r>
       <r>   -3.8343    0.9999 </r>
       <r>   -3.5219    0.9466 </r>
       <r>   -3.3794    0.7274 </r>
       <r>   -3.3262    0.5905 </r>
       <r>   -3.1570    0.1665 </r>
       <r>   -2.8429    0.0007 </r>
       <r>   -2.8183    0.0004 </r>
       <r>   -2.6055    0.0000 </r>
       <r>   -2.5684    0.0000 </r>
       <r>   -2.4575    0.0000 </r>
       <r>   -2.2403    0.0000 </r>
       <r>   -2.1661    0.0000 </r>
       <r>   -2.1438    0.0000 </r>
       <r>   -2.0538    0.0000 </r>
       <r>   -1.7404    0.0000 </r>
       <r>   -1.5764    0.0000 </r>
       <r>   -1.4221    0.0000 </r>
       <r>   -1.3489    0.0000 </r>
       <r>   -1.3054    0.0000 </r>
       <r>   -1.2512    0.0000 </r>
       <r>   -1.2181    0.0000 </r>
       <r>   -1.0651    0.0000 </r>
       <r>   -0.9616    0.0000 </r>
       <r>   -0.8999    0.0000 </r>
       <r>   -0.8391    0.0000 </r>
       <r>   -0.7475    0.0000 </r>
       <r>   -0.6292    0.0000 </r>
       <r>   -0.5359    0.0000 </r>
       <r>   -0.4245    0.0000 </r>
       <r>   -0.3559    0.0000 </r>
       <r>   -0.1937    0.0000 </r>
       <r>   -0.0514    0.0000 </r>
       <r>    0.0025    0.0000 </r>
       <r>    0.1526    0.0000 </r>
       <r>    0.3241    0.0000 </r>
       <r>    0.5801    0.0000 </r>
       <r>    0.8027    0.0000 </r>
       <r>    0.9295    0.0000 </r>
       <r>    1.1535    0.0000 </r>
       <r>    1.1804    0.0000 </r>
       <r>    1.2841    0.0000 </r>
       <r>    2.1346    0.0000 </r>
       <r>    2.2784    0.0000 </r>
       <r>    2.4003    0.0000 </r>
      </set>
      <set comment="kpoint 34">
       <r>  -17.5097    1.0000 </r>
       <r>  -17.2638    1.0000 </r>
       <r>  -16.7216    1.0000 </r>
       <r>  -16.7176    1.0000 </r>
       <r>  -16.5329    1.0000 </r>
       <r>  -16.4607    1.0000 </r>
       <r>  -16.2146    1.0000 </r>
       <r>  -16.2006    1.0000 </r>
       <r>  -16.1562    1.0000 </r>
       <r>  -16.0044    1.0000 </r>
       <r>  -15.9229    1.0000 </r>
       <r>  -15.8622    1.0000 </r>
       <r>  -15.8026    1.0000 </r>
       <r>  -15.6811    1.0000 </r>
       <r>  -15.6386    1.0000 </r>
       <r>  -15.4641    1.0000 </r>
       <r>  -15.4505    1.0000 </r>
       <r>  -15.3539    1.0000 </r>
       <r>   -9.7871    1.0000 </r>
       <r>   -9.2966    1.0000 </r>
       <r>   -9.2671    1.0000 </r>
       <r>   -9.0178    1.0000 </r>
       <r>   -8.9455    1.0000 </r>
       <r>   -8.7926    1.0000 </r>
       <r>   -8.6062    1.0000 </r>
       <r>   -8.5238    1.0000 </r>
       <r>   -8.4311    1.0000 </r>
       <r>   -8.3550    1.0000 </r>
       <r>   -8.2660    1.0000 </r>
       <r>   -8.1796    1.0000 </r>
       <r>   -8.0120    1.0000 </r>
       <r>   -7.9572    1.0000 </r>
       <r>   -7.8801    1.0000 </r>
       <r>   -7.8295    1.0000 </r>
       <r>   -7.8202    1.0000 </r>
       <r>   -7.6864    1.0000 </r>
       <r>   -7.6551    1.0000 </r>
       <r>   -7.4981    1.0000 </r>
       <r>   -7.3893    1.0000 </r>
       <r>   -7.2918    1.0000 </r>
       <r>   -7.0045    1.0000 </r>
       <r>   -6.9541    1.0000 </r>
       <r>   -6.9305    1.0000 </r>
       <r>   -6.8898    1.0000 </r>
       <r>   -6.8827    1.0000 </r>
       <r>   -6.7423    1.0000 </r>
       <r>   -6.6776    1.0000 </r>
       <r>   -6.6168    1.0000 </r>
       <r>   -6.6056    1.0000 </r>
       <r>   -6.5409    1.0000 </r>
       <r>   -6.4182    1.0000 </r>
       <r>   -6.3629    1.0000 </r>
       <r>   -6.2012    1.0000 </r>
       <r>   -6.1835    1.0000 </r>
       <r>   -6.1607    1.0000 </r>
       <r>   -6.0770    1.0000 </r>
       <r>   -5.9789    1.0000 </r>
       <r>   -5.9141    1.0000 </r>
       <r>   -5.9054    1.0000 </r>
       <r>   -5.8450    1.0000 </r>
       <r>   -5.8395    1.0000 </r>
       <r>   -5.6697    1.0000 </r>
       <r>   -5.5214    1.0000 </r>
       <r>   -5.4734    1.0000 </r>
       <r>   -5.3889    1.0000 </r>
       <r>   -5.0915    1.0000 </r>
       <r>   -4.9744    1.0000 </r>
       <r>   -4.8782    1.0000 </r>
       <r>   -4.8073    1.0000 </r>
       <r>   -4.7817    1.0000 </r>
       <r>   -4.5978    1.0000 </r>
       <r>   -4.3641    1.0000 </r>
       <r>   -4.2563    1.0000 </r>
       <r>   -4.2175    1.0000 </r>
       <r>   -4.1952    1.0000 </r>
       <r>   -4.0392    1.0000 </r>
       <r>   -3.8591    1.0000 </r>
       <r>   -3.5119    0.9384 </r>
       <r>   -3.4054    0.7848 </r>
       <r>   -3.3318    0.6058 </r>
       <r>   -3.1675    0.1857 </r>
       <r>   -2.8466    0.0008 </r>
       <r>   -2.8016    0.0002 </r>
       <r>   -2.5869    0.0000 </r>
       <r>   -2.5371    0.0000 </r>
       <r>   -2.5164    0.0000 </r>
       <r>   -2.2248    0.0000 </r>
       <r>   -2.1838    0.0000 </r>
       <r>   -2.1461    0.0000 </r>
       <r>   -2.0392    0.0000 </r>
       <r>   -1.7255    0.0000 </r>
       <r>   -1.5714    0.0000 </r>
       <r>   -1.4079    0.0000 </r>
       <r>   -1.3525    0.0000 </r>
       <r>   -1.3219    0.0000 </r>
       <r>   -1.2712    0.0000 </r>
       <r>   -1.2249    0.0000 </r>
       <r>   -1.0722    0.0000 </r>
       <r>   -0.9451    0.0000 </r>
       <r>   -0.9012    0.0000 </r>
       <r>   -0.8214    0.0000 </r>
       <r>   -0.7048    0.0000 </r>
       <r>   -0.6977    0.0000 </r>
       <r>   -0.5074    0.0000 </r>
       <r>   -0.4786    0.0000 </r>
       <r>   -0.3745    0.0000 </r>
       <r>   -0.1648    0.0000 </r>
       <r>   -0.0915    0.0000 </r>
       <r>    0.1167    0.0000 </r>
       <r>    0.1605    0.0000 </r>
       <r>    0.2305    0.0000 </r>
       <r>    0.6416    0.0000 </r>
       <r>    0.7480    0.0000 </r>
       <r>    0.9610    0.0000 </r>
       <r>    1.1639    0.0000 </r>
       <r>    1.2006    0.0000 </r>
       <r>    1.2932    0.0000 </r>
       <r>    2.2112    0.0000 </r>
       <r>    2.2557    0.0000 </r>
       <r>    2.3549    0.0000 </r>
      </set>
     </set>
    </set>
   </array>
  </eigenvalues>
  <separator name="orbital magnetization" >
   <v name="MAGDIPOLOUT">      0.00000000      0.00000000      0.00000000</v>
  </separator>
 </calculation>
 <structure name="finalpos" >
  <crystal>
   <varray name="basis" >
    <v>       8.33561878       4.84257893       0.00000000 </v>
    <v>      -8.33457271       4.84078052       0.00000000 </v>
    <v>       0.00000000       0.00000000      30.00000000 </v>
   </varray>
   <i name="volume">   2421.35181671 </i>
   <varray name="rec_basis" >
    <v>       0.05997617       0.10326347       0.00000000 </v>
    <v>      -0.05999845       0.10327643       0.00000000 </v>
    <v>       0.00000000       0.00000000       0.03333333 </v>
   </varray>
  </crystal>
  <varray name="positions" >
   <v>       0.97547947       0.33745772       0.00049659 </v>
   <v>      -0.00704036       0.67386193      -0.00016113 </v>
   <v>       0.32883380       0.69113802       0.00044666 </v>
   <v>       0.65025440       0.30533080       0.00048301 </v>
   <v>       0.65897281       0.00743788       0.00041224 </v>
   <v>       0.36206071       0.01595370       0.00045625 </v>
   <v>      -0.02197269      -0.02586957      -0.00098779 </v>
   <v>       0.35085077       0.31588113      -0.00039122 </v>
   <v>       0.69298672       0.68715355      -0.00110373 </v>
   <v>       0.10821199       0.22305516       0.95412654 </v>
   <v>       0.22053139       0.10586262       0.05080174 </v>
   <v>       0.10873841       0.55799969       0.95248479 </v>
   <v>       0.22194805       0.44461513       0.04194718 </v>
   <v>       0.11497295       0.88670877       0.95103888 </v>
   <v>       0.22054563       0.77968467       0.05071086 </v>
   <v>       0.44870455       0.21744125       0.94287933 </v>
   <v>       0.55823527       0.10890064       0.05754678 </v>
   <v>       0.44332442       0.55816776       0.95423509 </v>
   <v>       0.56038442       0.44617910       0.05093686 </v>
   <v>       0.44372359       0.88601049       0.94624096 </v>
   <v>       0.55080504       0.77325804       0.04940906 </v>
   <v>       0.78023636       0.22282792       0.94635750 </v>
   <v>       0.89296898       0.11556031       0.04961946 </v>
   <v>       0.78047866       0.55169482       0.95074670 </v>
   <v>       0.88708281       0.44622273       0.05063933 </v>
   <v>       0.77439824       0.89149972       0.94541455 </v>
   <v>       0.89249806       0.77418049       0.05521340 </v>
  </varray>
 </structure>
</modeling>
