       N       E                     dE             d eps       ncg     rms          rms(c)
DAV:   1     0.112629951638E+04    0.11263E+04   -0.35984E+04  8160   0.577E+02
DAV:   2     0.959889635477E+00   -0.11253E+04   -0.10801E+04 11200   0.173E+02
DAV:   3    -0.199627839357E+03   -0.20059E+03   -0.19226E+03 10880   0.824E+01
DAV:   4    -0.208997223688E+03   -0.93694E+01   -0.91177E+01 12200   0.265E+01
DAV:   5    -0.209307606526E+03   -0.31038E+00   -0.30964E+00 11160   0.354E+00    0.275E+01
DAV:   6    -0.236791687071E+03   -0.27484E+02   -0.11026E+02 12640   0.603E+01    0.595E+01
DAV:   7    -0.196505262772E+03    0.40286E+02   -0.17780E+02 13360   0.152E+02    0.200E+01
DAV:   8    -0.189484344681E+03    0.70209E+01   -0.17620E+01 11920   0.128E+01    0.127E+01
DAV:   9    -0.188168984442E+03    0.13154E+01   -0.31250E+00 12440   0.630E+00    0.915E+00
DAV:  10    -0.187033634274E+03    0.11354E+01   -0.21294E+00 13400   0.740E+00    0.303E+00
DAV:  11    -0.186942543709E+03    0.91091E-01   -0.59147E-01 12320   0.231E+00    0.231E+00
DAV:  12    -0.187048635205E+03   -0.10609E+00   -0.66417E-01 12520   0.411E+00    0.450E+00
DAV:  13    -0.186881407627E+03    0.16723E+00   -0.44570E-01 12600   0.390E+00    0.208E+00
DAV:  14    -0.186845981506E+03    0.35426E-01   -0.10683E-01 13240   0.179E+00    0.125E+00
DAV:  15    -0.186839944570E+03    0.60369E-02   -0.61840E-02 12040   0.147E+00    0.107E+00
DAV:  16    -0.186829735553E+03    0.10209E-01   -0.18676E-02 12960   0.678E-01    0.464E-01
DAV:  17    -0.186827630179E+03    0.21054E-02   -0.89947E-03 12760   0.464E-01    0.243E-01
DAV:  18    -0.186827283437E+03    0.34674E-03   -0.21009E-03 11920   0.139E-01    0.175E-01
DAV:  19    -0.186826929562E+03    0.35387E-03   -0.95093E-04 10240   0.127E-01    0.515E-02
DAV:  20    -0.186827519997E+03   -0.59044E-03   -0.61413E-04  9360   0.576E-02    0.547E-02
DAV:  21    -0.186828179115E+03   -0.65912E-03   -0.40202E-04  9200   0.570E-02    0.437E-02
DAV:  22    -0.186829362458E+03   -0.11833E-02   -0.22947E-04  7520   0.596E-02    0.410E-02
DAV:  23    -0.186830624145E+03   -0.12617E-02   -0.15289E-04  7520   0.465E-02    0.115E-02
DAV:  24    -0.186831222197E+03   -0.59805E-03   -0.31843E-05  6640   0.141E-02    0.905E-03
DAV:  25    -0.186831608003E+03   -0.38581E-03   -0.17706E-05  5640   0.136E-02    0.558E-03
DAV:  26    -0.186831825403E+03   -0.21740E-03   -0.85394E-06  6840   0.746E-03    0.207E-03
DAV:  27    -0.186831932787E+03   -0.10738E-03   -0.39626E-06  6880   0.442E-03    0.127E-03
DAV:  28    -0.186831977976E+03   -0.45190E-04   -0.21150E-06  7280   0.349E-03
   1 F= -.18683198E+03 E0= -.18665923E+03  d E =-.186832E+03
       N       E                     dE             d eps       ncg     rms          rms(c)
DAV:   1    -0.187464339799E+03   -0.63241E+00   -0.27303E+02  8160   0.351E+01    0.463E+00
DAV:   2    -0.189361419566E+03   -0.18971E+01   -0.20256E+01 12200   0.153E+01    0.867E+00
DAV:   3    -0.189343572412E+03    0.17847E-01   -0.40201E+00 12480   0.120E+01    0.670E+00
DAV:   4    -0.188739530055E+03    0.60404E+00   -0.64049E-01 12640   0.469E+00    0.185E+00
DAV:   5    -0.188745004406E+03   -0.54744E-02   -0.29613E-01 11080   0.148E+00    0.228E+00
DAV:   6    -0.188671481083E+03    0.73523E-01   -0.28722E-01 11240   0.162E+00    0.138E+00
DAV:   7    -0.188689006594E+03   -0.17526E-01   -0.15411E-01 12160   0.225E+00    0.233E+00
DAV:   8    -0.188647409150E+03    0.41597E-01   -0.78350E-02 13080   0.171E+00    0.537E-01
DAV:   9    -0.188644365675E+03    0.30435E-02   -0.93968E-03 11160   0.464E-01    0.399E-01
DAV:  10    -0.188644142902E+03    0.22277E-03   -0.56158E-03 13560   0.423E-01    0.351E-01
DAV:  11    -0.188643157397E+03    0.98550E-03   -0.32856E-03 12960   0.276E-01    0.130E-01
DAV:  12    -0.188643202077E+03   -0.44679E-04   -0.10026E-03 12240   0.938E-02    0.107E-01
DAV:  13    -0.188643111673E+03    0.90404E-04   -0.32123E-04  7600   0.619E-02
   2 F= -.18864311E+03 E0= -.18850076E+03  d E =-.181113E+01
       N       E                     dE             d eps       ncg     rms          rms(c)
DAV:   1    -0.190562949110E+03   -0.19197E+01   -0.31196E+01  9240   0.142E+01    0.445E+00
DAV:   2    -0.190550404368E+03    0.12545E-01   -0.28449E+00 11440   0.969E+00    0.744E+00
DAV:   3    -0.190037299678E+03    0.51310E+00   -0.13544E+00 12360   0.865E+00    0.413E+00
DAV:   4    -0.189831869884E+03    0.20543E+00   -0.70737E-01 12760   0.407E+00    0.246E+00
DAV:   5    -0.189744323776E+03    0.87546E-01   -0.29101E-01 11640   0.187E+00    0.819E-01
DAV:   6    -0.189729327830E+03    0.14996E-01   -0.38993E-02 10600   0.656E-01    0.215E-01
DAV:   7    -0.189730590986E+03   -0.12632E-02   -0.70384E-03 12240   0.358E-01    0.350E-01
DAV:   8    -0.189729866028E+03    0.72496E-03   -0.27414E-03 11520   0.335E-01    0.197E-01
DAV:   9    -0.189729841358E+03    0.24670E-04   -0.11173E-03 10120   0.171E-01    0.130E-01
DAV:  10    -0.189729789900E+03    0.51458E-04   -0.52969E-04  9640   0.950E-02
   3 F= -.18972979E+03 E0= -.18960925E+03  d E =-.108668E+01
       N       E                     dE             d eps       ncg     rms          rms(c)
DAV:   1    -0.191291755520E+03   -0.15619E+01   -0.74963E+01  8160   0.198E+01    0.463E+00
DAV:   2    -0.191190735497E+03    0.10102E+00   -0.55196E+00 13120   0.845E+00    0.531E+00
DAV:   3    -0.191197118731E+03   -0.63832E-02   -0.16493E+00 12160   0.926E+00    0.628E+00
DAV:   4    -0.190861127900E+03    0.33599E+00   -0.13401E+00 12880   0.722E+00    0.318E+00
DAV:   5    -0.190846985028E+03    0.14143E-01   -0.55064E-01 11920   0.479E+00    0.333E+00
DAV:   6    -0.190712001713E+03    0.13498E+00   -0.22177E-01 12240   0.331E+00    0.951E-01
DAV:   7    -0.190703230990E+03    0.87707E-02   -0.42645E-02 12360   0.985E-01    0.467E-01
DAV:   8    -0.190702605327E+03    0.62566E-03   -0.11486E-02 11400   0.669E-01    0.545E-01
DAV:   9    -0.190699947319E+03    0.26580E-02   -0.43689E-03 11440   0.490E-01    0.149E-01
DAV:  10    -0.190700206705E+03   -0.25939E-03   -0.11117E-03 10400   0.134E-01    0.114E-01
DAV:  11    -0.190700084409E+03    0.12230E-03   -0.80047E-04 10520   0.978E-02    0.515E-02
DAV:  12    -0.190700068466E+03    0.15943E-04   -0.15530E-04  7960   0.457E-02
   4 F= -.19070007E+03 E0= -.19059564E+03  d E =-.970279E+00
       N       E                     dE             d eps       ncg     rms          rms(c)
DAV:   1    -0.192020990176E+03   -0.13209E+01   -0.15610E+02  8160   0.279E+01    0.565E+00
DAV:   2    -0.191883068566E+03    0.13792E+00   -0.94983E+00 12240   0.932E+00    0.502E+00
DAV:   3    -0.192208345978E+03   -0.32528E+00   -0.24451E+00 11440   0.109E+01    0.936E+00
DAV:   4    -0.191577371008E+03    0.63097E+00   -0.28226E+00 12080   0.113E+01    0.399E+00
DAV:   5    -0.191510315268E+03    0.67056E-01   -0.80040E-01 12240   0.581E+00    0.367E+00
DAV:   6    -0.191332924727E+03    0.17739E+00   -0.29077E-01 12240   0.394E+00    0.967E-01
DAV:   7    -0.191326224103E+03    0.67006E-02   -0.56152E-02 12240   0.118E+00    0.588E-01
DAV:   8    -0.191324468974E+03    0.17551E-02   -0.19844E-02 11920   0.865E-01    0.644E-01
DAV:   9    -0.191320589397E+03    0.38796E-02   -0.68393E-03 11840   0.592E-01    0.178E-01
DAV:  10    -0.191321024800E+03   -0.43540E-03   -0.20563E-03 11000   0.173E-01    0.125E-01
DAV:  11    -0.191320787021E+03    0.23778E-03   -0.80361E-04 11280   0.107E-01    0.481E-02
DAV:  12    -0.191320788878E+03   -0.18566E-05   -0.11835E-04  6520   0.405E-02
   5 F= -.19132079E+03 E0= -.19122023E+03  d E =-.620720E+00
       N       E                     dE             d eps       ncg     rms          rms(c)
DAV:   1    -0.191361648265E+03   -0.40861E-01   -0.37244E+00  8160   0.406E+00    0.511E-01
DAV:   2    -0.191402727368E+03   -0.41079E-01   -0.20282E-01 12600   0.231E+00    0.181E+00
DAV:   3    -0.191373288536E+03    0.29439E-01   -0.70301E-02 12120   0.181E+00    0.450E-01
DAV:   4    -0.191373192686E+03    0.95850E-04   -0.93946E-03 11040   0.665E-01    0.452E-01
DAV:   5    -0.191371122604E+03    0.20701E-02   -0.50548E-03 10280   0.514E-01    0.192E-01
DAV:   6    -0.191371004198E+03    0.11841E-03   -0.15926E-03 10280   0.218E-01    0.159E-01
DAV:   7    -0.191371363789E+03   -0.35959E-03   -0.21002E-03 10480   0.328E-01    0.248E-01
DAV:   8    -0.191370723240E+03    0.64055E-03   -0.10420E-03  9080   0.223E-01    0.331E-02
DAV:   9    -0.191370737075E+03   -0.13835E-04   -0.88167E-05  5880   0.367E-02
   6 F= -.19137074E+03 E0= -.19126842E+03  d E =-.499482E-01
       N       E                     dE             d eps       ncg     rms          rms(c)
DAV:   1    -0.191414898669E+03   -0.44175E-01   -0.47318E+00  8160   0.457E+00    0.515E-01
DAV:   2    -0.191446214286E+03   -0.31316E-01   -0.15799E-01 12920   0.181E+00    0.164E+00
DAV:   3    -0.191422996953E+03    0.23217E-01   -0.65420E-02 12200   0.173E+00    0.524E-01
DAV:   4    -0.191421552207E+03    0.14447E-02   -0.93336E-03 11080   0.593E-01    0.402E-01
DAV:   5    -0.191420269471E+03    0.12827E-02   -0.53535E-03 10840   0.524E-01    0.255E-01
DAV:   6    -0.191419874523E+03    0.39495E-03   -0.24760E-03 10120   0.306E-01    0.189E-01
DAV:   7    -0.191420125688E+03   -0.25116E-03   -0.24013E-03 11000   0.347E-01    0.240E-01
DAV:   8    -0.191419529291E+03    0.59640E-03   -0.11098E-03  9160   0.229E-01    0.437E-02
DAV:   9    -0.191419521029E+03    0.82619E-05   -0.99630E-05  5640   0.435E-02
   7 F= -.19141952E+03 E0= -.19131587E+03  d E =-.487840E-01
       N       E                     dE             d eps       ncg     rms          rms(c)
DAV:   1    -0.191432106704E+03   -0.12577E-01   -0.28349E-01  8160   0.114E+00    0.157E-01
DAV:   2    -0.191434155640E+03   -0.20489E-02   -0.11753E-02 12120   0.540E-01    0.438E-01
DAV:   3    -0.191432382191E+03    0.17734E-02   -0.43216E-03 11520   0.463E-01    0.137E-01
DAV:   4    -0.191432448666E+03   -0.66475E-04   -0.96036E-04  8840   0.219E-01
   8 F= -.19143245E+03 E0= -.19132855E+03  d E =-.129276E-01
       N       E                     dE             d eps       ncg     rms          rms(c)
DAV:   1    -0.191404155437E+03    0.28227E-01   -0.16917E+00  8160   0.275E+00    0.314E-01
DAV:   2    -0.191411897097E+03   -0.77417E-02   -0.60700E-02 12240   0.103E+00    0.691E-01
DAV:   3    -0.191406920145E+03    0.49770E-02   -0.13706E-02 12200   0.830E-01    0.258E-01
DAV:   4    -0.191407118610E+03   -0.19846E-03   -0.40036E-03 11080   0.398E-01    0.322E-01
DAV:   5    -0.191406242958E+03    0.87565E-03   -0.29389E-03  9880   0.366E-01    0.158E-01
DAV:   6    -0.191406053417E+03    0.18954E-03   -0.10093E-03  9800   0.170E-01    0.804E-02
DAV:   7    -0.191406075471E+03   -0.22054E-04   -0.46783E-04  9040   0.133E-01
   9 F= -.19140608E+03 E0= -.19130264E+03  d E =0.263732E-01
       N       E                     dE             d eps       ncg     rms          rms(c)
DAV:   1    -0.191430191226E+03   -0.24138E-01   -0.17272E+00  8160   0.277E+00    0.308E-01
DAV:   2    -0.191440077289E+03   -0.98861E-02   -0.56148E-02 12400   0.100E+00    0.906E-01
DAV:   3    -0.191433140989E+03    0.69363E-02   -0.21816E-02 12240   0.992E-01    0.346E-01
DAV:   4    -0.191432189994E+03    0.95100E-03   -0.31693E-03 11080   0.329E-01    0.206E-01
DAV:   5    -0.191431967586E+03    0.22241E-03   -0.17973E-03 10280   0.303E-01    0.170E-01
DAV:   6    -0.191431786517E+03    0.18107E-03   -0.11109E-03 10880   0.206E-01    0.121E-01
DAV:   7    -0.191431863261E+03   -0.76745E-04   -0.91998E-04  9400   0.214E-01
  10 F= -.19143186E+03 E0= -.19132800E+03  d E =-.257878E-01
       N       E                     dE             d eps       ncg     rms          rms(c)
DAV:   1    -0.191451926250E+03   -0.20140E-01   -0.73539E-01  8160   0.186E+00    0.261E-01
DAV:   2    -0.191453836356E+03   -0.19101E-02   -0.24871E-02 13520   0.646E-01    0.442E-01
DAV:   3    -0.191452520129E+03    0.13162E-02   -0.78070E-03 12080   0.634E-01    0.300E-01
DAV:   4    -0.191452015341E+03    0.50479E-03   -0.32065E-03 11040   0.384E-01    0.236E-01
DAV:   5    -0.191451700962E+03    0.31438E-03   -0.21729E-03  9720   0.333E-01    0.189E-01
DAV:   6    -0.191451331212E+03    0.36975E-03   -0.92793E-04  9680   0.194E-01    0.611E-02
DAV:   7    -0.191451326055E+03    0.51570E-05   -0.27675E-04  6520   0.954E-02
  11 F= -.19145133E+03 E0= -.19134720E+03  d E =-.194628E-01
       N       E                     dE             d eps       ncg     rms          rms(c)
DAV:   1    -0.191495128786E+03   -0.43798E-01   -0.34052E+00  8160   0.391E+00    0.476E-01
DAV:   2    -0.191516805180E+03   -0.21676E-01   -0.12199E-01 13000   0.170E+00    0.139E+00
DAV:   3    -0.191499863763E+03    0.16941E-01   -0.43306E-02 12280   0.146E+00    0.428E-01
DAV:   4    -0.191500006532E+03   -0.14277E-03   -0.86067E-03 11480   0.636E-01    0.466E-01
DAV:   5    -0.191498003938E+03    0.20026E-02   -0.63202E-03 10760   0.573E-01    0.251E-01
DAV:   6    -0.191497791694E+03    0.21224E-03   -0.29565E-03 10800   0.318E-01    0.216E-01
DAV:   7    -0.191497750843E+03    0.40850E-04   -0.25346E-03 10120   0.343E-01    0.208E-01
DAV:   8    -0.191497254480E+03    0.49636E-03   -0.83320E-04  8280   0.184E-01    0.317E-02
DAV:   9    -0.191497254366E+03    0.11443E-06   -0.83112E-05  6240   0.350E-02
  12 F= -.19149725E+03 E0= -.19139311E+03  d E =-.459283E-01
       N       E                     dE             d eps       ncg     rms          rms(c)
DAV:   1    -0.191510207687E+03   -0.12953E-01   -0.26707E-01  8160   0.109E+00    0.112E-01
DAV:   2    -0.191511397354E+03   -0.11897E-02   -0.73203E-03 12560   0.364E-01    0.303E-01
DAV:   3    -0.191510590289E+03    0.80707E-03   -0.22439E-03 10480   0.333E-01    0.111E-01
DAV:   4    -0.191510535864E+03    0.54425E-04   -0.32935E-04  7400   0.110E-01
  13 F= -.19151054E+03 E0= -.19140672E+03  d E =-.132815E-01
       N       E                     dE             d eps       ncg     rms          rms(c)
DAV:   1    -0.191499226619E+03    0.11364E-01   -0.36334E-01  8160   0.133E+00    0.265E-01
DAV:   2    -0.191504350726E+03   -0.51241E-02   -0.25219E-02 11800   0.938E-01    0.741E-01
DAV:   3    -0.191498625610E+03    0.57251E-02   -0.11130E-02 10600   0.767E-01    0.204E-01
DAV:   4    -0.191498883775E+03   -0.25817E-03   -0.31671E-03 10480   0.371E-01    0.282E-01
DAV:   5    -0.191498238643E+03    0.64513E-03   -0.25523E-03  9560   0.341E-01    0.153E-01
DAV:   6    -0.191498041780E+03    0.19686E-03   -0.87824E-04  9520   0.165E-01    0.963E-02
DAV:   7    -0.191498001654E+03    0.40126E-04   -0.41248E-04  8600   0.144E-01
  14 F= -.19149800E+03 E0= -.19139421E+03  d E =0.125342E-01
       N       E                     dE             d eps       ncg     rms          rms(c)
DAV:   1    -0.191563185901E+03   -0.65144E-01   -0.65766E+00  8160   0.545E+00    0.638E-01
DAV:   2    -0.191595740729E+03   -0.32555E-01   -0.21205E-01 12880   0.209E+00    0.167E+00
DAV:   3    -0.191572104693E+03    0.23636E-01   -0.69540E-02 12280   0.187E+00    0.610E-01
DAV:   4    -0.191570832013E+03    0.12727E-02   -0.15361E-02 12160   0.810E-01    0.555E-01
DAV:   5    -0.191568358091E+03    0.24739E-02   -0.10948E-02 11360   0.757E-01    0.391E-01
DAV:   6    -0.191567474892E+03    0.88320E-03   -0.59575E-03 11400   0.465E-01    0.271E-01
DAV:   7    -0.191567552160E+03   -0.77268E-04   -0.45534E-03 11400   0.455E-01    0.290E-01
DAV:   8    -0.191566616996E+03    0.93516E-03   -0.16838E-03  9560   0.267E-01    0.459E-02
DAV:   9    -0.191566596940E+03    0.20056E-04   -0.12918E-04  5800   0.452E-02
  15 F= -.19156660E+03 E0= -.19146408E+03  d E =-.685953E-01
       N       E                     dE             d eps       ncg     rms          rms(c)
DAV:   1    -0.191613663965E+03   -0.47047E-01   -0.31595E+00  8160   0.377E+00    0.425E-01
DAV:   2    -0.191631703163E+03   -0.18039E-01   -0.10457E-01 12720   0.147E+00    0.125E+00
DAV:   3    -0.191618458283E+03    0.13245E-01   -0.35693E-02 12200   0.130E+00    0.379E-01
DAV:   4    -0.191618018333E+03    0.43995E-03   -0.55941E-03 11440   0.476E-01    0.354E-01
DAV:   5    -0.191617077401E+03    0.94093E-03   -0.43350E-03 11160   0.469E-01    0.240E-01
DAV:   6    -0.191616895579E+03    0.18182E-03   -0.25750E-03 10920   0.304E-01    0.184E-01
DAV:   7    -0.191616802347E+03    0.93232E-04   -0.17978E-03 10280   0.294E-01    0.161E-01
DAV:   8    -0.191616477039E+03    0.32531E-03   -0.53656E-04  8400   0.155E-01    0.263E-02
DAV:   9    -0.191616475977E+03    0.10612E-05   -0.59141E-05  6560   0.298E-02
  16 F= -.19161648E+03 E0= -.19151552E+03  d E =-.498790E-01
       N       E                     dE             d eps       ncg     rms          rms(c)
DAV:   1    -0.191600371318E+03    0.16106E-01   -0.29998E-01  8160   0.116E+00    0.133E-01
DAV:   2    -0.191602245396E+03   -0.18741E-02   -0.10222E-02 12760   0.469E-01    0.399E-01
DAV:   3    -0.191600766204E+03    0.14792E-02   -0.34566E-03 11400   0.412E-01    0.110E-01
DAV:   4    -0.191600692013E+03    0.74191E-04   -0.37208E-04  8320   0.116E-01
  17 F= -.19160069E+03 E0= -.19149912E+03  d E =0.157840E-01
       N       E                     dE             d eps       ncg     rms          rms(c)
DAV:   1    -0.191531182768E+03    0.69583E-01   -0.62903E+00  8160   0.535E+00    0.617E-01
DAV:   2    -0.191571910119E+03   -0.40727E-01   -0.20723E-01 13400   0.210E+00    0.190E+00
DAV:   3    -0.191539978642E+03    0.31931E-01   -0.78045E-02 12120   0.195E+00    0.525E-01
DAV:   4    -0.191538043342E+03    0.19353E-02   -0.84606E-03 11520   0.525E-01    0.358E-01
DAV:   5    -0.191537527988E+03    0.51535E-03   -0.65097E-03 11800   0.575E-01    0.371E-01
DAV:   6    -0.191536693750E+03    0.83424E-03   -0.47601E-03 10840   0.442E-01    0.221E-01
DAV:   7    -0.191536923772E+03   -0.23002E-03   -0.31867E-03 12280   0.378E-01    0.278E-01
DAV:   8    -0.191536084068E+03    0.83970E-03   -0.14407E-03  9880   0.265E-01    0.389E-02
DAV:   9    -0.191536092135E+03   -0.80668E-05   -0.10043E-04  5880   0.447E-02
  18 F= -.19153609E+03 E0= -.19143312E+03  d E =0.645999E-01
       N       E                     dE             d eps       ncg     rms          rms(c)
DAV:   1    -0.191570456392E+03   -0.34372E-01   -0.23822E+00  8160   0.326E+00    0.337E-01
DAV:   2    -0.191578059852E+03   -0.76035E-02   -0.73758E-02 11760   0.977E-01    0.634E-01
DAV:   3    -0.191576056800E+03    0.20031E-02   -0.17626E-02 12320   0.920E-01    0.484E-01
DAV:   4    -0.191573771927E+03    0.22849E-02   -0.38831E-03 10880   0.408E-01    0.137E-01
DAV:   5    -0.191574025484E+03   -0.25356E-03   -0.19519E-03 10440   0.264E-01    0.239E-01
DAV:   6    -0.191573776378E+03    0.24911E-03   -0.22216E-03 10000   0.317E-01    0.169E-01
DAV:   7    -0.191573502835E+03    0.27354E-03   -0.76244E-04  8600   0.165E-01    0.534E-02
DAV:   8    -0.191573495101E+03    0.77342E-05   -0.18539E-04  7680   0.926E-02
  19 F= -.19157350E+03 E0= -.19147198E+03  d E =-.374030E-01
       N       E                     dE             d eps       ncg     rms          rms(c)
DAV:   1    -0.191598173672E+03   -0.24671E-01   -0.89951E-01  8160   0.203E+00    0.267E-01
DAV:   2    -0.191604314403E+03   -0.61407E-02   -0.34634E-02 13240   0.902E-01    0.758E-01
DAV:   3    -0.191599184580E+03    0.51298E-02   -0.12599E-02 11880   0.804E-01    0.230E-01
DAV:   4    -0.191599016098E+03    0.16848E-03   -0.21903E-03 11360   0.310E-01    0.217E-01
DAV:   5    -0.191598697708E+03    0.31839E-03   -0.17352E-03 10440   0.305E-01    0.158E-01
DAV:   6    -0.191598583272E+03    0.11444E-03   -0.10067E-03  9520   0.195E-01    0.124E-01
DAV:   7    -0.191598502792E+03    0.80480E-04   -0.65506E-04  8160   0.180E-01
  20 F= -.19159850E+03 E0= -.19149769E+03  d E =-.250077E-01
       N       E                     dE             d eps       ncg     rms          rms(c)
DAV:   1    -0.191652898455E+03   -0.54315E-01   -0.48948E+00  8160   0.470E+00    0.516E-01
DAV:   2    -0.191679037372E+03   -0.26139E-01   -0.15905E-01 12800   0.175E+00    0.145E+00
DAV:   3    -0.191660943006E+03    0.18094E-01   -0.52032E-02 12240   0.158E+00    0.473E-01
DAV:   4    -0.191659723596E+03    0.12194E-02   -0.74654E-03 11480   0.521E-01    0.376E-01
DAV:   5    -0.191658923651E+03    0.79995E-03   -0.59124E-03 12000   0.541E-01    0.322E-01
DAV:   6    -0.191658335687E+03    0.58796E-03   -0.37795E-03 11280   0.376E-01    0.182E-01
DAV:   7    -0.191658291211E+03    0.44476E-04   -0.20615E-03 11080   0.302E-01    0.184E-01
DAV:   8    -0.191657884179E+03    0.40703E-03   -0.70919E-04  9160   0.195E-01    0.354E-02
DAV:   9    -0.191657876109E+03    0.80701E-05   -0.76315E-05  5960   0.389E-02
  21 F= -.19165788E+03 E0= -.19155922E+03  d E =-.593733E-01
       N       E                     dE             d eps       ncg     rms          rms(c)
DAV:   1    -0.191635491710E+03    0.22392E-01   -0.63956E-01  8160   0.170E+00    0.185E-01
DAV:   2    -0.191638518287E+03   -0.30266E-02   -0.19426E-02 13000   0.601E-01    0.488E-01
DAV:   3    -0.191636386563E+03    0.21317E-02   -0.60750E-03 11680   0.544E-01    0.172E-01
DAV:   4    -0.191636149104E+03    0.23746E-03   -0.80670E-04  9680   0.162E-01    0.938E-02
DAV:   5    -0.191636166496E+03   -0.17392E-04   -0.60807E-04  9320   0.168E-01
  22 F= -.19163617E+03 E0= -.19153686E+03  d E =0.217096E-01
       N       E                     dE             d eps       ncg     rms          rms(c)
DAV:   1    -0.191631060394E+03    0.50887E-02   -0.60471E-01  8160   0.169E+00    0.245E-01
DAV:   2    -0.191633288598E+03   -0.22282E-02   -0.21078E-02 12720   0.610E-01    0.496E-01
DAV:   3    -0.191631660627E+03    0.16280E-02   -0.88451E-03 11960   0.639E-01    0.300E-01
DAV:   4    -0.191630843382E+03    0.81724E-03   -0.25216E-03 10720   0.305E-01    0.144E-01
DAV:   5    -0.191630868162E+03   -0.24780E-04   -0.13772E-03  9760   0.266E-01    0.175E-01
DAV:   6    -0.191630615473E+03    0.25269E-03   -0.89285E-04 10040   0.211E-01    0.891E-02
DAV:   7    -0.191630579791E+03    0.35682E-04   -0.38119E-04  8160   0.129E-01
  23 F= -.19163058E+03 E0= -.19153177E+03  d E =0.558671E-02
       N       E                     dE             d eps       ncg     rms          rms(c)
DAV:   1    -0.191687427025E+03   -0.56812E-01   -0.47233E+00  8160   0.470E+00    0.576E-01
DAV:   2    -0.191712665220E+03   -0.25238E-01   -0.16690E-01 12680   0.176E+00    0.154E+00
DAV:   3    -0.191694189047E+03    0.18476E-01   -0.62670E-02 12040   0.168E+00    0.557E-01
DAV:   4    -0.191691325037E+03    0.28640E-02   -0.96364E-03 11520   0.558E-01    0.348E-01
DAV:   5    -0.191691302989E+03    0.22048E-04   -0.78853E-03 12360   0.608E-01    0.418E-01
DAV:   6    -0.191689916603E+03    0.13864E-02   -0.58973E-03 11480   0.493E-01    0.179E-01
DAV:   7    -0.191689535145E+03    0.38146E-03   -0.14640E-03 10200   0.181E-01    0.799E-02
DAV:   8    -0.191689474013E+03    0.61132E-04   -0.31707E-04  9200   0.126E-01
  24 F= -.19168947E+03 E0= -.19159246E+03  d E =-.588942E-01
       N       E                     dE             d eps       ncg     rms          rms(c)
DAV:   1    -0.191726262362E+03   -0.36727E-01   -0.20415E+00  8160   0.304E+00    0.329E-01
DAV:   2    -0.191735126578E+03   -0.88642E-02   -0.66212E-02 12400   0.103E+00    0.793E-01
DAV:   3    -0.191730037522E+03    0.50891E-02   -0.19750E-02 12200   0.944E-01    0.335E-01
DAV:   4    -0.191729113447E+03    0.92407E-03   -0.28810E-03 11120   0.323E-01    0.190E-01
DAV:   5    -0.191729132269E+03   -0.18822E-04   -0.21813E-03 10600   0.328E-01    0.225E-01
DAV:   6    -0.191728797564E+03    0.33471E-03   -0.16891E-03 10000   0.265E-01    0.106E-01
DAV:   7    -0.191728676084E+03    0.12148E-03   -0.51537E-04  8680   0.125E-01    0.565E-02
DAV:   8    -0.191728642913E+03    0.33172E-04   -0.13457E-04  6800   0.871E-02
  25 F= -.19172864E+03 E0= -.19163330E+03  d E =-.391689E-01
       N       E                     dE             d eps       ncg     rms          rms(c)
DAV:   1    -0.191726095386E+03    0.25807E-02   -0.48777E-02  8160   0.516E-01    0.112E-01
DAV:   2    -0.191726578624E+03   -0.48324E-03   -0.35864E-03 10520   0.332E-01    0.256E-01
DAV:   3    -0.191725922292E+03    0.65633E-03   -0.15892E-03 10000   0.296E-01    0.875E-02
DAV:   4    -0.191725909605E+03    0.12686E-04   -0.49783E-04  8160   0.145E-01
  26 F= -.19172591E+03 E0= -.19163057E+03  d E =0.273331E-02
       N       E                     dE             d eps       ncg     rms          rms(c)
DAV:   1    -0.191727626921E+03   -0.17046E-02   -0.50404E-03  9400   0.207E-01    0.756E-02
DAV:   2    -0.191728881984E+03   -0.12551E-02   -0.26481E-03 11360   0.386E-01    0.333E-01
DAV:   3    -0.191727558819E+03    0.13232E-02   -0.18375E-03  9840   0.327E-01    0.418E-02
DAV:   4    -0.191727576447E+03   -0.17628E-04   -0.60973E-05  5720   0.542E-02
  27 F= -.19172758E+03 E0= -.19163242E+03  d E =-.166684E-02
       N       E                     dE             d eps       ncg     rms          rms(c)
DAV:   1    -0.191778105328E+03   -0.50547E-01   -0.35040E+00  8160   0.400E+00    0.440E-01
DAV:   2    -0.191795777628E+03   -0.17672E-01   -0.11307E-01 13320   0.147E+00    0.117E+00
DAV:   3    -0.191783474440E+03    0.12303E-01   -0.36310E-02 12320   0.132E+00    0.395E-01
DAV:   4    -0.191782997690E+03    0.47675E-03   -0.60599E-03 11120   0.518E-01    0.372E-01
DAV:   5    -0.191781756035E+03    0.12417E-02   -0.45419E-03 12640   0.503E-01    0.197E-01
DAV:   6    -0.191781783874E+03   -0.27840E-04   -0.22713E-03 11480   0.298E-01    0.194E-01
DAV:   7    -0.191781550984E+03    0.23289E-03   -0.14741E-03 10440   0.285E-01    0.135E-01
DAV:   8    -0.191781309088E+03    0.24190E-03   -0.35546E-04  8280   0.132E-01    0.203E-02
DAV:   9    -0.191781314864E+03   -0.57758E-05   -0.54130E-05  6560   0.284E-02
  28 F= -.19178131E+03 E0= -.19168906E+03  d E =-.537384E-01
       N       E                     dE             d eps       ncg     rms          rms(c)
DAV:   1    -0.191744651749E+03    0.36657E-01   -0.14442E+00  8160   0.257E+00    0.289E-01
DAV:   2    -0.191752281232E+03   -0.76295E-02   -0.46385E-02 13200   0.974E-01    0.779E-01
DAV:   3    -0.191746632564E+03    0.56487E-02   -0.14587E-02 12440   0.860E-01    0.242E-01
DAV:   4    -0.191746370086E+03    0.26248E-03   -0.22376E-03 10480   0.290E-01    0.199E-01
DAV:   5    -0.191746052943E+03    0.31714E-03   -0.14741E-03 10200   0.290E-01    0.131E-01
DAV:   6    -0.191745947312E+03    0.10563E-03   -0.71731E-04 10240   0.160E-01    0.697E-02
DAV:   7    -0.191745951925E+03   -0.46130E-05   -0.41097E-04 10160   0.133E-01
  29 F= -.19174595E+03 E0= -.19165202E+03  d E =0.353629E-01
       N       E                     dE             d eps       ncg     rms          rms(c)
DAV:   1    -0.191680246527E+03    0.65701E-01   -0.55735E+00  8160   0.508E+00    0.589E-01
DAV:   2    -0.191711131315E+03   -0.30885E-01   -0.18281E-01 13480   0.196E+00    0.159E+00
DAV:   3    -0.191688183765E+03    0.22948E-01   -0.62625E-02 12320   0.176E+00    0.509E-01
DAV:   4    -0.191688214121E+03   -0.30356E-04   -0.11347E-02 11480   0.702E-01    0.527E-01
DAV:   5    -0.191685405697E+03    0.28084E-02   -0.70281E-03 11640   0.642E-01    0.241E-01
DAV:   6    -0.191685041251E+03    0.36445E-03   -0.25800E-03 10960   0.271E-01    0.122E-01
DAV:   7    -0.191684895167E+03    0.14608E-03   -0.10755E-03 11520   0.187E-01    0.128E-01
DAV:   8    -0.191684736034E+03    0.15913E-03   -0.42879E-04  8720   0.144E-01    0.407E-02
DAV:   9    -0.191684726018E+03    0.10016E-04   -0.67826E-05  5960   0.461E-02
  30 F= -.19168473E+03 E0= -.19158831E+03  d E =0.612259E-01
       N       E                     dE             d eps       ncg     rms          rms(c)
DAV:   1    -0.191671822148E+03    0.12914E-01   -0.23755E+00  8160   0.333E+00    0.395E-01
DAV:   2    -0.191681977603E+03   -0.10155E-01   -0.68939E-02 12760   0.122E+00    0.888E-01
DAV:   3    -0.191674438826E+03    0.75388E-02   -0.22020E-02 11760   0.107E+00    0.350E-01
DAV:   4    -0.191674791273E+03   -0.35245E-03   -0.59939E-03 11200   0.536E-01    0.415E-01
DAV:   5    -0.191673230225E+03    0.15610E-02   -0.41789E-03  9920   0.489E-01    0.203E-01
DAV:   6    -0.191672862625E+03    0.36760E-03   -0.16105E-03 10000   0.229E-01    0.103E-01
DAV:   7    -0.191673030041E+03   -0.16742E-03   -0.10435E-03 10800   0.222E-01    0.177E-01
DAV:   8    -0.191672695964E+03    0.33408E-03   -0.51698E-04  8480   0.164E-01    0.220E-02
DAV:   9    -0.191672702964E+03   -0.70003E-05   -0.37409E-05  5680   0.253E-02
  31 F= -.19167270E+03 E0= -.19157707E+03  d E =0.120231E-01
       N       E                     dE             d eps       ncg     rms          rms(c)
DAV:   1    -0.191654854056E+03    0.17842E-01   -0.65515E+00  8160   0.554E+00    0.632E-01
DAV:   2    -0.191678043486E+03   -0.23189E-01   -0.16859E-01 11480   0.172E+00    0.135E+00
DAV:   3    -0.191662620333E+03    0.15423E-01   -0.61234E-02 11680   0.172E+00    0.622E-01
DAV:   4    -0.191661530617E+03    0.10897E-02   -0.13922E-02 12120   0.811E-01    0.557E-01
DAV:   5    -0.191658664515E+03    0.28661E-02   -0.85848E-03 11360   0.735E-01    0.329E-01
DAV:   6    -0.191657740925E+03    0.92359E-03   -0.38981E-03 11160   0.387E-01    0.163E-01
DAV:   7    -0.191657999379E+03   -0.25845E-03   -0.20134E-03 12120   0.317E-01    0.262E-01
DAV:   8    -0.191657326015E+03    0.67336E-03   -0.10273E-03  8760   0.245E-01    0.412E-02
DAV:   9    -0.191657329477E+03   -0.34622E-05   -0.91001E-05  5600   0.446E-02
  32 F= -.19165733E+03 E0= -.19156382E+03  d E =0.153735E-01
       N       E                     dE             d eps       ncg     rms          rms(c)
DAV:   1    -0.191688957548E+03   -0.31632E-01   -0.32636E+00  8160   0.386E+00    0.489E-01
DAV:   2    -0.191719596362E+03   -0.30639E-01   -0.13584E-01 13480   0.192E+00    0.164E+00
DAV:   3    -0.191693045159E+03    0.26551E-01   -0.56317E-02 12240   0.170E+00    0.311E-01
DAV:   4    -0.191692328840E+03    0.71632E-03   -0.42325E-03 11400   0.356E-01    0.296E-01
DAV:   5    -0.191692059166E+03    0.26967E-03   -0.36947E-03 12560   0.463E-01    0.279E-01
DAV:   6    -0.191691573497E+03    0.48567E-03   -0.20511E-03 11040   0.295E-01    0.135E-01
DAV:   7    -0.191691452193E+03    0.12130E-03   -0.94434E-04 10520   0.222E-01    0.118E-01
DAV:   8    -0.191691284961E+03    0.16723E-03   -0.31389E-04  8800   0.135E-01    0.268E-02
DAV:   9    -0.191691279429E+03    0.55317E-05   -0.40171E-05  6520   0.303E-02
  33 F= -.19169128E+03 E0= -.19159857E+03  d E =-.339500E-01
       N       E                     dE             d eps       ncg     rms          rms(c)
DAV:   1    -0.191716441564E+03   -0.25157E-01   -0.20369E+00  8160   0.300E+00    0.338E-01
DAV:   2    -0.191730936882E+03   -0.14495E-01   -0.74129E-02 12920   0.131E+00    0.104E+00
DAV:   3    -0.191719700474E+03    0.11236E-01   -0.23836E-02 12320   0.114E+00    0.238E-01
DAV:   4    -0.191719319921E+03    0.38055E-03   -0.20115E-03 11400   0.275E-01    0.174E-01
DAV:   5    -0.191719218032E+03    0.10189E-03   -0.15364E-03 11400   0.306E-01    0.164E-01
DAV:   6    -0.191719021033E+03    0.19700E-03   -0.82019E-04 10080   0.189E-01    0.735E-02
DAV:   7    -0.191718978525E+03    0.42508E-04   -0.29061E-04  7640   0.106E-01
  34 F= -.19171898E+03 E0= -.19162771E+03  d E =-.276991E-01
       N       E                     dE             d eps       ncg     rms          rms(c)
DAV:   1    -0.191733790911E+03   -0.14770E-01   -0.66072E-01  8160   0.173E+00    0.225E-01
DAV:   2    -0.191739598677E+03   -0.58078E-02   -0.28695E-02 13520   0.866E-01    0.698E-01
DAV:   3    -0.191734692218E+03    0.49065E-02   -0.10346E-02 11840   0.749E-01    0.146E-01
DAV:   4    -0.191734492265E+03    0.19995E-03   -0.82537E-04 10080   0.142E-01    0.797E-02
DAV:   5    -0.191734480344E+03    0.11920E-04   -0.47538E-04 10720   0.130E-01
  35 F= -.19173448E+03 E0= -.19164364E+03  d E =-.155018E-01
       N       E                     dE             d eps       ncg     rms          rms(c)
DAV:   1    -0.191770664778E+03   -0.36173E-01   -0.51626E+00  8160   0.482E+00    0.607E-01
DAV:   2    -0.191818267400E+03   -0.47603E-01   -0.21472E-01 13200   0.245E+00    0.205E+00
DAV:   3    -0.191777349521E+03    0.40918E-01   -0.88350E-02 12240   0.211E+00    0.370E-01
DAV:   4    -0.191777766557E+03   -0.41704E-03   -0.86068E-03 11480   0.590E-01    0.523E-01
DAV:   5    -0.191775376334E+03    0.23902E-02   -0.67444E-03 12240   0.634E-01    0.244E-01
DAV:   6    -0.191775280770E+03    0.95564E-04   -0.26879E-03 11840   0.312E-01    0.185E-01
DAV:   7    -0.191774966050E+03    0.31472E-03   -0.14655E-03 10560   0.292E-01    0.125E-01
DAV:   8    -0.191774758223E+03    0.20783E-03   -0.36553E-04  8720   0.140E-01    0.277E-02
DAV:   9    -0.191774754950E+03    0.32733E-05   -0.58702E-05  6560   0.334E-02
  36 F= -.19177475E+03 E0= -.19168519E+03  d E =-.402746E-01
       N       E                     dE             d eps       ncg     rms          rms(c)
DAV:   1    -0.191786363426E+03   -0.11605E-01   -0.50013E-01  8160   0.153E+00    0.231E-01
DAV:   2    -0.191790226153E+03   -0.38627E-02   -0.25490E-02 11520   0.825E-01    0.552E-01
DAV:   3    -0.191786842165E+03    0.33840E-02   -0.78754E-03 12120   0.682E-01    0.184E-01
DAV:   4    -0.191786816755E+03    0.25411E-04   -0.19015E-03  9960   0.298E-01    0.203E-01
DAV:   5    -0.191786507007E+03    0.30975E-03   -0.14562E-03  9960   0.273E-01    0.134E-01
DAV:   6    -0.191786384975E+03    0.12203E-03   -0.62165E-04  9560   0.159E-01    0.844E-02
DAV:   7    -0.191786374980E+03    0.99941E-05   -0.37990E-04  8160   0.144E-01
  37 F= -.19178637E+03 E0= -.19169711E+03  d E =-.116200E-01
       N       E                     dE             d eps       ncg     rms          rms(c)
DAV:   1    -0.191800457010E+03   -0.14072E-01   -0.73556E-01  8160   0.183E+00    0.242E-01
DAV:   2    -0.191806600239E+03   -0.61432E-02   -0.31544E-02 13280   0.914E-01    0.713E-01
DAV:   3    -0.191801350370E+03    0.52499E-02   -0.11277E-02 12120   0.793E-01    0.159E-01
DAV:   4    -0.191801109538E+03    0.24083E-03   -0.11653E-03 10120   0.158E-01    0.967E-02
DAV:   5    -0.191801050755E+03    0.58782E-04   -0.75152E-04 11440   0.155E-01
  38 F= -.19180105E+03 E0= -.19171225E+03  d E =-.146758E-01
       N       E                     dE             d eps       ncg     rms          rms(c)
DAV:   1    -0.191824838545E+03   -0.23729E-01   -0.25350E+00  8160   0.339E+00    0.421E-01
DAV:   2    -0.191846215297E+03   -0.21377E-01   -0.97644E-02 13320   0.166E+00    0.128E+00
DAV:   3    -0.191828511740E+03    0.17704E-01   -0.32490E-02 12040   0.143E+00    0.284E-01
DAV:   4    -0.191829063257E+03   -0.55152E-03   -0.47926E-03 10680   0.514E-01    0.381E-01
DAV:   5    -0.191827480899E+03    0.15824E-02   -0.33177E-03 12160   0.457E-01    0.135E-01
DAV:   6    -0.191828097863E+03   -0.61696E-03   -0.21200E-03 10560   0.314E-01    0.268E-01
DAV:   7    -0.191827391154E+03    0.70671E-03   -0.14592E-03  9760   0.273E-01    0.669E-02
DAV:   8    -0.191827324086E+03    0.67068E-04   -0.13020E-04  5560   0.613E-02
  39 F= -.19182732E+03 E0= -.19173845E+03  d E =-.262733E-01
       N       E                     dE             d eps       ncg     rms          rms(c)
DAV:   1    -0.191847690289E+03   -0.20299E-01   -0.17587E+00  8160   0.283E+00    0.330E-01
DAV:   2    -0.191858240882E+03   -0.10551E-01   -0.61648E-02 13440   0.118E+00    0.851E-01
DAV:   3    -0.191850410509E+03    0.78304E-02   -0.17925E-02 12120   0.104E+00    0.255E-01
DAV:   4    -0.191850262586E+03    0.14792E-03   -0.30474E-03 10680   0.357E-01    0.237E-01
DAV:   5    -0.191849698540E+03    0.56405E-03   -0.18377E-03 11280   0.333E-01    0.132E-01
DAV:   6    -0.191849668026E+03    0.30514E-04   -0.83795E-04 10520   0.185E-01
  40 F= -.19184967E+03 E0= -.19176072E+03  d E =-.223439E-01
       N       E                     dE             d eps       ncg     rms          rms(c)
DAV:   1    -0.191836660977E+03    0.13038E-01   -0.54763E-01  8160   0.160E+00    0.207E-01
DAV:   2    -0.191842761795E+03   -0.61008E-02   -0.23840E-02 13280   0.832E-01    0.713E-01
DAV:   3    -0.191837192169E+03    0.55696E-02   -0.96624E-03 10960   0.727E-01    0.117E-01
DAV:   4    -0.191837188344E+03    0.38252E-05   -0.90747E-04  9800   0.163E-01
  41 F= -.19183719E+03 E0= -.19174816E+03  d E =0.124797E-01
       N       E                     dE             d eps       ncg     rms          rms(c)
DAV:   1    -0.191832499439E+03    0.46927E-02   -0.32952E-01  8160   0.128E+00    0.219E-01
DAV:   2    -0.191832319119E+03    0.18032E-03   -0.97578E-03 11520   0.365E-01    0.219E-01
DAV:   3    -0.191832677866E+03   -0.35875E-03   -0.35751E-03 12280   0.464E-01    0.318E-01
DAV:   4    -0.191831787332E+03    0.89053E-03   -0.24596E-03 11280   0.373E-01    0.151E-01
DAV:   5    -0.191831833441E+03   -0.46109E-04   -0.13458E-03 10160   0.273E-01    0.172E-01
DAV:   6    -0.191831501536E+03    0.33191E-03   -0.66844E-04  8840   0.203E-01    0.465E-02
DAV:   7    -0.191831509797E+03   -0.82615E-05   -0.13261E-04  6480   0.821E-02
  42 F= -.19183151E+03 E0= -.19174292E+03  d E =0.567855E-02
       N       E                     dE             d eps       ncg     rms          rms(c)
DAV:   1    -0.191855048338E+03   -0.23547E-01   -0.21064E+00  8160   0.314E+00    0.396E-01
DAV:   2    -0.191865539025E+03   -0.10491E-01   -0.67077E-02 13360   0.125E+00    0.939E-01
DAV:   3    -0.191856855442E+03    0.86836E-02   -0.22731E-02 12240   0.116E+00    0.314E-01
DAV:   4    -0.191856089761E+03    0.76568E-03   -0.39036E-03 11000   0.374E-01    0.242E-01
DAV:   5    -0.191855766522E+03    0.32324E-03   -0.28748E-03 12480   0.422E-01    0.210E-01
DAV:   6    -0.191855517566E+03    0.24896E-03   -0.17068E-03 10480   0.291E-01    0.152E-01
DAV:   7    -0.191855392957E+03    0.12461E-03   -0.10304E-03 10400   0.222E-01    0.121E-01
DAV:   8    -0.191855237023E+03    0.15593E-03   -0.28614E-04  7720   0.122E-01    0.278E-02
DAV:   9    -0.191855228895E+03    0.81274E-05   -0.37997E-05  6440   0.282E-02
  43 F= -.19185523E+03 E0= -.19176615E+03  d E =-.237191E-01
       N       E                     dE             d eps       ncg     rms          rms(c)
DAV:   1    -0.191873168215E+03   -0.17931E-01   -0.11502E+00  8160   0.230E+00    0.277E-01
DAV:   2    -0.191879243840E+03   -0.60756E-02   -0.37347E-02 13520   0.913E-01    0.677E-01
DAV:   3    -0.191874561072E+03    0.46828E-02   -0.11860E-02 12120   0.836E-01    0.238E-01
DAV:   4    -0.191874446878E+03    0.11419E-03   -0.25600E-03 10320   0.328E-01    0.223E-01
DAV:   5    -0.191874010961E+03    0.43592E-03   -0.17433E-03 11240   0.321E-01    0.143E-01
DAV:   6    -0.191873944551E+03    0.66411E-04   -0.93306E-04 10320   0.206E-01
  44 F= -.19187394E+03 E0= -.19178505E+03  d E =-.187157E-01
       N       E                     dE             d eps       ncg     rms          rms(c)
DAV:   1    -0.191867912321E+03    0.60986E-02   -0.10618E-01  8160   0.717E-01    0.117E-01
DAV:   2    -0.191870315853E+03   -0.24035E-02   -0.71200E-03 12640   0.517E-01    0.449E-01
DAV:   3    -0.191867958570E+03    0.23573E-02   -0.37121E-03 11240   0.456E-01    0.698E-02
DAV:   4    -0.191867950611E+03    0.79595E-05   -0.28705E-04  7680   0.995E-02
  45 F= -.19186795E+03 E0= -.19177865E+03  d E =0.599394E-02
       N       E                     dE             d eps       ncg     rms          rms(c)
DAV:   1    -0.191838648764E+03    0.29310E-01   -0.28646E+00  8160   0.365E+00    0.446E-01
DAV:   2    -0.191853231099E+03   -0.14582E-01   -0.87891E-02 13040   0.147E+00    0.107E+00
DAV:   3    -0.191841446235E+03    0.11785E-01   -0.27442E-02 11920   0.132E+00    0.339E-01
DAV:   4    -0.191841106721E+03    0.33951E-03   -0.51308E-03 12120   0.488E-01    0.323E-01
DAV:   5    -0.191840326047E+03    0.78067E-03   -0.39058E-03 11680   0.491E-01    0.228E-01
DAV:   6    -0.191839903115E+03    0.42293E-03   -0.19001E-03 10920   0.285E-01    0.114E-01
DAV:   7    -0.191839912778E+03   -0.96624E-05   -0.93349E-04 10760   0.202E-01
  46 F= -.19183991E+03 E0= -.19175086E+03  d E =0.280378E-01
       N       E                     dE             d eps       ncg     rms          rms(c)
DAV:   1    -0.191874549656E+03   -0.34647E-01   -0.48220E+00  8160   0.471E+00    0.571E-01
DAV:   2    -0.191900518522E+03   -0.25969E-01   -0.15634E-01 12840   0.200E+00    0.136E+00
DAV:   3    -0.191879767725E+03    0.20751E-01   -0.43479E-02 11720   0.168E+00    0.441E-01
DAV:   4    -0.191879924148E+03   -0.15642E-03   -0.95106E-03 11120   0.725E-01    0.499E-01
DAV:   5    -0.191877629733E+03    0.22944E-02   -0.75836E-03 11240   0.685E-01    0.263E-01
DAV:   6    -0.191877613851E+03    0.15883E-04   -0.37091E-03 12600   0.405E-01    0.270E-01
DAV:   7    -0.191877163902E+03    0.44995E-03   -0.26302E-03 11000   0.370E-01    0.174E-01
DAV:   8    -0.191876795576E+03    0.36833E-03   -0.60587E-04  8960   0.152E-01    0.294E-02
DAV:   9    -0.191876796768E+03   -0.11913E-05   -0.81668E-05  6280   0.326E-02
  47 F= -.19187680E+03 E0= -.19178761E+03  d E =-.368840E-01
       N       E                     dE             d eps       ncg     rms          rms(c)
DAV:   1    -0.191875005440E+03    0.17901E-02   -0.25300E-02  8160   0.350E-01    0.539E-02
DAV:   2    -0.191875064519E+03   -0.59080E-04   -0.84548E-04 11160   0.115E-01
  48 F= -.19187506E+03 E0= -.19178556E+03  d E =0.173225E-02
       N       E                     dE             d eps       ncg     rms          rms(c)
DAV:   1    -0.191900581111E+03   -0.25576E-01   -0.19026E+00  8160   0.299E+00    0.350E-01
DAV:   2    -0.191905041113E+03   -0.44600E-02   -0.52650E-02 13360   0.842E-01    0.555E-01
DAV:   3    -0.191903433067E+03    0.16080E-02   -0.13700E-02 11760   0.884E-01    0.416E-01
DAV:   4    -0.191901667329E+03    0.17657E-02   -0.39362E-03 11280   0.440E-01    0.185E-01
DAV:   5    -0.191901841807E+03   -0.17448E-03   -0.26192E-03 11280   0.367E-01    0.256E-01
DAV:   6    -0.191901350573E+03    0.49123E-03   -0.19634E-03 10280   0.325E-01    0.125E-01
DAV:   7    -0.191901222803E+03    0.12777E-03   -0.64684E-04  8280   0.165E-01    0.852E-02
DAV:   8    -0.191901144119E+03    0.78684E-04   -0.20673E-04  8160   0.120E-01
  49 F= -.19190114E+03 E0= -.19181173E+03  d E =-.260796E-01
       N       E                     dE             d eps       ncg     rms          rms(c)
DAV:   1    -0.191909171911E+03   -0.79491E-02   -0.17950E-01  8160   0.905E-01    0.119E-01
DAV:   2    -0.191910497991E+03   -0.13261E-02   -0.68549E-03 12400   0.434E-01    0.323E-01
DAV:   3    -0.191909403447E+03    0.10945E-02   -0.21750E-03 11640   0.364E-01    0.949E-02
DAV:   4    -0.191909447023E+03   -0.43576E-04   -0.46171E-04  8200   0.162E-01
  50 F= -.19190945E+03 E0= -.19182000E+03  d E =-.830290E-02
       N       E                     dE             d eps       ncg     rms          rms(c)
DAV:   1    -0.191936264382E+03   -0.26861E-01   -0.15824E+00  8160   0.272E+00    0.355E-01
DAV:   2    -0.191945297827E+03   -0.90334E-02   -0.50072E-02 12720   0.114E+00    0.869E-01
DAV:   3    -0.191937430174E+03    0.78677E-02   -0.16519E-02 12240   0.100E+00    0.292E-01
DAV:   4    -0.191937595602E+03   -0.16543E-03   -0.43223E-03 11400   0.469E-01    0.312E-01
DAV:   5    -0.191936718497E+03    0.87711E-03   -0.30657E-03 11800   0.450E-01    0.175E-01
DAV:   6    -0.191936413594E+03    0.30490E-03   -0.10286E-03 10480   0.200E-01    0.679E-02
DAV:   7    -0.191936397652E+03    0.15942E-04   -0.36980E-04  8280   0.106E-01
  51 F= -.19193640E+03 E0= -.19184812E+03  d E =-.269506E-01
       N       E                     dE             d eps       ncg     rms          rms(c)
DAV:   1    -0.191932852350E+03    0.35612E-02   -0.26058E-02  8160   0.367E-01    0.586E-02
DAV:   2    -0.191933260889E+03   -0.40854E-03   -0.13884E-03 12040   0.229E-01    0.193E-01
DAV:   3    -0.191932845658E+03    0.41523E-03   -0.62953E-04  8640   0.206E-01    0.379E-02
DAV:   4    -0.191932854331E+03   -0.86728E-05   -0.78984E-05  5760   0.591E-02
  52 F= -.19193285E+03 E0= -.19184400E+03  d E =0.354332E-02
       N       E                     dE             d eps       ncg     rms          rms(c)
DAV:   1    -0.191952241233E+03   -0.19396E-01   -0.96035E-01  8160   0.217E+00    0.347E-01
DAV:   2    -0.191955103782E+03   -0.28625E-02   -0.33762E-02 12720   0.799E-01    0.620E-01
DAV:   3    -0.191952375655E+03    0.27281E-02   -0.13883E-02 11680   0.906E-01    0.423E-01
DAV:   4    -0.191950462921E+03    0.19127E-02   -0.41696E-03 11520   0.429E-01    0.148E-01
DAV:   5    -0.191950731753E+03   -0.26883E-03   -0.21822E-03 10640   0.352E-01    0.250E-01
DAV:   6    -0.191950063887E+03    0.66787E-03   -0.14145E-03  9920   0.303E-01    0.742E-02
DAV:   7    -0.191950014309E+03    0.49578E-04   -0.26354E-04  6480   0.972E-02
  53 F= -.19195001E+03 E0= -.19186071E+03  d E =-.171600E-01
       N       E                     dE             d eps       ncg     rms          rms(c)
DAV:   1    -0.191946074495E+03    0.39894E-02   -0.20229E-01  8160   0.966E-01    0.151E-01
DAV:   2    -0.191949092651E+03   -0.30182E-02   -0.11470E-02 12520   0.646E-01    0.488E-01
DAV:   3    -0.191946322385E+03    0.27703E-02   -0.43381E-03 11160   0.533E-01    0.814E-02
DAV:   4    -0.191946317931E+03    0.44538E-05   -0.40552E-04  8360   0.127E-01
  54 F= -.19194632E+03 E0= -.19185654E+03  d E =0.369638E-02
       N       E                     dE             d eps       ncg     rms          rms(c)
DAV:   1    -0.191976689708E+03   -0.30367E-01   -0.21926E+00  8160   0.317E+00    0.390E-01
DAV:   2    -0.191990371364E+03   -0.13682E-01   -0.74359E-02 13080   0.136E+00    0.102E+00
DAV:   3    -0.191979496896E+03    0.10874E-01   -0.22354E-02 12320   0.119E+00    0.315E-01
DAV:   4    -0.191979513964E+03   -0.17069E-04   -0.49632E-03 11000   0.486E-01    0.309E-01
DAV:   5    -0.191978534276E+03    0.97969E-03   -0.30698E-03 11800   0.444E-01    0.167E-01
DAV:   6    -0.191978350001E+03    0.18427E-03   -0.10293E-03 10480   0.219E-01    0.927E-02
DAV:   7    -0.191978346659E+03    0.33419E-05   -0.49096E-04  9120   0.162E-01
  55 F= -.19197835E+03 E0= -.19188885E+03  d E =-.320287E-01
       N       E                     dE             d eps       ncg     rms          rms(c)
DAV:   1    -0.191996923356E+03   -0.18573E-01   -0.63342E-01  8160   0.172E+00    0.225E-01
DAV:   2    -0.192001395114E+03   -0.44718E-02   -0.21164E-02 12520   0.762E-01    0.618E-01
DAV:   3    -0.191997362773E+03    0.40323E-02   -0.71334E-03 11800   0.673E-01    0.151E-01
DAV:   4    -0.191997467980E+03   -0.10521E-03   -0.11800E-03  9640   0.253E-01    0.174E-01
DAV:   5    -0.191997159198E+03    0.30878E-03   -0.79350E-04  9920   0.245E-01    0.876E-02
DAV:   6    -0.191997140772E+03    0.18427E-04   -0.31986E-04  7800   0.118E-01
  56 F= -.19199714E+03 E0= -.19190848E+03  d E =-.187941E-01
       N       E                     dE             d eps       ncg     rms          rms(c)
DAV:   1    -0.192004056065E+03   -0.68969E-02   -0.86787E-02  8160   0.646E-01    0.109E-01
DAV:   2    -0.192005615206E+03   -0.15591E-02   -0.45102E-03 12400   0.461E-01    0.369E-01
DAV:   3    -0.192004045532E+03    0.15697E-02   -0.21417E-03 10480   0.398E-01    0.616E-02
DAV:   4    -0.192004134620E+03   -0.89088E-04   -0.27685E-04  7560   0.141E-01
  57 F= -.19200413E+03 E0= -.19191582E+03  d E =-.699385E-02
       N       E                     dE             d eps       ncg     rms          rms(c)
DAV:   1    -0.192033126173E+03   -0.29081E-01   -0.16210E+00  8160   0.275E+00    0.374E-01
DAV:   2    -0.192045965708E+03   -0.12840E-01   -0.56577E-02 12600   0.130E+00    0.103E+00
DAV:   3    -0.192034050527E+03    0.11915E-01   -0.19597E-02 11440   0.114E+00    0.245E-01
DAV:   4    -0.192034252445E+03   -0.20192E-03   -0.31954E-03 11440   0.402E-01    0.283E-01
DAV:   5    -0.192033455046E+03    0.79740E-03   -0.20997E-03 11080   0.396E-01    0.144E-01
DAV:   6    -0.192033359464E+03    0.95582E-04   -0.83617E-04 10440   0.196E-01
  58 F= -.19203336E+03 E0= -.19194535E+03  d E =-.292248E-01
       N       E                     dE             d eps       ncg     rms          rms(c)
DAV:   1    -0.192100166019E+03   -0.66711E-01   -0.12619E+01  8160   0.771E+00    0.967E-01
DAV:   2    -0.192170854318E+03   -0.70688E-01   -0.40724E-01 12760   0.315E+00    0.221E+00
DAV:   3    -0.192111531389E+03    0.59323E-01   -0.10259E-01 11480   0.267E+00    0.649E-01
DAV:   4    -0.192112688667E+03   -0.11573E-02   -0.22551E-02 12360   0.112E+00    0.769E-01
DAV:   5    -0.192106555799E+03    0.61329E-02   -0.14852E-02 11640   0.107E+00    0.349E-01
DAV:   6    -0.192106001650E+03    0.55415E-03   -0.54623E-03 11640   0.463E-01    0.251E-01
DAV:   7    -0.192105787389E+03    0.21426E-03   -0.34179E-03 11800   0.465E-01    0.263E-01
DAV:   8    -0.192104933164E+03    0.85422E-03   -0.15119E-03 10000   0.308E-01    0.420E-02
DAV:   9    -0.192104929692E+03    0.34724E-05   -0.13312E-04  6480   0.496E-02
  59 F= -.19210493E+03 E0= -.19201902E+03  d E =-.715702E-01
       N       E                     dE             d eps       ncg     rms          rms(c)
DAV:   1    -0.192133035605E+03   -0.28102E-01   -0.47479E+00  8160   0.467E+00    0.586E-01
DAV:   2    -0.192166848992E+03   -0.33813E-01   -0.21076E-01 12840   0.212E+00    0.143E+00
DAV:   3    -0.192142776663E+03    0.24072E-01   -0.49367E-02 11320   0.177E+00    0.391E-01
DAV:   4    -0.192141529083E+03    0.12476E-02   -0.56737E-03 12200   0.498E-01    0.280E-01
DAV:   5    -0.192141002890E+03    0.52619E-03   -0.31208E-03 12240   0.466E-01    0.235E-01
DAV:   6    -0.192140912507E+03    0.90383E-04   -0.23168E-03 10960   0.372E-01    0.192E-01
DAV:   7    -0.192140572079E+03    0.34043E-03   -0.12565E-03 10600   0.273E-01    0.128E-01
DAV:   8    -0.192140379812E+03    0.19227E-03   -0.42397E-04  8920   0.162E-01    0.354E-02
DAV:   9    -0.192140367445E+03    0.12367E-04   -0.69592E-05  6840   0.414E-02
  60 F= -.19214037E+03 E0= -.19205574E+03  d E =-.354378E-01
       N       E                     dE             d eps       ncg     rms          rms(c)
DAV:   1    -0.192161775199E+03   -0.21395E-01   -0.47659E+00  8160   0.468E+00    0.535E-01
DAV:   2    -0.192177919552E+03   -0.16144E-01   -0.16150E-01 12680   0.143E+00    0.844E-01
DAV:   3    -0.192171773104E+03    0.61464E-02   -0.27447E-02 11360   0.135E+00    0.530E-01
DAV:   4    -0.192169139670E+03    0.26334E-02   -0.73666E-03 12240   0.638E-01    0.297E-01
DAV:   5    -0.192168540731E+03    0.59894E-03   -0.38681E-03 11720   0.525E-01    0.241E-01
DAV:   6    -0.192168219258E+03    0.32147E-03   -0.25627E-03 11960   0.359E-01    0.145E-01
DAV:   7    -0.192167917133E+03    0.30212E-03   -0.91558E-04  9920   0.185E-01    0.898E-02
DAV:   8    -0.192167840959E+03    0.76174E-04   -0.23522E-04  8720   0.126E-01
  61 F= -.19216784E+03 E0= -.19208468E+03  d E =-.274735E-01
       N       E                     dE             d eps       ncg     rms          rms(c)
DAV:   1    -0.192178786710E+03   -0.10870E-01   -0.14622E+00  8160   0.257E+00    0.307E-01
DAV:   2    -0.192186834216E+03   -0.80475E-02   -0.65555E-02 12280   0.103E+00    0.612E-01
DAV:   3    -0.192182941911E+03    0.38923E-02   -0.11983E-02 12320   0.868E-01    0.245E-01
DAV:   4    -0.192182288474E+03    0.65344E-03   -0.16621E-03 11400   0.290E-01    0.126E-01
DAV:   5    -0.192182289470E+03   -0.99637E-06   -0.85315E-04 11280   0.238E-01
  62 F= -.19218229E+03 E0= -.19210052E+03  d E =-.144485E-01
       N       E                     dE             d eps       ncg     rms          rms(c)
DAV:   1    -0.192189916732E+03   -0.76283E-02   -0.52755E-01  8160   0.159E+00    0.208E-01
DAV:   2    -0.192191874066E+03   -0.19573E-02   -0.20899E-02 11360   0.474E-01    0.283E-01
DAV:   3    -0.192191215833E+03    0.65823E-03   -0.36741E-03 12240   0.489E-01    0.205E-01
DAV:   4    -0.192190803471E+03    0.41236E-03   -0.10144E-03 10080   0.253E-01    0.993E-02
DAV:   5    -0.192190782816E+03    0.20655E-04   -0.76318E-04  9560   0.195E-01
  63 F= -.19219078E+03 E0= -.19210980E+03  d E =-.849335E-02
       N       E                     dE             d eps       ncg     rms          rms(c)
DAV:   1    -0.192188700289E+03    0.21032E-02   -0.61019E-02  8160   0.553E-01    0.872E-02
DAV:   2    -0.192189876312E+03   -0.11760E-02   -0.39239E-03 12680   0.391E-01    0.292E-01
DAV:   3    -0.192188796618E+03    0.10797E-02   -0.16712E-03  9960   0.345E-01    0.479E-02
DAV:   4    -0.192188787550E+03    0.90673E-05   -0.13405E-04  5640   0.632E-02
  64 F= -.19218879E+03 E0= -.19210771E+03  d E =0.199527E-02
       N       E                     dE             d eps       ncg     rms          rms(c)
DAV:   1    -0.192193040363E+03   -0.42437E-02   -0.28985E-01  8160   0.116E+00    0.150E-01
DAV:   2    -0.192194943159E+03   -0.19028E-02   -0.11833E-02 11800   0.536E-01    0.355E-01
DAV:   3    -0.192193522475E+03    0.14207E-02   -0.30210E-03 12200   0.454E-01    0.100E-01
DAV:   4    -0.192193424315E+03    0.98161E-04   -0.29973E-04  8240   0.119E-01
  65 F= -.19219342E+03 E0= -.19211266E+03  d E =-.463676E-02
       N       E                     dE             d eps       ncg     rms          rms(c)
DAV:   1    -0.192191501041E+03    0.20214E-02   -0.26608E-02  8160   0.374E-01    0.747E-02
DAV:   2    -0.192192409898E+03   -0.90886E-03   -0.25759E-03 12000   0.376E-01    0.254E-01
DAV:   3    -0.192191500303E+03    0.90960E-03   -0.11592E-03 10120   0.297E-01    0.188E-02
DAV:   4    -0.192191527843E+03   -0.27540E-04   -0.46938E-05  5720   0.533E-02
  66 F= -.19219153E+03 E0= -.19211064E+03  d E =0.189647E-02
       N       E                     dE             d eps       ncg     rms          rms(c)
DAV:   1    -0.192185175147E+03    0.63252E-02   -0.81183E-01  8160   0.195E+00    0.271E-01
DAV:   2    -0.192191963578E+03   -0.67884E-02   -0.33067E-02 11400   0.104E+00    0.701E-01
DAV:   3    -0.192185948080E+03    0.60155E-02   -0.94467E-03 11680   0.833E-01    0.152E-01
DAV:   4    -0.192185898412E+03    0.49668E-04   -0.12463E-03  9960   0.235E-01    0.148E-01
DAV:   5    -0.192185716279E+03    0.18213E-03   -0.10271E-03 11160   0.265E-01    0.112E-01
DAV:   6    -0.192185628338E+03    0.87941E-04   -0.48323E-04 10080   0.153E-01
  67 F= -.19218563E+03 E0= -.19210417E+03  d E =0.589950E-02
       N       E                     dE             d eps       ncg     rms          rms(c)
DAV:   1    -0.192174898060E+03    0.10818E-01   -0.12515E+00  8160   0.243E+00    0.301E-01
DAV:   2    -0.192179903458E+03   -0.50054E-02   -0.41106E-02 10960   0.852E-01    0.537E-01
DAV:   3    -0.192177012421E+03    0.28910E-02   -0.77544E-03 12280   0.770E-01    0.253E-01
DAV:   4    -0.192176568570E+03    0.44385E-03   -0.19828E-03 11080   0.337E-01    0.179E-01
DAV:   5    -0.192176338899E+03    0.22967E-03   -0.14341E-03 10320   0.314E-01    0.134E-01
DAV:   6    -0.192176266351E+03    0.72548E-04   -0.66169E-04 10600   0.183E-01
  68 F= -.19217627E+03 E0= -.19209367E+03  d E =0.936199E-02
       N       E                     dE             d eps       ncg     rms          rms(c)
DAV:   1    -0.192185842747E+03   -0.95038E-02   -0.12041E+00  8160   0.238E+00    0.314E-01
DAV:   2    -0.192192465646E+03   -0.66229E-02   -0.47408E-02 11680   0.109E+00    0.652E-01
DAV:   3    -0.192187726764E+03    0.47389E-02   -0.99423E-03 12120   0.860E-01    0.219E-01
DAV:   4    -0.192187537016E+03    0.18975E-03   -0.26171E-03 10960   0.338E-01    0.207E-01
DAV:   5    -0.192187148294E+03    0.38872E-03   -0.20840E-03 10400   0.349E-01    0.146E-01
DAV:   6    -0.192187005321E+03    0.14297E-03   -0.83064E-04  9760   0.203E-01    0.755E-02
DAV:   7    -0.192186895177E+03    0.11014E-03   -0.22296E-04  6880   0.851E-02    0.361E-02
DAV:   8    -0.192186888830E+03    0.63477E-05   -0.68886E-05  6800   0.628E-02
  69 F= -.19218689E+03 E0= -.19210528E+03  d E =-.106225E-01
       N       E                     dE             d eps       ncg     rms          rms(c)
DAV:   1    -0.192189010889E+03   -0.21157E-02   -0.83475E-02  8160   0.614E-01    0.758E-02
DAV:   2    -0.192189407029E+03   -0.39614E-03   -0.38211E-03 11480   0.246E-01    0.129E-01
DAV:   3    -0.192189248449E+03    0.15858E-03   -0.50653E-04  9720   0.196E-01    0.646E-02
DAV:   4    -0.192189209226E+03    0.39223E-04   -0.12129E-04  5440   0.884E-02
  70 F= -.19218921E+03 E0= -.19210800E+03  d E =-.232040E-02
       N       E                     dE             d eps       ncg     rms          rms(c)
DAV:   1    -0.192191152515E+03   -0.19041E-02   -0.35869E-02  8160   0.415E-01    0.641E-02
DAV:   2    -0.192191496472E+03   -0.34396E-03   -0.18241E-03 12400   0.224E-01    0.156E-01
DAV:   3    -0.192191196585E+03    0.29989E-03   -0.55486E-04  9040   0.196E-01    0.394E-02
DAV:   4    -0.192191216062E+03   -0.19477E-04   -0.72947E-05  5720   0.719E-02
  71 F= -.19219122E+03 E0= -.19211024E+03  d E =-.200684E-02
       N       E                     dE             d eps       ncg     rms          rms(c)
DAV:   1    -0.192195282145E+03   -0.40856E-02   -0.16215E-01  8160   0.869E-01    0.108E-01
DAV:   2    -0.192195799824E+03   -0.51768E-03   -0.58035E-03 11360   0.270E-01    0.150E-01
DAV:   3    -0.192195668414E+03    0.13141E-03   -0.90074E-04 11040   0.259E-01    0.115E-01
DAV:   4    -0.192195535828E+03    0.13259E-03   -0.26293E-04  7600   0.135E-01    0.548E-02
DAV:   5    -0.192195536764E+03   -0.93673E-06   -0.14448E-04  7160   0.109E-01
  72 F= -.19219554E+03 E0= -.19211501E+03  d E =-.432070E-02
       N       E                     dE             d eps       ncg     rms          rms(c)
DAV:   1    -0.192189561489E+03    0.59743E-02   -0.28505E-01  8160   0.115E+00    0.143E-01
DAV:   2    -0.192191221153E+03   -0.16597E-02   -0.10539E-02 11800   0.467E-01    0.330E-01
DAV:   3    -0.192190049896E+03    0.11713E-02   -0.23565E-03 12320   0.423E-01    0.102E-01
DAV:   4    -0.192189958250E+03    0.91646E-04   -0.34325E-04  8280   0.114E-01
  73 F= -.19218996E+03 E0= -.19210878E+03  d E =0.557851E-02
       N       E                     dE             d eps       ncg     rms          rms(c)
DAV:   1    -0.192194497188E+03   -0.44473E-02   -0.25767E-01  8160   0.110E+00    0.141E-01
DAV:   2    -0.192196027511E+03   -0.15303E-02   -0.11892E-02 12240   0.507E-01    0.300E-01
DAV:   3    -0.192195065478E+03    0.96203E-03   -0.22338E-03 11400   0.406E-01    0.109E-01
DAV:   4    -0.192194955243E+03    0.11024E-03   -0.42053E-04  8680   0.154E-01    0.761E-02
DAV:   5    -0.192194917052E+03    0.38191E-04   -0.29717E-04  7560   0.137E-01
  74 F= -.19219492E+03 E0= -.19211411E+03  d E =-.495880E-02
       N       E                     dE             d eps       ncg     rms          rms(c)
DAV:   1    -0.192196697214E+03   -0.17420E-02   -0.27776E-02  8160   0.374E-01    0.546E-02
DAV:   2    -0.192196812568E+03   -0.11535E-03   -0.10335E-03 10960   0.129E-01    0.832E-02
DAV:   3    -0.192196723582E+03    0.88986E-04   -0.23959E-04  8960   0.127E-01
  75 F= -.19219672E+03 E0= -.19211615E+03  d E =-.180653E-02
       N       E                     dE             d eps       ncg     rms          rms(c)
DAV:   1    -0.192201554021E+03   -0.47415E-02   -0.22491E-01  8160   0.102E+00    0.129E-01
DAV:   2    -0.192202153790E+03   -0.59977E-03   -0.77442E-03 11000   0.292E-01    0.156E-01
DAV:   3    -0.192202128191E+03    0.25598E-04   -0.12200E-03 11040   0.301E-01    0.154E-01
DAV:   4    -0.192201850120E+03    0.27807E-03   -0.39537E-04  8240   0.171E-01    0.516E-02
DAV:   5    -0.192201914521E+03   -0.64402E-04   -0.27787E-04  8440   0.136E-01
  76 F= -.19220191E+03 E0= -.19212180E+03  d E =-.519094E-02
       N       E                     dE             d eps       ncg     rms          rms(c)
DAV:   1    -0.192202665596E+03   -0.81548E-03   -0.56821E-03  8360   0.193E-01    0.295E-02
DAV:   2    -0.192202703023E+03   -0.37427E-04   -0.29503E-04  8720   0.665E-02
  77 F= -.19220270E+03 E0= -.19212274E+03  d E =-.788502E-03
       N       E                     dE             d eps       ncg     rms          rms(c)
DAV:   1    -0.192207648891E+03   -0.49833E-02   -0.27127E-01  8160   0.113E+00    0.135E-01
DAV:   2    -0.192208252305E+03   -0.60341E-03   -0.76822E-03 10600   0.296E-01    0.167E-01
DAV:   3    -0.192208093098E+03    0.15921E-03   -0.17374E-03 11240   0.318E-01    0.145E-01
DAV:   4    -0.192207878124E+03    0.21497E-03   -0.48106E-04  8240   0.179E-01    0.704E-02
DAV:   5    -0.192207879658E+03   -0.15334E-05   -0.27730E-04  8280   0.147E-01
  78 F= -.19220788E+03 E0= -.19212844E+03  d E =-.517663E-02
       N       E                     dE             d eps       ncg     rms          rms(c)
DAV:   1    -0.192204080196E+03    0.37979E-02   -0.18576E-01  8160   0.932E-01    0.123E-01
DAV:   2    -0.192204946351E+03   -0.86615E-03   -0.67570E-03 11720   0.342E-01    0.241E-01
DAV:   3    -0.192204264802E+03    0.68155E-03   -0.21195E-03 11840   0.345E-01    0.116E-01
DAV:   4    -0.192204129756E+03    0.13505E-03   -0.38107E-04  8160   0.151E-01    0.555E-02
DAV:   5    -0.192204082386E+03    0.47370E-04   -0.15918E-04  6040   0.675E-02
  79 F= -.19220408E+03 E0= -.19212452E+03  d E =0.379727E-02
       N       E                     dE             d eps       ncg     rms          rms(c)
DAV:   1    -0.192204240781E+03   -0.11102E-03   -0.25816E-02  8160   0.347E-01    0.560E-02
DAV:   2    -0.192204605143E+03   -0.36436E-03   -0.14496E-03 12880   0.229E-01    0.163E-01
DAV:   3    -0.192204258105E+03    0.34704E-03   -0.47340E-04  8760   0.190E-01    0.290E-02
DAV:   4    -0.192204270776E+03   -0.12671E-04   -0.55007E-05  5480   0.571E-02
  80 F= -.19220427E+03 E0= -.19212489E+03  d E =-.188390E-03
       N       E                     dE             d eps       ncg     rms          rms(c)
DAV:   1    -0.192207237718E+03   -0.29796E-02   -0.87580E-02  8160   0.640E-01    0.821E-02
DAV:   2    -0.192207632533E+03   -0.39481E-03   -0.37629E-03 11960   0.226E-01    0.139E-01
DAV:   3    -0.192207450770E+03    0.18176E-03   -0.80374E-04 10640   0.219E-01    0.793E-02
DAV:   4    -0.192207394242E+03    0.56528E-04   -0.13706E-04  5720   0.990E-02
  81 F= -.19220739E+03 E0= -.19212849E+03  d E =-.312347E-02
       N       E                     dE             d eps       ncg     rms          rms(c)
DAV:   1    -0.192205007134E+03    0.24436E-02   -0.11347E-01  8160   0.733E-01    0.109E-01
DAV:   2    -0.192206146407E+03   -0.11393E-02   -0.66194E-03 13240   0.411E-01    0.278E-01
DAV:   3    -0.192205152881E+03    0.99353E-03   -0.23848E-03 11400   0.364E-01    0.768E-02
DAV:   4    -0.192205122102E+03    0.30779E-04   -0.24558E-04  7560   0.112E-01
  82 F= -.19220512E+03 E0= -.19212542E+03  d E =0.227214E-02
       N       E                     dE             d eps       ncg     rms          rms(c)
DAV:   1    -0.192205034557E+03    0.11832E-03   -0.77603E-03  8160   0.200E-01    0.798E-02
DAV:   2    -0.192205393743E+03   -0.35919E-03   -0.13012E-03 10040   0.293E-01    0.200E-01
DAV:   3    -0.192204875709E+03    0.51803E-03   -0.67510E-04  9080   0.240E-01    0.412E-02
DAV:   4    -0.192204887773E+03   -0.12065E-04   -0.12223E-04  5960   0.914E-02
  83 F= -.19220489E+03 E0= -.19212488E+03  d E =0.234329E-03
       N       E                     dE             d eps       ncg     rms          rms(c)
DAV:   1    -0.192211250047E+03   -0.63743E-02   -0.38032E-01  8160   0.133E+00    0.149E-01
DAV:   2    -0.192212098215E+03   -0.84817E-03   -0.12551E-02 10600   0.316E-01    0.127E-01
DAV:   3    -0.192212345427E+03   -0.24721E-03   -0.14316E-03 11360   0.317E-01    0.200E-01
DAV:   4    -0.192211865827E+03    0.47960E-03   -0.66903E-04 10680   0.230E-01    0.630E-02
DAV:   5    -0.192211921865E+03   -0.56038E-04   -0.27460E-04  8680   0.142E-01
  84 F= -.19221192E+03 E0= -.19213268E+03  d E =-.703409E-02
       N       E                     dE             d eps       ncg     rms          rms(c)
DAV:   1    -0.192208679595E+03    0.31862E-02   -0.70320E-02  8160   0.592E-01    0.785E-02
DAV:   2    -0.192209154155E+03   -0.47456E-03   -0.31532E-03 12160   0.242E-01    0.169E-01
DAV:   3    -0.192208807387E+03    0.34677E-03   -0.79428E-04  9880   0.234E-01    0.681E-02
DAV:   4    -0.192208776819E+03    0.30569E-04   -0.14155E-04  5640   0.895E-02
  85 F= -.19220878E+03 E0= -.19212918E+03  d E =0.314505E-02
       N       E                     dE             d eps       ncg     rms          rms(c)
DAV:   1    -0.192206821008E+03    0.19864E-02   -0.64779E-02  8160   0.572E-01    0.124E-01
DAV:   2    -0.192207263169E+03   -0.44216E-03   -0.37075E-03 11360   0.355E-01    0.249E-01
DAV:   3    -0.192206584029E+03    0.67914E-03   -0.15178E-03 10080   0.331E-01    0.883E-02
DAV:   4    -0.192206530982E+03    0.53047E-04   -0.40751E-04  8680   0.144E-01
  86 F= -.19220653E+03 E0= -.19212618E+03  d E =0.224584E-02
       N       E                     dE             d eps       ncg     rms          rms(c)
DAV:   1    -0.192216211362E+03   -0.96273E-02   -0.67270E-01  8160   0.179E+00    0.259E-01
DAV:   2    -0.192218633624E+03   -0.24223E-02   -0.27872E-02 11680   0.727E-01    0.409E-01
DAV:   3    -0.192216925275E+03    0.17083E-02   -0.52806E-03 12080   0.631E-01    0.202E-01
DAV:   4    -0.192216527183E+03    0.39809E-03   -0.14815E-03 10200   0.287E-01    0.160E-01
DAV:   5    -0.192216402827E+03    0.12436E-03   -0.10912E-03 10840   0.288E-01    0.133E-01
DAV:   6    -0.192216219153E+03    0.18367E-03   -0.55995E-04  9080   0.166E-01    0.433E-02
DAV:   7    -0.192216191530E+03    0.27624E-04   -0.11795E-04  6720   0.498E-02
  87 F= -.19221619E+03 E0= -.19213758E+03  d E =-.966055E-02
       N       E                     dE             d eps       ncg     rms          rms(c)
DAV:   1    -0.192218722225E+03   -0.25031E-02   -0.47778E-02  8160   0.472E-01    0.580E-02
DAV:   2    -0.192218840787E+03   -0.11856E-03   -0.16574E-03 10440   0.132E-01    0.647E-02
DAV:   3    -0.192218851411E+03   -0.10624E-04   -0.27688E-04  9560   0.137E-01
  88 F= -.19221885E+03 E0= -.19214039E+03  d E =-.265988E-02
       N       E                     dE             d eps       ncg     rms          rms(c)
DAV:   1    -0.192222455998E+03   -0.36152E-02   -0.12121E-01  8160   0.752E-01    0.956E-02
DAV:   2    -0.192222768854E+03   -0.31286E-03   -0.42196E-03 12040   0.231E-01    0.109E-01
DAV:   3    -0.192222717362E+03    0.51492E-04   -0.53615E-04 10000   0.201E-01
  89 F= -.19222272E+03 E0= -.19214471E+03  d E =-.386595E-02
       N       E                     dE             d eps       ncg     rms          rms(c)
DAV:   1    -0.192226654464E+03   -0.38856E-02   -0.10409E-01  8160   0.710E-01    0.126E-01
DAV:   2    -0.192227999041E+03   -0.13446E-02   -0.54025E-03 12240   0.453E-01    0.336E-01
DAV:   3    -0.192226620364E+03    0.13787E-02   -0.22498E-03 10600   0.400E-01    0.724E-02
DAV:   4    -0.192226638259E+03   -0.17896E-04   -0.29527E-04  8240   0.939E-02
  90 F= -.19222664E+03 E0= -.19214906E+03  d E =-.392090E-02
       N       E                     dE             d eps       ncg     rms          rms(c)
DAV:   1    -0.192236184289E+03   -0.95639E-02   -0.68752E-01  8160   0.179E+00    0.220E-01
DAV:   2    -0.192237806245E+03   -0.16220E-02   -0.22057E-02 10960   0.464E-01    0.261E-01
DAV:   3    -0.192237829433E+03   -0.23189E-04   -0.35719E-03 12400   0.523E-01    0.275E-01
DAV:   4    -0.192236933720E+03    0.89571E-03   -0.12022E-03  9880   0.294E-01    0.692E-02
DAV:   5    -0.192237024084E+03   -0.90364E-04   -0.48463E-04 10280   0.118E-01
  91 F= -.19223702E+03 E0= -.19216029E+03  d E =-.103858E-01
       N       E                     dE             d eps       ncg     rms          rms(c)
DAV:   1    -0.192240220149E+03   -0.32864E-02   -0.71472E-02  8160   0.594E-01    0.107E-01
DAV:   2    -0.192241611446E+03   -0.13913E-02   -0.46253E-03 12200   0.447E-01    0.331E-01
DAV:   3    -0.192240236839E+03    0.13746E-02   -0.20106E-03 10120   0.388E-01    0.564E-02
DAV:   4    -0.192240250612E+03   -0.13773E-04   -0.13128E-04  5560   0.891E-02
  92 F= -.19224025E+03 E0= -.19216373E+03  d E =-.322653E-02
       N       E                     dE             d eps       ncg     rms          rms(c)
DAV:   1    -0.192246562741E+03   -0.63259E-02   -0.26667E-01  8160   0.112E+00    0.147E-01
DAV:   2    -0.192247661033E+03   -0.10983E-02   -0.92076E-03 12000   0.400E-01    0.261E-01
DAV:   3    -0.192246956790E+03    0.70424E-03   -0.21016E-03 12160   0.393E-01    0.123E-01
DAV:   4    -0.192246860446E+03    0.96344E-04   -0.36626E-04  8520   0.157E-01
  93 F= -.19224686E+03 E0= -.19217087E+03  d E =-.660983E-02
       N       E                     dE             d eps       ncg     rms          rms(c)
DAV:   1    -0.192250657375E+03   -0.37006E-02   -0.93145E-02  8160   0.690E-01    0.118E-01
DAV:   2    -0.192251538022E+03   -0.88065E-03   -0.41477E-03 12280   0.371E-01    0.273E-01
DAV:   3    -0.192250666063E+03    0.87196E-03   -0.14665E-03 10120   0.346E-01    0.779E-02
DAV:   4    -0.192250695824E+03   -0.29761E-04   -0.25996E-04  7440   0.125E-01
  94 F= -.19225070E+03 E0= -.19217496E+03  d E =-.383538E-02
       N       E                     dE             d eps       ncg     rms          rms(c)
DAV:   1    -0.192256325587E+03   -0.56595E-02   -0.21395E-01  8160   0.101E+00    0.140E-01
DAV:   2    -0.192257457410E+03   -0.11318E-02   -0.79564E-03 12240   0.425E-01    0.279E-01
DAV:   3    -0.192256584071E+03    0.87334E-03   -0.20673E-03 11960   0.394E-01    0.106E-01
DAV:   4    -0.192256555931E+03    0.28140E-04   -0.35105E-04  8120   0.152E-01
  95 F= -.19225656E+03 E0= -.19218116E+03  d E =-.586011E-02
       N       E                     dE             d eps       ncg     rms          rms(c)
DAV:   1    -0.192263045230E+03   -0.64612E-02   -0.27916E-01  8160   0.115E+00    0.164E-01
DAV:   2    -0.192264527759E+03   -0.14825E-02   -0.97493E-03 12200   0.460E-01    0.335E-01
DAV:   3    -0.192263320268E+03    0.12075E-02   -0.25670E-03 12360   0.450E-01    0.125E-01
DAV:   4    -0.192263230745E+03    0.89523E-04   -0.44945E-04  8720   0.153E-01
  96 F= -.19226323E+03 E0= -.19218819E+03  d E =-.667481E-02
       N       E                     dE             d eps       ncg     rms          rms(c)
DAV:   1    -0.192267111406E+03   -0.37911E-02   -0.97386E-02  8160   0.698E-01    0.132E-01
DAV:   2    -0.192268777647E+03   -0.16662E-02   -0.55977E-03 12240   0.524E-01    0.364E-01
DAV:   3    -0.192267052290E+03    0.17254E-02   -0.23827E-03 11720   0.444E-01    0.695E-02
DAV:   4    -0.192267176716E+03   -0.12443E-03   -0.34691E-04  8240   0.161E-01    0.115E-01
DAV:   5    -0.192267017485E+03    0.15923E-03   -0.25195E-04  9000   0.145E-01    0.279E-02
DAV:   6    -0.192267023420E+03   -0.59346E-05   -0.47858E-05  6080   0.382E-02
  97 F= -.19226702E+03 E0= -.19219216E+03  d E =-.379267E-02
       N       E                     dE             d eps       ncg     rms          rms(c)
DAV:   1    -0.192286150803E+03   -0.19133E-01   -0.42693E+00  8160   0.445E+00    0.548E-01
DAV:   2    -0.192304887422E+03   -0.18737E-01   -0.15321E-01 11000   0.170E+00    0.105E+00
DAV:   3    -0.192294083613E+03    0.10804E-01   -0.31121E-02 12440   0.151E+00    0.441E-01
DAV:   4    -0.192291459109E+03    0.26245E-02   -0.41220E-03 11560   0.454E-01    0.176E-01
DAV:   5    -0.192292367968E+03   -0.90886E-03   -0.35869E-03 12160   0.493E-01    0.310E-01
DAV:   6    -0.192291120108E+03    0.12479E-02   -0.21436E-03 10320   0.393E-01    0.741E-02
DAV:   7    -0.192291031694E+03    0.88414E-04   -0.25587E-04  8240   0.808E-02
  98 F= -.19229103E+03 E0= -.19221691E+03  d E =-.240083E-01
       N       E                     dE             d eps       ncg     rms          rms(c)
DAV:   1    -0.192275020299E+03    0.16100E-01   -0.18382E+00  8160   0.291E+00    0.404E-01
DAV:   2    -0.192286899810E+03   -0.11880E-01   -0.74545E-02 11320   0.140E+00    0.934E-01
DAV:   3    -0.192277578223E+03    0.93216E-02   -0.19584E-02 12280   0.122E+00    0.284E-01
DAV:   4    -0.192276599245E+03    0.97898E-03   -0.22991E-03 11240   0.320E-01    0.165E-01
DAV:   5    -0.192276842211E+03   -0.24297E-03   -0.23163E-03 12280   0.396E-01    0.228E-01
DAV:   6    -0.192276289838E+03    0.55237E-03   -0.13632E-03 11000   0.296E-01    0.751E-02
DAV:   7    -0.192276237461E+03    0.52377E-04   -0.25669E-04  8160   0.118E-01
  99 F= -.19227624E+03 E0= -.19220200E+03  d E =0.147942E-01
       N       E                     dE             d eps       ncg     rms          rms(c)
DAV:   1    -0.192285547070E+03   -0.92572E-02   -0.69140E-01  8160   0.178E+00    0.211E-01
DAV:   2    -0.192288095711E+03   -0.25486E-02   -0.22303E-02 11440   0.638E-01    0.384E-01
DAV:   3    -0.192286647901E+03    0.14478E-02   -0.44303E-03 12480   0.573E-01    0.179E-01
DAV:   4    -0.192286287167E+03    0.36073E-03   -0.74794E-04  9640   0.200E-01    0.880E-02
DAV:   5    -0.192286337833E+03   -0.50666E-04   -0.55293E-04 10200   0.199E-01
 100 F= -.19228634E+03 E0= -.19221262E+03  d E =-.101004E-01
