<?xml version="1.0" encoding="ISO-8859-1"?>
<modeling>
 <generator>
  <i name="program" type="string">vasp </i>
  <i name="version" type="string">5.4.1  </i>
  <i name="subversion" type="string">05Feb16 (build Jul 05 2020 17:13:04) complex                          parallel </i>
  <i name="platform" type="string">IFC91_ompi </i>
  <i name="date" type="string">2024 05 10 </i>
  <i name="time" type="string">07:35:24 </i>
 </generator>
 <incar>
  <i type="int" name="ISTART">     0</i>
  <i type="string" name="PREC">normal</i>
  <i type="string" name="ALGO"> Normal</i>
  <i type="int" name="ISPIN">     1</i>
  <i type="int" name="ICHARG">     2</i>
  <i type="int" name="IBRION">     1</i>
  <i type="int" name="NSW">   100</i>
  <i type="int" name="ISIF">     3</i>
  <i type="int" name="ISYM">     0</i>
  <i name="SYMPREC">      0.00000001</i>
  <i name="POTIM">      0.50000000</i>
  <i type="logical" name="LREAL"> F  </i>
  <i type="logical" name="LPLANE"> F  </i>
  <i type="int" name="ISMEAR">     0</i>
  <i type="logical" name="LWAVE"> F  </i>
  <i type="logical" name="LCHARG"> F  </i>
  <v type="int" name="KPOINT_BSE">    -1     0     0     0</v>
 </incar>
 <kpoints>
  <generation param="Gamma">
   <v type="int" name="divisions">       8        8        1 </v>
   <v name="usershift">      0.00000000       0.00000000       0.00000000 </v>
   <v name="genvec1">      0.12500000       0.00000000       0.00000000 </v>
   <v name="genvec2">     -0.00000000       0.12500000       0.00000000 </v>
   <v name="genvec3">      0.00000000       0.00000000       1.00000000 </v>
   <v name="shift">      0.00000000       0.00000000       0.00000000 </v>
  </generation>
  <varray name="kpointlist" >
   <v>       0.00000000       0.00000000       0.00000000 </v>
   <v>       0.12500000       0.00000000       0.00000000 </v>
   <v>       0.25000000       0.00000000       0.00000000 </v>
   <v>       0.37500000       0.00000000       0.00000000 </v>
   <v>       0.50000000       0.00000000       0.00000000 </v>
   <v>       0.00000000       0.12500000       0.00000000 </v>
   <v>       0.12500000       0.12500000       0.00000000 </v>
   <v>       0.25000000       0.12500000       0.00000000 </v>
   <v>       0.37500000       0.12500000       0.00000000 </v>
   <v>       0.50000000       0.12500000       0.00000000 </v>
   <v>      -0.37500000       0.12500000       0.00000000 </v>
   <v>      -0.25000000       0.12500000       0.00000000 </v>
   <v>      -0.12500000       0.12500000       0.00000000 </v>
   <v>       0.00000000       0.25000000       0.00000000 </v>
   <v>       0.12500000       0.25000000       0.00000000 </v>
   <v>       0.25000000       0.25000000       0.00000000 </v>
   <v>       0.37500000       0.25000000       0.00000000 </v>
   <v>       0.50000000       0.25000000       0.00000000 </v>
   <v>      -0.37500000       0.25000000       0.00000000 </v>
   <v>      -0.25000000       0.25000000       0.00000000 </v>
   <v>      -0.12500000       0.25000000       0.00000000 </v>
   <v>      -0.00000000       0.37500000       0.00000000 </v>
   <v>       0.12500000       0.37500000       0.00000000 </v>
   <v>       0.25000000       0.37500000       0.00000000 </v>
   <v>       0.37500000       0.37500000       0.00000000 </v>
   <v>       0.50000000       0.37500000       0.00000000 </v>
   <v>      -0.37500000       0.37500000       0.00000000 </v>
   <v>      -0.25000000       0.37500000       0.00000000 </v>
   <v>      -0.12500000       0.37500000       0.00000000 </v>
   <v>       0.00000000       0.50000000       0.00000000 </v>
   <v>       0.12500000       0.50000000       0.00000000 </v>
   <v>       0.25000000       0.50000000       0.00000000 </v>
   <v>       0.37500000       0.50000000       0.00000000 </v>
   <v>       0.50000000       0.50000000       0.00000000 </v>
  </varray>
  <varray name="weights" >
   <v>       0.01562500 </v>
   <v>       0.03125000 </v>
   <v>       0.03125000 </v>
   <v>       0.03125000 </v>
   <v>       0.01562500 </v>
   <v>       0.03125000 </v>
   <v>       0.03125000 </v>
   <v>       0.03125000 </v>
   <v>       0.03125000 </v>
   <v>       0.03125000 </v>
   <v>       0.03125000 </v>
   <v>       0.03125000 </v>
   <v>       0.03125000 </v>
   <v>       0.03125000 </v>
   <v>       0.03125000 </v>
   <v>       0.03125000 </v>
   <v>       0.03125000 </v>
   <v>       0.03125000 </v>
   <v>       0.03125000 </v>
   <v>       0.03125000 </v>
   <v>       0.03125000 </v>
   <v>       0.03125000 </v>
   <v>       0.03125000 </v>
   <v>       0.03125000 </v>
   <v>       0.03125000 </v>
   <v>       0.03125000 </v>
   <v>       0.03125000 </v>
   <v>       0.03125000 </v>
   <v>       0.03125000 </v>
   <v>       0.01562500 </v>
   <v>       0.03125000 </v>
   <v>       0.03125000 </v>
   <v>       0.03125000 </v>
   <v>       0.01562500 </v>
  </varray>
 </kpoints>
 <parameters>
  <separator name="general" >
   <i type="string" name="SYSTEM">unknown system</i>
   <i type="logical" name="LCOMPAT"> F  </i>
  </separator>
  <separator name="electronic" >
   <i type="string" name="PREC">normal</i>
   <i name="ENMAX">    280.00000000</i>
   <i name="ENAUG">    373.43800000</i>
   <i name="EDIFF">      0.00010000</i>
   <i type="int" name="IALGO">    38</i>
   <i type="int" name="IWAVPR">    11</i>
   <i type="int" name="NBANDS">   120</i>
   <i name="NELECT">    159.00000000</i>
   <i type="int" name="TURBO">     0</i>
   <i type="int" name="IRESTART">     0</i>
   <i type="int" name="NREBOOT">     0</i>
   <i type="int" name="NMIN">     0</i>
   <i name="EREF">      0.00000000</i>
   <separator name="electronic smearing" >
    <i type="int" name="ISMEAR">     0</i>
    <i name="SIGMA">      0.20000000</i>
    <i name="KSPACING">      0.50000000</i>
    <i type="logical" name="KGAMMA"> T  </i>
   </separator>
   <separator name="electronic projectors" >
    <i type="logical" name="LREAL"> F  </i>
    <v name="ROPT">      0.00000000      0.00000000      0.00000000      0.00000000</v>
    <i type="int" name="LMAXPAW">  -100</i>
    <i type="int" name="LMAXMIX">     2</i>
    <i type="logical" name="NLSPLINE"> F  </i>
   </separator>
   <separator name="electronic startup" >
    <i type="int" name="ISTART">     0</i>
    <i type="int" name="ICHARG">     2</i>
    <i type="int" name="INIWAV">     1</i>
   </separator>
   <separator name="electronic spin" >
    <i type="int" name="ISPIN">     1</i>
    <i type="logical" name="LNONCOLLINEAR"> F  </i>
    <v name="MAGMOM">      1.00000000      1.00000000      1.00000000      1.00000000      1.00000000      1.00000000      1.00000000      1.00000000      1.00000000      1.00000000      1.00000000      1.00000000      1.00000000      1.00000000      1.00000000      1.00000000      1.00000000      1.00000000      1.00000000      1.00000000
      1.00000000      1.00000000      1.00000000      1.00000000      1.00000000      1.00000000      1.00000000</v>
    <i name="NUPDOWN">     -1.00000000</i>
    <i type="logical" name="LSORBIT"> F  </i>
    <v name="SAXIS">      0.00000000      0.00000000      1.00000000</v>
    <i type="logical" name="LSPIRAL"> F  </i>
    <v name="QSPIRAL">      0.00000000      0.00000000      0.00000000</v>
    <i type="logical" name="LZEROZ"> F  </i>
   </separator>
   <separator name="electronic exchange-correlation" >
    <i type="logical" name="LASPH"> F  </i>
    <i type="logical" name="LMETAGGA"> F  </i>
   </separator>
   <separator name="electronic convergence" >
    <i type="int" name="NELM">    60</i>
    <i type="int" name="NELMDL">    -5</i>
    <i type="int" name="NELMIN">     2</i>
    <i name="ENINI">    280.00000000</i>
    <separator name="electronic convergence detail" >
     <i type="logical" name="LDIAG"> T  </i>
     <i type="logical" name="LSUBROT"> F  </i>
     <i name="WEIMIN">      0.00100000</i>
     <i name="EBREAK">      0.00000021</i>
     <i name="DEPER">      0.30000000</i>
     <i type="int" name="NRMM">     4</i>
     <i name="TIME">      0.40000000</i>
    </separator>
   </separator>
   <separator name="electronic mixer" >
    <i name="AMIX">      0.40000000</i>
    <i name="BMIX">      1.00000000</i>
    <i name="AMIN">      0.10000000</i>
    <i name="AMIX_MAG">      1.60000000</i>
    <i name="BMIX_MAG">      1.00000000</i>
    <separator name="electronic mixer details" >
     <i type="int" name="IMIX">     4</i>
     <i type="logical" name="MIXFIRST"> F  </i>
     <i type="int" name="MAXMIX">   -45</i>
     <i name="WC">    100.00000000</i>
     <i type="int" name="INIMIX">     1</i>
     <i type="int" name="MIXPRE">     1</i>
     <i type="int" name="MREMOVE">     5</i>
    </separator>
   </separator>
   <separator name="electronic dipolcorrection" >
    <i type="logical" name="LDIPOL"> F  </i>
    <i type="logical" name="LMONO"> F  </i>
    <i type="int" name="IDIPOL">     0</i>
    <i name="EPSILON">      1.00000000</i>
    <v name="DIPOL">   -100.00000000   -100.00000000   -100.00000000</v>
    <i name="EFIELD">      0.00000000</i>
   </separator>
  </separator>
  <separator name="grids" >
   <i type="int" name="NGX">    42</i>
   <i type="int" name="NGY">    42</i>
   <i type="int" name="NGZ">   126</i>
   <i type="int" name="NGXF">    84</i>
   <i type="int" name="NGYF">    84</i>
   <i type="int" name="NGZF">   252</i>
   <i type="logical" name="ADDGRID"> F  </i>
  </separator>
  <separator name="ionic" >
   <i type="int" name="NSW">   100</i>
   <i type="int" name="IBRION">     1</i>
   <i type="int" name="ISIF">     3</i>
   <i name="PSTRESS">      0.00000000</i>
   <i name="EDIFFG">      0.00100000</i>
   <i type="int" name="NFREE">     0</i>
   <i name="POTIM">      0.50000000</i>
   <i name="SMASS">     -3.00000000</i>
   <i name="SCALEE">      1.00000000</i>
  </separator>
  <separator name="ionic md" >
   <i name="TEBEG">      0.00010000</i>
   <i name="TEEND">      0.00010000</i>
   <i type="int" name="NBLOCK">     1</i>
   <i type="int" name="KBLOCK">   100</i>
   <i type="int" name="NPACO">   256</i>
   <i name="APACO">     16.00000000</i>
  </separator>
  <separator name="symmetry" >
   <i type="int" name="ISYM">     0</i>
   <i name="SYMPREC">      0.00000001</i>
  </separator>
  <separator name="dos" >
   <i type="logical" name="LORBIT"> F  </i>
   <v name="RWIGS">     -1.00000000     -1.00000000     -1.00000000     -1.00000000</v>
   <i type="int" name="NEDOS">   301</i>
   <i name="EMIN">     10.00000000</i>
   <i name="EMAX">    -10.00000000</i>
   <i name="EFERMI">      0.00000000</i>
  </separator>
  <separator name="writing" >
   <i type="int" name="NWRITE">     2</i>
   <i type="logical" name="LWAVE"> F  </i>
   <i type="logical" name="LCHARG"> F  </i>
   <i type="logical" name="LPARD"> F  </i>
   <i type="logical" name="LVTOT"> F  </i>
   <i type="logical" name="LVHAR"> F  </i>
   <i type="logical" name="LELF"> F  </i>
   <i type="logical" name="LOPTICS"> F  </i>
   <v name="STM">      0.00000000      0.00000000      0.00000000      0.00000000      0.00000000      0.00000000      0.00000000</v>
  </separator>
  <separator name="performance" >
   <i type="int" name="NPAR">    40</i>
   <i type="int" name="NSIM">     4</i>
   <i type="int" name="NBLK">    -1</i>
   <i type="logical" name="LPLANE"> F  </i>
   <i type="logical" name="LSCALAPACK"> T  </i>
   <i type="logical" name="LSCAAWARE"> F  </i>
   <i type="logical" name="LSCALU"> F  </i>
   <i type="logical" name="LASYNC"> F  </i>
   <i type="logical" name="LORBITALREAL"> F  </i>
  </separator>
  <separator name="miscellaneous" >
   <i type="int" name="IDIOT">     3</i>
   <i type="logical" name="LMUSIC"> F  </i>
   <v name="POMASS">     50.94100000     95.94000000    183.85000000     32.06600000</v>
   <v name="DARWINR">      0.00000000      0.00000000      0.00000000      0.00000000</v>
   <v name="DARWINV">      1.00000000      1.00000000      1.00000000      1.00000000</v>
   <i type="logical" name="LCORR"> T  </i>
  </separator>
  <i type="logical" name="GGA_COMPAT"> T  </i>
  <i type="logical" name="LBERRY"> F  </i>
  <i type="int" name="ICORELEVEL">     0</i>
  <i type="logical" name="LDAU"> F  </i>
  <i type="int" name="I_CONSTRAINED_M">     0</i>
  <separator name="electronic exchange-correlation" >
   <i type="string" name="GGA">--</i>
   <i type="int" name="VOSKOWN">     0</i>
   <i type="logical" name="LHFCALC"> F  </i>
   <i type="string" name="PRECFOCK"></i>
   <i type="logical" name="LSYMGRAD"> F  </i>
   <i type="logical" name="LHFONE"> F  </i>
   <i type="logical" name="LRHFCALC"> F  </i>
   <i type="logical" name="LTHOMAS"> F  </i>
   <i type="logical" name="LMODELHF"> F  </i>
   <i name="ENCUT4O">     -1.00000000</i>
   <i type="int" name="EXXOEP">     0</i>
   <i type="int" name="FOURORBIT">     0</i>
   <i name="AEXX">      0.00000000</i>
   <i name="HFALPHA">      0.00000000</i>
   <i name="MCALPHA">      0.00000000</i>
   <i name="ALDAX">      1.00000000</i>
   <i name="AGGAX">      1.00000000</i>
   <i name="ALDAC">      1.00000000</i>
   <i name="AGGAC">      1.00000000</i>
   <i type="int" name="NKREDX">     1</i>
   <i type="int" name="NKREDY">     1</i>
   <i type="int" name="NKREDZ">     1</i>
   <i type="logical" name="SHIFTRED"> F  </i>
   <i type="logical" name="ODDONLY"> F  </i>
   <i type="logical" name="EVENONLY"> F  </i>
   <i type="int" name="LMAXFOCK">     0</i>
   <i type="int" name="NMAXFOCKAE">     0</i>
   <i type="logical" name="LFOCKAEDFT"> F  </i>
   <i name="HFSCREEN">      0.00000000</i>
   <i name="HFSCREENC">      0.00000000</i>
   <i type="int" name="NBANDSGWLOW">     0</i>
  </separator>
  <separator name="vdW DFT" >
   <i type="logical" name="LUSE_VDW"> F  </i>
   <i name="Zab_VDW">     -0.84910000</i>
   <i name="PARAM1">      0.12340000</i>
   <i name="PARAM2">      1.00000000</i>
   <i name="PARAM3">      0.00000000</i>
  </separator>
  <separator name="model GW" >
   <i type="int" name="MODEL_GW">     0</i>
   <i name="MODEL_EPS0">     58.26239943</i>
   <i name="MODEL_ALPHA">      1.00000000</i>
  </separator>
  <separator name="linear response parameters" >
   <i type="logical" name="LEPSILON"> F  </i>
   <i type="logical" name="LRPA"> F  </i>
   <i type="logical" name="LNABLA"> F  </i>
   <i type="logical" name="LVEL"> F  </i>
   <i type="int" name="KINTER">     0</i>
   <i name="CSHIFT">      0.10000000</i>
   <i name="OMEGAMAX">     -1.00000000</i>
   <i name="DEG_THRESHOLD">      0.00200000</i>
  </separator>
  <separator name="orbital magnetization" >
   <i type="logical" name="NUCIND"> F  </i>
   <v name="MAGPOS">      0.00000000      0.00000000      0.00000000</v>
   <i type="logical" name="LNICSALL"> T  </i>
   <i type="logical" name="ORBITALMAG"> F  </i>
   <i type="logical" name="LMAGBLOCH"> F  </i>
   <i type="logical" name="LCHIMAG"> F  </i>
   <i type="logical" name="LGAUGE"> T  </i>
   <i type="int" name="MAGATOM">     0</i>
   <v name="MAGDIPOL">      0.00000000      0.00000000      0.00000000</v>
   <v name="AVECCONST">      0.00000000      0.00000000      0.00000000</v>
  </separator>
  <separator name="response functions" >
   <i type="logical" name="LADDER"> F  </i>
   <i type="logical" name="LFXC"> F  </i>
   <i type="logical" name="LHARTREE"> T  </i>
   <i type="int" name="IBSE">     0</i>
   <v type="int" name="KPOINT">    -1     0     0     0</v>
   <i type="logical" name="LTCTE"> F  </i>
   <i type="logical" name="LTETE"> F  </i>
   <i type="logical" name="LTRIPLET"> F  </i>
   <i type="logical" name="LFXCEPS"> F  </i>
   <i type="logical" name="LFXHEG"> F  </i>
   <i type="int" name="NATURALO">     0</i>
   <i type="logical" name="L2ORDER"> F  </i>
   <i type="logical" name="LUSEW"> F  </i>
   <i name="ENCUTGW">     -2.00000000</i>
   <i name="ENCUTGWSOFT">     -2.00000000</i>
   <i name="ENCUTLF">     -1.00000000</i>
   <i type="int" name="LMAXMP2">    -1</i>
   <i name="SCISSOR">      0.00000000</i>
   <i type="int" name="NOMEGA">     0</i>
   <i type="int" name="NOMEGAR">     0</i>
   <i type="int" name="NBANDSGW">    -1</i>
   <i type="int" name="NBANDSO">    -1</i>
   <i type="int" name="NBANDSV">    -1</i>
   <i type="int" name="NELM">     1</i>
   <i type="int" name="NELMHF">     1</i>
   <i type="int" name="DIM">     3</i>
   <i type="int" name="ANTIRES">     0</i>
   <i name="OMEGAMAX">    -30.00000000</i>
   <i name="OMEGAMIN">    -30.00000000</i>
   <i name="OMEGATL">   -200.00000000</i>
   <i type="int" name="OMEGAGRID">     0</i>
   <i name="CSHIFT">     -0.10000000</i>
   <i type="logical" name="SELFENERGY"> F  </i>
   <i type="logical" name="LSPECTRAL"> F  </i>
   <i type="logical" name="LSPECTRALGW"> F  </i>
   <i type="logical" name="LSINGLES"> F  </i>
   <i type="logical" name="LFERMIGW"> F  </i>
   <i type="logical" name="ODDONLYGW"> F  </i>
   <i type="logical" name="EVENONLYGW"> F  </i>
   <i type="int" name="NKREDLFX">     1</i>
   <i type="int" name="NKREDLFY">     1</i>
   <i type="int" name="NKREDLFZ">     1</i>
   <i type="int" name="MAXMEM">  1800</i>
   <i type="int" name="TELESCOPE">     0</i>
   <i type="int" name="TAUPAR">     1</i>
   <i type="int" name="OMEGAPAR">    -1</i>
   <i name="LAMBDA">      1.00000000</i>
  </separator>
  <separator name="External order field" >
   <i name="OFIELD_KAPPA">      0.00000000</i>
   <v name="OFIELD_K">      0.00000000      0.00000000      0.00000000</v>
   <i name="OFIELD_Q6_NEAR">      0.00000000</i>
   <i name="OFIELD_Q6_FAR">      0.00000000</i>
   <i name="OFIELD_A">      0.00000000</i>
  </separator>
 </parameters>
 <atominfo>
  <atoms>      27 </atoms>
  <types>       4 </types>
  <array name="atoms" >
   <dimension dim="1">ion</dimension>
   <field type="string">element</field>
   <field type="int">atomtype</field>
   <set>
    <rc><c>V </c><c>   1</c></rc>
    <rc><c>V </c><c>   1</c></rc>
    <rc><c>V </c><c>   1</c></rc>
    <rc><c>Mo</c><c>   2</c></rc>
    <rc><c>Mo</c><c>   2</c></rc>
    <rc><c>Mo</c><c>   2</c></rc>
    <rc><c>W </c><c>   3</c></rc>
    <rc><c>W </c><c>   3</c></rc>
    <rc><c>W </c><c>   3</c></rc>
    <rc><c>S </c><c>   4</c></rc>
    <rc><c>S </c><c>   4</c></rc>
    <rc><c>S </c><c>   4</c></rc>
    <rc><c>S </c><c>   4</c></rc>
    <rc><c>S </c><c>   4</c></rc>
    <rc><c>S </c><c>   4</c></rc>
    <rc><c>S </c><c>   4</c></rc>
    <rc><c>S </c><c>   4</c></rc>
    <rc><c>S </c><c>   4</c></rc>
    <rc><c>S </c><c>   4</c></rc>
    <rc><c>S </c><c>   4</c></rc>
    <rc><c>S </c><c>   4</c></rc>
    <rc><c>S </c><c>   4</c></rc>
    <rc><c>S </c><c>   4</c></rc>
    <rc><c>S </c><c>   4</c></rc>
    <rc><c>S </c><c>   4</c></rc>
    <rc><c>S </c><c>   4</c></rc>
    <rc><c>S </c><c>   4</c></rc>
   </set>
  </array>
  <array name="atomtypes" >
   <dimension dim="1">type</dimension>
   <field type="int">atomspertype</field>
   <field type="string">element</field>
   <field>mass</field>
   <field>valence</field>
   <field type="string">pseudopotential</field>
   <set>
    <rc><c>   3</c><c>V </c><c>     50.94100000</c><c>      5.00000000</c><c> PAW_PBE V 08Apr2002                    </c></rc>
    <rc><c>   3</c><c>Mo</c><c>     95.94000000</c><c>      6.00000000</c><c> PAW_PBE Mo 08Apr2002                   </c></rc>
    <rc><c>   3</c><c>W </c><c>    183.85000000</c><c>      6.00000000</c><c> PAW_PBE W 08Apr2002                    </c></rc>
    <rc><c>  18</c><c>S </c><c>     32.06600000</c><c>      6.00000000</c><c>  PAW_PBE S 17Jan2003                   </c></rc>
   </set>
  </array>
 </atominfo>
 <structure name="initialpos" >
  <crystal>
   <varray name="basis" >
    <v>       8.66999996       5.03999989       0.00000000 </v>
    <v>      -8.66999982       5.04000013       0.00000000 </v>
    <v>       0.00000000       0.00000000      30.00000000 </v>
   </varray>
   <i name="volume">   2621.80797419 </i>
   <varray name="rec_basis" >
    <v>       0.05767013       0.09920635       0.00000000 </v>
    <v>      -0.05767013       0.09920635       0.00000000 </v>
    <v>       0.00000000       0.00000000       0.03333333 </v>
   </varray>
  </crystal>
  <varray name="positions" >
   <v>       0.33333334       0.66666669       0.00000000 </v>
   <v>       0.66666669       0.00000000       0.00000000 </v>
   <v>       0.00000000       0.00000000       0.00000000 </v>
   <v>       0.00000000       0.66666669       0.00000000 </v>
   <v>       0.66666669       0.66666669       0.00000000 </v>
   <v>       1.00000000       0.33333334       0.00000000 </v>
   <v>       0.33333334       0.00000000       0.00000000 </v>
   <v>       0.33333334       0.33333334       0.00000000 </v>
   <v>       0.66666669       0.33333334       0.00000000 </v>
   <v>       0.11068511       0.22244981       0.95539999 </v>
   <v>       0.22244981       0.11068511       0.04460000 </v>
   <v>       0.11068511       0.55578315       0.95539999 </v>
   <v>       0.22244981       0.44401845       0.04460000 </v>
   <v>       0.11068511       0.88911647       0.95539999 </v>
   <v>       0.22244981       0.77735180       0.04460000 </v>
   <v>       0.44401845       0.22244981       0.95539999 </v>
   <v>       0.55578315       0.11068511       0.04460000 </v>
   <v>       0.44401845       0.55578315       0.95539999 </v>
   <v>       0.55578315       0.44401845       0.04460000 </v>
   <v>       0.44401845       0.88911647       0.95539999 </v>
   <v>       0.55578315       0.77735180       0.04460000 </v>
   <v>       0.77735180       0.22244981       0.95539999 </v>
   <v>       0.88911647       0.11068511       0.04460000 </v>
   <v>       0.77735180       0.55578315       0.95539999 </v>
   <v>       0.88911647       0.44401845       0.04460000 </v>
   <v>       0.77735180       0.88911647       0.95539999 </v>
   <v>       0.88911647       0.77735180       0.04460000 </v>
  </varray>
 </structure>
 <calculation>
  <scstep>
   <time name="dav">   21.67   21.73</time>
   <time name="total">   21.72   21.78</time>
   <energy>
    <i name="alphaZ">     81.65567618 </i>
    <i name="ewald">  41890.23009672 </i>
    <i name="hartreedc"> -47722.87378615 </i>
    <i name="XCdc">   -242.92723532 </i>
    <i name="pawpsdc">   3467.42045192 </i>
    <i name="pawaedc">  -2871.19716117 </i>
    <i name="eentropy">     -0.53101134 </i>
    <i name="bandstr">   -236.92003873 </i>
    <i name="atom">   6761.44252427 </i>
    <i name="e_fr_energy">   1126.29951638 </i>
    <i name="e_wo_entrp">   1126.83052772 </i>
    <i name="e_0_energy">   1126.56502205 </i>
   </energy>
  </scstep>
  <scstep>
   <time name="dav">   28.06   28.13</time>
   <time name="total">   28.06   28.14</time>
   <energy>
    <i name="e_fr_energy">      0.95988964 </i>
    <i name="e_wo_entrp">      1.17730801 </i>
    <i name="e_0_energy">      1.06859882 </i>
   </energy>
  </scstep>
  <scstep>
   <time name="dav">   27.48   27.55</time>
   <time name="total">   27.49   27.56</time>
   <energy>
    <i name="e_fr_energy">   -199.62783936 </i>
    <i name="e_wo_entrp">   -199.34049169 </i>
    <i name="e_0_energy">   -199.48416552 </i>
   </energy>
  </scstep>
  <scstep>
   <time name="dav">   30.19   30.26</time>
   <time name="total">   30.19   30.27</time>
   <energy>
    <i name="e_fr_energy">   -208.99722369 </i>
    <i name="e_wo_entrp">   -208.68866895 </i>
    <i name="e_0_energy">   -208.84294632 </i>
   </energy>
  </scstep>
  <scstep>
   <time name="dav">   27.92   27.99</time>
   <time name="total">   28.39   28.47</time>
   <energy>
    <i name="e_fr_energy">   -209.30760653 </i>
    <i name="e_wo_entrp">   -209.00186685 </i>
    <i name="e_0_energy">   -209.15473669 </i>
   </energy>
  </scstep>
  <scstep>
   <time name="dav">   30.92   30.99</time>
   <time name="total">   31.42   31.50</time>
   <energy>
    <i name="e_fr_energy">   -236.79168707 </i>
    <i name="e_wo_entrp">   -236.50951367 </i>
    <i name="e_0_energy">   -236.65060037 </i>
   </energy>
  </scstep>
  <scstep>
   <time name="dav">   32.53   32.61</time>
   <time name="total">   33.05   33.15</time>
   <energy>
    <i name="e_fr_energy">   -196.50526277 </i>
    <i name="e_wo_entrp">   -196.18914323 </i>
    <i name="e_0_energy">   -196.34720300 </i>
   </energy>
  </scstep>
  <scstep>
   <time name="dav">   29.53   29.60</time>
   <time name="total">   30.04   30.12</time>
   <energy>
    <i name="e_fr_energy">   -189.48434468 </i>
    <i name="e_wo_entrp">   -189.19483215 </i>
    <i name="e_0_energy">   -189.33958841 </i>
   </energy>
  </scstep>
  <scstep>
   <time name="dav">   30.58   30.65</time>
   <time name="total">   31.10   31.19</time>
   <energy>
    <i name="e_fr_energy">   -188.16898444 </i>
    <i name="e_wo_entrp">   -187.82866318 </i>
    <i name="e_0_energy">   -187.99882381 </i>
   </energy>
  </scstep>
  <scstep>
   <time name="dav">   32.56   32.64</time>
   <time name="total">   33.09   33.18</time>
   <energy>
    <i name="e_fr_energy">   -187.03363427 </i>
    <i name="e_wo_entrp">   -186.68716480 </i>
    <i name="e_0_energy">   -186.86039954 </i>
   </energy>
  </scstep>
  <scstep>
   <time name="dav">   30.40   30.47</time>
   <time name="total">   30.94   31.02</time>
   <energy>
    <i name="e_fr_energy">   -186.94254371 </i>
    <i name="e_wo_entrp">   -186.59144846 </i>
    <i name="e_0_energy">   -186.76699609 </i>
   </energy>
  </scstep>
  <scstep>
   <time name="dav">   30.75   30.83</time>
   <time name="total">   31.28   31.37</time>
   <energy>
    <i name="e_fr_energy">   -187.04863521 </i>
    <i name="e_wo_entrp">   -186.71154814 </i>
    <i name="e_0_energy">   -186.88009167 </i>
   </energy>
  </scstep>
  <scstep>
   <time name="dav">   30.98   31.05</time>
   <time name="total">   31.52   31.60</time>
   <energy>
    <i name="e_fr_energy">   -186.88140763 </i>
    <i name="e_wo_entrp">   -186.54288111 </i>
    <i name="e_0_energy">   -186.71214437 </i>
   </energy>
  </scstep>
  <scstep>
   <time name="dav">   32.21   32.29</time>
   <time name="total">   32.75   32.84</time>
   <energy>
    <i name="e_fr_energy">   -186.84598151 </i>
    <i name="e_wo_entrp">   -186.50075818 </i>
    <i name="e_0_energy">   -186.67336984 </i>
   </energy>
  </scstep>
  <scstep>
   <time name="dav">   29.79   29.86</time>
   <time name="total">   30.33   30.41</time>
   <energy>
    <i name="e_fr_energy">   -186.83994457 </i>
    <i name="e_wo_entrp">   -186.49296359 </i>
    <i name="e_0_energy">   -186.66645408 </i>
   </energy>
  </scstep>
  <scstep>
   <time name="dav">   31.59   31.67</time>
   <time name="total">   32.13   32.21</time>
   <energy>
    <i name="e_fr_energy">   -186.82973555 </i>
    <i name="e_wo_entrp">   -186.48257428 </i>
    <i name="e_0_energy">   -186.65615492 </i>
   </energy>
  </scstep>
  <scstep>
   <time name="dav">   31.19   31.26</time>
   <time name="total">   31.73   31.82</time>
   <energy>
    <i name="e_fr_energy">   -186.82763018 </i>
    <i name="e_wo_entrp">   -186.48238331 </i>
    <i name="e_0_energy">   -186.65500674 </i>
   </energy>
  </scstep>
  <scstep>
   <time name="dav">   29.53   29.60</time>
   <time name="total">   30.07   30.15</time>
   <energy>
    <i name="e_fr_energy">   -186.82728344 </i>
    <i name="e_wo_entrp">   -186.48193361 </i>
    <i name="e_0_energy">   -186.65460852 </i>
   </energy>
  </scstep>
  <scstep>
   <time name="dav">   26.04   26.10</time>
   <time name="total">   26.58   26.65</time>
   <energy>
    <i name="e_fr_energy">   -186.82692956 </i>
    <i name="e_wo_entrp">   -186.48119757 </i>
    <i name="e_0_energy">   -186.65406357 </i>
   </energy>
  </scstep>
  <scstep>
   <time name="dav">   24.12   24.18</time>
   <time name="total">   24.66   24.73</time>
   <energy>
    <i name="e_fr_energy">   -186.82752000 </i>
    <i name="e_wo_entrp">   -186.48184344 </i>
    <i name="e_0_energy">   -186.65468172 </i>
   </energy>
  </scstep>
  <scstep>
   <time name="dav">   23.79   23.85</time>
   <time name="total">   24.33   24.40</time>
   <energy>
    <i name="e_fr_energy">   -186.82817912 </i>
    <i name="e_wo_entrp">   -186.48276746 </i>
    <i name="e_0_energy">   -186.65547329 </i>
   </energy>
  </scstep>
  <scstep>
   <time name="dav">   20.39   20.44</time>
   <time name="total">   20.93   20.99</time>
   <energy>
    <i name="e_fr_energy">   -186.82936246 </i>
    <i name="e_wo_entrp">   -186.48380245 </i>
    <i name="e_0_energy">   -186.65658245 </i>
   </energy>
  </scstep>
  <scstep>
   <time name="dav">   20.41   20.45</time>
   <time name="total">   20.94   21.00</time>
   <energy>
    <i name="e_fr_energy">   -186.83062414 </i>
    <i name="e_wo_entrp">   -186.48517290 </i>
    <i name="e_0_energy">   -186.65789852 </i>
   </energy>
  </scstep>
  <scstep>
   <time name="dav">   18.59   18.64</time>
   <time name="total">   19.13   19.19</time>
   <energy>
    <i name="e_fr_energy">   -186.83122220 </i>
    <i name="e_wo_entrp">   -186.48575946 </i>
    <i name="e_0_energy">   -186.65849083 </i>
   </energy>
  </scstep>
  <scstep>
   <time name="dav">   16.58   16.62</time>
   <time name="total">   17.12   17.17</time>
   <energy>
    <i name="e_fr_energy">   -186.83160800 </i>
    <i name="e_wo_entrp">   -186.48609933 </i>
    <i name="e_0_energy">   -186.65885367 </i>
   </energy>
  </scstep>
  <scstep>
   <time name="dav">   19.03   19.08</time>
   <time name="total">   19.57   19.63</time>
   <energy>
    <i name="e_fr_energy">   -186.83182540 </i>
    <i name="e_wo_entrp">   -186.48633205 </i>
    <i name="e_0_energy">   -186.65907872 </i>
   </energy>
  </scstep>
  <scstep>
   <time name="dav">   19.15   19.19</time>
   <time name="total">   19.69   19.74</time>
   <energy>
    <i name="e_fr_energy">   -186.83193279 </i>
    <i name="e_wo_entrp">   -186.48644255 </i>
    <i name="e_0_energy">   -186.65918767 </i>
   </energy>
  </scstep>
  <scstep>
   <time name="dav">   20.00   20.04</time>
   <time name="total">   20.03   20.09</time>
   <energy>
    <i name="alphaZ">     81.65567618 </i>
    <i name="ewald">  41890.23009672 </i>
    <i name="hartreedc"> -47832.88105629 </i>
    <i name="XCdc">   -231.61131565 </i>
    <i name="pawpsdc">   4192.03466717 </i>
    <i name="pawaedc">  -3610.03764999 </i>
    <i name="eentropy">     -0.34548874 </i>
    <i name="bandstr">  -1437.31943164 </i>
    <i name="atom">   6761.44252427 </i>
    <i name="e_fr_energy">   -186.83197798 </i>
    <i name="e_wo_entrp">   -186.48648923 </i>
    <i name="e_0_energy">   -186.65923360 </i>
   </energy>
  </scstep>
  <structure>
   <crystal>
    <varray name="basis" >
     <v>       8.66999996       5.03999989       0.00000000 </v>
     <v>      -8.66999982       5.04000013       0.00000000 </v>
     <v>       0.00000000       0.00000000      30.00000000 </v>
    </varray>
    <i name="volume">   2621.80797419 </i>
    <varray name="rec_basis" >
     <v>       0.05767013       0.09920635       0.00000000 </v>
     <v>      -0.05767013       0.09920635       0.00000000 </v>
     <v>       0.00000000       0.00000000       0.03333333 </v>
    </varray>
   </crystal>
   <varray name="positions" >
    <v>       0.33333334       0.66666669       0.00000000 </v>
    <v>       0.66666669       0.00000000       0.00000000 </v>
    <v>       0.00000000       0.00000000       0.00000000 </v>
    <v>       0.00000000       0.66666669       0.00000000 </v>
    <v>       0.66666669       0.66666669       0.00000000 </v>
    <v>       1.00000000       0.33333334       0.00000000 </v>
    <v>       0.33333334       0.00000000       0.00000000 </v>
    <v>       0.33333334       0.33333334       0.00000000 </v>
    <v>       0.66666669       0.33333334       0.00000000 </v>
    <v>       0.11068511       0.22244981       0.95539999 </v>
    <v>       0.22244981       0.11068511       0.04460000 </v>
    <v>       0.11068511       0.55578315       0.95539999 </v>
    <v>       0.22244981       0.44401845       0.04460000 </v>
    <v>       0.11068511       0.88911647       0.95539999 </v>
    <v>       0.22244981       0.77735180       0.04460000 </v>
    <v>       0.44401845       0.22244981       0.95539999 </v>
    <v>       0.55578315       0.11068511       0.04460000 </v>
    <v>       0.44401845       0.55578315       0.95539999 </v>
    <v>       0.55578315       0.44401845       0.04460000 </v>
    <v>       0.44401845       0.88911647       0.95539999 </v>
    <v>       0.55578315       0.77735180       0.04460000 </v>
    <v>       0.77735180       0.22244981       0.95539999 </v>
    <v>       0.88911647       0.11068511       0.04460000 </v>
    <v>       0.77735180       0.55578315       0.95539999 </v>
    <v>       0.88911647       0.44401845       0.04460000 </v>
    <v>       0.77735180       0.88911647       0.95539999 </v>
    <v>       0.88911647       0.77735180       0.04460000 </v>
   </varray>
  </structure>
  <varray name="forces" >
   <v>       0.00511684      -0.15146806      -0.08120097 </v>
   <v>       0.29935270       0.07339939       0.03454109 </v>
   <v>      -0.07423580      -0.26650615       0.10293540 </v>
   <v>       0.00378460      -0.28928498      -0.12084407 </v>
   <v>       0.18249605       0.16326429       0.07426536 </v>
   <v>      -0.23960560       0.12647338      -0.02205987 </v>
   <v>       0.07628778      -0.34982712      -0.04274577 </v>
   <v>      -0.34704343       0.12616075       0.08621205 </v>
   <v>       0.05311384       0.63341865      -0.02081871 </v>
   <v>       0.61555170      -0.55690600      -2.11614759 </v>
   <v>      -0.47802315      -0.58319064       2.19689195 </v>
   <v>       0.52380183       0.71454324      -2.17063537 </v>
   <v>      -0.34575139       0.69186075       2.17507485 </v>
   <v>      -0.64588180       0.14634627      -2.10239439 </v>
   <v>       0.66105721       0.15815446       2.09556632 </v>
   <v>       0.16266469       0.01662502      -2.86476080 </v>
   <v>       0.57832801       0.00565083       2.08534049 </v>
   <v>      -0.69043782      -0.14199552      -2.13659906 </v>
   <v>      -0.04443580      -0.17005200       2.91026619 </v>
   <v>       0.74119822      -0.02410924      -1.48542598 </v>
   <v>      -0.88808580       0.00210506       1.43203808 </v>
   <v>       0.36054923      -0.70772020      -2.15293172 </v>
   <v>       0.34520060      -0.67587814       1.42770864 </v>
   <v>       0.21675648      -0.14558913      -2.94915891 </v>
   <v>      -0.19597192      -0.17536546       2.93010117 </v>
   <v>      -0.32546332       0.66586721      -1.43937221 </v>
   <v>      -0.55032395       0.71402332       2.15415382 </v>
  </varray>
  <varray name="stress" >
   <v>       7.30344794      -0.04625575      -1.53144483 </v>
   <v>      -0.04625571       4.43663696       0.00022739 </v>
   <v>      -1.53144498       0.00022737      30.32785761 </v>
  </varray>
  <energy>
   <i name="e_fr_energy">   -186.83197798 </i>
   <i name="e_wo_entrp">   -186.65923360 </i>
   <i name="e_0_energy">     -0.34548874 </i>
  </energy>
  <time name="totalsc">  800.17  802.34</time>
 </calculation>
 <calculation>
  <scstep>
   <time name="dav">   21.68   21.73</time>
   <time name="total">   22.23   22.28</time>
   <energy>
    <i name="alphaZ">     78.92461242 </i>
    <i name="ewald">  39380.89091835 </i>
    <i name="hartreedc"> -45338.34591860 </i>
    <i name="XCdc">   -239.07002259 </i>
    <i name="pawpsdc">   4192.03603158 </i>
    <i name="pawaedc">  -3610.03900748 </i>
    <i name="eentropy">     -0.28725257 </i>
    <i name="bandstr">  -1413.01622519 </i>
    <i name="atom">   6761.44252427 </i>
    <i name="e_fr_energy">   -187.46433980 </i>
    <i name="e_wo_entrp">   -187.17708723 </i>
    <i name="e_0_energy">   -187.32071351 </i>
   </energy>
  </scstep>
  <scstep>
   <time name="dav">   30.13   30.20</time>
   <time name="total">   30.66   30.74</time>
   <energy>
    <i name="e_fr_energy">   -189.36141957 </i>
    <i name="e_wo_entrp">   -189.04073092 </i>
    <i name="e_0_energy">   -189.20107524 </i>
   </energy>
  </scstep>
  <scstep>
   <time name="dav">   30.51   30.59</time>
   <time name="total">   31.06   31.15</time>
   <energy>
    <i name="e_fr_energy">   -189.34357241 </i>
    <i name="e_wo_entrp">   -189.06295743 </i>
    <i name="e_0_energy">   -189.20326492 </i>
   </energy>
  </scstep>
  <scstep>
   <time name="dav">   30.89   30.97</time>
   <time name="total">   31.44   31.52</time>
   <energy>
    <i name="e_fr_energy">   -188.73953005 </i>
    <i name="e_wo_entrp">   -188.45367407 </i>
    <i name="e_0_energy">   -188.59660206 </i>
   </energy>
  </scstep>
  <scstep>
   <time name="dav">   27.77   27.83</time>
   <time name="total">   28.31   28.39</time>
   <energy>
    <i name="e_fr_energy">   -188.74500441 </i>
    <i name="e_wo_entrp">   -188.45613112 </i>
    <i name="e_0_energy">   -188.60056776 </i>
   </energy>
  </scstep>
  <scstep>
   <time name="dav">   28.07   28.13</time>
   <time name="total">   28.61   28.69</time>
   <energy>
    <i name="e_fr_energy">   -188.67148108 </i>
    <i name="e_wo_entrp">   -188.38484206 </i>
    <i name="e_0_energy">   -188.52816157 </i>
   </energy>
  </scstep>
  <scstep>
   <time name="dav">   29.96   30.03</time>
   <time name="total">   30.50   30.58</time>
   <energy>
    <i name="e_fr_energy">   -188.68900659 </i>
    <i name="e_wo_entrp">   -188.40204900 </i>
    <i name="e_0_energy">   -188.54552779 </i>
   </energy>
  </scstep>
  <scstep>
   <time name="dav">   31.89   31.97</time>
   <time name="total">   32.44   32.52</time>
   <energy>
    <i name="e_fr_energy">   -188.64740915 </i>
    <i name="e_wo_entrp">   -188.36221538 </i>
    <i name="e_0_energy">   -188.50481227 </i>
   </energy>
  </scstep>
  <scstep>
   <time name="dav">   27.85   27.92</time>
   <time name="total">   28.40   28.48</time>
   <energy>
    <i name="e_fr_energy">   -188.64436568 </i>
    <i name="e_wo_entrp">   -188.35912570 </i>
    <i name="e_0_energy">   -188.50174569 </i>
   </energy>
  </scstep>
  <scstep>
   <time name="dav">   32.90   32.98</time>
   <time name="total">   33.45   33.54</time>
   <energy>
    <i name="e_fr_energy">   -188.64414290 </i>
    <i name="e_wo_entrp">   -188.35849826 </i>
    <i name="e_0_energy">   -188.50132058 </i>
   </energy>
  </scstep>
  <scstep>
   <time name="dav">   31.55   31.62</time>
   <time name="total">   32.09   32.18</time>
   <energy>
    <i name="e_fr_energy">   -188.64315740 </i>
    <i name="e_wo_entrp">   -188.35867492 </i>
    <i name="e_0_energy">   -188.50091616 </i>
   </energy>
  </scstep>
  <scstep>
   <time name="dav">   30.18   30.25</time>
   <time name="total">   30.72   30.80</time>
   <energy>
    <i name="e_fr_energy">   -188.64320208 </i>
    <i name="e_wo_entrp">   -188.35853285 </i>
    <i name="e_0_energy">   -188.50086746 </i>
   </energy>
  </scstep>
  <scstep>
   <time name="dav">   20.68   20.73</time>
   <time name="total">   20.72   20.77</time>
   <energy>
    <i name="alphaZ">     78.92461242 </i>
    <i name="ewald">  39380.89091835 </i>
    <i name="hartreedc"> -45349.19804689 </i>
    <i name="XCdc">   -237.97950823 </i>
    <i name="pawpsdc">   3950.38412440 </i>
    <i name="pawaedc">  -3364.88852351 </i>
    <i name="eentropy">     -0.28470364 </i>
    <i name="bandstr">  -1407.93450883 </i>
    <i name="atom">   6761.44252427 </i>
    <i name="e_fr_energy">   -188.64311167 </i>
    <i name="e_wo_entrp">   -188.35840803 </i>
    <i name="e_0_energy">   -188.50075985 </i>
   </energy>
  </scstep>
  <structure>
   <crystal>
    <varray name="basis" >
     <v>       8.85446024       5.10420690       0.00000000 </v>
     <v>      -8.85582337       5.10655230       0.00000000 </v>
     <v>       0.00000000       0.00000000      30.00000000 </v>
    </varray>
    <i name="volume">   2712.53157122 </i>
    <varray name="rec_basis" >
     <v>       0.05647734       0.09794345       0.00000000 </v>
     <v>      -0.05645140       0.09792837       0.00000000 </v>
     <v>       0.00000000       0.00000000       0.03333333 </v>
    </varray>
   </crystal>
   <varray name="positions" >
    <v>       0.33262266       0.66592753      -0.00013058 </v>
    <v>       0.66785082      -0.00048156       0.00005555 </v>
    <v>      -0.00148203      -0.00106896       0.00016553 </v>
    <v>      -0.00137398       0.66527165      -0.00019433 </v>
    <v>       0.66795580       0.66694033       0.00011943 </v>
    <v>       0.99993868       0.33460526      -0.00003547 </v>
    <v>       0.33187132      -0.00188651      -0.00006874 </v>
    <v>       0.33297162       0.33490268       0.00013864 </v>
    <v>       0.66984599       0.33621710      -0.00003348 </v>
    <v>       0.10973233       0.21807191       0.95199704 </v>
    <v>       0.21832874       0.10922391       0.04813280 </v>
    <v>       0.11556220       0.55774564       0.95190942 </v>
    <v>       0.22479910       0.44829162       0.04809771 </v>
    <v>       0.10958857       0.89161382       0.95201915 </v>
    <v>       0.22504590       0.77626955       0.04796985 </v>
    <v>       0.44455058       0.22207682       0.95079320 </v>
    <v>       0.55741920       0.10910315       0.04795341 </v>
    <v>       0.44141796       0.55702447       0.95196415 </v>
    <v>       0.55484566       0.44332822       0.04927996 </v>
    <v>       0.44596520       0.88693895       0.95301129 </v>
    <v>       0.55332243       0.77983267       0.04690284 </v>
    <v>       0.77496777       0.21805957       0.95193789 </v>
    <v>       0.88684213       0.10648997       0.04689588 </v>
    <v>       0.77725806       0.55448332       0.95065748 </v>
    <v>       0.88773195       0.44372438       0.04931186 </v>
    <v>       0.77963313       0.89320878       0.95308535 </v>
    <v>       0.89100268       0.78230019       0.04806407 </v>
   </varray>
  </structure>
  <varray name="forces" >
   <v>       0.00557351      -0.16132403      -0.02628452 </v>
   <v>       0.19067478       0.05818923       0.09863036 </v>
   <v>      -0.00213547      -0.16193406       0.04785454 </v>
   <v>       0.00895064      -0.48689310      -0.03107648 </v>
   <v>       0.44754099      -0.04386031       0.09006840 </v>
   <v>      -0.34479195       0.15772346      -0.08498472 </v>
   <v>      -0.04709600      -0.25516736      -0.00040021 </v>
   <v>      -0.16962649       0.12097398      -0.07029754 </v>
   <v>      -0.05479693       0.71503069      -0.00975856 </v>
   <v>       0.08154285       0.05059762       0.14405515 </v>
   <v>       0.04195695       0.04346108      -0.10020186 </v>
   <v>       0.02689297       0.07742751      -0.12434622 </v>
   <v>       0.09403618       0.06853808       0.05744480 </v>
   <v>       0.01707330       0.09951277       0.00076764 </v>
   <v>      -0.02214024       0.10629062      -0.04340254 </v>
   <v>      -0.01226240       0.01165019       0.25697126 </v>
   <v>      -0.10177155      -0.00636007      -0.23792915 </v>
   <v>       0.00635444      -0.09249460       0.00976460 </v>
   <v>       0.09174093      -0.12245776       0.03211199 </v>
   <v>      -0.09256579      -0.01561846       0.12360944 </v>
   <v>      -0.03326459       0.00834812      -0.16441353 </v>
   <v>      -0.10274340      -0.05923680       0.03546297 </v>
   <v>       0.00606876      -0.04407698      -0.05118820 </v>
   <v>       0.05648953      -0.09167031      -0.28000951 </v>
   <v>      -0.06050698      -0.09357181       0.23653823 </v>
   <v>      -0.00661603       0.03869488       0.00636984 </v>
   <v>      -0.02457801       0.07822743       0.08464383 </v>
  </varray>
  <varray name="stress" >
   <v>     -19.88677174       0.00896833       0.01252521 </v>
   <v>       0.00896817     -19.47187594       0.01997280 </v>
   <v>       0.01252517       0.01997284      -1.74906918 </v>
  </varray>
  <energy>
   <i name="e_fr_energy">   -188.64311167 </i>
   <i name="e_wo_entrp">   -188.50075985 </i>
   <i name="e_0_energy">     -0.28470364 </i>
  </energy>
  <time name="totalsc">  422.67  423.79</time>
 </calculation>
 <calculation>
  <scstep>
   <time name="dav">   23.87   23.93</time>
   <time name="total">   24.40   24.47</time>
   <energy>
    <i name="alphaZ">     82.35043700 </i>
    <i name="ewald">  41305.09821523 </i>
    <i name="hartreedc"> -47303.97307835 </i>
    <i name="XCdc">   -233.85503117 </i>
    <i name="pawpsdc">   3949.82671030 </i>
    <i name="pawaedc">  -3364.32628548 </i>
    <i name="eentropy">     -0.23748893 </i>
    <i name="bandstr">  -1386.88895199 </i>
    <i name="atom">   6761.44252427 </i>
    <i name="e_fr_energy">   -190.56294911 </i>
    <i name="e_wo_entrp">   -190.32546018 </i>
    <i name="e_0_energy">   -190.44420465 </i>
   </energy>
  </scstep>
  <scstep>
   <time name="dav">   28.36   28.43</time>
   <time name="total">   28.88   28.96</time>
   <energy>
    <i name="e_fr_energy">   -190.55040437 </i>
    <i name="e_wo_entrp">   -190.30770829 </i>
    <i name="e_0_energy">   -190.42905633 </i>
   </energy>
  </scstep>
  <scstep>
   <time name="dav">   30.28   30.35</time>
   <time name="total">   30.80   30.89</time>
   <energy>
    <i name="e_fr_energy">   -190.03729968 </i>
    <i name="e_wo_entrp">   -189.78873035 </i>
    <i name="e_0_energy">   -189.91301502 </i>
   </energy>
  </scstep>
  <scstep>
   <time name="dav">   31.13   31.21</time>
   <time name="total">   31.67   31.75</time>
   <energy>
    <i name="e_fr_energy">   -189.83186988 </i>
    <i name="e_wo_entrp">   -189.59193599 </i>
    <i name="e_0_energy">   -189.71190294 </i>
   </energy>
  </scstep>
  <scstep>
   <time name="dav">   28.83   28.90</time>
   <time name="total">   29.36   29.44</time>
   <energy>
    <i name="e_fr_energy">   -189.74432378 </i>
    <i name="e_wo_entrp">   -189.50248719 </i>
    <i name="e_0_energy">   -189.62340548 </i>
   </energy>
  </scstep>
  <scstep>
   <time name="dav">   26.64   26.70</time>
   <time name="total">   27.18   27.46</time>
   <energy>
    <i name="e_fr_energy">   -189.72932783 </i>
    <i name="e_wo_entrp">   -189.48830009 </i>
    <i name="e_0_energy">   -189.60881396 </i>
   </energy>
  </scstep>
  <scstep>
   <time name="dav">   29.94   30.01</time>
   <time name="total">   30.47   30.55</time>
   <energy>
    <i name="e_fr_energy">   -189.73059099 </i>
    <i name="e_wo_entrp">   -189.48921379 </i>
    <i name="e_0_energy">   -189.60990239 </i>
   </energy>
  </scstep>
  <scstep>
   <time name="dav">   28.52   28.59</time>
   <time name="total">   29.05   29.13</time>
   <energy>
    <i name="e_fr_energy">   -189.72986603 </i>
    <i name="e_wo_entrp">   -189.48907073 </i>
    <i name="e_0_energy">   -189.60946838 </i>
   </energy>
  </scstep>
  <scstep>
   <time name="dav">   25.58   25.64</time>
   <time name="total">   26.12   26.19</time>
   <energy>
    <i name="e_fr_energy">   -189.72984136 </i>
    <i name="e_wo_entrp">   -189.48866030 </i>
    <i name="e_0_energy">   -189.60925083 </i>
   </energy>
  </scstep>
  <scstep>
   <time name="dav">   24.61   24.67</time>
   <time name="total">   24.65   24.72</time>
   <energy>
    <i name="alphaZ">     82.35043700 </i>
    <i name="ewald">  41305.09821523 </i>
    <i name="hartreedc"> -47277.04888973 </i>
    <i name="XCdc">   -235.24360700 </i>
    <i name="pawpsdc">   4037.20209730 </i>
    <i name="pawaedc">  -3452.89189500 </i>
    <i name="eentropy">     -0.24107506 </i>
    <i name="bandstr">  -1410.39759691 </i>
    <i name="atom">   6761.44252427 </i>
    <i name="e_fr_energy">   -189.72978990 </i>
    <i name="e_wo_entrp">   -189.48871484 </i>
    <i name="e_0_energy">   -189.60925237 </i>
   </energy>
  </scstep>
  <structure>
   <crystal>
    <varray name="basis" >
     <v>       8.66641564       4.99812621       0.00000000 </v>
     <v>      -8.66765200       5.00025317       0.00000000 </v>
     <v>       0.00000000       0.00000000      30.00000000 </v>
    </varray>
    <i name="volume">   2599.68872944 </i>
    <varray name="rec_basis" >
     <v>       0.05770214       0.10002334       0.00000000 </v>
     <v>      -0.05767759       0.10000908       0.00000000 </v>
     <v>       0.00000000       0.00000000       0.03333333 </v>
    </varray>
   </crystal>
   <varray name="positions" >
    <v>       0.33235885       0.66565304      -0.00014550 </v>
    <v>       0.66813136      -0.00056785       0.00011155 </v>
    <v>      -0.00175427      -0.00133705       0.00019270 </v>
    <v>      -0.00217774       0.66445079      -0.00021197 </v>
    <v>       0.66831320       0.66643678       0.00017057 </v>
    <v>       0.99987011       0.33519995      -0.00008373 </v>
    <v>       0.33140027      -0.00226690      -0.00006897 </v>
    <v>       0.33301026       0.33526761       0.00009872 </v>
    <v>       0.67098628       0.33746263      -0.00003902 </v>
    <v>       0.10989521       0.21807790       0.95207884 </v>
    <v>       0.21844162       0.10925606       0.04807590 </v>
    <v>       0.11571726       0.55784894       0.95183881 </v>
    <v>       0.22500393       0.44831553       0.04813033 </v>
    <v>       0.10977104       0.89176341       0.95201959 </v>
    <v>       0.22520194       0.77646816       0.04794521 </v>
    <v>       0.44455822       0.22210804       0.95093912 </v>
    <v>       0.55731067       0.10919041       0.04781831 </v>
    <v>       0.44126975       0.55686406       0.95196969 </v>
    <v>       0.55472961       0.44303570       0.04929820 </v>
    <v>       0.44585008       0.88700191       0.95308148 </v>
    <v>       0.55330436       0.77987858       0.04680948 </v>
    <v>       0.77477008       0.21805955       0.95195802 </v>
    <v>       0.88677443       0.10641060       0.04686681 </v>
    <v>       0.77715946       0.55427606       0.95049848 </v>
    <v>       0.88751761       0.44362647       0.04944618 </v>
    <v>       0.77969133       0.89327970       0.95308897 </v>
    <v>       0.89110955       0.78245432       0.04811213 </v>
   </varray>
  </structure>
  <varray name="forces" >
   <v>       0.01064327      -0.18590402      -0.00530513 </v>
   <v>       0.14520670       0.05256052       0.09180496 </v>
   <v>       0.04221435      -0.11005152       0.02241797 </v>
   <v>       0.00666486      -0.53910818      -0.00327808 </v>
   <v>       0.52532194      -0.11430769       0.06717826 </v>
   <v>      -0.37144339       0.17764639      -0.07511496 </v>
   <v>      -0.08778674      -0.22961179       0.01370405 </v>
   <v>      -0.11639833       0.12339747      -0.08665076 </v>
   <v>      -0.10244561       0.72389545      -0.00327029 </v>
   <v>       0.06827817      -0.08582785      -0.34015437 </v>
   <v>      -0.04456026      -0.07656489       0.41117693 </v>
   <v>       0.05473691       0.14935832      -0.62788831 </v>
   <v>      -0.04027930       0.12876162       0.56583362 </v>
   <v>      -0.09854142       0.00656210      -0.50133495 </v>
   <v>       0.08700540       0.01444608       0.44971279 </v>
   <v>      -0.00207607       0.02521713      -0.27236049 </v>
   <v>       0.03108614       0.01033961       0.23749145 </v>
   <v>      -0.10477784       0.00055435      -0.48926641 </v>
   <v>       0.06091649      -0.06356898       0.60007368 </v>
   <v>       0.07713757      -0.01036406      -0.34262373 </v>
   <v>      -0.10049676       0.00046266       0.27076908 </v>
   <v>       0.01444363      -0.12468909      -0.46286482 </v>
   <v>       0.03157525      -0.08584972       0.39348413 </v>
   <v>       0.00727016      -0.01130342      -0.87246934 </v>
   <v>      -0.01456174      -0.00797319       0.81428811 </v>
   <v>      -0.03522805       0.08949747      -0.43688531 </v>
   <v>      -0.04390530       0.14242524       0.58153193 </v>
  </varray>
  <varray name="stress" >
   <v>     -10.14467698       0.00625464      -0.00639342 </v>
   <v>       0.00625471      -9.83025693       0.02430142 </v>
   <v>      -0.00639333       0.02430137       6.59221220 </v>
  </varray>
  <energy>
   <i name="e_fr_energy">   -189.72978990 </i>
   <i name="e_wo_entrp">   -189.60925237 </i>
   <i name="e_0_energy">     -0.24107506 </i>
  </energy>
  <time name="totalsc">  324.39  325.46</time>
 </calculation>
 <calculation>
  <scstep>
   <time name="dav">   21.64   21.69</time>
   <time name="total">   22.16   22.21</time>
   <energy>
    <i name="alphaZ">     85.83243519 </i>
    <i name="ewald">  42837.80280506 </i>
    <i name="hartreedc"> -48854.29158609 </i>
    <i name="XCdc">   -232.95656111 </i>
    <i name="pawpsdc">   4038.10052817 </i>
    <i name="pawaedc">  -3453.79751356 </i>
    <i name="eentropy">     -0.20222667 </i>
    <i name="bandstr">  -1373.22216079 </i>
    <i name="atom">   6761.44252427 </i>
    <i name="e_fr_energy">   -191.29175552 </i>
    <i name="e_wo_entrp">   -191.08952885 </i>
    <i name="e_0_energy">   -191.19064218 </i>
   </energy>
  </scstep>
  <scstep>
   <time name="dav">   31.88   31.95</time>
   <time name="total">   32.39   32.48</time>
   <energy>
    <i name="e_fr_energy">   -191.19073550 </i>
    <i name="e_wo_entrp">   -190.98035742 </i>
    <i name="e_0_energy">   -191.08554646 </i>
   </energy>
  </scstep>
  <scstep>
   <time name="dav">   29.75   29.83</time>
   <time name="total">   30.27   30.35</time>
   <energy>
    <i name="e_fr_energy">   -191.19711873 </i>
    <i name="e_wo_entrp">   -190.97973458 </i>
    <i name="e_0_energy">   -191.08842666 </i>
   </energy>
  </scstep>
  <scstep>
   <time name="dav">   31.26   31.34</time>
   <time name="total">   31.78   31.86</time>
   <energy>
    <i name="e_fr_energy">   -190.86112790 </i>
    <i name="e_wo_entrp">   -190.64969394 </i>
    <i name="e_0_energy">   -190.75541092 </i>
   </energy>
  </scstep>
  <scstep>
   <time name="dav">   29.23   29.30</time>
   <time name="total">   29.75   29.83</time>
   <energy>
    <i name="e_fr_energy">   -190.84698503 </i>
    <i name="e_wo_entrp">   -190.64182614 </i>
    <i name="e_0_energy">   -190.74440558 </i>
   </energy>
  </scstep>
  <scstep>
   <time name="dav">   29.92   29.99</time>
   <time name="total">   30.44   30.52</time>
   <energy>
    <i name="e_fr_energy">   -190.71200171 </i>
    <i name="e_wo_entrp">   -190.50162435 </i>
    <i name="e_0_energy">   -190.60681303 </i>
   </energy>
  </scstep>
  <scstep>
   <time name="dav">   30.17   30.24</time>
   <time name="total">   30.68   30.76</time>
   <energy>
    <i name="e_fr_energy">   -190.70323099 </i>
    <i name="e_wo_entrp">   -190.49443309 </i>
    <i name="e_0_energy">   -190.59883204 </i>
   </energy>
  </scstep>
  <scstep>
   <time name="dav">   28.19   28.25</time>
   <time name="total">   28.70   28.78</time>
   <energy>
    <i name="e_fr_energy">   -190.70260533 </i>
    <i name="e_wo_entrp">   -190.49393651 </i>
    <i name="e_0_energy">   -190.59827092 </i>
   </energy>
  </scstep>
  <scstep>
   <time name="dav">   28.34   28.41</time>
   <time name="total">   28.86   28.93</time>
   <energy>
    <i name="e_fr_energy">   -190.69994732 </i>
    <i name="e_wo_entrp">   -190.49102770 </i>
    <i name="e_0_energy">   -190.59548751 </i>
   </energy>
  </scstep>
  <scstep>
   <time name="dav">   26.14   26.20</time>
   <time name="total">   26.65   26.72</time>
   <energy>
    <i name="e_fr_energy">   -190.70020670 </i>
    <i name="e_wo_entrp">   -190.49125684 </i>
    <i name="e_0_energy">   -190.59573177 </i>
   </energy>
  </scstep>
  <scstep>
   <time name="dav">   26.49   26.55</time>
   <time name="total">   27.00   27.07</time>
   <energy>
    <i name="e_fr_energy">   -190.70008441 </i>
    <i name="e_wo_entrp">   -190.49126303 </i>
    <i name="e_0_energy">   -190.59567372 </i>
   </energy>
  </scstep>
  <scstep>
   <time name="dav">   21.42   21.48</time>
   <time name="total">   21.46   21.52</time>
   <energy>
    <i name="alphaZ">     85.83243519 </i>
    <i name="ewald">  42837.80280506 </i>
    <i name="hartreedc"> -48826.01058424 </i>
    <i name="XCdc">   -234.28678446 </i>
    <i name="pawpsdc">   4063.73834351 </i>
    <i name="pawaedc">  -3479.62029063 </i>
    <i name="eentropy">     -0.20886144 </i>
    <i name="bandstr">  -1399.38965573 </i>
    <i name="atom">   6761.44252427 </i>
    <i name="e_fr_energy">   -190.70006847 </i>
    <i name="e_wo_entrp">   -190.49120703 </i>
    <i name="e_0_energy">   -190.59563775 </i>
   </energy>
  </scstep>
  <structure>
   <crystal>
    <varray name="basis" >
     <v>       8.48472213       4.89826195       0.00000000 </v>
     <v>      -8.48575270       4.90003454       0.00000000 </v>
     <v>       0.00000000       0.00000000      30.00000000 </v>
    </varray>
    <i name="volume">   2494.22613324 </i>
    <varray name="rec_basis" >
     <v>       0.05893653       0.10206476       0.00000000 </v>
     <v>      -0.05891521       0.10205236       0.00000000 </v>
     <v>       0.00000000       0.00000000       0.03333333 </v>
    </varray>
   </crystal>
   <varray name="positions" >
    <v>       0.33117827       0.66438111      -0.00013870 </v>
    <v>       0.66890651      -0.00071208       0.00029589 </v>
    <v>      -0.00209835      -0.00211370       0.00021756 </v>
    <v>      -0.00566576       0.66092164      -0.00019519 </v>
    <v>       0.66943266       0.66353444       0.00029028 </v>
    <v>       0.99965163       0.33774370      -0.00023092 </v>
    <v>       0.32964900      -0.00326632      -0.00002863 </v>
    <v>       0.33344523       0.33639121      -0.00009460 </v>
    <v>       0.67510630       0.34245966      -0.00004029 </v>
    <v>       0.10924523       0.21697245       0.95096380 </v>
    <v>       0.21737727       0.10876258       0.04936106 </v>
    <v>       0.11707049       0.55872624       0.95011149 </v>
    <v>       0.22562234       0.44961091       0.04973325 </v>
    <v>       0.10905812       0.89209520       0.95055558 </v>
    <v>       0.22553508       0.77585865       0.04929469 </v>
    <v>       0.44475719       0.22229274       0.94992622 </v>
    <v>       0.55772037       0.10899365       0.04871328 </v>
    <v>       0.44096650       0.55763767       0.95053328 </v>
    <v>       0.55465392       0.44260813       0.05102254 </v>
    <v>       0.44632098       0.88642752       0.95197657 </v>
    <v>       0.55282760       0.78032165       0.04773926 </v>
    <v>       0.77404614       0.21689465       0.95057688 </v>
    <v>       0.88628313       0.10561781       0.04805877 </v>
    <v>       0.77724443       0.55444985       0.94818924 </v>
    <v>       0.88769427       0.44377641       0.05162245 </v>
    <v>       0.78021031       0.89413551       0.95180833 </v>
    <v>       0.89197559       0.78369320       0.04973781 </v>
   </varray>
  </structure>
  <varray name="forces" >
   <v>       0.01602875      -0.17317675       0.03587809 </v>
   <v>       0.11178036       0.02446253       0.04959006 </v>
   <v>       0.08974244      -0.03367698      -0.03486889 </v>
   <v>      -0.01634251      -0.55090919       0.02228050 </v>
   <v>       0.56755791      -0.15110614       0.01315791 </v>
   <v>      -0.37767032       0.16852412      -0.04007135 </v>
   <v>      -0.08508438      -0.28720570       0.01697069 </v>
   <v>      -0.10572700       0.12576322      -0.06568853 </v>
   <v>      -0.12959803       0.72940584       0.00035496 </v>
   <v>      -0.04327209      -0.04339022      -0.18283514 </v>
   <v>      -0.08172257      -0.04225661       0.29461817 </v>
   <v>      -0.03064141       0.05620192      -0.48781483 </v>
   <v>      -0.05207538       0.04215611       0.36201854 </v>
   <v>      -0.02547996      -0.08429268      -0.32468648 </v>
   <v>       0.00327656      -0.06923903       0.27106709 </v>
   <v>       0.04407369       0.07798543      -0.09699573 </v>
   <v>      -0.03425179       0.07263410       0.06879885 </v>
   <v>      -0.03121479       0.07284783      -0.32570132 </v>
   <v>       0.04819664      -0.01535302       0.44654653 </v>
   <v>       0.05119354      -0.01084207      -0.25594796 </v>
   <v>       0.04946181      -0.01504427       0.18334089 </v>
   <v>      -0.01678174      -0.00732855      -0.29547427 </v>
   <v>      -0.01510832       0.03072005       0.29445543 </v>
   <v>       0.00195966       0.04681012      -0.71570129 </v>
   <v>       0.00525208       0.03746279       0.62429587 </v>
   <v>       0.03668121      -0.01311654      -0.28049268 </v>
   <v>       0.01976563       0.01196370       0.42290489 </v>
  </varray>
  <varray name="stress" >
   <v>      -5.75005265      -0.06133482      -0.03343136 </v>
   <v>      -0.06133499      -5.65556100      -0.04448672 </v>
   <v>      -0.03343136      -0.04448671       4.48935514 </v>
  </varray>
  <energy>
   <i name="e_fr_energy">   -190.70006847 </i>
   <i name="e_wo_entrp">   -190.59563775 </i>
   <i name="e_0_energy">     -0.20886144 </i>
  </energy>
  <time name="totalsc">  381.73  382.74</time>
 </calculation>
 <calculation>
  <scstep>
   <time name="dav">   21.65   21.70</time>
   <time name="total">   22.16   22.21</time>
   <energy>
    <i name="alphaZ">     90.13555386 </i>
    <i name="ewald">  44645.32452432 </i>
    <i name="hartreedc"> -50688.33778167 </i>
    <i name="XCdc">   -231.87120625 </i>
    <i name="pawpsdc">   4063.68928990 </i>
    <i name="pawaedc">  -3479.56609344 </i>
    <i name="eentropy">     -0.19255768 </i>
    <i name="bandstr">  -1352.64524349 </i>
    <i name="atom">   6761.44252427 </i>
    <i name="e_fr_energy">   -192.02099018 </i>
    <i name="e_wo_entrp">   -191.82843250 </i>
    <i name="e_0_energy">   -191.92471134 </i>
   </energy>
  </scstep>
  <scstep>
   <time name="dav">   29.89   29.96</time>
   <time name="total">   30.39   30.47</time>
   <energy>
    <i name="e_fr_energy">   -191.88306857 </i>
    <i name="e_wo_entrp">   -191.67809572 </i>
    <i name="e_0_energy">   -191.78058214 </i>
   </energy>
  </scstep>
  <scstep>
   <time name="dav">   28.24   28.31</time>
   <time name="total">   28.75   28.83</time>
   <energy>
    <i name="e_fr_energy">   -192.20834598 </i>
    <i name="e_wo_entrp">   -192.00095174 </i>
    <i name="e_0_energy">   -192.10464886 </i>
   </energy>
  </scstep>
  <scstep>
   <time name="dav">   29.53   29.60</time>
   <time name="total">   30.04   30.12</time>
   <energy>
    <i name="e_fr_energy">   -191.57737101 </i>
    <i name="e_wo_entrp">   -191.37335892 </i>
    <i name="e_0_energy">   -191.47536497 </i>
   </energy>
  </scstep>
  <scstep>
   <time name="dav">   29.90   29.97</time>
   <time name="total">   30.41   30.49</time>
   <energy>
    <i name="e_fr_energy">   -191.51031527 </i>
    <i name="e_wo_entrp">   -191.31466304 </i>
    <i name="e_0_energy">   -191.41248916 </i>
   </energy>
  </scstep>
  <scstep>
   <time name="dav">   29.88   29.95</time>
   <time name="total">   30.38   30.47</time>
   <energy>
    <i name="e_fr_energy">   -191.33292473 </i>
    <i name="e_wo_entrp">   -191.13080368 </i>
    <i name="e_0_energy">   -191.23186420 </i>
   </energy>
  </scstep>
  <scstep>
   <time name="dav">   29.90   29.97</time>
   <time name="total">   30.41   30.49</time>
   <energy>
    <i name="e_fr_energy">   -191.32622410 </i>
    <i name="e_wo_entrp">   -191.12505177 </i>
    <i name="e_0_energy">   -191.22563794 </i>
   </energy>
  </scstep>
  <scstep>
   <time name="dav">   29.29   29.36</time>
   <time name="total">   29.79   29.87</time>
   <energy>
    <i name="e_fr_energy">   -191.32446897 </i>
    <i name="e_wo_entrp">   -191.12364371 </i>
    <i name="e_0_energy">   -191.22405634 </i>
   </energy>
  </scstep>
  <scstep>
   <time name="dav">   29.15   29.22</time>
   <time name="total">   29.65   29.73</time>
   <energy>
    <i name="e_fr_energy">   -191.32058940 </i>
    <i name="e_wo_entrp">   -191.11938986 </i>
    <i name="e_0_energy">   -191.21998963 </i>
   </energy>
  </scstep>
  <scstep>
   <time name="dav">   27.40   27.47</time>
   <time name="total">   27.91   27.98</time>
   <energy>
    <i name="e_fr_energy">   -191.32102480 </i>
    <i name="e_wo_entrp">   -191.11997626 </i>
    <i name="e_0_energy">   -191.22050053 </i>
   </energy>
  </scstep>
  <scstep>
   <time name="dav">   28.09   28.16</time>
   <time name="total">   28.59   28.67</time>
   <energy>
    <i name="e_fr_energy">   -191.32078702 </i>
    <i name="e_wo_entrp">   -191.11971478 </i>
    <i name="e_0_energy">   -191.22025090 </i>
   </energy>
  </scstep>
  <scstep>
   <time name="dav">   18.32   18.36</time>
   <time name="total">   18.36   18.41</time>
   <energy>
    <i name="alphaZ">     90.13555386 </i>
    <i name="ewald">  44645.32452432 </i>
    <i name="hartreedc"> -50654.98532141 </i>
    <i name="XCdc">   -233.37657416 </i>
    <i name="pawpsdc">   4084.64349031 </i>
    <i name="pawaedc">  -3500.60651155 </i>
    <i name="eentropy">     -0.20111034 </i>
    <i name="bandstr">  -1383.69736418 </i>
    <i name="atom">   6761.44252427 </i>
    <i name="e_fr_energy">   -191.32078888 </i>
    <i name="e_wo_entrp">   -191.11967853 </i>
    <i name="e_0_energy">   -191.22023371 </i>
   </energy>
  </scstep>
  <structure>
   <crystal>
    <varray name="basis" >
     <v>       8.27530033       4.77830650       0.00000000 </v>
     <v>      -8.27990135       4.78626445       0.00000000 </v>
     <v>       0.00000000       0.00000000      30.00000000 </v>
    </varray>
    <i name="volume">   2375.15046800 </i>
    <varray name="rec_basis" >
     <v>       0.06045425       0.10458160       0.00000000 </v>
     <v>      -0.06035373       0.10452349       0.00000000 </v>
     <v>       0.00000000       0.00000000       0.03333333 </v>
    </varray>
   </crystal>
   <varray name="positions" >
    <v>       0.32908408       0.66205428       0.00000290 </v>
    <v>       0.66998307      -0.00112885       0.00050942 </v>
    <v>      -0.00182658      -0.00316542       0.00008421 </v>
    <v>      -0.01263459       0.65414811      -0.00009286 </v>
    <v>       0.67154128       0.65744789       0.00034918 </v>
    <v>       0.99907934       0.34258360      -0.00039972 </v>
    <v>       0.32563195      -0.00594127       0.00005105 </v>
    <v>       0.33431782       0.33860224      -0.00038360 </v>
    <v>       0.68308009       0.35236890      -0.00003448 </v>
    <v>       0.10803245       0.21620168       0.94967938 </v>
    <v>       0.21577502       0.10852966       0.05109599 </v>
    <v>       0.11802957       0.55986296       0.94760134 </v>
    <v>       0.22587567       0.45102070       0.05178042 </v>
    <v>       0.10747028       0.89138883       0.94867783 </v>
    <v>       0.22484688       0.77460393       0.05095094 </v>
    <v>       0.44594706       0.22291438       0.94893052 </v>
    <v>       0.55859359       0.10978729       0.04954048 </v>
    <v>       0.44153020       0.55914976       0.94866144 </v>
    <v>       0.55485659       0.44220721       0.05343805 </v>
    <v>       0.44687080       0.88564429       0.95045571 </v>
    <v>       0.55274173       0.78004559       0.04894076 </v>
    <v>       0.77367940       0.21631861       0.94882422 </v>
    <v>       0.88632638       0.10570107       0.04971875 </v>
    <v>       0.77788873       0.55521866       0.94467492 </v>
    <v>       0.88841648       0.44431057       0.05477564 </v>
    <v>       0.78050841       0.89414723       0.95017491 </v>
    <v>       0.89256874       0.78419256       0.05199252 </v>
   </varray>
  </structure>
  <varray name="forces" >
   <v>      -0.00461056      -0.11566541      -0.03740671 </v>
   <v>       0.11997637      -0.00257850       0.02983737 </v>
   <v>       0.09973497       0.01631815       0.00787497 </v>
   <v>      -0.03295844      -0.02513052      -0.03469805 </v>
   <v>       0.21684065      -0.08946546      -0.05500030 </v>
   <v>      -0.16520382       0.11571590       0.02227545 </v>
   <v>      -0.01029480      -0.37800649       0.00502744 </v>
   <v>      -0.11056373       0.14924418       0.00589599 </v>
   <v>      -0.04421915       0.22773564       0.03849670 </v>
   <v>      -0.16732077       0.04759303       0.06162145 </v>
   <v>      -0.08188197       0.01816533       0.00167099 </v>
   <v>      -0.13012861      -0.03386560      -0.11667662 </v>
   <v>      -0.02146586      -0.03102191       0.05936248 </v>
   <v>       0.04965380      -0.15603522      -0.06336280 </v>
   <v>      -0.08442839      -0.15012516       0.03919886 </v>
   <v>       0.10956995       0.13648959       0.21844772 </v>
   <v>      -0.17793167       0.15323734      -0.24923974 </v>
   <v>       0.05319214       0.09936057      -0.02232700 </v>
   <v>       0.09419053      -0.01767750       0.13441366 </v>
   <v>      -0.01489283      -0.03310278       0.02068674 </v>
   <v>       0.24226305      -0.04327798      -0.05303478 </v>
   <v>      -0.13395092       0.11078629       0.00464932 </v>
   <v>      -0.02594216       0.12736698      -0.02589650 </v>
   <v>       0.01132424       0.07444532      -0.34095750 </v>
   <v>       0.02132006       0.03575537       0.27440384 </v>
   <v>       0.09504338      -0.09380365       0.00982775 </v>
   <v>       0.09268453      -0.14245750       0.06490929 </v>
  </varray>
  <varray name="stress" >
   <v>      -0.06051884      -0.19989143       0.20854914 </v>
   <v>      -0.19989137       0.25043656      -0.23031339 </v>
   <v>       0.20854892      -0.23031354      -0.60917354 </v>
  </varray>
  <energy>
   <i name="e_fr_energy">   -191.32078888 </i>
   <i name="e_wo_entrp">   -191.22023371 </i>
   <i name="e_0_energy">     -0.20111034 </i>
  </energy>
  <time name="totalsc">  378.58  379.59</time>
 </calculation>
 <calculation>
  <scstep>
   <time name="dav">   21.59   21.64</time>
   <time name="total">   22.10   22.15</time>
   <energy>
    <i name="alphaZ">     90.09115786 </i>
    <i name="ewald">  44606.54958086 </i>
    <i name="hartreedc"> -50616.49488645 </i>
    <i name="XCdc">   -233.48302239 </i>
    <i name="pawpsdc">   4084.55915679 </i>
    <i name="pawaedc">  -3500.51826954 </i>
    <i name="eentropy">     -0.20412888 </i>
    <i name="bandstr">  -1383.30376079 </i>
    <i name="atom">   6761.44252427 </i>
    <i name="e_fr_energy">   -191.36164827 </i>
    <i name="e_wo_entrp">   -191.15751939 </i>
    <i name="e_0_energy">   -191.25958383 </i>
   </energy>
  </scstep>
  <scstep>
   <time name="dav">   30.78   30.85</time>
   <time name="total">   31.29   31.37</time>
   <energy>
    <i name="e_fr_energy">   -191.40272737 </i>
    <i name="e_wo_entrp">   -191.19574710 </i>
    <i name="e_0_energy">   -191.29923724 </i>
   </energy>
  </scstep>
  <scstep>
   <time name="dav">   29.64   29.72</time>
   <time name="total">   30.15   30.24</time>
   <energy>
    <i name="e_fr_energy">   -191.37328854 </i>
    <i name="e_wo_entrp">   -191.16949930 </i>
    <i name="e_0_energy">   -191.27139392 </i>
   </energy>
  </scstep>
  <scstep>
   <time name="dav">   27.43   27.50</time>
   <time name="total">   27.94   28.02</time>
   <energy>
    <i name="e_fr_energy">   -191.37319269 </i>
    <i name="e_wo_entrp">   -191.16835120 </i>
    <i name="e_0_energy">   -191.27077194 </i>
   </energy>
  </scstep>
  <scstep>
   <time name="dav">   25.94   26.00</time>
   <time name="total">   26.44   26.52</time>
   <energy>
    <i name="e_fr_energy">   -191.37112260 </i>
    <i name="e_wo_entrp">   -191.16656148 </i>
    <i name="e_0_energy">   -191.26884204 </i>
   </energy>
  </scstep>
  <scstep>
   <time name="dav">   25.95   26.01</time>
   <time name="total">   26.45   26.52</time>
   <energy>
    <i name="e_fr_energy">   -191.37100420 </i>
    <i name="e_wo_entrp">   -191.16634695 </i>
    <i name="e_0_energy">   -191.26867558 </i>
   </energy>
  </scstep>
  <scstep>
   <time name="dav">   26.38   26.44</time>
   <time name="total">   26.89   26.96</time>
   <energy>
    <i name="e_fr_energy">   -191.37136379 </i>
    <i name="e_wo_entrp">   -191.16684428 </i>
    <i name="e_0_energy">   -191.26910404 </i>
   </energy>
  </scstep>
  <scstep>
   <time name="dav">   23.47   23.53</time>
   <time name="total">   23.98   24.04</time>
   <energy>
    <i name="e_fr_energy">   -191.37072324 </i>
    <i name="e_wo_entrp">   -191.16612941 </i>
    <i name="e_0_energy">   -191.26842632 </i>
   </energy>
  </scstep>
  <scstep>
   <time name="dav">   17.04   17.08</time>
   <time name="total">   17.07   17.12</time>
   <energy>
    <i name="alphaZ">     90.09115786 </i>
    <i name="ewald">  44606.54958086 </i>
    <i name="hartreedc"> -50617.78493191 </i>
    <i name="XCdc">   -233.45021764 </i>
    <i name="pawpsdc">   4081.30754851 </i>
    <i name="pawaedc">  -3497.22259310 </i>
    <i name="eentropy">     -0.20463769 </i>
    <i name="bandstr">  -1382.09916824 </i>
    <i name="atom">   6761.44252427 </i>
    <i name="e_fr_energy">   -191.37073708 </i>
    <i name="e_wo_entrp">   -191.16609938 </i>
    <i name="e_0_energy">   -191.26841823 </i>
   </energy>
  </scstep>
  <structure>
   <crystal>
    <varray name="basis" >
     <v>       8.27139791       4.77706917       0.00000000 </v>
     <v>      -8.28106653       4.79380512       0.00000000 </v>
     <v>       0.00000000       0.00000000      30.00000000 </v>
    </varray>
    <i name="volume">   2376.32091790 </i>
    <varray name="rec_basis" >
     <v>       0.06051967       0.10454480       0.00000000 </v>
     <v>      -0.06030838       0.10442274       0.00000000 </v>
     <v>       0.00000000       0.00000000       0.03333333 </v>
    </varray>
   </crystal>
   <varray name="positions" >
    <v>       0.32848594       0.66148326      -0.00005724 </v>
    <v>       0.67032055      -0.00149152       0.00055751 </v>
    <v>      -0.00145304      -0.00337403       0.00009683 </v>
    <v>      -0.01286016       0.65411487      -0.00014865 </v>
    <v>       0.67172316       0.65636252       0.00026070 </v>
    <v>       0.99918121       0.34365050      -0.00036394 </v>
    <v>       0.32369220      -0.00781941       0.00005917 </v>
    <v>       0.33474893       0.33967814      -0.00037423 </v>
    <v>       0.68410357       0.35365033       0.00002746 </v>
    <v>       0.10778391       0.21692887       0.94977794 </v>
    <v>       0.21562708       0.10885971       0.05109944 </v>
    <v>       0.11747932       0.56007167       0.94741257 </v>
    <v>       0.22565654       0.45092735       0.05187681 </v>
    <v>       0.10682681       0.89045668       0.94857507 </v>
    <v>       0.22384241       0.77409190       0.05101475 </v>
    <v>       0.44695626       0.22328404       0.94928151 </v>
    <v>       0.55884830       0.11107903       0.04913987 </v>
    <v>       0.44218721       0.55949676       0.94862471 </v>
    <v>       0.55504231       0.44184350       0.05365535 </v>
    <v>       0.44666050       0.88552031       0.95048833 </v>
    <v>       0.55323014       0.77912139       0.04885597 </v>
    <v>       0.77384762       0.21726748       0.94883094 </v>
    <v>       0.88689362       0.10641921       0.04967779 </v>
    <v>       0.77829785       0.55556160       0.94412489 </v>
    <v>       0.88865951       0.44442908       0.05521846 </v>
    <v>       0.78031237       0.89339716       0.95019001 </v>
    <v>       0.89212033       0.78320406       0.05209791 </v>
   </varray>
  </structure>
  <varray name="forces" >
   <v>      -0.02526594      -0.11211360      -0.03612421 </v>
   <v>       0.14866100       0.01780938       0.03989039 </v>
   <v>       0.09963120      -0.02482544       0.02482071 </v>
   <v>      -0.01942854      -0.05043784      -0.00056800 </v>
   <v>       0.23587695      -0.10722538      -0.03414798 </v>
   <v>      -0.19151748       0.10686540       0.01643518 </v>
   <v>       0.01899705      -0.44374649       0.01512516 </v>
   <v>      -0.12964300       0.17945688      -0.00661754 </v>
   <v>      -0.04871177       0.36226538       0.00232566 </v>
   <v>      -0.10131246       0.04092452       0.09338670 </v>
   <v>      -0.05461599       0.01207048      -0.03949693 </v>
   <v>      -0.06743413      -0.01214079      -0.08512278 </v>
   <v>      -0.02120122       0.00557321       0.05091125 </v>
   <v>      -0.00167162      -0.09400890      -0.10262006 </v>
   <v>      -0.03390978      -0.08783049       0.06663349 </v>
   <v>       0.07913112       0.05246201       0.25083101 </v>
   <v>      -0.13487776       0.07354764      -0.25043755 </v>
   <v>       0.02130714       0.05823106      -0.02388235 </v>
   <v>       0.04889526      -0.01681417       0.07898282 </v>
   <v>      -0.01073883      -0.03546095       0.04080732 </v>
   <v>       0.15213399      -0.03092797      -0.08643807 </v>
   <v>      -0.07864358       0.07163567       0.03514752 </v>
   <v>      -0.00967674       0.09124909      -0.05620123 </v>
   <v>       0.03351002       0.03179224      -0.18298732 </v>
   <v>      -0.01112929       0.04661475       0.14351323 </v>
   <v>       0.05982863      -0.04839252       0.02035591 </v>
   <v>       0.04180580      -0.08657317       0.02547767 </v>
  </varray>
  <varray name="stress" >
   <v>      -0.08884959      -0.02035018       0.04746928 </v>
   <v>      -0.02034981      -0.17314329      -0.06550312 </v>
   <v>       0.04746926      -0.06550304      -1.33181075 </v>
  </varray>
  <energy>
   <i name="e_fr_energy">   -191.37073708 </i>
   <i name="e_wo_entrp">   -191.26841823 </i>
   <i name="e_0_energy">     -0.20463769 </i>
  </energy>
  <time name="totalsc">  274.00  274.85</time>
 </calculation>
 <calculation>
  <scstep>
   <time name="dav">   21.60   21.66</time>
   <time name="total">   22.11   22.17</time>
   <energy>
    <i name="alphaZ">     90.18969598 </i>
    <i name="ewald">  44654.36544663 </i>
    <i name="hartreedc"> -50666.58528737 </i>
    <i name="XCdc">   -233.37252291 </i>
    <i name="pawpsdc">   4081.19285472 </i>
    <i name="pawaedc">  -3497.10634321 </i>
    <i name="eentropy">     -0.20648364 </i>
    <i name="bandstr">  -1381.33478315 </i>
    <i name="atom">   6761.44252427 </i>
    <i name="e_fr_energy">   -191.41489867 </i>
    <i name="e_wo_entrp">   -191.20841503 </i>
    <i name="e_0_energy">   -191.31165685 </i>
   </energy>
  </scstep>
  <scstep>
   <time name="dav">   31.44   31.51</time>
   <time name="total">   31.94   32.03</time>
   <energy>
    <i name="e_fr_energy">   -191.44621429 </i>
    <i name="e_wo_entrp">   -191.23618064 </i>
    <i name="e_0_energy">   -191.34119746 </i>
   </energy>
  </scstep>
  <scstep>
   <time name="dav">   29.82   29.89</time>
   <time name="total">   30.33   30.41</time>
   <energy>
    <i name="e_fr_energy">   -191.42299695 </i>
    <i name="e_wo_entrp">   -191.21676750 </i>
    <i name="e_0_energy">   -191.31988223 </i>
   </energy>
  </scstep>
  <scstep>
   <time name="dav">   27.53   27.59</time>
   <time name="total">   28.03   28.11</time>
   <energy>
    <i name="e_fr_energy">   -191.42155221 </i>
    <i name="e_wo_entrp">   -191.21459317 </i>
    <i name="e_0_energy">   -191.31807269 </i>
   </energy>
  </scstep>
  <scstep>
   <time name="dav">   27.12   27.18</time>
   <time name="total">   27.62   27.70</time>
   <energy>
    <i name="e_fr_energy">   -191.42026947 </i>
    <i name="e_wo_entrp">   -191.21303571 </i>
    <i name="e_0_energy">   -191.31665259 </i>
   </energy>
  </scstep>
  <scstep>
   <time name="dav">   25.61   25.67</time>
   <time name="total">   26.11   26.18</time>
   <energy>
    <i name="e_fr_energy">   -191.41987452 </i>
    <i name="e_wo_entrp">   -191.21259780 </i>
    <i name="e_0_energy">   -191.31623616 </i>
   </energy>
  </scstep>
  <scstep>
   <time name="dav">   27.38   27.45</time>
   <time name="total">   27.89   27.96</time>
   <energy>
    <i name="e_fr_energy">   -191.42012569 </i>
    <i name="e_wo_entrp">   -191.21298506 </i>
    <i name="e_0_energy">   -191.31655537 </i>
   </energy>
  </scstep>
  <scstep>
   <time name="dav">   23.64   23.70</time>
   <time name="total">   24.15   24.21</time>
   <energy>
    <i name="e_fr_energy">   -191.41952929 </i>
    <i name="e_wo_entrp">   -191.21226121 </i>
    <i name="e_0_energy">   -191.31589525 </i>
   </energy>
  </scstep>
  <scstep>
[...]
      <set comment="kpoint 31">
       <r>  -17.5171    1.0000 </r>
       <r>  -17.2756    1.0000 </r>
       <r>  -16.9361    1.0000 </r>
       <r>  -16.6895    1.0000 </r>
       <r>  -16.4921    1.0000 </r>
       <r>  -16.3925    1.0000 </r>
       <r>  -16.3358    1.0000 </r>
       <r>  -16.2027    1.0000 </r>
       <r>  -16.0578    1.0000 </r>
       <r>  -16.0051    1.0000 </r>
       <r>  -15.9280    1.0000 </r>
       <r>  -15.8670    1.0000 </r>
       <r>  -15.7675    1.0000 </r>
       <r>  -15.7113    1.0000 </r>
       <r>  -15.6161    1.0000 </r>
       <r>  -15.5564    1.0000 </r>
       <r>  -15.4199    1.0000 </r>
       <r>  -15.3096    1.0000 </r>
       <r>   -9.7598    1.0000 </r>
       <r>   -9.4512    1.0000 </r>
       <r>   -9.2730    1.0000 </r>
       <r>   -8.9828    1.0000 </r>
       <r>   -8.8866    1.0000 </r>
       <r>   -8.7334    1.0000 </r>
       <r>   -8.5290    1.0000 </r>
       <r>   -8.4718    1.0000 </r>
       <r>   -8.4267    1.0000 </r>
       <r>   -8.3457    1.0000 </r>
       <r>   -8.2894    1.0000 </r>
       <r>   -8.2348    1.0000 </r>
       <r>   -8.2084    1.0000 </r>
       <r>   -8.0714    1.0000 </r>
       <r>   -7.9699    1.0000 </r>
       <r>   -7.8478    1.0000 </r>
       <r>   -7.7909    1.0000 </r>
       <r>   -7.7253    1.0000 </r>
       <r>   -7.6013    1.0000 </r>
       <r>   -7.3739    1.0000 </r>
       <r>   -7.3596    1.0000 </r>
       <r>   -7.2403    1.0000 </r>
       <r>   -7.1984    1.0000 </r>
       <r>   -7.1094    1.0000 </r>
       <r>   -7.0134    1.0000 </r>
       <r>   -6.8810    1.0000 </r>
       <r>   -6.8510    1.0000 </r>
       <r>   -6.7688    1.0000 </r>
       <r>   -6.6671    1.0000 </r>
       <r>   -6.6247    1.0000 </r>
       <r>   -6.5278    1.0000 </r>
       <r>   -6.4592    1.0000 </r>
       <r>   -6.3840    1.0000 </r>
       <r>   -6.3420    1.0000 </r>
       <r>   -6.3056    1.0000 </r>
       <r>   -6.1763    1.0000 </r>
       <r>   -6.1129    1.0000 </r>
       <r>   -6.0736    1.0000 </r>
       <r>   -6.0390    1.0000 </r>
       <r>   -5.9148    1.0000 </r>
       <r>   -5.8462    1.0000 </r>
       <r>   -5.7698    1.0000 </r>
       <r>   -5.7083    1.0000 </r>
       <r>   -5.6715    1.0000 </r>
       <r>   -5.5362    1.0000 </r>
       <r>   -5.4734    1.0000 </r>
       <r>   -5.2805    1.0000 </r>
       <r>   -5.1567    1.0000 </r>
       <r>   -5.1172    1.0000 </r>
       <r>   -4.8332    1.0000 </r>
       <r>   -4.7976    1.0000 </r>
       <r>   -4.6983    1.0000 </r>
       <r>   -4.6144    1.0000 </r>
       <r>   -4.4300    1.0000 </r>
       <r>   -4.3765    1.0000 </r>
       <r>   -4.2237    1.0000 </r>
       <r>   -4.1357    1.0000 </r>
       <r>   -4.0279    1.0000 </r>
       <r>   -3.8838    1.0000 </r>
       <r>   -3.8061    0.9998 </r>
       <r>   -3.5081    0.9291 </r>
       <r>   -3.1614    0.1629 </r>
       <r>   -3.0419    0.0339 </r>
       <r>   -2.7218    0.0000 </r>
       <r>   -2.6336    0.0000 </r>
       <r>   -2.5733    0.0000 </r>
       <r>   -2.4364    0.0000 </r>
       <r>   -2.2609    0.0000 </r>
       <r>   -2.1130    0.0000 </r>
       <r>   -1.9778    0.0000 </r>
       <r>   -1.8961    0.0000 </r>
       <r>   -1.8161    0.0000 </r>
       <r>   -1.6380    0.0000 </r>
       <r>   -1.5520    0.0000 </r>
       <r>   -1.5201    0.0000 </r>
       <r>   -1.4391    0.0000 </r>
       <r>   -1.3573    0.0000 </r>
       <r>   -1.1878    0.0000 </r>
       <r>   -1.1240    0.0000 </r>
       <r>   -1.0699    0.0000 </r>
       <r>   -1.0422    0.0000 </r>
       <r>   -0.9525    0.0000 </r>
       <r>   -0.9074    0.0000 </r>
       <r>   -0.8307    0.0000 </r>
       <r>   -0.7338    0.0000 </r>
       <r>   -0.6054    0.0000 </r>
       <r>   -0.4728    0.0000 </r>
       <r>   -0.3745    0.0000 </r>
       <r>   -0.2068    0.0000 </r>
       <r>    0.0163    0.0000 </r>
       <r>    0.0860    0.0000 </r>
       <r>    0.3194    0.0000 </r>
       <r>    0.5277    0.0000 </r>
       <r>    0.6308    0.0000 </r>
       <r>    0.7311    0.0000 </r>
       <r>    0.9579    0.0000 </r>
       <r>    1.0556    0.0000 </r>
       <r>    1.1626    0.0000 </r>
       <r>    1.2503    0.0000 </r>
       <r>    2.1202    0.0000 </r>
       <r>    2.2990    0.0000 </r>
       <r>    2.3933    0.0000 </r>
      </set>
      <set comment="kpoint 32">
       <r>  -17.5292    1.0000 </r>
       <r>  -17.1803    1.0000 </r>
       <r>  -17.0722    1.0000 </r>
       <r>  -16.6739    1.0000 </r>
       <r>  -16.4531    1.0000 </r>
       <r>  -16.3611    1.0000 </r>
       <r>  -16.2877    1.0000 </r>
       <r>  -16.2417    1.0000 </r>
       <r>  -16.1103    1.0000 </r>
       <r>  -16.0141    1.0000 </r>
       <r>  -15.9428    1.0000 </r>
       <r>  -15.8676    1.0000 </r>
       <r>  -15.7606    1.0000 </r>
       <r>  -15.7019    1.0000 </r>
       <r>  -15.5793    1.0000 </r>
       <r>  -15.5324    1.0000 </r>
       <r>  -15.4705    1.0000 </r>
       <r>  -15.3004    1.0000 </r>
       <r>   -9.7024    1.0000 </r>
       <r>   -9.5244    1.0000 </r>
       <r>   -9.3797    1.0000 </r>
       <r>   -8.9071    1.0000 </r>
       <r>   -8.7831    1.0000 </r>
       <r>   -8.5839    1.0000 </r>
       <r>   -8.5427    1.0000 </r>
       <r>   -8.4759    1.0000 </r>
       <r>   -8.4519    1.0000 </r>
       <r>   -8.3975    1.0000 </r>
       <r>   -8.3270    1.0000 </r>
       <r>   -8.2597    1.0000 </r>
       <r>   -8.1943    1.0000 </r>
       <r>   -8.0846    1.0000 </r>
       <r>   -7.9875    1.0000 </r>
       <r>   -7.9411    1.0000 </r>
       <r>   -7.7938    1.0000 </r>
       <r>   -7.7070    1.0000 </r>
       <r>   -7.5608    1.0000 </r>
       <r>   -7.4289    1.0000 </r>
       <r>   -7.3284    1.0000 </r>
       <r>   -7.2763    1.0000 </r>
       <r>   -7.1543    1.0000 </r>
       <r>   -7.1227    1.0000 </r>
       <r>   -7.0679    1.0000 </r>
       <r>   -7.0042    1.0000 </r>
       <r>   -6.8595    1.0000 </r>
       <r>   -6.7519    1.0000 </r>
       <r>   -6.6783    1.0000 </r>
       <r>   -6.5874    1.0000 </r>
       <r>   -6.4702    1.0000 </r>
       <r>   -6.4405    1.0000 </r>
       <r>   -6.3751    1.0000 </r>
       <r>   -6.3236    1.0000 </r>
       <r>   -6.2806    1.0000 </r>
       <r>   -6.1780    1.0000 </r>
       <r>   -6.1311    1.0000 </r>
       <r>   -6.0873    1.0000 </r>
       <r>   -5.9994    1.0000 </r>
       <r>   -5.9022    1.0000 </r>
       <r>   -5.7845    1.0000 </r>
       <r>   -5.7194    1.0000 </r>
       <r>   -5.6558    1.0000 </r>
       <r>   -5.5804    1.0000 </r>
       <r>   -5.5537    1.0000 </r>
       <r>   -5.4676    1.0000 </r>
       <r>   -5.3552    1.0000 </r>
       <r>   -5.2557    1.0000 </r>
       <r>   -5.1438    1.0000 </r>
       <r>   -4.8930    1.0000 </r>
       <r>   -4.7526    1.0000 </r>
       <r>   -4.6890    1.0000 </r>
       <r>   -4.5516    1.0000 </r>
       <r>   -4.4581    1.0000 </r>
       <r>   -4.4056    1.0000 </r>
       <r>   -4.2323    1.0000 </r>
       <r>   -4.1337    1.0000 </r>
       <r>   -3.9702    1.0000 </r>
       <r>   -3.8901    1.0000 </r>
       <r>   -3.7446    0.9992 </r>
       <r>   -3.5040    0.9251 </r>
       <r>   -3.2510    0.3636 </r>
       <r>   -3.0421    0.0340 </r>
       <r>   -2.7779    0.0001 </r>
       <r>   -2.6376    0.0000 </r>
       <r>   -2.5545    0.0000 </r>
       <r>   -2.4330    0.0000 </r>
       <r>   -2.3078    0.0000 </r>
       <r>   -2.1139    0.0000 </r>
       <r>   -2.0358    0.0000 </r>
       <r>   -1.9032    0.0000 </r>
       <r>   -1.8361    0.0000 </r>
       <r>   -1.6256    0.0000 </r>
       <r>   -1.5554    0.0000 </r>
       <r>   -1.5049    0.0000 </r>
       <r>   -1.4192    0.0000 </r>
       <r>   -1.3438    0.0000 </r>
       <r>   -1.1738    0.0000 </r>
       <r>   -1.0776    0.0000 </r>
       <r>   -1.0550    0.0000 </r>
       <r>   -1.0140    0.0000 </r>
       <r>   -0.9572    0.0000 </r>
       <r>   -0.9355    0.0000 </r>
       <r>   -0.8267    0.0000 </r>
       <r>   -0.6676    0.0000 </r>
       <r>   -0.5701    0.0000 </r>
       <r>   -0.5117    0.0000 </r>
       <r>   -0.3808    0.0000 </r>
       <r>   -0.2378    0.0000 </r>
       <r>   -0.0956    0.0000 </r>
       <r>    0.0469    0.0000 </r>
       <r>    0.2868    0.0000 </r>
       <r>    0.5207    0.0000 </r>
       <r>    0.6075    0.0000 </r>
       <r>    0.7932    0.0000 </r>
       <r>    0.9375    0.0000 </r>
       <r>    1.0563    0.0000 </r>
       <r>    1.1929    0.0000 </r>
       <r>    1.3660    0.0000 </r>
       <r>    2.0982    0.0000 </r>
       <r>    2.2645    0.0000 </r>
       <r>    2.5675    0.0000 </r>
      </set>
      <set comment="kpoint 33">
       <r>  -17.5068    1.0000 </r>
       <r>  -17.2855    1.0000 </r>
       <r>  -16.9334    1.0000 </r>
       <r>  -16.6595    1.0000 </r>
       <r>  -16.5295    1.0000 </r>
       <r>  -16.4415    1.0000 </r>
       <r>  -16.3262    1.0000 </r>
       <r>  -16.1448    1.0000 </r>
       <r>  -16.1108    1.0000 </r>
       <r>  -16.0171    1.0000 </r>
       <r>  -15.9179    1.0000 </r>
       <r>  -15.8517    1.0000 </r>
       <r>  -15.7518    1.0000 </r>
       <r>  -15.6877    1.0000 </r>
       <r>  -15.5947    1.0000 </r>
       <r>  -15.5259    1.0000 </r>
       <r>  -15.4648    1.0000 </r>
       <r>  -15.3293    1.0000 </r>
       <r>   -9.7454    1.0000 </r>
       <r>   -9.4323    1.0000 </r>
       <r>   -9.3078    1.0000 </r>
       <r>   -8.9122    1.0000 </r>
       <r>   -8.8532    1.0000 </r>
       <r>   -8.7625    1.0000 </r>
       <r>   -8.5805    1.0000 </r>
       <r>   -8.5616    1.0000 </r>
       <r>   -8.4214    1.0000 </r>
       <r>   -8.3417    1.0000 </r>
       <r>   -8.3013    1.0000 </r>
       <r>   -8.2293    1.0000 </r>
       <r>   -8.1364    1.0000 </r>
       <r>   -8.0265    1.0000 </r>
       <r>   -7.9697    1.0000 </r>
       <r>   -7.9159    1.0000 </r>
       <r>   -7.8024    1.0000 </r>
       <r>   -7.6814    1.0000 </r>
       <r>   -7.5812    1.0000 </r>
       <r>   -7.4465    1.0000 </r>
       <r>   -7.3458    1.0000 </r>
       <r>   -7.2843    1.0000 </r>
       <r>   -7.2405    1.0000 </r>
       <r>   -7.0885    1.0000 </r>
       <r>   -7.0457    1.0000 </r>
       <r>   -6.9511    1.0000 </r>
       <r>   -6.8942    1.0000 </r>
       <r>   -6.7620    1.0000 </r>
       <r>   -6.6755    1.0000 </r>
       <r>   -6.5451    1.0000 </r>
       <r>   -6.4635    1.0000 </r>
       <r>   -6.4215    1.0000 </r>
       <r>   -6.4045    1.0000 </r>
       <r>   -6.3426    1.0000 </r>
       <r>   -6.2569    1.0000 </r>
       <r>   -6.2426    1.0000 </r>
       <r>   -6.1382    1.0000 </r>
       <r>   -6.0277    1.0000 </r>
       <r>   -5.9889    1.0000 </r>
       <r>   -5.9475    1.0000 </r>
       <r>   -5.8989    1.0000 </r>
       <r>   -5.7100    1.0000 </r>
       <r>   -5.6168    1.0000 </r>
       <r>   -5.6096    1.0000 </r>
       <r>   -5.5174    1.0000 </r>
       <r>   -5.4070    1.0000 </r>
       <r>   -5.3883    1.0000 </r>
       <r>   -5.2183    1.0000 </r>
       <r>   -5.0699    1.0000 </r>
       <r>   -4.8754    1.0000 </r>
       <r>   -4.8113    1.0000 </r>
       <r>   -4.7038    1.0000 </r>
       <r>   -4.5210    1.0000 </r>
       <r>   -4.4629    1.0000 </r>
       <r>   -4.3912    1.0000 </r>
       <r>   -4.1602    1.0000 </r>
       <r>   -4.1190    1.0000 </r>
       <r>   -3.9807    1.0000 </r>
       <r>   -3.8456    0.9999 </r>
       <r>   -3.7217    0.9986 </r>
       <r>   -3.5762    0.9745 </r>
       <r>   -3.2998    0.4985 </r>
       <r>   -3.0578    0.0432 </r>
       <r>   -2.8391    0.0006 </r>
       <r>   -2.6700    0.0000 </r>
       <r>   -2.5410    0.0000 </r>
       <r>   -2.4170    0.0000 </r>
       <r>   -2.3486    0.0000 </r>
       <r>   -2.1308    0.0000 </r>
       <r>   -2.0805    0.0000 </r>
       <r>   -1.8890    0.0000 </r>
       <r>   -1.8385    0.0000 </r>
       <r>   -1.6524    0.0000 </r>
       <r>   -1.5397    0.0000 </r>
       <r>   -1.4842    0.0000 </r>
       <r>   -1.3592    0.0000 </r>
       <r>   -1.3075    0.0000 </r>
       <r>   -1.1884    0.0000 </r>
       <r>   -1.0690    0.0000 </r>
       <r>   -1.0215    0.0000 </r>
       <r>   -1.0058    0.0000 </r>
       <r>   -0.9824    0.0000 </r>
       <r>   -0.8962    0.0000 </r>
       <r>   -0.8170    0.0000 </r>
       <r>   -0.6558    0.0000 </r>
       <r>   -0.5764    0.0000 </r>
       <r>   -0.5286    0.0000 </r>
       <r>   -0.3952    0.0000 </r>
       <r>   -0.3380    0.0000 </r>
       <r>   -0.1351    0.0000 </r>
       <r>    0.0498    0.0000 </r>
       <r>    0.2550    0.0000 </r>
       <r>    0.3745    0.0000 </r>
       <r>    0.6886    0.0000 </r>
       <r>    0.8503    0.0000 </r>
       <r>    0.9106    0.0000 </r>
       <r>    1.0940    0.0000 </r>
       <r>    1.2564    0.0000 </r>
       <r>    1.5077    0.0000 </r>
       <r>    2.1359    0.0000 </r>
       <r>    2.2938    0.0000 </r>
       <r>    2.3985    0.0000 </r>
      </set>
      <set comment="kpoint 34">
       <r>  -17.4748    1.0000 </r>
       <r>  -17.3579    1.0000 </r>
       <r>  -16.7576    1.0000 </r>
       <r>  -16.7072    1.0000 </r>
       <r>  -16.6354    1.0000 </r>
       <r>  -16.4864    1.0000 </r>
       <r>  -16.3151    1.0000 </r>
       <r>  -16.1230    1.0000 </r>
       <r>  -16.1064    1.0000 </r>
       <r>  -16.0112    1.0000 </r>
       <r>  -15.8926    1.0000 </r>
       <r>  -15.8418    1.0000 </r>
       <r>  -15.7500    1.0000 </r>
       <r>  -15.6787    1.0000 </r>
       <r>  -15.6039    1.0000 </r>
       <r>  -15.5405    1.0000 </r>
       <r>  -15.4358    1.0000 </r>
       <r>  -15.3609    1.0000 </r>
       <r>   -9.7779    1.0000 </r>
       <r>   -9.3288    1.0000 </r>
       <r>   -9.1492    1.0000 </r>
       <r>   -9.0872    1.0000 </r>
       <r>   -8.9303    1.0000 </r>
       <r>   -8.8417    1.0000 </r>
       <r>   -8.6055    1.0000 </r>
       <r>   -8.5878    1.0000 </r>
       <r>   -8.4245    1.0000 </r>
       <r>   -8.3421    1.0000 </r>
       <r>   -8.2609    1.0000 </r>
       <r>   -8.1553    1.0000 </r>
       <r>   -8.1448    1.0000 </r>
       <r>   -8.0063    1.0000 </r>
       <r>   -7.9228    1.0000 </r>
       <r>   -7.8872    1.0000 </r>
       <r>   -7.8056    1.0000 </r>
       <r>   -7.6275    1.0000 </r>
       <r>   -7.5374    1.0000 </r>
       <r>   -7.5220    1.0000 </r>
       <r>   -7.4421    1.0000 </r>
       <r>   -7.3061    1.0000 </r>
       <r>   -7.2671    1.0000 </r>
       <r>   -7.0556    1.0000 </r>
       <r>   -7.0105    1.0000 </r>
       <r>   -6.9266    1.0000 </r>
       <r>   -6.8955    1.0000 </r>
       <r>   -6.6338    1.0000 </r>
       <r>   -6.6039    1.0000 </r>
       <r>   -6.5438    1.0000 </r>
       <r>   -6.5052    1.0000 </r>
       <r>   -6.4887    1.0000 </r>
       <r>   -6.4328    1.0000 </r>
       <r>   -6.3544    1.0000 </r>
       <r>   -6.3327    1.0000 </r>
       <r>   -6.2288    1.0000 </r>
       <r>   -6.2057    1.0000 </r>
       <r>   -6.1052    1.0000 </r>
       <r>   -5.9963    1.0000 </r>
       <r>   -5.9171    1.0000 </r>
       <r>   -5.8100    1.0000 </r>
       <r>   -5.7380    1.0000 </r>
       <r>   -5.6672    1.0000 </r>
       <r>   -5.5809    1.0000 </r>
       <r>   -5.4865    1.0000 </r>
       <r>   -5.4464    1.0000 </r>
       <r>   -5.3549    1.0000 </r>
       <r>   -5.1133    1.0000 </r>
       <r>   -5.0738    1.0000 </r>
       <r>   -4.9697    1.0000 </r>
       <r>   -4.8238    1.0000 </r>
       <r>   -4.5952    1.0000 </r>
       <r>   -4.5688    1.0000 </r>
       <r>   -4.4056    1.0000 </r>
       <r>   -4.3723    1.0000 </r>
       <r>   -4.1716    1.0000 </r>
       <r>   -4.1000    1.0000 </r>
       <r>   -3.9815    1.0000 </r>
       <r>   -3.8453    0.9999 </r>
       <r>   -3.7307    0.9988 </r>
       <r>   -3.6025    0.9837 </r>
       <r>   -3.3131    0.5360 </r>
       <r>   -3.0629    0.0466 </r>
       <r>   -2.8681    0.0011 </r>
       <r>   -2.6931    0.0000 </r>
       <r>   -2.5374    0.0000 </r>
       <r>   -2.4040    0.0000 </r>
       <r>   -2.3695    0.0000 </r>
       <r>   -2.1515    0.0000 </r>
       <r>   -2.0775    0.0000 </r>
       <r>   -1.8796    0.0000 </r>
       <r>   -1.8383    0.0000 </r>
       <r>   -1.6660    0.0000 </r>
       <r>   -1.5272    0.0000 </r>
       <r>   -1.4746    0.0000 </r>
       <r>   -1.3222    0.0000 </r>
       <r>   -1.2881    0.0000 </r>
       <r>   -1.2094    0.0000 </r>
       <r>   -1.0703    0.0000 </r>
       <r>   -1.0219    0.0000 </r>
       <r>   -1.0085    0.0000 </r>
       <r>   -0.9836    0.0000 </r>
       <r>   -0.8746    0.0000 </r>
       <r>   -0.7775    0.0000 </r>
       <r>   -0.6693    0.0000 </r>
       <r>   -0.6197    0.0000 </r>
       <r>   -0.5231    0.0000 </r>
       <r>   -0.4163    0.0000 </r>
       <r>   -0.3826    0.0000 </r>
       <r>   -0.1172    0.0000 </r>
       <r>    0.0590    0.0000 </r>
       <r>    0.2389    0.0000 </r>
       <r>    0.3001    0.0000 </r>
       <r>    0.7229    0.0000 </r>
       <r>    0.8630    0.0000 </r>
       <r>    0.9121    0.0000 </r>
       <r>    1.1173    0.0000 </r>
       <r>    1.2917    0.0000 </r>
       <r>    1.5715    0.0000 </r>
       <r>    2.2250    0.0000 </r>
       <r>    2.2471    0.0000 </r>
       <r>    2.3707    0.0000 </r>
      </set>
     </set>
    </set>
   </array>
  </eigenvalues>
  <separator name="orbital magnetization" >
   <v name="MAGDIPOLOUT">      0.00000000      0.00000000      0.00000000</v>
  </separator>
 </calculation>
 <structure name="finalpos" >
  <crystal>
   <varray name="basis" >
    <v>       8.33088197       4.80988640       0.00000000 </v>
    <v>      -8.34277665       4.83040894       0.00000000 </v>
    <v>       0.00000000       0.00000000      30.00000000 </v>
   </varray>
   <i name="volume">   2411.08124259 </i>
   <varray name="rec_basis" >
    <v>       0.06010261       0.10380542       0.00000000 </v>
    <v>      -0.05984725       0.10365742       0.00000000 </v>
    <v>       0.00000000       0.00000000       0.03333333 </v>
   </varray>
  </crystal>
  <varray name="positions" >
   <v>       0.31224414       0.66000162      -0.00072760 </v>
   <v>       0.66808038      -0.03071415       0.00072320 </v>
   <v>      -0.01750837      -0.03795160      -0.00099211 </v>
   <v>      -0.00629319       0.66080058      -0.00026219 </v>
   <v>       0.68366812       0.66375390      -0.00030061 </v>
   <v>       1.01293828       0.36694260       0.00130447 </v>
   <v>       0.30830083      -0.03761730      -0.00109018 </v>
   <v>       0.33442179       0.37323127       0.00093097 </v>
   <v>       0.69886414       0.36725114       0.00043158 </v>
   <v>       0.10696866       0.21784104       0.95541258 </v>
   <v>       0.21595829       0.11031232       0.04478519 </v>
   <v>       0.11567332       0.56404721       0.94511570 </v>
   <v>       0.22365782       0.45828451       0.05632734 </v>
   <v>       0.10419932       0.88678266       0.94510311 </v>
   <v>       0.22019393       0.76900485       0.05425099 </v>
   <v>       0.44311165       0.22593978       0.95821173 </v>
   <v>       0.55964066       0.10891999       0.04265991 </v>
   <v>       0.44593040       0.57148115       0.94803969 </v>
   <v>       0.55403591       0.44150149       0.05287051 </v>
   <v>       0.44653948       0.88506093       0.94923495 </v>
   <v>       0.55152861       0.77085088       0.04881275 </v>
   <v>       0.77802666       0.22085068       0.95272460 </v>
   <v>       0.89242253       0.10745788       0.04497400 </v>
   <v>       0.78277529       0.55868835       0.94286697 </v>
   <v>       0.89016265       0.44804905       0.05742908 </v>
   <v>       0.78179234       0.89029275       0.94679529 </v>
   <v>       0.89088079       0.77715089       0.05436798 </v>
  </varray>
 </structure>
</modeling>
