unknown system                          
           1
     8.858446    5.103548    0.000000
    -8.858382    5.103438    0.000000
     0.000000    0.000000   30.000000
   V    Mo   W    S 
   3   3   3  18
Direct configuration=     1
   0.66666669  0.33333334  0.00000000
   0.33333334  0.00000000  0.00000000
   1.00000000  0.33333334  0.00000000
   0.33333334  0.66666669  0.00000000
   0.33333334  0.33333334  0.00000000
   0.00000000  0.00000000  0.00000000
   0.00000000  0.66666669  0.00000000
   0.66666669  0.00000000  0.00000000
   0.66666669  0.66666669  0.00000000
   0.11068511  0.22244981  0.95539999
   0.22244981  0.11068511  0.04460000
   0.11068511  0.55578315  0.95539999
   0.22244981  0.44401845  0.04460000
   0.11068511  0.88911647  0.95539999
   0.22244981  0.77735180  0.04460000
   0.44401845  0.22244981  0.95539999
   0.55578315  0.11068511  0.04460000
   0.44401845  0.55578315  0.95539999
   0.55578315  0.44401845  0.04460000
   0.44401845  0.88911647  0.95539999
   0.55578315  0.77735180  0.04460000
   0.77735180  0.22244981  0.95539999
   0.88911647  0.11068511  0.04460000
   0.77735180  0.55578315  0.95539999
   0.88911647  0.44401845  0.04460000
   0.77735180  0.88911647  0.95539999
   0.88911647  0.77735180  0.04460000
unknown system                          
           1
     8.669620    4.997416    0.000000
    -8.669443    4.997111    0.000000
     0.000000    0.000000   30.000000
   V    Mo   W    S 
   3   3   3  18
Direct configuration=     2
   0.66558165  0.33303089 -0.00002352
   0.33242397  0.00038792 -0.00019104
   1.00196834  0.33327024  0.00016748
   0.33348948  0.66534905  0.00016211
   0.33194029  0.33314055 -0.00003592
   0.00128137  0.00130899 -0.00012328
   0.00160902  0.66768661  0.00007907
   0.66667861 -0.00070350 -0.00003781
   0.66492114  0.66643344  0.00003063
   0.10861751  0.22445535  0.95196482
   0.22458878  0.10868639  0.04799665
   0.10829704  0.55140403  0.95195605
   0.21751374  0.44213508  0.04813368
   0.11514552  0.89015698  0.95184866
   0.22334465  0.78159417  0.04805397
   0.44645607  0.21980097  0.95304791
   0.55370503  0.11273753  0.04694097
   0.44544320  0.55592520  0.95074358
   0.55840891  0.44298412  0.04797946
   0.44287021  0.89181059  0.95203711
   0.55618806  0.77803752  0.04935726
   0.77916245  0.22557964  0.95316136
   0.89008945  0.11522011  0.04807146
   0.77592512  0.55182905  0.95193621
   0.88734197  0.44084813  0.04686675
   0.77700479  0.88832436  0.95069102
   0.88821810  0.77678106  0.04918526
unknown system                          
           1
     8.486759    4.898150    0.000000
    -8.486762    4.898156    0.000000
     0.000000    0.000000   30.000000
   V    Mo   W    S 
   3   3   3  18
Direct configuration=     3
   0.66531269  0.33301818 -0.00003325
   0.33199971  0.00043620 -0.00021448
   1.00263171  0.33331357  0.00018483
   0.33387582  0.66494761  0.00014145
   0.33153665  0.33333458 -0.00003310
   0.00152465  0.00148531 -0.00009933
   0.00204842  0.66817724  0.00012787
   0.66665476 -0.00144573 -0.00009424
   0.66430843  0.66665097  0.00003381
   0.10854822  0.22452493  0.95187109
   0.22467275  0.10865276  0.04802737
   0.10808366  0.55139920  0.95199774
   0.21733245  0.44200857  0.04824596
   0.11518748  0.89002680  0.95179380
   0.22319644  0.78159325  0.04803562
   0.44646316  0.21975185  0.95308251
   0.55379581  0.11263187  0.04683886
   0.44565916  0.55603514  0.95066061
   0.55853948  0.44315329  0.04796551
   0.44307938  0.89196702  0.95208994
   0.55641265  0.77811969  0.04943829
   0.77910929  0.22539893  0.95329142
   0.88993444  0.11524745  0.04805887
   0.77599054  0.55199862  0.95203200
   0.88742180  0.44102616  0.04675829
   0.77677816  0.88822512  0.95067667
   0.88811674  0.77653588  0.04912177
unknown system                          
           1
     8.278590    4.773103    0.000000
    -8.277613    4.771411    0.000000
     0.000000    0.000000   30.000000
   V    Mo   W    S 
   3   3   3  18
Direct configuration=     4
   0.66447838  0.33328683 -0.00005493
   0.32992305  0.00027944 -0.00021718
   1.00515699  0.33348020  0.00017414
   0.33603432  0.66360739  0.00002279
   0.33024436  0.33453060 -0.00000400
   0.00203644  0.00154599  0.00001858
   0.00340179  0.67029187  0.00025371
   0.66647583 -0.00512851 -0.00025913
   0.66202971  0.66801024  0.00003721
   0.10792264  0.22516010  0.95007261
   0.22545676  0.10826943  0.04955900
   0.10735062  0.55030113  0.95071874
   0.21597110  0.44118053  0.05016270
   0.11646063  0.89073132  0.95007414
   0.22405958  0.78280971  0.04941545
   0.44678086  0.21926712  0.95189068
   0.55336141  0.11292198  0.04776736
   0.44561077  0.55588021  0.94870268
   0.55886884  0.44259141  0.04935197
   0.44262939  0.89244840  0.95084450
   0.55645959  0.77812503  0.05146461
   0.77973290  0.22627998  0.95246760
   0.89042500  0.11641611  0.04947137
   0.77559914  0.55130369  0.95095101
   0.88694217  0.44012656  0.04768115
   0.77681189  0.88816849  0.94896391
   0.88799030  0.77632924  0.05046923
unknown system                          
           1
     8.287948    4.771941    0.000000
    -8.287750    4.771603    0.000000
     0.000000    0.000000   30.000000
   V    Mo   W    S 
   3   3   3  18
Direct configuration=     5
   0.66321773  0.33389116 -0.00006950
   0.32537694  0.00019694 -0.00004569
   1.00958280  0.33385388 -0.00001524
   0.34122110  0.66112011 -0.00010513
   0.32810847  0.33715994  0.00005250
   0.00296405  0.00123356  0.00016621
   0.00577011  0.67439988  0.00034199
   0.66592158 -0.01256248 -0.00036721
   0.65718301  0.67080763 -0.00000065
   0.10743462  0.22566374  0.94767426
   0.22629887  0.10852452  0.05163272
   0.10729380  0.54950698  0.94925224
   0.21493002  0.44064701  0.05296563
   0.11787171  0.89198010  0.94759577
   0.22571795  0.78396187  0.05105852
   0.44645839  0.21898424  0.95011754
   0.55286797  0.11271407  0.04882245
   0.44515378  0.55501939  0.94585602
   0.55849777  0.44216145  0.05113707
   0.44198072  0.89230942  0.94928814
   0.55580581  0.77783820  0.05454073
   0.78050239  0.22662151  0.95157899
   0.89090853  0.11740325  0.05127959
   0.77522109  0.55111857  0.94970572
   0.88679366  0.43935682  0.04888955
   0.77762852  0.88796320  0.94647280
   0.88750308  0.77633950  0.05217487
unknown system                          
           1
     8.279062    4.765177    0.000000
    -8.278325    4.763904    0.000000
     0.000000    0.000000   30.000000
   V    Mo   W    S 
   3   3   3  18
Direct configuration=     6
   0.66285521  0.33396548 -0.00006796
   0.32395123  0.00103428 -0.00002861
   1.01053874  0.33396825 -0.00000881
   0.34249102  0.66064774 -0.00001313
   0.32814015  0.33763464  0.00001949
   0.00329815  0.00091076  0.00011491
   0.00590630  0.67544336  0.00035866
   0.66571803 -0.01419253 -0.00033094
   0.65619922  0.67105639 -0.00012512
   0.10758673  0.22548302  0.94756364
   0.22614647  0.10916232  0.05178479
   0.10817921  0.55022373  0.94938028
   0.21539245  0.44102085  0.05318058
   0.11777058  0.89228686  0.94736793
   0.22625068  0.78366493  0.05090954
   0.44582556  0.21909711  0.95007783
   0.55284041  0.11207597  0.04863840
   0.44510125  0.55452164  0.94551172
   0.55806596  0.44271070  0.05114618
   0.44200792  0.89169490  0.94945027
   0.55537814  0.77752218  0.05503742
   0.78042771  0.22573037  0.95178659
   0.89072816  0.11694254  0.05126754
   0.77521157  0.55197254  0.94983325
   0.88727230  0.43975416  0.04877140
   0.77805269  0.88766626  0.94621362
   0.88687861  0.77621604  0.05216043
unknown system                          
           1
     8.289896    4.769496    0.000000
    -8.288973    4.767900    0.000000
     0.000000    0.000000   30.000000
   V    Mo   W    S 
   3   3   3  18
Direct configuration=     7
   0.66220846  0.33403846 -0.00002012
   0.32163890  0.00250168  0.00002338
   1.01228843  0.33423364 -0.00002754
   0.34479589  0.65948326  0.00002377
   0.32799455  0.33846827 -0.00001211
   0.00388876  0.00037753  0.00008318
   0.00622217  0.67741865  0.00043258
   0.66552838 -0.01731778 -0.00031923
   0.65427433  0.67176491 -0.00019912
   0.10764201  0.22535144  0.94732869
   0.22597744  0.10981267  0.05209556
   0.10908264  0.55099617  0.94956016
   0.21579482  0.44123332  0.05358776
   0.11779073  0.89273684  0.94692228
   0.22694719  0.78361373  0.05071170
   0.44517465  0.21916184  0.94991540
   0.55269027  0.11138205  0.04838307
   0.44496078  0.55393086  0.94497368
   0.55769123  0.44325017  0.05122728
   0.44186842  0.89106993  0.94968342
   0.55509795  0.77705013  0.05570728
   0.78039220  0.22480810  0.95208887
   0.89066149  0.11652480  0.05131672
   0.77518154  0.55276995  0.94989322
   0.88777458  0.44015363  0.04859571
   0.77849150  0.88736166  0.94583050
   0.88615518  0.77603856  0.05219381
unknown system                          
           1
     8.294771    4.769472    0.000000
    -8.293295    4.766914    0.000000
     0.000000    0.000000   30.000000
   V    Mo   W    S 
   3   3   3  18
Direct configuration=     8
   0.66208243  0.33400940 -0.00001391
   0.32148470  0.00288284  0.00001680
   1.01247342  0.33425049 -0.00002458
   0.34479357  0.65930209  0.00004772
   0.32804987  0.33839504 -0.00002656
   0.00398916  0.00032724  0.00008008
   0.00612150  0.67768372  0.00043441
   0.66562712 -0.01741356 -0.00030753
   0.65430290  0.67164152 -0.00024442
   0.10763824  0.22532650  0.94737717
   0.22589667  0.10986809  0.05208894
   0.10915935  0.55108799  0.94965461
   0.21584215  0.44124583  0.05355070
   0.11776008  0.89274441  0.94693348
   0.22699668  0.78365003  0.05059870
   0.44517156  0.21916166  0.94993677
   0.55264946  0.11132609  0.04829556
   0.44500103  0.55385904  0.94498864
   0.55771342  0.44330499  0.05119224
   0.44182370  0.89104259  0.94979920
   0.55507354  0.77700074  0.05570415
   0.78036720  0.22471567  0.95218699
   0.89063008  0.11648247  0.05126155
   0.77518278  0.55277915  0.94993833
   0.88780932  0.44022001  0.04850994
   0.77851702  0.88730310  0.94586035
   0.88605749  0.77601734  0.05216060
unknown system                          
           1
     8.297398    4.770217    0.000000
    -8.295788    4.767428    0.000000
     0.000000    0.000000   30.000000
   V    Mo   W    S 
   3   3   3  18
Direct configuration=     9
   0.66154724  0.33402258  0.00002964
   0.32023240  0.00420802  0.00002151
   1.01367578  0.33439968 -0.00003244
   0.34586538  0.65836051  0.00008802
   0.32801668  0.33866570 -0.00005689
   0.00439940  0.00000507  0.00006683
   0.00602274  0.67906558  0.00048097
   0.66575348 -0.01901744 -0.00029253
   0.65347501  0.67178989 -0.00032253
   0.10763683  0.22524556  0.94732874
   0.22569720  0.11021813  0.05224579
   0.10959573  0.55153150  0.94988872
   0.21605832  0.44129890  0.05369338
   0.11772212  0.89296297  0.94673247
   0.22737447  0.78373651  0.05032425
   0.44492019  0.21919250  0.94986351
   0.55249626  0.11092903  0.04804880
   0.44498200  0.55348484  0.94477082
   0.55760704  0.44358412  0.05118388
   0.44168321  0.89076383  0.95010757
   0.55494879  0.77668162  0.05596842
   0.78033427  0.22422159  0.95248111
   0.89056264  0.11627561  0.05121417
   0.77517864  0.55306603  0.95000444
   0.88807574  0.44050588  0.04828644
   0.77873476  0.88709171  0.94573157
   0.88561812  0.77592454  0.05214323
unknown system                          
           1
     8.302328    4.771752    0.000000
    -8.300680    4.768897    0.000000
     0.000000    0.000000   30.000000
   V    Mo   W    S 
   3   3   3  18
Direct configuration=    10
   0.66138824  0.33402900  0.00003948
   0.31997614  0.00451105  0.00002015
   1.01394672  0.33441738 -0.00003371
   0.34606782  0.65815600  0.00010048
   0.32803185  0.33870146 -0.00006463
   0.00449695 -0.00005977  0.00006623
   0.00597305  0.67939435  0.00048974
   0.66580072 -0.01934031 -0.00028641
   0.65333651  0.67178847 -0.00034580
   0.10763533  0.22522419  0.94730710
   0.22565122  0.11029356  0.05228833
   0.10968407  0.55162162  0.94993532
   0.21610122  0.44130406  0.05373642
   0.11771896  0.89301868  0.94668054
   0.22746622  0.78376988  0.05026414
   0.44487208  0.21919961  0.94983736
   0.55245440  0.11084561  0.04799751
   0.44498099  0.55339200  0.94471359
   0.55758680  0.44363067  0.05119366
   0.44163783  0.89071056  0.95017227
   0.55491658  0.77660864  0.05603485
   0.78032925  0.22412742  0.95254338
   0.89054761  0.11624085  0.05121325
   0.77517402  0.55310187  0.95000838
   0.88812601  0.44056420  0.04823968
   0.77878959  0.88704642  0.94569401
   0.88552429  0.77591700  0.05215457
unknown system                          
           1
     8.303046    4.772547    0.000000
    -8.302557    4.771705    0.000000
     0.000000    0.000000   30.000000
   V    Mo   W    S 
   3   3   3  18
Direct configuration=    11
   0.66113643  0.33399001  0.00005921
   0.31938220  0.00515114  0.00001717
   1.01455476  0.33450124 -0.00003569
   0.34643125  0.65765576  0.00012570
   0.32796557  0.33875472 -0.00007914
   0.00475571 -0.00015163  0.00006515
   0.00593580  0.68007821  0.00050816
   0.66590393 -0.01998675 -0.00027416
   0.65303188  0.67181070 -0.00039149
   0.10761327  0.22519924  0.94727716
   0.22556275  0.11043703  0.05236868
   0.10986161  0.55178786  0.95004596
   0.21615906  0.44129986  0.05381412
   0.11773074  0.89313846  0.94658202
   0.22767013  0.78387008  0.05012596
   0.44474641  0.21918255  0.94979321
   0.55233031  0.11064279  0.04788551
   0.44497520  0.55319913  0.94459453
   0.55754350  0.44373949  0.05120443
   0.44152796  0.89061133  0.95032579
   0.55485265  0.77646385  0.05617192
   0.78035849  0.22393376  0.95267848
   0.89052966  0.11619154  0.05119389
   0.77517487  0.55320604  0.95002475
   0.88826306  0.44067843  0.04813542
   0.77889873  0.88694859  0.94562057
   0.88531851  0.77588102  0.05216260
unknown system                          
           1
     8.309041    4.773088    0.000000
    -8.306476    4.768640    0.000000
     0.000000    0.000000   30.000000
   V    Mo   W    S 
   3   3   3  18
Direct configuration=    12
   0.66077097  0.33339193  0.00009232
   0.31767946  0.00607354 -0.00004734
   1.01613909  0.33501238 -0.00000480
   0.34650056  0.65639919  0.00018900
   0.32731136  0.33855113 -0.00011750
   0.00596518  0.00003378  0.00008512
   0.00652514  0.68177860  0.00054718
   0.66606704 -0.02098324 -0.00023704
   0.65239989  0.67183405 -0.00049034
   0.10745931  0.22528659  0.94724085
   0.22554335  0.11053760  0.05247474
   0.11010661  0.55188611  0.95032444
   0.21602720  0.44117871  0.05393580
   0.11803274  0.89350040  0.94646634
   0.22823065  0.78447897  0.04974901
   0.44423385  0.21876973  0.94977284
   0.55162975  0.10996186  0.04763114
   0.44495023  0.55285320  0.94441417
   0.55744015  0.44396881  0.05120696
   0.44110563  0.89057346  0.95078661
   0.55473178  0.77617755  0.05635542
   0.78075224  0.22362394  0.95295542
   0.89052495  0.11634569  0.05107092
   0.77529925  0.55348403  0.95007452
   0.88881823  0.44095657  0.04787000
   0.77898873  0.88676261  0.94553019
   0.88498109  0.77577726  0.05212391
unknown system                          
           1
     8.315561    4.774293    0.000000
    -8.312423    4.768850    0.000000
     0.000000    0.000000   30.000000
   V    Mo   W    S 
   3   3   3  18
Direct configuration=    13
   0.66029822  0.33404867  0.00011353
   0.31839921  0.00646958 -0.00000627
   1.01569774  0.33454003 -0.00003676
   0.34727838  0.65682671  0.00017346
   0.32816360  0.33886458 -0.00011489
   0.00515346 -0.00047954  0.00006498
   0.00559012  0.68154903  0.00055509
   0.66613817 -0.02131147 -0.00025023
   0.65252632  0.67172062 -0.00047653
   0.10762982  0.22508868  0.94722060
   0.22534806  0.11073283  0.05251493
   0.11018478  0.55219067  0.95029223
   0.21638131  0.44130812  0.05394419
   0.11768431  0.89335597  0.94641377
   0.22800044  0.78401891  0.04980731
   0.44458796  0.21922472  0.94970317
   0.55215578  0.11029800  0.04762653
   0.44497931  0.55283677  0.94444501
   0.55748941  0.44391096  0.05121010
   0.44135295  0.89041328  0.95066870
   0.55476639  0.77611370  0.05632903
   0.78029061  0.22354737  0.95298363
   0.89042981  0.11602534  0.05116225
   0.77517298  0.55327039  0.95005189
   0.88845946  0.44099276  0.04788235
   0.77907653  0.88677236  0.94553527
   0.88497930  0.77588544  0.05218657
unknown system                          
           1
     8.308433    4.772823    0.000000
    -8.305830    4.768308    0.000000
     0.000000    0.000000   30.000000
   V    Mo   W    S 
   3   3   3  18
Direct configuration=    14
   0.65927033  0.33427301  0.00016425
   0.31764452  0.00775267 -0.00002987
   1.01701295  0.33440322 -0.00004304
   0.34796987  0.65589734  0.00022678
   0.32826223  0.33892633 -0.00014317
   0.00544762 -0.00065307  0.00007885
   0.00494331  0.68303658  0.00059047
   0.66655284 -0.02248257 -0.00022480
   0.65227386  0.67149103 -0.00057841
   0.10765684  0.22498782  0.94716765
   0.22509968  0.11105918  0.05267406
   0.11044593  0.55255715  0.95057545
   0.21658329  0.44125604  0.05406494
   0.11759519  0.89357068  0.94621772
   0.22831321  0.78415166  0.04947043
   0.44447588  0.21932768  0.94955788
   0.55198216  0.10993028  0.04736799
   0.44499833  0.55245153  0.94428897
   0.55743919  0.44403032  0.05126688
   0.44116504  0.89025837  0.95100983
   0.55470158  0.77573115  0.05649156
   0.78023638  0.22322028  0.95332602
   0.89035900  0.11592311  0.05114350
   0.77518980  0.55323812  0.95002576
   0.88865431  0.44131027  0.04759988
   0.77928834  0.88659395  0.94543945
   0.88465278  0.77597233  0.05227088
unknown system                          
           1
     8.316880    4.774442    0.000000
    -8.313691    4.768909    0.000000
     0.000000    0.000000   30.000000
   V    Mo   W    S 
   3   3   3  18
Direct configuration=    15
   0.66080036  0.33376619  0.00010990
   0.31841374  0.00636954  0.00001783
   1.01542155  0.33478242 -0.00004395
   0.34716168  0.65690266  0.00016348
   0.32805034  0.33889797 -0.00010559
   0.00516097 -0.00051492  0.00005371
   0.00600554  0.68123506  0.00055780
   0.66600577 -0.02118756 -0.00026183
   0.65233414  0.67192730 -0.00047256
   0.10758426  0.22510649  0.94725891
   0.22537583  0.11070842  0.05251236
   0.11020548  0.55214746  0.95020123
   0.21635683  0.44133908  0.05391412
   0.11768389  0.89328872  0.94641626
   0.22802609  0.78404433  0.04990710
   0.44458843  0.21920353  0.94975049
   0.55215173  0.11035989  0.04768685
   0.44495240  0.55287982  0.94445151
   0.55751195  0.44394079  0.05114433
   0.44136816  0.89041050  0.95060268
   0.55471373  0.77621756  0.05634825
   0.78031089  0.22355091  0.95288467
   0.89043663  0.11597401  0.05113183
   0.77513199  0.55337152  0.95012746
   0.88843132  0.44092688  0.04797354
   0.77905216  0.88680579  0.94555569
   0.88497860  0.77576009  0.05211382
unknown system                          
           1
     8.311074    4.770461    0.000000
    -8.308131    4.765359    0.000000
     0.000000    0.000000   30.000000
   V    Mo   W    S 
   3   3   3  18
Direct configuration=    16
   0.66166215  0.33269989  0.00012938
   0.31797835  0.00690600 -0.00000916
   1.01544918  0.33562821 -0.00004415
   0.34710072  0.65663842  0.00019538
   0.32782320  0.33895763 -0.00010511
   0.00549201 -0.00076305  0.00005321
   0.00708204  0.68144136  0.00055407
   0.66578956 -0.02155009 -0.00023531
   0.65155943  0.67236366 -0.00047652
   0.10743925  0.22508811  0.94731124
   0.22520931  0.11091008  0.05261629
   0.11046616  0.55225472  0.95011955
   0.21630285  0.44131969  0.05394124
   0.11770474  0.89327641  0.94636307
   0.22833559  0.78429000  0.04992533
   0.44448059  0.21920239  0.94982271
   0.55194370  0.11022084  0.04769525
   0.44485772  0.55265652  0.94433088
   0.55759549  0.44416595  0.05095298
   0.44123731  0.89036938  0.95071225
   0.55449411  0.77620907  0.05646535
   0.78037847  0.22330942  0.95281157
   0.89038844  0.11580941  0.05100328
   0.77505493  0.55363609  0.95036488
   0.88856593  0.44098087  0.04805577
   0.77917034  0.88679367  0.94549887
   0.88465287  0.77539980  0.05194759
unknown system                          
           1
     8.320045    4.774015    0.000000
    -8.316833    4.768444    0.000000
     0.000000    0.000000   30.000000
   V    Mo   W    S 
   3   3   3  18
Direct configuration=    17
   0.66281863  0.33128132  0.00013913
   0.31787144  0.00718800 -0.00000990
   1.01522143  0.33663066 -0.00003839
   0.34684816  0.65645393  0.00017412
   0.32749513  0.33910836 -0.00009452
   0.00568299 -0.00102768  0.00004916
   0.00822641  0.68127810  0.00054414
   0.66557028 -0.02160156 -0.00025845
   0.65082064  0.67290830 -0.00052002
   0.10727919  0.22506860  0.94740855
   0.22509280  0.11102405  0.05264489
   0.11063518  0.55230194  0.94996318
   0.21620790  0.44127792  0.05392991
   0.11768337  0.89322872  0.94635193
   0.22852202  0.78453127  0.05001925
   0.44443148  0.21927116  0.94991953
   0.55175754  0.11013424  0.04780039
   0.44474884  0.55260864  0.94433959
   0.55771334  0.44432145  0.05071153
   0.44116939  0.89040562  0.95076393
   0.55425324  0.77623406  0.05651656
   0.78047709  0.22316358  0.95264294
   0.89033300  0.11567516  0.05086703
   0.77502881  0.55388014  0.95066080
   0.88869428  0.44102452  0.04819662
   0.77915297  0.88683896  0.94554561
   0.88447889  0.77500502  0.05173238
unknown system                          
           1
     8.327857    4.776468    0.000000
    -8.324330    4.770353    0.000000
     0.000000    0.000000   30.000000
   V    Mo   W    S 
   3   3   3  18
Direct configuration=    18
   0.66127438  0.33185450  0.00017973
   0.31734248  0.00823100 -0.00005082
   1.01658809  0.33613245 -0.00002993
   0.34746009  0.65565082  0.00023360
   0.32771073  0.33909102 -0.00012376
   0.00587846 -0.00105467  0.00007429
   0.00706349  0.68276702  0.00056427
   0.66608307 -0.02253889 -0.00021932
   0.65101924  0.67239633 -0.00059979
   0.10736240  0.22497272  0.94730074
   0.22492195  0.11126137  0.05276072
   0.11076073  0.55260202  0.95028771
   0.21639021  0.44121434  0.05406781
   0.11762937  0.89349943  0.94618608
   0.22871479  0.78459318  0.04965109
   0.44436856  0.21936747  0.94972986
   0.55163517  0.10979657  0.04754472
   0.44480136  0.55229689  0.94421358
   0.55764607  0.44432860  0.05086787
   0.44099364  0.89030531  0.95107485
   0.55428746  0.77581086  0.05660791
   0.78043164  0.22297271  0.95302038
   0.89028325  0.11571066  0.05092057
   0.77509209  0.55366105  0.95050548
   0.88885607  0.44132971  0.04786254
   0.77933970  0.88667325  0.94544275
   0.88427996  0.77528871  0.05192700
unknown system                          
           1
     8.329262    4.776921    0.000000
    -8.325718    4.770777    0.000000
     0.000000    0.000000   30.000000
   V    Mo   W    S 
   3   3   3  18
Direct configuration=    19
   0.66007798  0.33155029  0.00024791
   0.31675147  0.00948948 -0.00010916
   1.01801029  0.33608581 -0.00002851
   0.34793766  0.65470195  0.00030087
   0.32782243  0.33913863 -0.00015020
   0.00619554 -0.00119881  0.00009607
   0.00636716  0.68439639  0.00058652
   0.66651055 -0.02354535 -0.00018390
   0.65091001  0.67212383 -0.00068977
   0.10736165  0.22487626  0.94723571
   0.22469456  0.11157567  0.05289782
   0.11097945  0.55294149  0.95056446
   0.21654396  0.44112993  0.05421812
   0.11758081  0.89381659  0.94600590
   0.22904017  0.78482472  0.04928092
   0.44426691  0.21951035  0.94956934
   0.55133666  0.10934398  0.04733294
   0.44478893  0.55192199  0.94407932
   0.55765441  0.44440710  0.05089901
   0.44074338  0.89022865  0.95145951
   0.55420340  0.77532678  0.05670252
   0.78048206  0.22270213  0.95334033
   0.89018888  0.11570022  0.05091477
   0.77512801  0.55349888  0.95047443
   0.88910599  0.44171606  0.04755896
   0.77954577  0.88653182  0.94535629
   0.88398638  0.77541963  0.05203970
unknown system                          
           1
     8.319819    4.772304    0.000000
    -8.316953    4.767341    0.000000
     0.000000    0.000000   30.000000
   V    Mo   W    S 
   3   3   3  18
Direct configuration=    20
   0.65998741  0.33138388  0.00025554
   0.31669370  0.00962740 -0.00011897
   1.01815111  0.33613180 -0.00002536
   0.34796054  0.65459781  0.00030920
   0.32781888  0.33914873 -0.00015181
   0.00623782 -0.00122185  0.00010143
   0.00634107  0.68457050  0.00058311
   0.66654396 -0.02363116 -0.00017944
   0.65087941  0.67211786 -0.00070489
   0.10735691  0.22486708  0.94723108
   0.22466725  0.11161744  0.05291308
   0.11100840  0.55298173  0.95058624
   0.21655426  0.44111823  0.05423569
   0.11758069  0.89385839  0.94598416
   0.22908450  0.78486457  0.04924482
   0.44425810  0.21953409  0.94955553
   0.55128264  0.10928245  0.04732187
   0.44478552  0.55188253  0.94406543
   0.55766721  0.44442033  0.05088883
   0.44070772  0.89022810  0.95150454
   0.55418027  0.77527119  0.05671538
   0.78050200  0.22267021  0.95336319
   0.89017527  0.11570001  0.05090758
   0.77513118  0.55347962  0.95048793
   0.88914287  0.44176694  0.04753076
   0.77956970  0.88652090  0.94534775
   0.88394609  0.77542568  0.05204723
unknown system                          
           1
     8.323347    4.773339    0.000000
    -8.320304    4.768069    0.000000
     0.000000    0.000000   30.000000
   V    Mo   W    S 
   3   3   3  18
Direct configuration=    21
   0.65979327  0.33272178  0.00022973
   0.31668147  0.00951312 -0.00009076
   1.01849306  0.33571541 -0.00004328
   0.34784849  0.65441156  0.00029392
   0.32767964  0.33909419 -0.00015896
   0.00621747 -0.00088338  0.00009960
   0.00594932  0.68438955  0.00060972
   0.66670664 -0.02360898 -0.00018494
   0.65110296  0.67176165 -0.00071326
   0.10732953  0.22492091  0.94720628
   0.22472789  0.11151050  0.05291343
   0.11089484  0.55280107  0.95063605
   0.21645684  0.44107291  0.05421971
   0.11757702  0.89373621  0.94599750
   0.22902792  0.78476911  0.04925661
   0.44426027  0.21943304  0.94952382
   0.55146046  0.10941020  0.04724563
   0.44482613  0.55190539  0.94404981
   0.55756405  0.44431583  0.05103873
   0.44077394  0.89021345  0.95143743
   0.55427670  0.77537261  0.05674371
   0.78046663  0.22277220  0.95345731
   0.89026864  0.11582933  0.05095020
   0.77517152  0.55350208  0.95034065
   0.88908400  0.44157991  0.04751418
   0.77954616  0.88645689  0.94532041
   0.88402960  0.77549790  0.05210670
unknown system                          
           1
     8.331296    4.778427    0.000000
    -8.327052    4.771064    0.000000
     0.000000    0.000000   30.000000
   V    Mo   W    S 
   3   3   3  18
Direct configuration=    22
   0.65962565  0.33167435  0.00026302
   0.31655726  0.00986149 -0.00011882
   1.01862618  0.33596887 -0.00003503
   0.34800979  0.65425839  0.00031391
   0.32776642  0.33917212 -0.00015695
   0.00630434 -0.00112220  0.00010945
   0.00600620  0.68489925  0.00058806
   0.66670870 -0.02381106 -0.00017728
   0.65095296  0.67194865 -0.00074849
   0.10735400  0.22488811  0.94723328
   0.22463922  0.11163211  0.05292644
   0.11101556  0.55299443  0.95068512
   0.21655491  0.44107922  0.05423875
   0.11757153  0.89389141  0.94595349
   0.22911331  0.78487647  0.04915715
   0.44424200  0.21952953  0.94951270
   0.55126080  0.10921486  0.04725490
   0.44482245  0.55183889  0.94404708
   0.55764676  0.44439880  0.05093791
   0.44069114  0.89021913  0.95156863
   0.55420469  0.77521250  0.05675146
   0.78050870  0.22264895  0.95346772
   0.89018248  0.11574357  0.05090821
   0.77515506  0.55344780  0.95044583
   0.88917655  0.44179468  0.04744740
   0.77959650  0.88646737  0.94533038
   0.88392128  0.77548675  0.05209560
unknown system                          
           1
     8.334695    4.778735    0.000000
    -8.330249    4.771020    0.000000
     0.000000    0.000000   30.000000
   V    Mo   W    S 
   3   3   3  18
Direct configuration=    23
   0.65862435  0.33383252  0.00025024
   0.31636552  0.01013527 -0.00013953
   1.01947726  0.33519674 -0.00002738
   0.34837433  0.65407855  0.00033265
   0.32792449  0.33897765 -0.00020043
   0.00627683 -0.00083704  0.00011371
   0.00508245  0.68536912  0.00066315
   0.66708970 -0.02442259 -0.00016853
   0.65122311  0.67123094 -0.00073708
   0.10738832  0.22478140  0.94703635
   0.22460736  0.11174495  0.05304193
   0.11093760  0.55299189  0.95083596
   0.21659454  0.44102183  0.05439961
   0.11749549  0.89388327  0.94588352
   0.22919837  0.78480017  0.04899665
   0.44419495  0.21953303  0.94936837
   0.55144434  0.10917794  0.04700821
   0.44480087  0.55160369  0.94396276
   0.55742141  0.44428042  0.05121385
   0.44063418  0.89009363  0.95168885
   0.55429548  0.77500086  0.05675790
   0.78041998  0.22262710  0.95378524
   0.89025336  0.11588482  0.05102944
   0.77526554  0.55334122  0.95014403
   0.88923475  0.44181802  0.04726547
   0.77967036  0.88629847  0.94525507
   0.88391950  0.77577059  0.05223990
unknown system                          
           1
     8.332785    4.777558    0.000000
    -8.328061    4.769359    0.000000
     0.000000    0.000000   30.000000
   V    Mo   W    S 
   3   3   3  18
Direct configuration=    24
   0.65758260  0.33304441  0.00029943
   0.31599790  0.01093159 -0.00018812
   1.02028650  0.33514154 -0.00001319
   0.34876362  0.65352019  0.00038433
   0.32807726  0.33898880 -0.00020337
   0.00654182 -0.00093964  0.00014300
   0.00454949  0.68658345  0.00063458
   0.66736911 -0.02497410 -0.00013982
   0.65119416  0.67107075 -0.00083368
   0.10748853  0.22472683  0.94703277
   0.22445217  0.11195905  0.05307225
   0.11109698  0.55331037  0.95106994
   0.21679735  0.44098837  0.05445306
   0.11747420  0.89419653  0.94577898
   0.22933957  0.78493956  0.04870004
   0.44414195  0.21967563  0.94927535
   0.55116143  0.10880858  0.04688329
   0.44484278  0.55141239  0.94392866
   0.55745782  0.44434336  0.05118392
   0.44047279  0.89008106  0.95198193