   27   27  100    1
  0.9710400E+02  0.1002848E-08  0.1002848E-08  0.3000000E-08  0.5000000E-15
  1.000000000000000E-004
  CAR 
 unknown system                          
    159     34    120
 
  0.0000000E+00  0.0000000E+00  0.0000000E+00  0.1562500E-01
    1      -17.807930   1.000000
    2      -16.649495   1.000000
    3      -16.583774   1.000000
    4      -16.528757   1.000000
    5      -16.502433   1.000000
    6      -16.454247   1.000000
    7      -16.411544   1.000000
    8      -16.282851   1.000000
    9      -16.137657   1.000000
   10      -16.115275   1.000000
   11      -16.078114   1.000000
   12      -15.951357   1.000000
   13      -15.926488   1.000000
   14      -15.782483   1.000000
   15      -15.561425   1.000000
   16      -15.551032   1.000000
   17      -15.446589   1.000000
   18      -15.357925   1.000000
   19       -9.286418   1.000000
   20       -8.880136   1.000000
   21       -8.873205   1.000000
   22       -8.787648   1.000000
   23       -8.760167   1.000000
   24       -8.636806   1.000000
   25       -8.634950   1.000000
   26       -8.541468   1.000000
   27       -8.442491   1.000000
   28       -8.426476   1.000000
   29       -8.405348   1.000000
   30       -8.361421   1.000000
   31       -8.233269   1.000000
   32       -8.228874   1.000000
   33       -8.131880   1.000000
   34       -8.039402   1.000000
   35       -7.864207   1.000000
   36       -7.795791   1.000000
   37       -7.765505   1.000000
   38       -7.553604   1.000000
   39       -7.494531   1.000000
   40       -7.470652   1.000000
   41       -7.387099   1.000000
   42       -7.272603   1.000000
   43       -7.065446   1.000000
   44       -6.868403   1.000000
   45       -6.816699   1.000000
   46       -6.790229   1.000000
   47       -6.769958   1.000000
   48       -6.677551   1.000000
   49       -6.559829   1.000000
   50       -6.543150   1.000000
   51       -6.499129   1.000000
   52       -6.479454   1.000000
   53       -6.373142   1.000000
   54       -6.347009   1.000000
   55       -6.110146   1.000000
   56       -6.029926   1.000000
   57       -6.010163   1.000000
   58       -5.812989   1.000000
   59       -5.723247   1.000000
   60       -5.596880   1.000000
   61       -5.560427   1.000000
   62       -5.471499   1.000000
   63       -5.297828   1.000000
   64       -5.205487   1.000000
   65       -4.962764   1.000000
   66       -4.879732   1.000000
   67       -4.827525   1.000000
   68       -4.780083   1.000000
   69       -4.657800   1.000000
   70       -4.647544   1.000000
   71       -4.593772   1.000000
   72       -4.497904   1.000000
   73       -4.448025   1.000000
   74       -4.372819   1.000000
   75       -4.147594   1.000000
   76       -4.007390   1.000000
   77       -3.579890   0.997038
   78       -3.536391   0.992745
   79       -3.439952   0.961004
   80       -3.336760   0.849145
   81       -3.245660   0.651213
   82       -2.694773   0.000227
   83       -2.579418   0.000008
   84       -2.572310   0.000006
   85       -2.423080   0.000000
   86       -2.340546   0.000000
   87       -2.267581   0.000000
   88       -2.235503   0.000000
   89       -2.150663   0.000000
   90       -2.072648   0.000000
   91       -1.720592   0.000000
   92       -1.657802   0.000000
   93       -1.501024   0.000000
   94       -1.485306   0.000000
   95       -1.366603   0.000000
   96       -1.334254   0.000000
   97       -1.244860   0.000000
   98       -1.200745   0.000000
   99       -0.705940   0.000000
  100       -0.515451   0.000000
  101       -0.472906   0.000000
  102       -0.427530   0.000000
  103       -0.331209   0.000000
  104       -0.263421   0.000000
  105       -0.221110   0.000000
  106        0.104030   0.000000
  107        0.108611   0.000000
  108        0.152646   0.000000
  109        0.205931   0.000000
  110        0.258878   0.000000
  111        0.391699   0.000000
  112        0.732338   0.000000
  113        0.792196   0.000000
  114        0.898117   0.000000
  115        0.953487   0.000000
  116        1.007675   0.000000
  117        1.054073   0.000000
  118        1.673030   0.000000
  119        1.842727   0.000000
  120        2.185691   0.000000
 
  0.1250000E+00  0.2775558E-16  0.0000000E+00  0.3125000E-01
    1      -17.782166   1.000000
    2      -16.739194   1.000000
    3      -16.640417   1.000000
    4      -16.587750   1.000000
    5      -16.517113   1.000000
    6      -16.412463   1.000000
    7      -16.314065   1.000000
    8      -16.266589   1.000000
    9      -16.171598   1.000000
   10      -16.119333   1.000000
   11      -16.021614   1.000000
   12      -15.932578   1.000000
   13      -15.893676   1.000000
   14      -15.762162   1.000000
   15      -15.574260   1.000000
   16      -15.561487   1.000000
   17      -15.456528   1.000000
   18      -15.363670   1.000000
   19       -9.283605   1.000000
   20       -9.088485   1.000000
   21       -8.975731   1.000000
   22       -8.881594   1.000000
   23       -8.774447   1.000000
   24       -8.665036   1.000000
   25       -8.634016   1.000000
   26       -8.516931   1.000000
   27       -8.483409   1.000000
   28       -8.463928   1.000000
   29       -8.337271   1.000000
   30       -8.232897   1.000000
   31       -8.227188   1.000000
   32       -8.155534   1.000000
   33       -8.030466   1.000000
   34       -7.880101   1.000000
   35       -7.780546   1.000000
   36       -7.754093   1.000000
   37       -7.704497   1.000000
   38       -7.611796   1.000000
   39       -7.524319   1.000000
   40       -7.440557   1.000000
   41       -7.352373   1.000000
   42       -7.250475   1.000000
   43       -7.050173   1.000000
   44       -6.987242   1.000000
   45       -6.846680   1.000000
   46       -6.810404   1.000000
   47       -6.783158   1.000000
   48       -6.657982   1.000000
   49       -6.594255   1.000000
   50       -6.549266   1.000000
   51       -6.514004   1.000000
   52       -6.420773   1.000000
   53       -6.369497   1.000000
   54       -6.314118   1.000000
   55       -6.125268   1.000000
   56       -6.081858   1.000000
   57       -5.988855   1.000000
   58       -5.776299   1.000000
   59       -5.739194   1.000000
   60       -5.574767   1.000000
   61       -5.498878   1.000000
   62       -5.416635   1.000000
   63       -5.348101   1.000000
   64       -5.220623   1.000000
   65       -5.121861   1.000000
   66       -5.030554   1.000000
   67       -4.904321   1.000000
   68       -4.817426   1.000000
   69       -4.766071   1.000000
   70       -4.642378   1.000000
   71       -4.585604   1.000000
   72       -4.423978   1.000000
   73       -4.311300   1.000000
   74       -4.134430   1.000000
   75       -4.080775   1.000000
   76       -3.946610   1.000000
   77       -3.774198   0.999982
   78       -3.666066   0.999612
   79       -3.515327   0.989146
   80       -3.235123   0.623276
   81       -3.095583   0.250600
   82       -2.718980   0.000426
   83       -2.615651   0.000024
   84       -2.595905   0.000013
   85       -2.435237   0.000000
   86       -2.347448   0.000000
   87       -2.268789   0.000000
   88       -2.199519   0.000000
   89       -2.152466   0.000000
   90       -2.068171   0.000000
   91       -1.701759   0.000000
   92       -1.650153   0.000000
   93       -1.527171   0.000000
   94       -1.474048   0.000000
   95       -1.340029   0.000000
   96       -1.314310   0.000000
   97       -1.210400   0.000000
   98       -1.157953   0.000000
   99       -0.715513   0.000000
  100       -0.600348   0.000000
  101       -0.545278   0.000000
  102       -0.484370   0.000000
  103       -0.446077   0.000000
  104       -0.315253   0.000000
  105       -0.165602   0.000000
  106       -0.023377   0.000000
  107        0.050684   0.000000
  108        0.125995   0.000000
  109        0.151643   0.000000
  110        0.226518   0.000000
  111        0.484614   0.000000
  112        0.781142   0.000000
  113        0.852589   0.000000
  114        0.878531   0.000000
  115        0.992273   0.000000
  116        1.047631   0.000000
  117        1.111442   0.000000
  118        1.715702   0.000000
  119        1.881222   0.000000
  120        2.220809   0.000000
 
  0.2500000E+00  0.5551115E-16  0.0000000E+00  0.3125000E-01
    1      -17.706004   1.000000
    2      -16.964681   1.000000
    3      -16.693532   1.000000
    4      -16.591383   1.000000
    5      -16.564853   1.000000
    6      -16.358945   1.000000
    7      -16.305983   1.000000
    8      -16.193269   1.000000
    9      -16.149599   1.000000
   10      -16.094362   1.000000
   11      -16.013443   1.000000
   12      -15.884294   1.000000
   13      -15.804614   1.000000
   14      -15.720815   1.000000
   15      -15.609834   1.000000
   16      -15.561974   1.000000
   17      -15.485380   1.000000
   18      -15.382652   1.000000
   19       -9.476633   1.000000
   20       -9.182074   1.000000
   21       -9.138216   1.000000
   22       -8.965395   1.000000
   23       -8.863190   1.000000
   24       -8.820469   1.000000
   25       -8.570464   1.000000
   26       -8.490608   1.000000
   27       -8.455764   1.000000
   28       -8.388443   1.000000
   29       -8.299710   1.000000
   30       -8.215327   1.000000
   31       -8.156068   1.000000
   32       -8.094349   1.000000
   33       -7.878119   1.000000
   34       -7.843314   1.000000
   35       -7.686705   1.000000
   36       -7.638051   1.000000
   37       -7.607701   1.000000
   38       -7.506406   1.000000
   39       -7.448310   1.000000
   40       -7.387900   1.000000
   41       -7.281476   1.000000
   42       -7.121655   1.000000
   43       -7.114283   1.000000
   44       -7.015284   1.000000
   45       -6.926599   1.000000
   46       -6.820503   1.000000
   47       -6.794427   1.000000
   48       -6.692367   1.000000
   49       -6.643473   1.000000
   50       -6.566905   1.000000
   51       -6.537452   1.000000
   52       -6.414088   1.000000
   53       -6.284885   1.000000
   54       -6.189043   1.000000
   55       -6.143873   1.000000
   56       -6.093713   1.000000
   57       -5.971581   1.000000
   58       -5.805236   1.000000
   59       -5.667635   1.000000
   60       -5.623408   1.000000
   61       -5.573360   1.000000
   62       -5.500878   1.000000
   63       -5.463032   1.000000
   64       -5.366810   1.000000
   65       -5.255159   1.000000
   66       -5.146849   1.000000
   67       -5.028068   1.000000
   68       -4.792678   1.000000
   69       -4.743242   1.000000
   70       -4.638437   1.000000
   71       -4.485103   1.000000
   72       -4.336971   1.000000
   73       -4.262346   1.000000
   74       -4.079808   1.000000
   75       -3.994743   1.000000
   76       -3.911903   1.000000
   77       -3.823679   0.999996
   78       -3.737475   0.999945
   79       -3.519889   0.990036
   80       -3.139255   0.358004
   81       -2.982932   0.070894
   82       -2.789170   0.002261
   83       -2.680305   0.000154
   84       -2.612552   0.000022
   85       -2.459770   0.000000
   86       -2.367273   0.000000
   87       -2.256663   0.000000
   88       -2.168205   0.000000
   89       -2.129987   0.000000
   90       -2.047765   0.000000
   91       -1.675929   0.000000
   92       -1.617794   0.000000
   93       -1.546395   0.000000
   94       -1.456142   0.000000
   95       -1.311637   0.000000
   96       -1.267788   0.000000
   97       -1.163315   0.000000
   98       -1.040876   0.000000
   99       -0.791564   0.000000
  100       -0.759626   0.000000
  101       -0.699779   0.000000
  102       -0.592381   0.000000
  103       -0.571905   0.000000
  104       -0.418707   0.000000
  105       -0.256330   0.000000
  106       -0.222934   0.000000
  107       -0.072715   0.000000
  108        0.027744   0.000000
  109        0.141971   0.000000
  110        0.194236   0.000000
  111        0.561195   0.000000
  112        0.764231   0.000000
  113        0.835994   0.000000
  114        1.021806   0.000000
  115        1.089869   0.000000
  116        1.132015   0.000000
  117        1.292045   0.000000
  118        1.835834   0.000000
  119        1.992103   0.000000
  120        2.325203   0.000000
 
  0.3750000E+00  0.0000000E+00  0.0000000E+00  0.3125000E-01
    1      -17.584127   1.000000
    2      -17.190372   1.000000
    3      -16.734744   1.000000
    4      -16.619141   1.000000
    5      -16.546657   1.000000
    6      -16.401083   1.000000
    7      -16.277339   1.000000
    8      -16.164454   1.000000
    9      -16.097213   1.000000
   10      -16.037011   1.000000
   11      -15.994403   1.000000
   12      -15.840539   1.000000
   13      -15.799200   1.000000
   14      -15.691791   1.000000
   15      -15.618161   1.000000
   16      -15.540370   1.000000
   17      -15.503714   1.000000
   18      -15.413429   1.000000
   19       -9.699138   1.000000
   20       -9.295703   1.000000
   21       -9.118590   1.000000
   22       -9.031364   1.000000
   23       -8.927306   1.000000
   24       -8.870761   1.000000
   25       -8.519517   1.000000
   26       -8.453544   1.000000
   27       -8.421297   1.000000
   28       -8.369029   1.000000
   29       -8.262314   1.000000
   30       -8.229699   1.000000
   31       -8.157939   1.000000
   32       -8.025863   1.000000
   33       -7.906842   1.000000
   34       -7.852074   1.000000
   35       -7.691283   1.000000
   36       -7.620982   1.000000
   37       -7.505700   1.000000
   38       -7.470699   1.000000
   39       -7.326855   1.000000
   40       -7.249452   1.000000
   41       -7.215404   1.000000
   42       -7.163556   1.000000
   43       -7.017063   1.000000
   44       -6.974618   1.000000
   45       -6.849987   1.000000
   46       -6.772996   1.000000
   47       -6.725582   1.000000
   48       -6.684910   1.000000
   49       -6.644542   1.000000
   50       -6.546403   1.000000
   51       -6.474390   1.000000
   52       -6.350609   1.000000
   53       -6.238880   1.000000
   54       -6.191852   1.000000
   55       -6.072137   1.000000
   56       -6.044529   1.000000
   57       -5.969395   1.000000
   58       -5.930561   1.000000
   59       -5.841010   1.000000
   60       -5.774639   1.000000
   61       -5.701973   1.000000
   62       -5.672129   1.000000
   63       -5.602416   1.000000
   64       -5.516264   1.000000
   65       -5.231403   1.000000
   66       -5.063448   1.000000
   67       -4.946220   1.000000
   68       -4.795778   1.000000
   69       -4.751732   1.000000
   70       -4.681928   1.000000
   71       -4.583569   1.000000
   72       -4.373432   1.000000
   73       -4.295707   1.000000
   74       -4.159738   1.000000
   75       -3.940560   1.000000
   76       -3.834566   0.999997
   77       -3.670046   0.999650
   78       -3.542521   0.993572
   79       -3.495643   0.984468
   80       -3.132050   0.339166
   81       -3.036947   0.138468
   82       -2.785296   0.002074
   83       -2.701414   0.000270
   84       -2.628624   0.000035
   85       -2.491975   0.000000
   86       -2.378811   0.000000
   87       -2.247751   0.000000
   88       -2.162508   0.000000
   89       -2.083950   0.000000
   90       -1.999095   0.000000
   91       -1.655194   0.000000
   92       -1.596255   0.000000
   93       -1.532765   0.000000
   94       -1.467117   0.000000
   95       -1.296519   0.000000
   96       -1.234212   0.000000
   97       -1.146252   0.000000
   98       -0.959886   0.000000
   99       -0.906800   0.000000
  100       -0.855551   0.000000
  101       -0.801461   0.000000
  102       -0.700972   0.000000
  103       -0.617252   0.000000
  104       -0.558749   0.000000
  105       -0.398142   0.000000
  106       -0.343201   0.000000
  107       -0.164034   0.000000
  108       -0.048241   0.000000
  109        0.100346   0.000000
  110        0.152785   0.000000
  111        0.596102   0.000000
  112        0.718082   0.000000
  113        0.877153   0.000000
  114        1.094214   0.000000
  115        1.194007   0.000000
  116        1.225545   0.000000
  117        1.455815   0.000000
  118        2.017841   0.000000
  119        2.165992   0.000000
  120        2.496426   0.000000
 
  0.5000000E+00  0.1110223E-15  0.0000000E+00  0.1562500E-01
    1      -17.463641   1.000000
    2      -17.347096   1.000000
    3      -16.749352   1.000000
    4      -16.632468   1.000000
    5      -16.525132   1.000000
    6      -16.431996   1.000000
    7      -16.266787   1.000000
    8      -16.159650   1.000000
    9      -16.075043   1.000000
   10      -16.023453   1.000000
   11      -15.938424   1.000000
   12      -15.859558   1.000000
   13      -15.806797   1.000000
   14      -15.687088   1.000000
   15      -15.608617   1.000000
   16      -15.553186   1.000000
   17      -15.475479   1.000000
   18      -15.436547   1.000000
   19       -9.780517   1.000000
   20       -9.339077   1.000000
   21       -9.126202   1.000000
   22       -9.054587   1.000000
   23       -8.955672   1.000000
   24       -8.812155   1.000000
   25       -8.585426   1.000000
   26       -8.443203   1.000000
   27       -8.386731   1.000000
   28       -8.367834   1.000000
   29       -8.246283   1.000000
   30       -8.192736   1.000000
   31       -8.140719   1.000000
   32       -7.972159   1.000000
   33       -7.958281   1.000000
   34       -7.885872   1.000000
   35       -7.737597   1.000000
   36       -7.630019   1.000000
   37       -7.488369   1.000000
   38       -7.455294   1.000000
   39       -7.325656   1.000000
   40       -7.244384   1.000000
   41       -7.203850   1.000000
   42       -7.070418   1.000000
   43       -6.956588   1.000000
   44       -6.920280   1.000000
   45       -6.809572   1.000000
   46       -6.737371   1.000000
   47       -6.664057   1.000000
   48       -6.631904   1.000000
   49       -6.584415   1.000000
   50       -6.542797   1.000000
   51       -6.436952   1.000000
   52       -6.378574   1.000000
   53       -6.264066   1.000000
   54       -6.154662   1.000000
   55       -6.139252   1.000000
   56       -6.086993   1.000000
   57       -6.026305   1.000000
   58       -5.925239   1.000000
   59       -5.840500   1.000000
   60       -5.793799   1.000000
   61       -5.763757   1.000000
   62       -5.674893   1.000000
   63       -5.603866   1.000000
   64       -5.580068   1.000000
   65       -5.338514   1.000000
   66       -5.098606   1.000000
   67       -4.923106   1.000000
   68       -4.899126   1.000000
   69       -4.738288   1.000000
   70       -4.689230   1.000000
   71       -4.525944   1.000000
   72       -4.352607   1.000000
   73       -4.338695   1.000000
   74       -4.217868   1.000000
   75       -3.873512   0.999999
   76       -3.790317   0.999989
   77       -3.606800   0.998371
   78       -3.561886   0.995663
   79       -3.312991   0.806399
   80       -3.235949   0.625491
   81       -3.076535   0.209749
   82       -2.771066   0.001502
   83       -2.688223   0.000190
   84       -2.642821   0.000054
   85       -2.507590   0.000001
   86       -2.382582   0.000000
   87       -2.243215   0.000000
   88       -2.159746   0.000000
   89       -2.062602   0.000000
   90       -1.969925   0.000000
   91       -1.644826   0.000000
   92       -1.585627   0.000000
   93       -1.523101   0.000000
   94       -1.491153   0.000000
   95       -1.296056   0.000000
   96       -1.225250   0.000000
   97       -1.149576   0.000000
   98       -0.989000   0.000000
   99       -0.930107   0.000000
  100       -0.862630   0.000000
  101       -0.810367   0.000000
  102       -0.742392   0.000000
  103       -0.631722   0.000000
  104       -0.623348   0.000000
  105       -0.461977   0.000000
  106       -0.384860   0.000000
  107       -0.189260   0.000000
  108       -0.084828   0.000000
  109        0.077590   0.000000
  110        0.134913   0.000000
  111        0.607003   0.000000
  112        0.706352   0.000000
  113        0.892908   0.000000
  114        1.115396   0.000000
  115        1.228281   0.000000
  116        1.273259   0.000000
  117        1.513530   0.000000
  118        2.236141   0.000000
  119        2.269004   0.000000
  120        2.375190   0.000000
 
  0.0000000E+00  0.1250000E+00  0.0000000E+00  0.3125000E-01
    1      -17.781591   1.000000
    2      -16.721871   1.000000
    3      -16.657098   1.000000
    4      -16.579791   1.000000
    5      -16.530402   1.000000
    6      -16.424238   1.000000
    7      -16.288755   1.000000
    8      -16.272930   1.000000
    9      -16.192733   1.000000
   10      -16.128395   1.000000
   11      -15.973419   1.000000
   12      -15.936873   1.000000
   13      -15.917193   1.000000
   14      -15.755250   1.000000
   15      -15.579216   1.000000
   16      -15.549994   1.000000
   17      -15.451900   1.000000
   18      -15.374217   1.000000
   19       -9.261090   1.000000
   20       -9.150497   1.000000
   21       -8.938594   1.000000
   22       -8.891531   1.000000
   23       -8.755594   1.000000
   24       -8.696649   1.000000
   25       -8.626387   1.000000
   26       -8.500611   1.000000
   27       -8.472358   1.000000
   28       -8.429306   1.000000
   29       -8.400635   1.000000
   30       -8.283286   1.000000
   31       -8.138046   1.000000
   32       -8.122264   1.000000
   33       -8.109128   1.000000
   34       -7.870004   1.000000
   35       -7.816202   1.000000
   36       -7.746514   1.000000
   37       -7.689708   1.000000
   38       -7.574778   1.000000
   39       -7.503754   1.000000
   40       -7.456562   1.000000
   41       -7.334347   1.000000
   42       -7.259445   1.000000
   43       -7.084736   1.000000
   44       -6.925930   1.000000
   45       -6.857911   1.000000
   46       -6.830013   1.000000
   47       -6.783166   1.000000
   48       -6.687074   1.000000
   49       -6.649454   1.000000
   50       -6.555079   1.000000
   51       -6.496381   1.000000
   52       -6.407618   1.000000
   53       -6.324394   1.000000
   54       -6.296643   1.000000
   55       -6.175173   1.000000
   56       -6.069046   1.000000
   57       -5.970259   1.000000
   58       -5.749179   1.000000
   59       -5.727902   1.000000
   60       -5.644780   1.000000
   61       -5.456094   1.000000
   62       -5.405725   1.000000
   63       -5.334075   1.000000
   64       -5.228860   1.000000
   65       -5.127711   1.000000
   66       -5.038857   1.000000
   67       -4.921504   1.000000
   68       -4.829545   1.000000
   69       -4.719018   1.000000
   70       -4.675457   1.000000
   71       -4.582895   1.000000
   72       -4.403750   1.000000
   73       -4.308356   1.000000
   74       -4.238023   1.000000
   75       -4.021269   1.000000
   76       -3.931220   1.000000
   77       -3.741971   0.999952
   78       -3.664714   0.999598
   79       -3.542343   0.993549
   80       -3.205488   0.541629
   81       -3.156427   0.404247
   82       -2.692675   0.000214
   83       -2.644613   0.000056
   84       -2.592368   0.000012
   85       -2.407529   0.000000
   86       -2.362743   0.000000
   87       -2.284111   0.000000
   88       -2.193998   0.000000
   89       -2.144495   0.000000
   90       -2.059475   0.000000
   91       -1.726036   0.000000
   92       -1.660118   0.000000
   93       -1.537913   0.000000
   94       -1.433535   0.000000
   95       -1.344930   0.000000
   96       -1.317034   0.000000
   97       -1.225936   0.000000
   98       -1.122557   0.000000
   99       -0.723638   0.000000
  100       -0.591338   0.000000
  101       -0.538373   0.000000
  102       -0.482081   0.000000
  103       -0.430377   0.000000
  104       -0.330140   0.000000
  105       -0.110860   0.000000
  106       -0.044448   0.000000
  107        0.026143   0.000000
  108        0.060086   0.000000
  109        0.163969   0.000000
  110        0.271745   0.000000
  111        0.564615   0.000000
  112        0.723879   0.000000
  113        0.832533   0.000000
  114        0.886325   0.000000
  115        0.947581   0.000000
  116        1.038102   0.000000
  117        1.138779   0.000000
  118        1.717194   0.000000
  119        1.880132   0.000000
  120        2.221168   0.000000
 
  0.1250000E+00  0.1250000E+00  0.0000000E+00  0.3125000E-01
    1      -17.729991   1.000000
    2      -16.860845   1.000000
    3      -16.773603   1.000000
    4      -16.592209   1.000000
    5      -16.467064   1.000000
    6      -16.389560   1.000000
    7      -16.308323   1.000000
    8      -16.228852   1.000000
    9      -16.185609   1.000000
   10      -16.101699   1.000000
   11      -15.973261   1.000000
   12      -15.924476   1.000000
   13      -15.821097   1.000000
   14      -15.718987   1.000000
   15      -15.595459   1.000000
   16      -15.560655   1.000000
   17      -15.469461   1.000000
   18      -15.392237   1.000000
   19       -9.363492   1.000000
   20       -9.268679   1.000000
   21       -9.109172   1.000000
   22       -8.959543   1.000000
   23       -8.798996   1.000000
   24       -8.737858   1.000000
   25       -8.593837   1.000000
   26       -8.523779   1.000000
   27       -8.405864   1.000000
   28       -8.397449   1.000000
   29       -8.322734   1.000000
   30       -8.272949   1.000000
   31       -8.165332   1.000000
   32       -8.068103   1.000000
   33       -7.973075   1.000000
   34       -7.872099   1.000000
   35       -7.759337   1.000000
   36       -7.643365   1.000000
   37       -7.603814   1.000000
   38       -7.491730   1.000000
   39       -7.408768   1.000000
   40       -7.360652   1.000000
   41       -7.299993   1.000000
   42       -7.220480   1.000000
   43       -7.089096   1.000000
   44       -7.043383   1.000000
   45       -6.898685   1.000000
   46       -6.863231   1.000000
   47       -6.798364   1.000000
   48       -6.729855   1.000000
   49       -6.640978   1.000000
   50       -6.561416   1.000000
   51       -6.514384   1.000000
   52       -6.403020   1.000000
   53       -6.287553   1.000000
   54       -6.208737   1.000000
   55       -6.169925   1.000000
   56       -6.086248   1.000000
   57       -5.964774   1.000000
   58       -5.776307   1.000000
   59       -5.679614   1.000000
   60       -5.619636   1.000000
   61       -5.519813   1.000000
   62       -5.437283   1.000000
   63       -5.393470   1.000000
   64       -5.321119   1.000000
   65       -5.192486   1.000000
   66       -5.095854   1.000000
   67       -5.038046   1.000000
   68       -4.972249   1.000000
   69       -4.762716   1.000000
   70       -4.624392   1.000000
   71       -4.501779   1.000000
   72       -4.332120   1.000000
   73       -4.155866   1.000000
   74       -4.094821   1.000000
   75       -4.034981   1.000000
   76       -3.930986   1.000000
   77       -3.857400   0.999999
   78       -3.748620   0.999960
   79       -3.504596   0.986775
   80       -3.144440   0.371782
   81       -3.072822   0.202268
   82       -2.745961   0.000831
   83       -2.678552   0.000146
   84       -2.613294   0.000022
   85       -2.411850   0.000000
   86       -2.397482   0.000000
   87       -2.277627   0.000000
   88       -2.175366   0.000000
   89       -2.118865   0.000000
   90       -2.041307   0.000000
   91       -1.708189   0.000000
   92       -1.656449   0.000000
   93       -1.548111   0.000000
   94       -1.418431   0.000000
   95       -1.327254   0.000000
   96       -1.280010   0.000000
   97       -1.179271   0.000000
   98       -1.028695   0.000000
   99       -0.765797   0.000000
  100       -0.721586   0.000000
  101       -0.638103   0.000000
  102       -0.543014   0.000000
  103       -0.518834   0.000000
  104       -0.421158   0.000000
  105       -0.217226   0.000000
  106       -0.133589   0.000000
  107       -0.093031   0.000000
  108        0.047048   0.000000
  109        0.140663   0.000000
  110        0.258058   0.000000
  111        0.593674   0.000000
  112        0.747936   0.000000
  113        0.813182   0.000000
  114        0.922021   0.000000
  115        1.022743   0.000000
  116        1.105403   0.000000
  117        1.281876   0.000000
  118        1.799562   0.000000
  119        1.953875   0.000000
  120        2.291232   0.000000
 
  0.2500000E+00  0.1250000E+00  0.0000000E+00  0.3125000E-01
    1      -17.629919   1.000000
    2      -17.072150   1.000000
    3      -16.866151   1.000000
    4      -16.562431   1.000000
    5      -16.461774   1.000000
    6      -16.376405   1.000000
    7      -16.297533   1.000000
    8      -16.194346   1.000000
    9      -16.148348   1.000000
   10      -16.052030   1.000000
   11      -15.992018   1.000000
   12      -15.892045   1.000000
   13      -15.768230   1.000000
   14      -15.682639   1.000000
   15      -15.605749   1.000000
   16      -15.546269   1.000000
   17      -15.502721   1.000000
   18      -15.410785   1.000000
   19       -9.596497   1.000000
   20       -9.398757   1.000000
   21       -9.145843   1.000000
   22       -9.037377   1.000000
   23       -8.821826   1.000000
   24       -8.745647   1.000000
   25       -8.522782   1.000000
   26       -8.469394   1.000000
   27       -8.404378   1.000000
   28       -8.344304   1.000000
   29       -8.304222   1.000000
   30       -8.234896   1.000000
   31       -8.166338   1.000000
   32       -8.085458   1.000000
   33       -7.955927   1.000000
   34       -7.910963   1.000000
   35       -7.790550   1.000000
   36       -7.530129   1.000000
   37       -7.473125   1.000000
   38       -7.396957   1.000000
   39       -7.349986   1.000000
   40       -7.273335   1.000000
   41       -7.240410   1.000000
   42       -7.160625   1.000000
   43       -7.082107   1.000000
   44       -6.983429   1.000000
   45       -6.873745   1.000000
   46       -6.804726   1.000000
   47       -6.770319   1.000000