unknown system                          
           1
     8.857042    5.105760    0.000000
    -8.855940    5.103865    0.000000
     0.000000    0.000000   30.000000
   V    Mo   W    S 
   3   3   3  18
Direct configuration=     1
   1.00000000  0.33333334  0.00000000
   0.66666669  0.66666669  0.00000000
   0.66666669  0.00000000  0.00000000
   0.33333334  0.33333334  0.00000000
   0.00000000  0.66666669  0.00000000
   0.00000000  0.00000000  0.00000000
   0.33333334  0.00000000  0.00000000
   0.33333334  0.66666669  0.00000000
   0.66666669  0.33333334  0.00000000
   0.11068511  0.22244981  0.95539999
   0.22244981  0.11068511  0.04460000
   0.11068511  0.55578315  0.95539999
   0.22244981  0.44401845  0.04460000
   0.11068511  0.88911647  0.95539999
   0.22244981  0.77735180  0.04460000
   0.44401845  0.22244981  0.95539999
   0.55578315  0.11068511  0.04460000
   0.44401845  0.55578315  0.95539999
   0.55578315  0.44401845  0.04460000
   0.44401845  0.88911647  0.95539999
   0.55578315  0.77735180  0.04460000
   0.77735180  0.22244981  0.95539999
   0.88911647  0.11068511  0.04460000
   0.77735180  0.55578315  0.95539999
   0.88911647  0.44401845  0.04460000
   0.77735180  0.88911647  0.95539999
   0.88911647  0.77735180  0.04460000
unknown system                          
           1
     8.668593    4.999542    0.000000
    -8.667540    4.997730    0.000000
     0.000000    0.000000   30.000000
   V    Mo   W    S 
   3   3   3  18
Direct configuration=     2
   1.00088285  0.33295396 -0.00013645
   0.66786611  0.66706430  0.00013628
   0.66821089 -0.00005031 -0.00000776
   0.33191140  0.33190051  0.00010057
  -0.00001746  0.66811212 -0.00008977
   0.00093115 -0.00005176  0.00001212
   0.33028208  0.00008015 -0.00000154
   0.33212647  0.66499331 -0.00002101
   0.66698704  0.33488494  0.00000952
   0.10849962  0.22458855  0.95198466
   0.22274349  0.11068236  0.04935506
   0.10972041  0.55136517  0.95189482
   0.21819975  0.44311354  0.04808836
   0.11204908  0.88917995  0.95065307
   0.22313950  0.77828888  0.04924392
   0.44485005  0.22155846  0.95076327
   0.55741436  0.10900058  0.04794688
   0.44840805  0.55816601  0.95199310
   0.55816982  0.44845758  0.04812499
   0.44802355  0.89056430  0.95197811
   0.55905746  0.77914121  0.04690687
   0.77956111  0.22043149  0.95302533
   0.88662593  0.11317050  0.04693862
   0.77489986  0.55690578  0.95197405
   0.89022182  0.44143635  0.04792498
   0.77328299  0.88683665  0.95313104
   0.88416706  0.77543986  0.04807081
unknown system                          
           1
     8.488320    4.900299    0.000000
    -8.486822    4.897713    0.000000
     0.000000    0.000000   30.000000
   V    Mo   W    S 
   3   3   3  18
Direct configuration=     3
   1.00119493  0.33293949 -0.00015287
   0.66817758  0.66706854  0.00015352
   0.66861620 -0.00003995 -0.00000945
   0.33153441  0.33119023  0.00006684
   0.00031441  0.66883083 -0.00005507
   0.00187921 -0.00004439  0.00001126
   0.32907310  0.00008586  0.00000022
   0.33163028  0.66452920 -0.00008511
   0.66692378  0.33532621  0.00007426
   0.10841808  0.22462505  0.95192842
   0.22286086  0.11055910  0.04950996
   0.10986797  0.55135394  0.95189218
   0.21818792  0.44324736  0.04812226
   0.11225821  0.88930617  0.95049601
   0.22340208  0.77840936  0.04923820
   0.44495596  0.22144327  0.95076146
   0.55731254  0.10910005  0.04781065
   0.44839386  0.55835768  0.95208005
   0.55836649  0.44845932  0.04812410
   0.44784092  0.89049938  0.95212749
   0.55889113  0.77904742  0.04684037
   0.77950304  0.22056255  0.95310580
   0.88660852  0.11320097  0.04688757
   0.77474727  0.55674061  0.95193209
   0.89001630  0.44127274  0.04784661
   0.77322955  0.88677418  0.95317136
   0.88400985  0.77536929  0.04812171
unknown system                          
           1
     8.286438    4.783801    0.000000
    -8.280053    4.772749    0.000000
     0.000000    0.000000   30.000000
   V    Mo   W    S 
   3   3   3  18
Direct configuration=     4
   1.00251352  0.33332360 -0.00014659
   0.66912537  0.66667185  0.00015195
   0.66974224 -0.00002469 -0.00000950
   0.33032348  0.32824554 -0.00006619
   0.00206438  0.67181866  0.00007454
   0.00626527 -0.00008480  0.00000590
   0.32441348  0.00003873  0.00000260
   0.32961473  0.66307397 -0.00029618
   0.66631172  0.33671868  0.00028808
   0.10765273  0.22496726  0.95027343
   0.22276980  0.11051281  0.05179589
   0.10905671  0.55016042  0.95041147
   0.21700284  0.44252652  0.04970481
   0.11212720  0.88935441  0.94821162
   0.22375085  0.77853495  0.05083273
   0.44508395  0.22133859  0.94913889
   0.55747041  0.10864017  0.04869568
   0.44948953  0.55897101  0.95098317
   0.55888750  0.44965098  0.04960162
   0.44853049  0.89107767  0.95128618
   0.55969244  0.77941631  0.04791152
   0.78000949  0.22031689  0.95207483
   0.88626180  0.11361877  0.04797907
   0.77430753  0.55739329  0.95032927
   0.89051342  0.44079157  0.04896950
   0.77247766  0.88625606  0.95204278
   0.88275594  0.77490523  0.04975283
unknown system                          
           1
     8.296712    4.790254    0.000000
    -8.284733    4.769511    0.000000
     0.000000    0.000000   30.000000
   V    Mo   W    S 
   3   3   3  18
Direct configuration=     5
   1.00493111  0.33409504  0.00002148
   0.67073254  0.66586175 -0.00000999
   0.67239108 -0.00000754 -0.00000342
   0.32793382  0.32214034 -0.00020277
   0.00581892  0.67798730  0.00020257
   0.01472292 -0.00015298  0.00001154
   0.31546727  0.00002962 -0.00001003
   0.32590173  0.66042326 -0.00054822
   0.66507763  0.33917779  0.00053404
   0.10685488  0.22451545  0.94799192
   0.22225923  0.11073732  0.05523477
   0.10731221  0.54882839  0.94836146
   0.21582592  0.44128794  0.05166683
   0.11143552  0.88916084  0.94476786
   0.22402506  0.77897055  0.05293515
   0.44490634  0.22092881  0.94702890
   0.55663513  0.10796888  0.04958652
   0.45021660  0.55872818  0.94972377
   0.55851153  0.45101959  0.05165613
   0.44851939  0.89186482  0.95043657
   0.56021863  0.77942258  0.04936052
   0.78068511  0.22042183  0.95064995
   0.88677363  0.11372104  0.04946088
   0.77445317  0.55855940  0.94835350
   0.89140773  0.44116753  0.05024571
   0.77297421  0.88607289  0.95052397
   0.88222316  0.77528386  0.05202031
unknown system                          
           1
     8.287891    4.785191    0.000000
    -8.276554    4.765561    0.000000
     0.000000    0.000000   30.000000
   V    Mo   W    S 
   3   3   3  18
Direct configuration=     6
   1.00547225  0.33402472 -0.00001073
   0.67131950  0.66590976  0.00001520
   0.67401790 -0.00000084 -0.00000974
   0.32763441  0.32119946 -0.00010459
   0.00648132  0.67895151  0.00011433
   0.01493221 -0.00016427  0.00000832
   0.31466236  0.00005727 -0.00000152
   0.32484998  0.65992610 -0.00059646
   0.66444285  0.33960520  0.00058907
   0.10695866  0.22373141  0.94791884
   0.22223590  0.11095247  0.05568628
   0.10677832  0.54893686  0.94829045
   0.21601598  0.44100267  0.05171056
   0.11121304  0.88895610  0.94430675
   0.22426226  0.77954566  0.05303655
   0.44457952  0.22036563  0.94691567
   0.55542944  0.10771640  0.04925693
   0.44945649  0.55777574  0.94988889
   0.55784416  0.45091587  0.05172591
   0.44757603  0.89210642  0.95076715
   0.55986393  0.77898511  0.04927742
   0.78077387  0.22085556  0.95072748
   0.88763242  0.11341109  0.04950077
   0.77492409  0.55884102  0.94832238
   0.89158850  0.44211878  0.05006590
   0.77413932  0.88640580  0.95049828
   0.88312975  0.77608296  0.05209981
unknown system                          
           1
     8.295174    4.789538    0.000000
    -8.283094    4.768621    0.000000
     0.000000    0.000000   30.000000
   V    Mo   W    S 
   3   3   3  18
Direct configuration=     7
   1.00633992  0.33379929 -0.00004921
   0.67236440  0.66611400  0.00005438
   0.67643857  0.00003583 -0.00001267
   0.32715054  0.31954779 -0.00004104
   0.00770620  0.68066046  0.00004754
   0.01601257 -0.00016662  0.00000940
   0.31251225  0.00008674 -0.00001054
   0.32312611  0.65920029 -0.00065678
   0.66331528  0.34018376  0.00064764
   0.10707966  0.22323992  0.94775093
   0.22207019  0.11095103  0.05615458
   0.10615675  0.54883298  0.94812246
   0.21598680  0.44068965  0.05183954
   0.11109111  0.88897212  0.94384245
   0.22439828  0.77992117  0.05320862
   0.44434051  0.22000069  0.94673792
   0.55452456  0.10740948  0.04892430
   0.44885675  0.55706656  0.95007438
   0.55730314  0.45102313  0.05189857
   0.44698780  0.89240331  0.95111291
   0.55960109  0.77859720  0.04919733
   0.78092122  0.22125820  0.95080533
   0.88831692  0.11329451  0.04964944
   0.77522534  0.55913910  0.94820666
   0.89168070  0.44282397  0.04986352
   0.77495664  0.88654299  0.95035224
   0.88375116  0.77658692  0.05227002
unknown system                          
           1
     8.299925    4.792503    0.000000
    -8.286668    4.769544    0.000000
     0.000000    0.000000   30.000000
   V    Mo   W    S 
   3   3   3  18
Direct configuration=     8
   1.00679162  0.33355216 -0.00006967
   0.67303127  0.66634967  0.00007608
   0.67787308  0.00006074 -0.00001546
   0.32704639  0.31902090 -0.00000064
   0.00816557  0.68123187  0.00001040
   0.01595804 -0.00016850  0.00001064
   0.31194615  0.00011207 -0.00000999
   0.32219052  0.65891808 -0.00069008
   0.66256777  0.34037363  0.00068353
   0.10718220  0.22307301  0.94774221
   0.22197011  0.11093296  0.05626219
   0.10585885  0.54876531  0.94810562
   0.21599194  0.44061309  0.05182886
   0.11102177  0.88899713  0.94373256
   0.22446500  0.78010853  0.05322180
   0.44421720  0.21982274  0.94671606
   0.55420021  0.10725296  0.04867860
   0.44857079  0.55680426  0.95026840
   0.55706700  0.45108920  0.05191502
   0.44681646  0.89254748  0.95136658
   0.55948669  0.77843966  0.04907314
   0.78096798  0.22142256  0.95092693
   0.88861675  0.11332856  0.04970086
   0.77531046  0.55920931  0.94822818
   0.89164794  0.44308350  0.04965711
   0.77522454  0.88651642  0.95030553
   0.88402817  0.77675716  0.05227544
unknown system                          
           1
     8.298563    4.791496    0.000000
    -8.285585    4.769024    0.000000
     0.000000    0.000000   30.000000
   V    Mo   W    S 
   3   3   3  18
Direct configuration=     9
   1.00746628  0.33317002 -0.00009007
   0.67403199  0.66671769  0.00009750
   0.67978886  0.00010359 -0.00002025
   0.32688378  0.31828582  0.00004420
   0.00880376  0.68203794 -0.00003153
   0.01590865 -0.00017003  0.00001125
   0.31116039  0.00014971 -0.00001027
   0.32086926  0.65857019 -0.00073722
   0.66144740  0.34056897  0.00073299
   0.10730250  0.22292432  0.94766977
   0.22181710  0.11090174  0.05645213
   0.10543425  0.54861392  0.94803060
   0.21596616  0.44053055  0.05186533
   0.11091521  0.88903990  0.94354109
   0.22453842  0.78032696  0.05329439
   0.44406451  0.21961959  0.94663061
   0.55390250  0.10702761  0.04839461
   0.44829924  0.55658403  0.95049613
   0.55678904  0.45123629  0.05199153
   0.44674146  0.89275782  0.95166514
   0.55939160  0.77829655  0.04894192
   0.78102560  0.22157899  0.95105601
   0.88895225  0.11344101  0.04982988
   0.77537333  0.55927982  0.94820739
   0.89158318  0.44330302  0.04941149
   0.77545361  0.88641098  0.95018178
   0.88430410  0.77690747  0.05234349
unknown system                          
           1
     8.292908    4.787211    0.000000
    -8.280186    4.765186    0.000000
     0.000000    0.000000   30.000000
   V    Mo   W    S 
   3   3   3  18
Direct configuration=    10
   1.00671829  0.33357900 -0.00007415
   0.67294688  0.66631605  0.00008017
   0.67814880  0.00004515 -0.00001440
   0.32705013  0.31886489  0.00000292
   0.00830322  0.68137864  0.00000833
   0.01610872 -0.00017754  0.00001013
   0.31173092  0.00010759 -0.00000695
   0.32212867  0.65882118 -0.00070776
   0.66262118  0.34050928  0.00070181
   0.10718102  0.22299426  0.94773302
   0.22197249  0.11095264  0.05633917
   0.10582375  0.54878372  0.94809301
   0.21598616  0.44055949  0.05184035
   0.11100040  0.88897514  0.94365353
   0.22450792  0.78017352  0.05323050
   0.44419904  0.21975886  0.94670726
   0.55405447  0.10722948  0.04862552
   0.44848201  0.55665906  0.95026894
   0.55701602  0.45107889  0.05192568
   0.44669650  0.89257257  0.95141556
   0.55946354  0.77840848  0.04907284
   0.78096875  0.22144825  0.95092538
   0.88864428  0.11326990  0.04969149
   0.77535328  0.55926717  0.94821500
   0.89170265  0.44323525  0.04966168
   0.77530703  0.88657089  0.95031641
   0.88409836  0.77683264  0.05228447
unknown system                          
           1
     8.298291    4.790343    0.000000
    -8.283681    4.765046    0.000000
     0.000000    0.000000   30.000000
   V    Mo   W    S 
   3   3   3  18
Direct configuration=    11
   1.00454166  0.33515831 -0.00005510
   0.66947569  0.66476937  0.00005376
   0.67421191 -0.00017121  0.00000917
   0.32730253  0.31996797 -0.00008776
   0.00713173  0.67995782  0.00008891
   0.01752068 -0.00018910  0.00000515
   0.31235735 -0.00006107 -0.00000234
   0.32537420  0.65885347 -0.00064686
   0.66645226  0.34117402  0.00062804
   0.10682384  0.22305382  0.94798512
   0.22236574  0.11109153  0.05614819
   0.10681237  0.54922165  0.94827031
   0.21590553  0.44043671  0.05172027
   0.11120529  0.88878509  0.94384709
   0.22458548  0.77989082  0.05301150
   0.44461321  0.21998434  0.94697562
   0.55406815  0.10776825  0.04910204
   0.44877743  0.55646780  0.94962197
   0.55758735  0.45069785  0.05174718
   0.44619543  0.89210266  0.95086985
   0.55952544  0.77849600  0.04944525
   0.78088755  0.22129636  0.95056090
   0.88805675  0.11275224  0.04926347
   0.77537621  0.55945868  0.94825925
   0.89223053  0.44345197  0.05039439
   0.77520980  0.88704811  0.95072574
   0.88362037  0.77675104  0.05205880
unknown system                          
           1
     8.298763    4.790715    0.000000
    -8.282190    4.762018    0.000000
     0.000000    0.000000   30.000000
   V    Mo   W    S 
   3   3   3  18
Direct configuration=    12
   1.00339647  0.33581727 -0.00005224
   0.66784606  0.66410198  0.00004673
   0.67311224 -0.00034662  0.00001982
   0.32739508  0.32025172 -0.00011293
   0.00667532  0.67947921  0.00011660
   0.01831966 -0.00020384  0.00000566
   0.31218587 -0.00014731  0.00000599
   0.32670411  0.65861448 -0.00062741
   0.66834169  0.34187395  0.00060903
   0.10668803  0.22298452  0.94807498
   0.22253908  0.11122978  0.05624093
   0.10705605  0.54938210  0.94826688
   0.21580267  0.44029797  0.05169941
   0.11120054  0.88860920  0.94374893
   0.22475164  0.77984443  0.05291649
   0.44487054  0.22000101  0.94709447
   0.55399334  0.10797684  0.04909548
   0.44870365  0.55615423  0.94939708
   0.55769512  0.45057931  0.05174310
   0.44594744  0.89194852  0.95083318
   0.55948233  0.77847540  0.04954277
   0.78081764  0.22127968  0.95046957
   0.88796654  0.11253004  0.04908646
   0.77539646  0.55964708  0.94823560
   0.89248359  0.44378386  0.05066875
   0.77531579  0.88723913  0.95089576
   0.88352750  0.77681048  0.05197882
unknown system                          
           1
     8.301714    4.792533    0.000000
    -8.285214    4.763963    0.000000
     0.000000    0.000000   30.000000
   V    Mo   W    S 
   3   3   3  18
Direct configuration=    13
   1.00321545  0.33596607 -0.00007990
   0.66764371  0.66402234  0.00007485
   0.67443184 -0.00039452  0.00002456
   0.32709846  0.31968013 -0.00005707
   0.00686152  0.67984161  0.00005561
   0.01895399 -0.00013044  0.00000127
   0.31094710 -0.00020899  0.00000343
   0.32618433  0.65779223 -0.00065205
   0.66886978  0.34283082  0.00063363
   0.10671871  0.22285504  0.94812402
   0.22252885  0.11128991  0.05642551
   0.10683766  0.54932172  0.94822977
   0.21560506  0.44013705  0.05168257
   0.11110947  0.88852043  0.94357167
   0.22494651  0.77996351  0.05285904
   0.44499608  0.21986114  0.94716735
   0.55378767  0.10794400  0.04870983
   0.44835566  0.55574035  0.94949033
   0.55752189  0.45062726  0.05179559
   0.44582417  0.89202798  0.95119673
   0.55931451  0.77830914  0.04944870
   0.78082735  0.22145451  0.95058406
   0.88832087  0.11259146  0.04907765
   0.77539669  0.55983343  0.94820586
   0.89256567  0.44417214  0.05058938
   0.77563195  0.88720366  0.95088462
   0.88371948  0.77696245  0.05195287
unknown system                          
           1
     8.306047    4.795116    0.000000
    -8.289465    4.766403    0.000000
     0.000000    0.000000   30.000000
   V    Mo   W    S 
   3   3   3  18
Direct configuration=    14
   1.00348823  0.33578098 -0.00008807
   0.66808092  0.66420933  0.00008467
   0.67506920 -0.00037297  0.00002298
   0.32706124  0.31952710 -0.00004564
   0.00701234  0.68002579  0.00004550
   0.01875480 -0.00013514  0.00000240
   0.31084439 -0.00019139  0.00000311
   0.32571409  0.65772782 -0.00066465
   0.66840879  0.34283083  0.00064738
   0.10676388  0.22284624  0.94809044
   0.22246516  0.11126282  0.05646284
   0.10669958  0.54925683  0.94820097
   0.21559348  0.44012795  0.05170696
   0.11107618  0.88855146  0.94353382
   0.22493332  0.78000765  0.05288884
   0.44493196  0.21982244  0.94713410
   0.55375158  0.10785407  0.04863491
   0.44831197  0.55573679  0.94956808
   0.55744638  0.45068370  0.05182020
   0.44587434  0.89210862  0.95127891
   0.55930564  0.77828444  0.04940633
   0.78085095  0.22148700  0.95062323
   0.88841877  0.11266670  0.04914505
   0.77539459  0.55983285  0.94819156
   0.89252254  0.44417261  0.05050568
   0.77565793  0.88713527  0.95081935
   0.88378218  0.77697467  0.05198094
unknown system                          
           1
     8.307096    4.795776    0.000000
    -8.290221    4.766555    0.000000
     0.000000    0.000000   30.000000
   V    Mo   W    S 
   3   3   3  18
Direct configuration=    15
   1.00382993  0.33557289 -0.00013729
   0.66869805  0.66442882  0.00013432
   0.67730813 -0.00043964  0.00002662
   0.32690330  0.31896262  0.00001087
   0.00733896  0.68051951 -0.00001265
   0.01869329 -0.00014011  0.00000278
   0.30988411 -0.00021015  0.00000309
   0.32448533  0.65698287 -0.00071454
   0.66800540  0.34371280  0.00069567
   0.10687384  0.22278385  0.94806375
   0.22230445  0.11119370  0.05661548
   0.10635514  0.54912556  0.94812992
   0.21541999  0.43999202  0.05175494
   0.11097094  0.88860357  0.94338436
   0.22497885  0.78014876  0.05289294
   0.44485529  0.21967411  0.94713895
   0.55352392  0.10763565  0.04823121
   0.44806232  0.55549694  0.94975913
   0.55723356  0.45082434  0.05187727
   0.44588532  0.89233909  0.95167271
   0.55920488  0.77811934  0.04927949
   0.78090740  0.22165251  0.95074764
   0.88881517  0.11286528  0.04930127
   0.77534871  0.55997595  0.94814215
   0.89250768  0.44441034  0.05033610
   0.77585807  0.88693725  0.95066267
   0.88396243  0.77704660  0.05200107
unknown system                          
           1
     8.308180    4.796780    0.000000
    -8.290047    4.765378    0.000000
     0.000000    0.000000   30.000000
   V    Mo   W    S 
   3   3   3  18
Direct configuration=    16
   1.00358332  0.33574572 -0.00012200
   0.66829008  0.66428116  0.00012117
   0.67651816 -0.00041207  0.00002689
   0.32691585  0.31914136 -0.00000642
   0.00719624  0.68031364  0.00000457
   0.01884734 -0.00012363  0.00000246
   0.31011090 -0.00021677  0.00000240
   0.32498276  0.65712430 -0.00069939
   0.66840048  0.34354350  0.00068137
   0.10681383  0.22279134  0.94808270
   0.22238101  0.11123845  0.05659451
   0.10648313  0.54916969  0.94815022
   0.21543457  0.43999991  0.05174136
   0.11100016  0.88855790  0.94340569
   0.22499696  0.78010599  0.05288207
   0.44491711  0.21971427  0.94715255
   0.55356720  0.10772173  0.04834943
   0.44811437  0.55550526  0.94966836
   0.55731245  0.45076259  0.05186080
   0.44584399  0.89225564  0.95155462
   0.55922331  0.77816072  0.04933460
   0.78089834  0.22161633  0.95069527
   0.88870822  0.11278647  0.04922847
   0.77536723  0.55996433  0.94814791
   0.89256320  0.44439335  0.05042322
   0.77583704  0.88702990  0.95073010
   0.88390715  0.77704337  0.05198698
unknown system                          
           1
     8.312463    4.799070    0.000000
    -8.293081    4.765506    0.000000
     0.000000    0.000000   30.000000
   V    Mo   W    S 
   3   3   3  18
Direct configuration=    17
   1.00312998  0.33626880 -0.00013125
   0.66745590  0.66389389  0.00013568
   0.67629994 -0.00037983  0.00003167
   0.32664249  0.31911786 -0.00000576
   0.00693756  0.68012491 -0.00000292
   0.01941093 -0.00006030 -0.00000084
   0.30970908 -0.00025211  0.00000173
   0.32532110  0.65653415 -0.00070005
   0.66959275  0.34418991  0.00068158
   0.10670426  0.22277782  0.94818663
   0.22247591  0.11127965  0.05659988
   0.10660358  0.54916265  0.94819244
   0.21528298  0.43987735  0.05170323
   0.11101998  0.88848573  0.94340557
   0.22508708  0.78009853  0.05278271
   0.44503369  0.21970273  0.94727877
   0.55346678  0.10783341  0.04830616
   0.44809030  0.55531152  0.94957324
   0.55742830  0.45072263  0.05179869
   0.44566104  0.89215867  0.95158593
   0.55914940  0.77806048  0.04936850
   0.78096100  0.22172680  0.95065653
   0.88881536  0.11279826  0.04910780
   0.77535970  0.56007861  0.94816662
   0.89276518  0.44456086  0.05054928
   0.77595060  0.88706593  0.95083987
   0.88385958  0.77707555  0.05188821
unknown system                          
           1
     8.310258    4.797792    0.000000
    -8.290965    4.764381    0.000000
     0.000000    0.000000   30.000000
   V    Mo   W    S 
   3   3   3  18
Direct configuration=    18
   1.00304307  0.33630055 -0.00018661
   0.66751841  0.66391534  0.00018845
   0.67808979 -0.00050118  0.00004288
   0.32646522  0.31880532  0.00001710
   0.00694858  0.68029107 -0.00002792
   0.01941144 -0.00009450 -0.00000205
   0.30891769 -0.00031507  0.00000554
   0.32467498  0.65574177 -0.00073796
   0.66998203  0.34527690  0.00071903
   0.10676084  0.22271082  0.94818084
   0.22235361  0.11123889  0.05674562
   0.10638671  0.54911888  0.94810413
   0.21509384  0.43971350  0.05178158
   0.11091089  0.88848840  0.94326290
   0.22513371  0.78015897  0.05272873
   0.44505322  0.21962359  0.94735446
   0.55331664  0.10773926  0.04791232
   0.44787207  0.55501877  0.94965230
   0.55726509  0.45079472  0.05185418
   0.44562525  0.89226980  0.95195548
   0.55902228  0.77790645  0.04928616
   0.78097828  0.22187686  0.95072721
   0.88913324  0.11294042  0.04923346
   0.77531975  0.56027124  0.94807955
   0.89284132  0.44486401  0.05052277
   0.77611547  0.88691581  0.95071616
   0.88398105  0.77714387  0.05188360
unknown system                          
           1
     8.301538    4.792182    0.000000
    -8.283467    4.760891    0.000000
     0.000000    0.000000   30.000000
   V    Mo   W    S 
   3   3   3  18
Direct configuration=    19
   1.00313705  0.33620188 -0.00016026
   0.66758206  0.66391158  0.00016300
   0.67717911 -0.00047805  0.00003482
   0.32665625  0.31893047 -0.00000277
   0.00702403  0.68032151 -0.00000298
   0.01938550 -0.00013358  0.00000125
   0.30933405 -0.00027811  0.00000276
   0.32497570  0.65627654 -0.00072117
   0.66954061  0.34465297  0.00070269
   0.10676401  0.22272609  0.94816373
   0.22241349  0.11126792  0.05669645
   0.10645744  0.54914598  0.94812890
   0.21523074  0.43980982  0.05175977
   0.11096135  0.88848179  0.94331176
   0.22511369  0.78015995  0.05276401
   0.44501809  0.21963634  0.94729979
   0.55336197  0.10777562  0.04810652
   0.44797396  0.55516553  0.94963896
   0.55733082  0.45078410  0.05183872
   0.44561930  0.89222238  0.95177654
   0.55908660  0.77797139  0.04931469
   0.78096201  0.22180957  0.95069665
   0.88898647  0.11285280  0.04918706
   0.77534482  0.56016206  0.94812377
   0.89277885  0.44473692  0.05050927
   0.77604618  0.88698193  0.95077479
   0.88395029  0.77711906  0.05189120
unknown system                          
           1
     8.310149    4.797399    0.000000
    -8.291818    4.765656    0.000000
     0.000000    0.000000   30.000000
   V    Mo   W    S 
   3   3   3  18
Direct configuration=    20
   1.00343889  0.33598555 -0.00012692
   0.66786426  0.66389563  0.00012059
   0.67655305 -0.00051288  0.00002382
   0.32705046  0.31899414  0.00000965
   0.00728465  0.68051152 -0.00001052
   0.01933465 -0.00018109  0.00000492
   0.30962926 -0.00022741  0.00000846
   0.32492435  0.65677751 -0.00071017
   0.66861954  0.34407638  0.00068932
   0.10685707  0.22272910  0.94812724
   0.22246499  0.11130875  0.05668631
   0.10645180  0.54920631  0.94813267
   0.21540274  0.43990136  0.05174078
   0.11099198  0.88846375  0.94331159
   0.22510314  0.78019569  0.05282711
   0.44497614  0.21962033  0.94719927
   0.55335146  0.10776536  0.04824604
   0.44802882  0.55528879  0.94967994
   0.55729683  0.45080259  0.05187589
   0.44561063  0.89224159  0.95164220
   0.55912712  0.77799165  0.04932780
   0.78091805  0.22176341  0.95069821
   0.88890091  0.11277181  0.04918618
   0.77538769  0.56009210  0.94815461
   0.89266271  0.44466548  0.05043190
   0.77602235  0.88699152  0.95079068
   0.88396092  0.77709549  0.05193231
unknown system                          
           1
     8.318194    4.802068    0.000000
    -8.299690    4.770027    0.000000
     0.000000    0.000000   30.000000
   V    Mo   W    S 
   3   3   3  18
Direct configuration=    21
   1.00325846  0.33614105 -0.00020270
   0.66790207  0.66406530  0.00019763
   0.67912533 -0.00054766  0.00004621
   0.32645293  0.31864147  0.00005358
   0.00706700  0.68042945 -0.00006757
   0.01923843 -0.00007307 -0.00000404
   0.30859889 -0.00032387  0.00001196
   0.32407425  0.65544205 -0.00075507
   0.66969511  0.34561861  0.00073416
   0.10683705  0.22270462  0.94816373
   0.22226544  0.11119878  0.05678697
   0.10624762  0.54909747  0.94807520
   0.21504150  0.43967634  0.05179678
   0.11085672  0.88852098  0.94321524
   0.22512035  0.78018125  0.05274282
   0.44502941  0.21959909  0.94734028
   0.55328628  0.10764156  0.04773765
   0.44777805  0.55496147  0.94973430
   0.55713302  0.45084043  0.05189890
   0.44570052  0.89238201  0.95211691
   0.55898630  0.77786167  0.04923744
   0.78096641  0.22190804  0.95078895
   0.88925966  0.11302999  0.04932773
   0.77530469  0.56033500  0.94804462
   0.89279643  0.44492366  0.05044712
   0.77615324  0.88681026  0.95061460
   0.88403927  0.77714849  0.05191651
unknown system                          
           1
     8.318121    4.801859    0.000000
    -8.300081    4.770623    0.000000
     0.000000    0.000000   30.000000
   V    Mo   W    S 
   3   3   3  18
Direct configuration=    22
   1.00320688  0.33602695 -0.00030106
   0.66848548  0.66451126  0.00030095
   0.68269283 -0.00065165  0.00007466
   0.32581970  0.31813750  0.00010789
   0.00686644  0.68044970 -0.00013308
   0.01878071 -0.00005306 -0.00001435
   0.30734659 -0.00048554  0.00000947
   0.32269308  0.65392711 -0.00081311
   0.67058153  0.34754514  0.00079266
   0.10687422  0.22272036  0.94817385
   0.22197096  0.11103906  0.05691433
   0.10586729  0.54893826  0.94797807
   0.21463612  0.43941731  0.05189249
   0.11067560  0.88861733  0.94310436
   0.22506759  0.78018042  0.05266527
   0.44502243  0.21956118  0.94748901
   0.55326550  0.10741592  0.04706556
   0.44748079  0.55462257  0.94986550
   0.55687726  0.45094818  0.05194095
   0.44594998  0.89265621  0.95273984
   0.55886783  0.77775532  0.04909501
   0.78098036  0.22201920  0.95092801
   0.88970493  0.11340361  0.04958523
   0.77520827  0.56062123  0.94789488
   0.89289807  0.44522593  0.05040416
   0.77624525  0.88651168  0.95032232
   0.88414877  0.77715327  0.05191704
unknown system                          
           1
     8.316785    4.801128    0.000000
    -8.298578    4.769601    0.000000
     0.000000    0.000000   30.000000
   V    Mo   W    S 
   3   3   3  18
Direct configuration=    23
   1.00342354  0.33590573 -0.00033286
   0.66908480  0.66472962  0.00032597
   0.68392745 -0.00073802  0.00008803
   0.32554568  0.31790749  0.00012920
   0.00673689  0.68048930 -0.00016465
   0.01847339 -0.00007379 -0.00001828
   0.30696803 -0.00055535  0.00002001
   0.32197464  0.65338354 -0.00083916
   0.67072034  0.34832601  0.00081687
   0.10691599  0.22274796  0.94816056
   0.22182109  0.11094273  0.05694048
   0.10566218  0.54886205  0.94793601
   0.21451425  0.43934294  0.05193354
   0.11058721  0.88866472  0.94307300
   0.22500927  0.78017877  0.05265378
   0.44499578  0.21955272  0.94753227
   0.55332429  0.10735002  0.04680380
   0.44738984  0.55456598  0.94995978
   0.55676029  0.45103825  0.05196189
   0.44609959  0.89275628  0.95296963
   0.55882568  0.77772370  0.04903398
   0.78094520  0.22203768  0.95098734
   0.88995974  0.11359541  0.04973531
   0.77517863  0.56072811  0.94782725
   0.89289357  0.44530544  0.05035894
   0.77629637  0.88632800  0.95016171
   0.88418072  0.77711918  0.05194551
unknown system                          
           1
     8.321352    4.803635    0.000000
    -8.304435    4.774345    0.000000
     0.000000    0.000000   30.000000
   V    Mo   W    S 
   3   3   3  18
Direct configuration=    24
   1.00336016  0.33595548 -0.00034102
   0.66899768  0.66470422  0.00033482
   0.68416214 -0.00072786  0.00008906
   0.32549984  0.31786633  0.00013193
   0.00673644  0.68049339 -0.00016884
   0.01851467 -0.00007023 -0.00001869
   0.30684529 -0.00056160  0.00002193
   0.32192811  0.65325099 -0.00084438
   0.67085636  0.34847039  0.00082197
   0.10691260  0.22274447  0.94817217
   0.22180549  0.11093416  0.05694423
   0.10565997  0.54886266  0.94793721
   0.21447848  0.43932124  0.05193335
   0.11057087  0.88866402  0.94307034
   0.22501532  0.78018144  0.05263668
   0.44500463  0.21955177  0.94755269
   0.55330537  0.10733805  0.04675586
   0.44736555  0.55452702  0.94995751
   0.55675441  0.45102593  0.05195631
   0.44609494  0.89276933  0.95301609