unknown system                          
           1
     8.858446    5.103547    0.000000
    -8.858382    5.103438    0.000000
     0.000000    0.000000   30.000000
   V    Mo   W    S 
   3   3   3  18
Direct configuration=     1
   0.00000000  0.00000000  0.00000000
   0.33333334  0.00000000  0.00000000
   0.66666669  0.66666669  0.00000000
   0.33333334  0.66666669  0.00000000
   0.66666669  0.33333334  0.00000000
   0.66666669  0.00000000  0.00000000
   1.00000000  0.33333334  0.00000000
   0.00000000  0.66666669  0.00000000
   0.33333334  0.33333334  0.00000000
   0.11068511  0.22244981  0.95539999
   0.22244981  0.11068511  0.04460000
   0.11068511  0.55578315  0.95539999
   0.22244981  0.44401845  0.04460000
   0.11068511  0.88911647  0.95539999
   0.22244981  0.77735180  0.04460000
   0.44401845  0.22244981  0.95539999
   0.55578315  0.11068511  0.04460000
   0.44401845  0.55578315  0.95539999
   0.55578315  0.44401845  0.04460000
   0.44401845  0.88911647  0.95539999
   0.55578315  0.77735180  0.04460000
   0.77735180  0.22244981  0.95539999
   0.88911647  0.11068511  0.04460000
   0.77735180  0.55578315  0.95539999
   0.88911647  0.44401845  0.04460000
   0.77735180  0.88911647  0.95539999
   0.88911647  0.77735180  0.04460000
unknown system                          
           1
     8.669620    4.997416    0.000000
    -8.669443    4.997110    0.000000
     0.000000    0.000000   30.000000
   V    Mo   W    S 
   3   3   3  18
Direct configuration=     2
  -0.00108503 -0.00030245 -0.00002352
   0.33530169 -0.00006310  0.00016748
   0.66575731  0.66705460 -0.00019104
   0.33461471  0.66797567 -0.00012328
   0.66682282  0.33201571  0.00016211
   0.66527363 -0.00019279 -0.00003592
   0.99825446  0.33310011  0.00003063
   0.00001192  0.66596318 -0.00003781
   0.33494236  0.33435326  0.00007906
   0.10925845  0.21849572  0.95193622
   0.22067531  0.10751479  0.04686674
   0.11033811  0.55499104  0.95069103
   0.22155143  0.44344772  0.04918525
   0.11249577  0.89224631  0.95316136
   0.22342278  0.78188679  0.04807145
   0.44163038  0.21807069  0.95195605
   0.55084708  0.10880173  0.04813368
   0.44847886  0.55682365  0.95184866
   0.55667799  0.44826083  0.04805396
   0.44195085  0.89112201  0.95196482
   0.55792211  0.77535306  0.04799666
   0.77877654  0.22259186  0.95074358
   0.89174224  0.10965079  0.04797947
   0.77620353  0.55847726  0.95203711
   0.88952139  0.44470419  0.04935726
   0.77978941  0.88646763  0.95304791
   0.88703835  0.77940421  0.04694097
unknown system                          
           1
     8.486754    4.898148    0.000000
    -8.486763    4.898164    0.000000
     0.000000    0.000000   30.000000
   V    Mo   W    S 
   3   3   3  18
Direct configuration=     3
  -0.00135399 -0.00031516 -0.00003324
   0.33596506 -0.00001977  0.00018482
   0.66533305  0.66710288 -0.00021448
   0.33485799  0.66815199 -0.00009933
   0.66720917  0.33161427  0.00014145
   0.66486999  0.00000124 -0.00003310
   0.99764174  0.33331763  0.00003381
  -0.00001192  0.66522095 -0.00009423
   0.33538177  0.33484389  0.00012787
   0.10932387  0.21866528  0.95203201
   0.22075514  0.10769281  0.04675828
   0.11011148  0.55489180  0.95067668
   0.22145007  0.44320254  0.04912176
   0.11244262  0.89206560  0.95329142
   0.22326778  0.78191413  0.04805887
   0.44141700  0.21806586  0.95199774
   0.55066579  0.10867523  0.04824596
   0.44852082  0.55669347  0.95179380
   0.55652979  0.44825991  0.04803562
   0.44188156  0.89119159  0.95187109
   0.55800608  0.77531944  0.04802737
   0.77899249  0.22270180  0.95066061
   0.89187281  0.10981996  0.04796552
   0.77641271  0.55863369  0.95208994
   0.88974598  0.44478636  0.04943829
   0.77979650  0.88641851  0.95308251
   0.88712913  0.77929855  0.04683887
unknown system                          
           1
     8.278573    4.773097    0.000000
    -8.277595    4.771404    0.000000
     0.000000    0.000000   30.000000
   V    Mo   W    S 
   3   3   3  18
Direct configuration=     4
  -0.00218966 -0.00004731 -0.00005492
   0.33848968  0.00014694  0.00017417
   0.66325586  0.66694583 -0.00021716
   0.33537096  0.66821181  0.00001856
   0.66936864  0.33027588  0.00002281
   0.66357867  0.00119639 -0.00000401
   0.99536281  0.33467680  0.00003715
  -0.00019246  0.66153754 -0.00025912
   0.33673619  0.33696020  0.00025372
   0.10893258  0.21797026  0.95095106
   0.22027509  0.10679364  0.04768125
   0.11014525  0.55483534  0.94896397
   0.22132371  0.44299591  0.05046929
   0.11306550  0.89294627  0.95246744
   0.22375785  0.78308191  0.04947143
   0.44068431  0.21696854  0.95071860
   0.54930532  0.10784763  0.05016276
   0.44979472  0.55739836  0.95007422
   0.55739323  0.44947705  0.04941534
   0.44125638  0.89182634  0.95007248
   0.55879043  0.77493571  0.04955888
   0.77894398  0.22254681  0.94870271
   0.89220216  0.10925802  0.04935203
   0.77596242  0.55911547  0.95084456
   0.88979291  0.44479175  0.05146467
   0.78011383  0.88593302  0.95189077
   0.88669409  0.77958834  0.04776724
unknown system                          
           1
     8.287957    4.771951    0.000000
    -8.287759    4.771613    0.000000
     0.000000    0.000000   30.000000
   V    Mo   W    S 
   3   3   3  18
Direct configuration=     5
  -0.00345016  0.00055695 -0.00006952
   0.34291534  0.00052089 -0.00001513
   0.65870910  0.66686267 -0.00004557
   0.33629913  0.66789902  0.00016622
   0.67455628  0.32778923 -0.00010514
   0.66144272  0.00382587  0.00005248
   0.99051512  0.33747420 -0.00000090
  -0.00074745  0.65410279 -0.00036714
   0.33910485  0.34106854  0.00034194
   0.10855468  0.21778517  0.94970593
   0.22012673  0.10602412  0.04888940
   0.11096190  0.55463004  0.94647296
   0.22083639  0.44300611  0.05217502
   0.11383506  0.89328781  0.95157897
   0.22424157  0.78406918  0.05127927
   0.44062754  0.21617433  0.94925232
   0.54826408  0.10731418  0.05296533
   0.45120593  0.55864714  0.94759532
   0.55905188  0.45062936  0.05105875
   0.44076808  0.89232988  0.94767440
   0.55963259  0.77519085  0.05163295
   0.77848694  0.22168613  0.94585609
   0.89183148  0.10882838  0.05113728
   0.77531348  0.55897639  0.94928780
   0.88913918  0.44450482  0.05454101
   0.77979146  0.88564994  0.95011728
   0.88620056  0.77938046  0.04882255
unknown system                          
           1
     8.279051    4.765173    0.000000
    -8.278314    4.763898    0.000000
     0.000000    0.000000   30.000000
   V    Mo   W    S 
   3   3   3  18
Direct configuration=     6
  -0.00381254  0.00063109 -0.00006799
   0.34387085  0.00063512 -0.00000877
   0.65728405  0.66769994 -0.00002858
   0.33663339  0.66757644  0.00011495
   0.67582550  0.32731701 -0.00001314
   0.66147452  0.00430028  0.00001951
   0.98953195  0.33772259 -0.00012511
  -0.00095107  0.65247367 -0.00033095
   0.33924086  0.34211171  0.00035863
   0.10854514  0.21863924  0.94983349
   0.22060546  0.10642140  0.04877122
   0.11138601  0.55433323  0.94621398
   0.22021188  0.44288254  0.05216036
   0.11376044  0.89239675  0.95178666
   0.22406126  0.78360858  0.05126710
   0.44151283  0.21689091  0.94938045
   0.54872637  0.10768794  0.05318009
   0.45110452  0.55895368  0.94736773
   0.55958419  0.45033205  0.05090968
   0.44092014  0.89214932  0.94756401
   0.55948007  0.77582875  0.05178484
   0.77843433  0.22118836  0.94551190
   0.89139967  0.10937758  0.05114616
   0.77534097  0.55836195  0.94945002
   0.88871167  0.44418878  0.05503740
   0.77915880  0.88576308  0.95007778
   0.88617319  0.77874248  0.04863849
unknown system                          
           1
     8.289894    4.769499    0.000000
    -8.288970    4.767901    0.000000
     0.000000    0.000000   30.000000
   V    Mo   W    S 
   3   3   3  18
Direct configuration=     7
  -0.00445905  0.00070399 -0.00002018
   0.34562068  0.00090053 -0.00002751
   0.65497207  0.66916682  0.00002342
   0.33722427  0.66704365  0.00008325
   0.67813034  0.32615221  0.00002368
   0.66132852  0.00513423 -0.00001209
   0.98760676  0.33843107 -0.00019920
  -0.00114089  0.64934850 -0.00031927
   0.33955691  0.34408682  0.00043252
   0.10851503  0.21943656  0.94989337
   0.22110770  0.10682063  0.04859570
   0.11182471  0.55402855  0.94583082
   0.21948855  0.44270510  0.05219390
   0.11372510  0.89147481  0.95208875
   0.22399470  0.78319116  0.05131639
   0.44241593  0.21766298  0.94956011
   0.54912835  0.10790024  0.05358745
   0.45112468  0.55940360  0.94692194
   0.56028052  0.45028080  0.05071210
   0.44097533  0.89201791  0.94732887
   0.55931123  0.77647907  0.05209575
   0.77829393  0.22059771  0.94497376
   0.89102491  0.10991673  0.05122741
   0.77520154  0.55773708  0.94968288
   0.88843146  0.44371695  0.05570743
   0.77850808  0.88582798  0.94991526
   0.88602310  0.77804876  0.04838339
unknown system                          
           1
     8.294770    4.769475    0.000000
    -8.293293    4.766916    0.000000
     0.000000    0.000000   30.000000
   V    Mo   W    S 
   3   3   3  18
Direct configuration=     8
  -0.00458507  0.00067484 -0.00001396
   0.34580568  0.00091741 -0.00002455
   0.65481789  0.66954809  0.00001684
   0.33732470  0.66699338  0.00008014
   0.67812791  0.32597104  0.00004766
   0.66138388  0.00506097 -0.00002653
   0.98763535  0.33830763 -0.00024442
  -0.00104215  0.64925279 -0.00030756
   0.33945620  0.34435187  0.00043438
   0.10851628  0.21944589  0.94993853
   0.22114251  0.10688709  0.04850986
   0.11185028  0.55397002  0.94586073
   0.21939081  0.44268386  0.05216058
   0.11370007  0.89138225  0.95218693
   0.22396326  0.78314872  0.05126115
   0.44249276  0.21775495  0.94965463
   0.54917580  0.10791283  0.05355032
   0.45109399  0.55941119  0.94693323
   0.56033001  0.45031700  0.05059900
   0.44097159  0.89199293  0.94737741
   0.55923044  0.77653458  0.05208904
   0.77833414  0.22052582  0.94498875
   0.89104706  0.10997166  0.05119228
   0.77515682  0.55770962  0.94979875
   0.88840706  0.44366748  0.05570419
   0.77850489  0.88582783  0.94993670
   0.88598232  0.77799274  0.04829581
unknown system                          
           1
     8.297400    4.770221    0.000000
    -8.295789    4.767430    0.000000
     0.000000    0.000000   30.000000
   V    Mo   W    S 
   3   3   3  18
Direct configuration=     9
  -0.00512013  0.00068783  0.00002958
   0.34700821  0.00106670 -0.00003242
   0.65356576  0.67087320  0.00002156
   0.33773508  0.66667145  0.00006690
   0.67919962  0.32502924  0.00008794
   0.66135050  0.00533180 -0.00005686
   0.98680725  0.33845594 -0.00032252
  -0.00091586  0.64764895 -0.00029259
   0.33935751  0.34573366  0.00048093
   0.10851211  0.21973286  0.95000468
   0.22140899  0.10717293  0.04828637
   0.11206803  0.55375861  0.94573199
   0.21895142  0.44259108  0.05214318
   0.11366720  0.89088818  0.95248104
   0.22389583  0.78294191  0.05121376
   0.44292912  0.21819844  0.94988872
   0.54939190  0.10796591  0.05369305
   0.45105603  0.55962976  0.94673224
   0.56070776  0.45040338  0.05032455
   0.44097017  0.89191202  0.94732896
   0.55903104  0.77688470  0.05224588
   0.77831510  0.22015160  0.94477091
   0.89094060  0.11025075  0.05118391
   0.77501634  0.55743074  0.95010709
   0.88828225  0.44334839  0.05596848
   0.77825349  0.88585873  0.94986348
   0.88582914  0.77759570  0.04804911
unknown system                          
           1
     8.302328    4.771756    0.000000
    -8.300678    4.768898    0.000000
     0.000000    0.000000   30.000000
   V    Mo   W    S 
   3   3   3  18
Direct configuration=    10
  -0.00527936  0.00069419  0.00003944
   0.34727959  0.00108446 -0.00003369
   0.65330915  0.67117669  0.00002020
   0.33783281  0.66660656  0.00006631
   0.67940233  0.32482437  0.00010043
   0.66136567  0.00536762 -0.00006461
   0.98666851  0.33845450 -0.00034582
  -0.00086855  0.64732561 -0.00028647
   0.33930776  0.34606291  0.00048972
   0.10850748  0.21976876  0.95000863
   0.22145934  0.10723133  0.04823954
   0.11212294  0.55371326  0.94569438
   0.21885745  0.44258353  0.05215453
   0.11366218  0.89079388  0.95254340
   0.22388077  0.78290711  0.05121283
   0.44301757  0.21828870  0.94993539
   0.54943484  0.10797107  0.05373616
   0.45105287  0.55968556  0.94668024
   0.56079963  0.45043678  0.05026436
   0.44096867  0.89189062  0.94730728
   0.55898501  0.77696026  0.05228848
   0.77831408  0.22005861  0.94471359
   0.89092033  0.11029737  0.05119369
   0.77497089  0.55737737  0.95017188
   0.88824998  0.44327530  0.05603500
   0.77820530  0.88586587  0.94983729
   0.88578721  0.77751216  0.04799775
unknown system                          
           1
     8.303013    4.772537    0.000000
    -8.302525    4.771697    0.000000
     0.000000    0.000000   30.000000
   V    Mo   W    S 
   3   3   3  18
Direct configuration=    11
  -0.00553090  0.00065511  0.00005914
   0.34788731  0.00116834 -0.00003566
   0.65271563  0.67181632  0.00001723
   0.33809149  0.66651489  0.00006524
   0.67976545  0.32432436  0.00012564
   0.66129930  0.00542089 -0.00007910
   0.98636395  0.33847672 -0.00039144
  -0.00076546  0.64667959 -0.00027423
   0.33927063  0.34674629  0.00050813
   0.10850831  0.21987293  0.95002501
   0.22159634  0.10734547  0.04813534
   0.11223204  0.55361549  0.94562099
   0.21865177  0.44254757  0.05216252
   0.11369146  0.89060033  0.95267840
   0.22386285  0.78285785  0.05119346
   0.44319500  0.21845480  0.95004594
   0.54949261  0.10796689  0.05381382
   0.45106467  0.55980529  0.94658178
   0.56100341  0.45053687  0.05012627
   0.44094661  0.89186571  0.94727734
   0.55889664  0.77710366  0.05236877
   0.77830829  0.21986585  0.94459457
   0.89087703  0.11040612  0.05120443
   0.77486109  0.55727815  0.95032528
   0.88818607  0.44313061  0.05617198
   0.77807969  0.88584885  0.94979319
   0.88566321  0.77730949  0.04788584
unknown system                          
           1
     8.309026    4.773085    0.000000
    -8.306461    4.768636    0.000000
     0.000000    0.000000   30.000000
   V    Mo   W    S 
   3   3   3  18
Direct configuration=    12
  -0.00589400  0.00005711  0.00009211
   0.34946945  0.00167935 -0.00000479
   0.65101520  0.67273552 -0.00004720
   0.33929976  0.66670117  0.00008518
   0.67983291  0.32306939  0.00018879
   0.66064406  0.00521733 -0.00011740
   0.98573285  0.33850050 -0.00049011
  -0.00060275  0.64568577 -0.00023721
   0.33986073  0.34844332  0.00054705
   0.10863252  0.22015098  0.95007480
   0.22215126  0.10762296  0.04787045
   0.11232168  0.55342979  0.94553086
   0.21831491  0.44244376  0.05212369
   0.11408540  0.89029120  0.95295472
   0.22385840  0.78301239  0.05107051
   0.44343933  0.21855216  0.95032392
   0.54936016  0.10784571  0.05393524
   0.45136664  0.56016673  0.94646648
   0.56156316  0.45114515  0.04975006
   0.44079257  0.89195340  0.94724117
   0.55887767  0.77720387  0.05247454
   0.77828337  0.21952068  0.94441454
   0.89077374  0.11063518  0.05120687
   0.77443931  0.55724044  0.95078531
   0.88806531  0.44284503  0.05635516
   0.77756755  0.88543625  0.94977307
   0.88496326  0.77662932  0.04763206
unknown system                          
           1
     8.315556    4.774294    0.000000
    -8.312418    4.768851    0.000000
     0.000000    0.000000   30.000000
   V    Mo   W    S 
   3   3   3  18
Direct configuration=    13
  -0.00636863  0.00071393  0.00011341
   0.34902921  0.00120694 -0.00003679
   0.65173366  0.67313392 -0.00000613
   0.33848860  0.66618703  0.00006505
   0.68061234  0.32349603  0.00017331
   0.66149755  0.00553100 -0.00011483
   0.98585869  0.33838678 -0.00047643
  -0.00053143  0.64535565 -0.00025036
   0.33892493  0.34821586  0.00055503
   0.10850630  0.21993724  0.95005214
   0.22179241  0.10765952  0.04788249
   0.11240968  0.55343932  0.94553578
   0.21831276  0.44255198  0.05218649
   0.11362336  0.89021415  0.95298332
   0.22376299  0.78269160  0.05116188
   0.44351800  0.21885751  0.95029204
   0.54971486  0.10797523  0.05394378
   0.45101820  0.56002260  0.94641376
   0.56133321  0.45068522  0.04980784
   0.44096327  0.89175521  0.94722085
   0.55868208  0.77739928  0.05251484
   0.77831246  0.21950382  0.94444515
   0.89082298  0.11057747  0.05121013
   0.77468640  0.55708002  0.95066784
   0.88809987  0.44278074  0.05632900
   0.77792151  0.88589121  0.94970323
   0.88548918  0.77696518  0.04762708
unknown system                          
           1
     8.308464    4.772838    0.000000
    -8.305858    4.768318    0.000000
     0.000000    0.000000   30.000000
   V    Mo   W    S 
   3   3   3  18
Direct configuration=    14
  -0.00739687  0.00093854  0.00016416
   0.35034439  0.00106997 -0.00004309
   0.65097919  0.67441735 -0.00002967
   0.33878243  0.66601337  0.00007893
   0.68130404  0.32256659  0.00022663
   0.66159658  0.00559298 -0.00014310
   0.98560633  0.33815716 -0.00057829
  -0.00011667  0.64418434 -0.00022493
   0.33827770  0.34970338  0.00059043
   0.10852299  0.21990496  0.95002594
   0.22198710  0.10797691  0.04760004
   0.11262156  0.55326085  0.94543985
   0.21798613  0.44263887  0.05227088
   0.11356897  0.88988701  0.95332573
   0.22369215  0.78258929  0.05114320
   0.44377922  0.21922412  0.95057528
   0.54991693  0.10792320  0.05406453
   0.45092915  0.56023739  0.94621770
   0.56164593  0.45081776  0.04947093
   0.44099038  0.89165435  0.94716787
   0.55843368  0.77772568  0.05267397
   0.77833152  0.21911854  0.94428899
   0.89077277  0.11069686  0.05126701
   0.77449854  0.55692497  0.95100888
   0.88803506  0.44239820  0.05649161
   0.77780949  0.88599424  0.94955788
   0.88531577  0.77659758  0.04736855
unknown system                          
           1
     8.317159    4.774481    0.000000
    -8.313941    4.768898    0.000000
     0.000000    0.000000   30.000000
   V    Mo   W    S 
   3   3   3  18
Direct configuration=    15
  -0.00587025  0.00043196  0.00010995
   0.34875773  0.00144882 -0.00004388
   0.65174573  0.67303757  0.00001779
   0.33849762  0.66615168  0.00005388
   0.68049731  0.32356898  0.00016358
   0.66138431  0.00556422 -0.00010562
   0.98566598  0.33859216 -0.00047272
  -0.00066255  0.64547623 -0.00026178
   0.33933817  0.34790699  0.00055782
   0.10846553  0.22003813  0.95012746
   0.22176518  0.10759471  0.04797270
   0.11238610  0.55347222  0.94555578
   0.21831110  0.44242719  0.05211412
   0.11364387  0.89021685  0.95288546
   0.22376968  0.78264037  0.05113149
   0.44353935  0.21881522  0.95020193
   0.54969077  0.10800592  0.05391429
   0.45101769  0.55995626  0.94641551
   0.56136005  0.45071135  0.04990654
   0.44091770  0.89177273  0.94725874
   0.55870923  0.77737589  0.05251285
   0.77828551  0.21954550  0.94445107
   0.89084528  0.11060756  0.05114465
   0.77470069  0.55707689  0.95060297
   0.88804704  0.44288325  0.05634870
   0.77792143  0.88587014  0.94975001
   0.88548421  0.77702567  0.04768660
unknown system                          
           1
     8.311299    4.770507    0.000000
    -8.308341    4.765377    0.000000
     0.000000    0.000000   30.000000
   V    Mo   W    S 
   3   3   3  18
Direct configuration=    16
  -0.00498561 -0.00067144  0.00013036
   0.34879611  0.00232336 -0.00004407
   0.65129006  0.67359976 -0.00001053
   0.33884383  0.66589541  0.00005334
   0.68043793  0.32328910  0.00019677
   0.66114856  0.00562572 -0.00010540
   0.98486203  0.33904176 -0.00047753
  -0.00088389  0.64509409 -0.00023445
   0.34044866  0.34813084  0.00055416
   0.10838627  0.22031155  0.95037317
   0.22190641  0.10765317  0.04805559
   0.11250908  0.55345870  0.94549724
   0.21797280  0.44205555  0.05194224
   0.11371428  0.88996521  0.95281218
   0.22371938  0.78246991  0.05099816
   0.44381010  0.21892797  0.95011940
   0.54963598  0.10798529  0.05394313
   0.45103866  0.55994513  0.94635967
   0.56168182  0.45096670  0.04992306
   0.44076781  0.89175327  0.94731267
   0.55853589  0.77758640  0.05262111
   0.77818746  0.21931222  0.94432601
   0.89093113  0.11084093  0.05094667
   0.77456420  0.55703349  0.95071899
   0.88781964  0.44287190  0.05647018
   0.77780869  0.88586939  0.94982413
   0.88526718  0.77687907  0.04769364
unknown system                          
           1
     8.320222    4.774043    0.000000
    -8.316998    4.768452    0.000000
     0.000000    0.000000   30.000000
   V    Mo   W    S 
   3   3   3  18
Direct configuration=    17
  -0.00384422 -0.00209447  0.00014064
   0.34858404  0.00332461 -0.00003779
   0.65118041  0.67389384 -0.00001124
   0.33903788  0.66562992  0.00004980
   0.68018959  0.32309418  0.00017539
   0.66082096  0.00577693 -0.00009486
   0.98412493  0.33958108 -0.00052344
  -0.00109620  0.64503444 -0.00025795
   0.34158025  0.34798482  0.00054446
   0.10836156  0.22055170  0.95066884
   0.22203762  0.10770193  0.04819246
   0.11249228  0.55350268  0.94554443
   0.21779837  0.44166379  0.05172853
   0.11381350  0.88981810  0.95264713
   0.22366283  0.78233664  0.05086227
   0.44397986  0.21897920  0.94996603
   0.54954295  0.10794181  0.05393364
   0.45101606  0.55990185  0.94634614
   0.56187066  0.45121107  0.05001287
   0.44060811  0.89173191  0.94740886
   0.55841778  0.77770249  0.05265028
   0.77807848  0.21926229  0.94433501
   0.89104918  0.11099515  0.05070591
   0.77449317  0.55706996  0.95077492
   0.88757754  0.44289028  0.05652210
   0.77775935  0.88594088  0.94991861
   0.88507752  0.77678738  0.04779686
unknown system                          
           1
     8.328090    4.776516    0.000000
    -8.324550    4.770378    0.000000
     0.000000    0.000000   30.000000
   V    Mo   W    S 
   3   3   3  18
Direct configuration=    18
  -0.00537656 -0.00152682  0.00018090
   0.34993812  0.00282955 -0.00002945
   0.65065864  0.67492646 -0.00005186
   0.33922978  0.66560324  0.00007470
   0.68079501  0.32229872  0.00023450
   0.66103535  0.00576017 -0.00012381
   0.98432482  0.33907300 -0.00060215
  -0.00058758  0.64410744 -0.00021893
   0.34042497  0.34945961  0.00056423
   0.10842405  0.22033325  0.95051433
   0.22219733  0.10800404  0.04786149
   0.11267736  0.55333870  0.94544226
   0.21760169  0.44194567  0.05192210
   0.11376850  0.88962984  0.95302083
   0.22361348  0.78237240  0.05091576
   0.44410353  0.21927620  0.95028758
   0.54972353  0.10787904  0.05407019
   0.45096274  0.56017039  0.94618199
   0.56206090  0.45127184  0.04964816
   0.44069083  0.89163703  0.94730201
   0.55824885  0.77793724  0.05276480
   0.77813056  0.21895392  0.94421016
   0.89098288  0.11100180  0.05086117
   0.77431926  0.55697095  0.95108245
   0.88761183  0.44247078  0.05661210
   0.77769775  0.88603674  0.94973037
   0.88495684  0.77645327  0.04754403
unknown system                          
           1
     8.329577    4.777002    0.000000
    -8.326023    4.770838    0.000000
     0.000000    0.000000   30.000000
   V    Mo   W    S 
   3   3   3  18
Direct configuration=    19
  -0.00659304 -0.00183265  0.00024988
   0.35137520  0.00277587 -0.00002811
   0.65006669  0.67619282 -0.00011104
   0.33954698  0.66545980  0.00009676
   0.68127666  0.32134277  0.00030263
   0.66115026  0.00580821 -0.00015054
   0.98422188  0.33879482 -0.00069263
  -0.00015447  0.64309468 -0.00018307
   0.33971218  0.35110590  0.00058646
   0.10846053  0.22016615  0.95048114
   0.22244901  0.10839489  0.04755395
   0.11288516  0.55319617  0.94535517
   0.21730749  0.44208148  0.05203771
   0.11381979  0.88935855  0.95334430
   0.22351809  0.78236343  0.05091094
   0.44432243  0.21961847  0.95056795
   0.54987939  0.10779422  0.05422189
   0.45091416  0.56049192  0.94600049
   0.56238714  0.45150421  0.04927367
   0.44069129  0.89154005  0.94723602
   0.55802054  0.77825361  0.05290245
   0.77811853  0.21857660  0.94407533
   0.89099140  0.11107948  0.05089363
   0.77406713  0.55689432  0.95147053
   0.88752847  0.44198085  0.05670618
   0.77759602  0.88618154  0.94956763
   0.88465553  0.77599631  0.04733059
unknown system                          
           1
     8.321600    4.773022    0.000000
    -8.318593    4.767813    0.000000
     0.000000    0.000000   30.000000
   V    Mo   W    S 
   3   3   3  18
Direct configuration=    20
  -0.00668302 -0.00201138  0.00025772
   0.35151821  0.00282601 -0.00002472
   0.65000819  0.67633387 -0.00012124
   0.33959074  0.66543588  0.00010238
   0.68129798  0.32123620  0.00031126
   0.66114563  0.00581885 -0.00015208
   0.98418974  0.33879013 -0.00070826
  -0.00012119  0.64300876 -0.00017842
   0.33968839  0.35128353  0.00058261
   0.10846357  0.22014626  0.95049588
   0.22248718  0.10844723  0.04752554
   0.11290981  0.55318543  0.94534639
   0.21726579  0.44208712  0.05204521
   0.11384120  0.88932599  0.95336675
   0.22350400  0.78236339  0.05090329
   0.44435226  0.21965964  0.95058960
   0.54988943  0.10778217  0.05423997
   0.45091438  0.56053519  0.94597810
   0.56243301  0.45154581  0.04923717
   0.44068604  0.89153078  0.94723138
   0.55799261  0.77829666  0.05291808
   0.77811479  0.21853637  0.94406106
   0.89100535  0.11109327  0.05088239
   0.77403009  0.55689426  0.95151654
   0.88750396  0.44192386  0.05671946
   0.77758727  0.88620633  0.94955368
   0.88459905  0.77593280  0.04732018
unknown system                          
           1
     8.324761    4.773740    0.000000
    -8.321557    4.768190    0.000000
     0.000000    0.000000   30.000000
   V    Mo   W    S 
   3   3   3  18
Direct configuration=    21
  -0.00700616 -0.00076532  0.00023932
   0.35195649  0.00240350 -0.00004080
   0.64995320  0.67632129 -0.00010073
   0.33958853  0.66574196  0.00010362
   0.68124781  0.32099707  0.00030244
   0.66103902  0.00576440 -0.00016132
   0.98441129  0.33842327 -0.00072551
   0.00007466  0.64294575 -0.00018087
   0.33923075  0.35126249  0.00060831
   0.10850651  0.22014543  0.95034931
   0.22245349  0.10831288  0.04747822
   0.11290558  0.55311144  0.94531401
   0.21732266  0.44218015  0.05211659
   0.11380947  0.88939856  0.95348726
   0.22358318  0.78248409  0.05094564
   0.44426126  0.21952495  0.95066521
   0.54981853  0.10773363  0.05423804
   0.45090642  0.56045280  0.94597480
   0.56240268  0.45146924  0.04921282
   0.44066899  0.89157236  0.94719994
   0.55803085  0.77822504  0.05292903
   0.77815648  0.21852756  0.94403768
   0.89090636  0.11099980  0.05103042
   0.77407182  0.55687346  0.95148791
   0.88759214  0.44197264  0.05675281
   0.77758157  0.88612631  0.94950749
   0.88474087  0.77600968  0.04722824
unknown system                          
           1
     8.338104    4.781009    0.000000
    -8.333965    4.773828    0.000000
     0.000000    0.000000   30.000000
   V    Mo   W    S 
   3   3   3  18
Direct configuration=    22
  -0.00707080 -0.00191267  0.00027216
   0.35204150  0.00270625 -0.00003278
   0.64984825  0.67663621 -0.00012726
   0.33966781  0.66549193  0.00011248
   0.68138158  0.32085977  0.00031977
   0.66108949  0.00585292 -0.00015743
   0.98423877  0.33865761 -0.00075830
   0.00005324  0.64278180 -0.00017514
   0.33935392  0.35172001  0.00058480
   0.10848537  0.22010786  0.95047046
   0.22254520  0.10852277  0.04742893
   0.11294933  0.55313074  0.94532921
   0.21721573  0.44214832  0.05209245
   0.11385736  0.88927697  0.95347451
   0.22349442  0.78238966  0.05089793
   0.44438274  0.21971228  0.95069777
   0.54991147  0.10774362  0.05425134
   0.45089811  0.56059660  0.94593547
   0.56248206  0.45157787  0.04912999
   0.44068847  0.89154258  0.94723488
   0.55794284  0.77834623  0.05293861
   0.77814786  0.21847087  0.94404028
   0.89099687  0.11109338  0.05091377
   0.77399705  0.55688350  0.95160816
   0.88751264  0.44183014  0.05675774
   0.77756512  0.88622739  0.94950488
   0.88453808  0.77581988  0.04725520
unknown system                          
           1
     8.336643    4.779095    0.000000
    -8.332276    4.771517    0.000000
     0.000000    0.000000   30.000000
   V    Mo   W    S 
   3   3   3  18
Direct configuration=    23
  -0.00838781 -0.00108758  0.00030325
   0.35305441  0.00218609 -0.00001657
   0.64951373  0.67731034 -0.00018005
   0.33978101  0.66556573  0.00013087
   0.68183505  0.32045716  0.00037012
   0.66138114  0.00573962 -0.00019400
   0.98443507  0.33811815 -0.00078701
   0.00044024  0.64205589 -0.00015135
   0.33842597  0.35277481  0.00062247
   0.10855957  0.21989160  0.95028218
   0.22268758  0.10874901  0.04716402
   0.11309924  0.55300335  0.94524457
   0.21709843  0.44243787  0.05225846
   0.11385347  0.88916533  0.95379102
   0.22349028  0.78248825  0.05097619
   0.44443054  0.21989532  0.95091791
   0.55002294  0.10767536  0.05442144
   0.45087243  0.56081505  0.94580731
   0.56266467  0.45164004  0.04885439
   0.44074738  0.89144104  0.94707876
   0.55784710  0.77855431  0.05305903
   0.77814457  0.21817999  0.94393230
   0.89089943  0.11104391  0.05107998
   0.77382427  0.55679420  0.95185651
   0.88754235  0.44145788  0.05679372
   0.77750312  0.88629527  0.94934607
   0.88444826  0.77556647  0.04703830
unknown system                          
           1
     8.337608    4.779226    0.000000
    -8.332950    4.771142    0.000000
     0.000000    0.000000   30.000000
   V    Mo   W    S 
   3   3   3  18
Direct configuration=    24
  -0.00921879 -0.00150223  0.00033889
   0.35377588  0.00205037 -0.00000710
   0.64926752  0.67786272 -0.00021596
   0.33991742  0.66554203  0.00015346
   0.68214366  0.31999405  0.00040525
   0.66143534  0.00577090 -0.00020103
   0.98445334  0.33797609 -0.00086037
   0.00068512  0.64161492 -0.00013779
   0.33789343  0.35366428  0.00060577
   0.10861066  0.21976161  0.95029093
   0.22283788  0.10903686  0.04695382
   0.11318449  0.55293299  0.94524125
   0.21698550  0.44260326  0.05232850
   0.11389458  0.88902306  0.95397508
   0.22341813  0.78247512  0.05095729
   0.44452156  0.22010945  0.95111306
   0.55016221  0.10763520  0.05445992
   0.45083004  0.56102330  0.94573033
   0.56273389  0.45170065  0.04862380
   0.44082627  0.89141597  0.94707292