<?xml version="1.0" encoding="ISO-8859-1"?>
<modeling>
 <generator>
  <i name="program" type="string">vasp </i>
  <i name="version" type="string">5.4.1  </i>
  <i name="subversion" type="string">05Feb16 (build Jul 05 2020 17:13:04) complex                          parallel </i>
  <i name="platform" type="string">IFC91_ompi </i>
  <i name="date" type="string">2024 04 26 </i>
  <i name="time" type="string">07:30:30 </i>
 </generator>
 <incar>
  <i type="int" name="ISTART">     0</i>
  <i type="string" name="PREC">normal</i>
  <i type="string" name="ALGO"> Normal</i>
  <i type="int" name="ISPIN">     1</i>
  <i type="int" name="ICHARG">     2</i>
  <i type="int" name="IBRION">     1</i>
  <i type="int" name="NSW">   100</i>
  <i type="int" name="ISIF">     3</i>
  <i type="int" name="ISYM">     0</i>
  <i name="SYMPREC">      0.00000001</i>
  <i name="POTIM">      0.50000000</i>
  <i type="logical" name="LREAL"> F  </i>
  <i type="logical" name="LPLANE"> F  </i>
  <i type="int" name="ISMEAR">     0</i>
  <i type="logical" name="LWAVE"> F  </i>
  <i type="logical" name="LCHARG"> F  </i>
  <v type="int" name="KPOINT_BSE">    -1     0     0     0</v>
 </incar>
 <kpoints>
  <generation param="Gamma">
   <v type="int" name="divisions">       8        8        1 </v>
   <v name="usershift">      0.00000000       0.00000000       0.00000000 </v>
   <v name="genvec1">      0.12500000       0.00000000       0.00000000 </v>
   <v name="genvec2">     -0.00000000       0.12500000       0.00000000 </v>
   <v name="genvec3">      0.00000000       0.00000000       1.00000000 </v>
   <v name="shift">      0.00000000       0.00000000       0.00000000 </v>
  </generation>
  <varray name="kpointlist" >
   <v>       0.00000000       0.00000000       0.00000000 </v>
   <v>       0.12500000       0.00000000       0.00000000 </v>
   <v>       0.25000000       0.00000000       0.00000000 </v>
   <v>       0.37500000       0.00000000       0.00000000 </v>
   <v>       0.50000000       0.00000000       0.00000000 </v>
   <v>       0.00000000       0.12500000       0.00000000 </v>
   <v>       0.12500000       0.12500000       0.00000000 </v>
   <v>       0.25000000       0.12500000       0.00000000 </v>
   <v>       0.37500000       0.12500000       0.00000000 </v>
   <v>       0.50000000       0.12500000       0.00000000 </v>
   <v>      -0.37500000       0.12500000       0.00000000 </v>
   <v>      -0.25000000       0.12500000       0.00000000 </v>
   <v>      -0.12500000       0.12500000       0.00000000 </v>
   <v>       0.00000000       0.25000000       0.00000000 </v>
   <v>       0.12500000       0.25000000       0.00000000 </v>
   <v>       0.25000000       0.25000000       0.00000000 </v>
   <v>       0.37500000       0.25000000       0.00000000 </v>
   <v>       0.50000000       0.25000000       0.00000000 </v>
   <v>      -0.37500000       0.25000000       0.00000000 </v>
   <v>      -0.25000000       0.25000000       0.00000000 </v>
   <v>      -0.12500000       0.25000000       0.00000000 </v>
   <v>      -0.00000000       0.37500000       0.00000000 </v>
   <v>       0.12500000       0.37500000       0.00000000 </v>
   <v>       0.25000000       0.37500000       0.00000000 </v>
   <v>       0.37500000       0.37500000       0.00000000 </v>
   <v>       0.50000000       0.37500000       0.00000000 </v>
   <v>      -0.37500000       0.37500000       0.00000000 </v>
   <v>      -0.25000000       0.37500000       0.00000000 </v>
   <v>      -0.12500000       0.37500000       0.00000000 </v>
   <v>       0.00000000       0.50000000       0.00000000 </v>
   <v>       0.12500000       0.50000000       0.00000000 </v>
   <v>       0.25000000       0.50000000       0.00000000 </v>
   <v>       0.37500000       0.50000000       0.00000000 </v>
   <v>       0.50000000       0.50000000       0.00000000 </v>
  </varray>
  <varray name="weights" >
   <v>       0.01562500 </v>
   <v>       0.03125000 </v>
   <v>       0.03125000 </v>
   <v>       0.03125000 </v>
   <v>       0.01562500 </v>
   <v>       0.03125000 </v>
   <v>       0.03125000 </v>
   <v>       0.03125000 </v>
   <v>       0.03125000 </v>
   <v>       0.03125000 </v>
   <v>       0.03125000 </v>
   <v>       0.03125000 </v>
   <v>       0.03125000 </v>
   <v>       0.03125000 </v>
   <v>       0.03125000 </v>
   <v>       0.03125000 </v>
   <v>       0.03125000 </v>
   <v>       0.03125000 </v>
   <v>       0.03125000 </v>
   <v>       0.03125000 </v>
   <v>       0.03125000 </v>
   <v>       0.03125000 </v>
   <v>       0.03125000 </v>
   <v>       0.03125000 </v>
   <v>       0.03125000 </v>
   <v>       0.03125000 </v>
   <v>       0.03125000 </v>
   <v>       0.03125000 </v>
   <v>       0.03125000 </v>
   <v>       0.01562500 </v>
   <v>       0.03125000 </v>
   <v>       0.03125000 </v>
   <v>       0.03125000 </v>
   <v>       0.01562500 </v>
  </varray>
 </kpoints>
 <parameters>
  <separator name="general" >
   <i type="string" name="SYSTEM">unknown system</i>
   <i type="logical" name="LCOMPAT"> F  </i>
  </separator>
  <separator name="electronic" >
   <i type="string" name="PREC">normal</i>
   <i name="ENMAX">    280.00000000</i>
   <i name="ENAUG">    373.43800000</i>
   <i name="EDIFF">      0.00010000</i>
   <i type="int" name="IALGO">    38</i>
   <i type="int" name="IWAVPR">    11</i>
   <i type="int" name="NBANDS">   120</i>
   <i name="NELECT">    159.00000000</i>
   <i type="int" name="TURBO">     0</i>
   <i type="int" name="IRESTART">     0</i>
   <i type="int" name="NREBOOT">     0</i>
   <i type="int" name="NMIN">     0</i>
   <i name="EREF">      0.00000000</i>
   <separator name="electronic smearing" >
    <i type="int" name="ISMEAR">     0</i>
    <i name="SIGMA">      0.20000000</i>
    <i name="KSPACING">      0.50000000</i>
    <i type="logical" name="KGAMMA"> T  </i>
   </separator>
   <separator name="electronic projectors" >
    <i type="logical" name="LREAL"> F  </i>
    <v name="ROPT">      0.00000000      0.00000000      0.00000000      0.00000000</v>
    <i type="int" name="LMAXPAW">  -100</i>
    <i type="int" name="LMAXMIX">     2</i>
    <i type="logical" name="NLSPLINE"> F  </i>
   </separator>
   <separator name="electronic startup" >
    <i type="int" name="ISTART">     0</i>
    <i type="int" name="ICHARG">     2</i>
    <i type="int" name="INIWAV">     1</i>
   </separator>
   <separator name="electronic spin" >
    <i type="int" name="ISPIN">     1</i>
    <i type="logical" name="LNONCOLLINEAR"> F  </i>
    <v name="MAGMOM">      1.00000000      1.00000000      1.00000000      1.00000000      1.00000000      1.00000000      1.00000000      1.00000000      1.00000000      1.00000000      1.00000000      1.00000000      1.00000000      1.00000000      1.00000000      1.00000000      1.00000000      1.00000000      1.00000000      1.00000000
      1.00000000      1.00000000      1.00000000      1.00000000      1.00000000      1.00000000      1.00000000</v>
    <i name="NUPDOWN">     -1.00000000</i>
    <i type="logical" name="LSORBIT"> F  </i>
    <v name="SAXIS">      0.00000000      0.00000000      1.00000000</v>
    <i type="logical" name="LSPIRAL"> F  </i>
    <v name="QSPIRAL">      0.00000000      0.00000000      0.00000000</v>
    <i type="logical" name="LZEROZ"> F  </i>
   </separator>
   <separator name="electronic exchange-correlation" >
    <i type="logical" name="LASPH"> F  </i>
    <i type="logical" name="LMETAGGA"> F  </i>
   </separator>
   <separator name="electronic convergence" >
    <i type="int" name="NELM">    60</i>
    <i type="int" name="NELMDL">    -5</i>
    <i type="int" name="NELMIN">     2</i>
    <i name="ENINI">    280.00000000</i>
    <separator name="electronic convergence detail" >
     <i type="logical" name="LDIAG"> T  </i>
     <i type="logical" name="LSUBROT"> F  </i>
     <i name="WEIMIN">      0.00100000</i>
     <i name="EBREAK">      0.00000021</i>
     <i name="DEPER">      0.30000000</i>
     <i type="int" name="NRMM">     4</i>
     <i name="TIME">      0.40000000</i>
    </separator>
   </separator>
   <separator name="electronic mixer" >
    <i name="AMIX">      0.40000000</i>
    <i name="BMIX">      1.00000000</i>
    <i name="AMIN">      0.10000000</i>
    <i name="AMIX_MAG">      1.60000000</i>
    <i name="BMIX_MAG">      1.00000000</i>
    <separator name="electronic mixer details" >
     <i type="int" name="IMIX">     4</i>
     <i type="logical" name="MIXFIRST"> F  </i>
     <i type="int" name="MAXMIX">   -45</i>
     <i name="WC">    100.00000000</i>
     <i type="int" name="INIMIX">     1</i>
     <i type="int" name="MIXPRE">     1</i>
     <i type="int" name="MREMOVE">     5</i>
    </separator>
   </separator>
   <separator name="electronic dipolcorrection" >
    <i type="logical" name="LDIPOL"> F  </i>
    <i type="logical" name="LMONO"> F  </i>
    <i type="int" name="IDIPOL">     0</i>
    <i name="EPSILON">      1.00000000</i>
    <v name="DIPOL">   -100.00000000   -100.00000000   -100.00000000</v>
    <i name="EFIELD">      0.00000000</i>
   </separator>
  </separator>
  <separator name="grids" >
   <i type="int" name="NGX">    42</i>
   <i type="int" name="NGY">    42</i>
   <i type="int" name="NGZ">   126</i>
   <i type="int" name="NGXF">    84</i>
   <i type="int" name="NGYF">    84</i>
   <i type="int" name="NGZF">   252</i>
   <i type="logical" name="ADDGRID"> F  </i>
  </separator>
  <separator name="ionic" >
   <i type="int" name="NSW">   100</i>
   <i type="int" name="IBRION">     1</i>
   <i type="int" name="ISIF">     3</i>
   <i name="PSTRESS">      0.00000000</i>
   <i name="EDIFFG">      0.00100000</i>
   <i type="int" name="NFREE">     0</i>
   <i name="POTIM">      0.50000000</i>
   <i name="SMASS">     -3.00000000</i>
   <i name="SCALEE">      1.00000000</i>
  </separator>
  <separator name="ionic md" >
   <i name="TEBEG">      0.00010000</i>
   <i name="TEEND">      0.00010000</i>
   <i type="int" name="NBLOCK">     1</i>
   <i type="int" name="KBLOCK">   100</i>
   <i type="int" name="NPACO">   256</i>
   <i name="APACO">     16.00000000</i>
  </separator>
  <separator name="symmetry" >
   <i type="int" name="ISYM">     0</i>
   <i name="SYMPREC">      0.00000001</i>
  </separator>
  <separator name="dos" >
   <i type="logical" name="LORBIT"> F  </i>
   <v name="RWIGS">     -1.00000000     -1.00000000     -1.00000000     -1.00000000</v>
   <i type="int" name="NEDOS">   301</i>
   <i name="EMIN">     10.00000000</i>
   <i name="EMAX">    -10.00000000</i>
   <i name="EFERMI">      0.00000000</i>
  </separator>
  <separator name="writing" >
   <i type="int" name="NWRITE">     2</i>
   <i type="logical" name="LWAVE"> F  </i>
   <i type="logical" name="LCHARG"> F  </i>
   <i type="logical" name="LPARD"> F  </i>
   <i type="logical" name="LVTOT"> F  </i>
   <i type="logical" name="LVHAR"> F  </i>
   <i type="logical" name="LELF"> F  </i>
   <i type="logical" name="LOPTICS"> F  </i>
   <v name="STM">      0.00000000      0.00000000      0.00000000      0.00000000      0.00000000      0.00000000      0.00000000</v>
  </separator>
  <separator name="performance" >
   <i type="int" name="NPAR">    40</i>
   <i type="int" name="NSIM">     4</i>
   <i type="int" name="NBLK">    -1</i>
   <i type="logical" name="LPLANE"> F  </i>
   <i type="logical" name="LSCALAPACK"> T  </i>
   <i type="logical" name="LSCAAWARE"> F  </i>
   <i type="logical" name="LSCALU"> F  </i>
   <i type="logical" name="LASYNC"> F  </i>
   <i type="logical" name="LORBITALREAL"> F  </i>
  </separator>
  <separator name="miscellaneous" >
   <i type="int" name="IDIOT">     3</i>
   <i type="logical" name="LMUSIC"> F  </i>
   <v name="POMASS">     50.94100000     95.94000000    183.85000000     32.06600000</v>
   <v name="DARWINR">      0.00000000      0.00000000      0.00000000      0.00000000</v>
   <v name="DARWINV">      1.00000000      1.00000000      1.00000000      1.00000000</v>
   <i type="logical" name="LCORR"> T  </i>
  </separator>
  <i type="logical" name="GGA_COMPAT"> T  </i>
  <i type="logical" name="LBERRY"> F  </i>
  <i type="int" name="ICORELEVEL">     0</i>
  <i type="logical" name="LDAU"> F  </i>
  <i type="int" name="I_CONSTRAINED_M">     0</i>
  <separator name="electronic exchange-correlation" >
   <i type="string" name="GGA">--</i>
   <i type="int" name="VOSKOWN">     0</i>
   <i type="logical" name="LHFCALC"> F  </i>
   <i type="string" name="PRECFOCK"></i>
   <i type="logical" name="LSYMGRAD"> F  </i>
   <i type="logical" name="LHFONE"> F  </i>
   <i type="logical" name="LRHFCALC"> F  </i>
   <i type="logical" name="LTHOMAS"> F  </i>
   <i type="logical" name="LMODELHF"> F  </i>
   <i name="ENCUT4O">     -1.00000000</i>
   <i type="int" name="EXXOEP">     0</i>
   <i type="int" name="FOURORBIT">     0</i>
   <i name="AEXX">      0.00000000</i>
   <i name="HFALPHA">      0.00000000</i>
   <i name="MCALPHA">      0.00000000</i>
   <i name="ALDAX">      1.00000000</i>
   <i name="AGGAX">      1.00000000</i>
   <i name="ALDAC">      1.00000000</i>
   <i name="AGGAC">      1.00000000</i>
   <i type="int" name="NKREDX">     1</i>
   <i type="int" name="NKREDY">     1</i>
   <i type="int" name="NKREDZ">     1</i>
   <i type="logical" name="SHIFTRED"> F  </i>
   <i type="logical" name="ODDONLY"> F  </i>
   <i type="logical" name="EVENONLY"> F  </i>
   <i type="int" name="LMAXFOCK">     0</i>
   <i type="int" name="NMAXFOCKAE">     0</i>
   <i type="logical" name="LFOCKAEDFT"> F  </i>
   <i name="HFSCREEN">      0.00000000</i>
   <i name="HFSCREENC">      0.00000000</i>
   <i type="int" name="NBANDSGWLOW">     0</i>
  </separator>
  <separator name="vdW DFT" >
   <i type="logical" name="LUSE_VDW"> F  </i>
   <i name="Zab_VDW">     -0.84910000</i>
   <i name="PARAM1">      0.12340000</i>
   <i name="PARAM2">      1.00000000</i>
   <i name="PARAM3">      0.00000000</i>
  </separator>
  <separator name="model GW" >
   <i type="int" name="MODEL_GW">     0</i>
   <i name="MODEL_EPS0">     58.26239943</i>
   <i name="MODEL_ALPHA">      1.00000000</i>
  </separator>
  <separator name="linear response parameters" >
   <i type="logical" name="LEPSILON"> F  </i>
   <i type="logical" name="LRPA"> F  </i>
   <i type="logical" name="LNABLA"> F  </i>
   <i type="logical" name="LVEL"> F  </i>
   <i type="int" name="KINTER">     0</i>
   <i name="CSHIFT">      0.10000000</i>
   <i name="OMEGAMAX">     -1.00000000</i>
   <i name="DEG_THRESHOLD">      0.00200000</i>
  </separator>
  <separator name="orbital magnetization" >
   <i type="logical" name="NUCIND"> F  </i>
   <v name="MAGPOS">      0.00000000      0.00000000      0.00000000</v>
   <i type="logical" name="LNICSALL"> T  </i>
   <i type="logical" name="ORBITALMAG"> F  </i>
   <i type="logical" name="LMAGBLOCH"> F  </i>
   <i type="logical" name="LCHIMAG"> F  </i>
   <i type="logical" name="LGAUGE"> T  </i>
   <i type="int" name="MAGATOM">     0</i>
   <v name="MAGDIPOL">      0.00000000      0.00000000      0.00000000</v>
   <v name="AVECCONST">      0.00000000      0.00000000      0.00000000</v>
  </separator>
  <separator name="response functions" >
   <i type="logical" name="LADDER"> F  </i>
   <i type="logical" name="LFXC"> F  </i>
   <i type="logical" name="LHARTREE"> T  </i>
   <i type="int" name="IBSE">     0</i>
   <v type="int" name="KPOINT">    -1     0     0     0</v>
   <i type="logical" name="LTCTE"> F  </i>
   <i type="logical" name="LTETE"> F  </i>
   <i type="logical" name="LTRIPLET"> F  </i>
   <i type="logical" name="LFXCEPS"> F  </i>
   <i type="logical" name="LFXHEG"> F  </i>
   <i type="int" name="NATURALO">     0</i>
   <i type="logical" name="L2ORDER"> F  </i>
   <i type="logical" name="LUSEW"> F  </i>
   <i name="ENCUTGW">     -2.00000000</i>
   <i name="ENCUTGWSOFT">     -2.00000000</i>
   <i name="ENCUTLF">     -1.00000000</i>
   <i type="int" name="LMAXMP2">    -1</i>
   <i name="SCISSOR">      0.00000000</i>
   <i type="int" name="NOMEGA">     0</i>
   <i type="int" name="NOMEGAR">     0</i>
   <i type="int" name="NBANDSGW">    -1</i>
   <i type="int" name="NBANDSO">    -1</i>
   <i type="int" name="NBANDSV">    -1</i>
   <i type="int" name="NELM">     1</i>
   <i type="int" name="NELMHF">     1</i>
   <i type="int" name="DIM">     3</i>
   <i type="int" name="ANTIRES">     0</i>
   <i name="OMEGAMAX">    -30.00000000</i>
   <i name="OMEGAMIN">    -30.00000000</i>
   <i name="OMEGATL">   -200.00000000</i>
   <i type="int" name="OMEGAGRID">     0</i>
   <i name="CSHIFT">     -0.10000000</i>
   <i type="logical" name="SELFENERGY"> F  </i>
   <i type="logical" name="LSPECTRAL"> F  </i>
   <i type="logical" name="LSPECTRALGW"> F  </i>
   <i type="logical" name="LSINGLES"> F  </i>
   <i type="logical" name="LFERMIGW"> F  </i>
   <i type="logical" name="ODDONLYGW"> F  </i>
   <i type="logical" name="EVENONLYGW"> F  </i>
   <i type="int" name="NKREDLFX">     1</i>
   <i type="int" name="NKREDLFY">     1</i>
   <i type="int" name="NKREDLFZ">     1</i>
   <i type="int" name="MAXMEM">  1800</i>
   <i type="int" name="TELESCOPE">     0</i>
   <i type="int" name="TAUPAR">     1</i>
   <i type="int" name="OMEGAPAR">    -1</i>
   <i name="LAMBDA">      1.00000000</i>
  </separator>
  <separator name="External order field" >
   <i name="OFIELD_KAPPA">      0.00000000</i>
   <v name="OFIELD_K">      0.00000000      0.00000000      0.00000000</v>
   <i name="OFIELD_Q6_NEAR">      0.00000000</i>
   <i name="OFIELD_Q6_FAR">      0.00000000</i>
   <i name="OFIELD_A">      0.00000000</i>
  </separator>
 </parameters>
 <atominfo>
  <atoms>      27 </atoms>
  <types>       4 </types>
  <array name="atoms" >
   <dimension dim="1">ion</dimension>
   <field type="string">element</field>
   <field type="int">atomtype</field>
   <set>
    <rc><c>V </c><c>   1</c></rc>
    <rc><c>V </c><c>   1</c></rc>
    <rc><c>V </c><c>   1</c></rc>
    <rc><c>Mo</c><c>   2</c></rc>
    <rc><c>Mo</c><c>   2</c></rc>
    <rc><c>Mo</c><c>   2</c></rc>
    <rc><c>W </c><c>   3</c></rc>
    <rc><c>W </c><c>   3</c></rc>
    <rc><c>W </c><c>   3</c></rc>
    <rc><c>S </c><c>   4</c></rc>
    <rc><c>S </c><c>   4</c></rc>
    <rc><c>S </c><c>   4</c></rc>
    <rc><c>S </c><c>   4</c></rc>
    <rc><c>S </c><c>   4</c></rc>
    <rc><c>S </c><c>   4</c></rc>
    <rc><c>S </c><c>   4</c></rc>
    <rc><c>S </c><c>   4</c></rc>
    <rc><c>S </c><c>   4</c></rc>
    <rc><c>S </c><c>   4</c></rc>
    <rc><c>S </c><c>   4</c></rc>
    <rc><c>S </c><c>   4</c></rc>
    <rc><c>S </c><c>   4</c></rc>
    <rc><c>S </c><c>   4</c></rc>
    <rc><c>S </c><c>   4</c></rc>
    <rc><c>S </c><c>   4</c></rc>
    <rc><c>S </c><c>   4</c></rc>
    <rc><c>S </c><c>   4</c></rc>
   </set>
  </array>
  <array name="atomtypes" >
   <dimension dim="1">type</dimension>
   <field type="int">atomspertype</field>
   <field type="string">element</field>
   <field>mass</field>
   <field>valence</field>
   <field type="string">pseudopotential</field>
   <set>
    <rc><c>   3</c><c>V </c><c>     50.94100000</c><c>      5.00000000</c><c> PAW_PBE V 08Apr2002                    </c></rc>
    <rc><c>   3</c><c>Mo</c><c>     95.94000000</c><c>      6.00000000</c><c> PAW_PBE Mo 08Apr2002                   </c></rc>
    <rc><c>   3</c><c>W </c><c>    183.85000000</c><c>      6.00000000</c><c> PAW_PBE W 08Apr2002                    </c></rc>
    <rc><c>  18</c><c>S </c><c>     32.06600000</c><c>      6.00000000</c><c>  PAW_PBE S 17Jan2003                   </c></rc>
   </set>
  </array>
 </atominfo>
 <structure name="initialpos" >
  <crystal>
   <varray name="basis" >
    <v>       8.66999996       5.03999989       0.00000000 </v>
    <v>      -8.66999982       5.04000013       0.00000000 </v>
    <v>       0.00000000       0.00000000      30.00000000 </v>
   </varray>
   <i name="volume">   2621.80797419 </i>
   <varray name="rec_basis" >
    <v>       0.05767013       0.09920635       0.00000000 </v>
    <v>      -0.05767013       0.09920635       0.00000000 </v>
    <v>       0.00000000       0.00000000       0.03333333 </v>
   </varray>
  </crystal>
  <varray name="positions" >
   <v>       0.33333334       0.33333334       0.00000000 </v>
   <v>       0.00000000       0.66666669       0.00000000 </v>
   <v>       1.00000000       0.33333334       0.00000000 </v>
   <v>       0.33333334       0.66666669       0.00000000 </v>
   <v>       0.66666669       0.33333334       0.00000000 </v>
   <v>       0.66666669       0.00000000       0.00000000 </v>
   <v>       0.00000000       0.00000000       0.00000000 </v>
   <v>       0.33333334       0.00000000       0.00000000 </v>
   <v>       0.66666669       0.66666669       0.00000000 </v>
   <v>       0.11068511       0.22244981       0.95539999 </v>
   <v>       0.22244981       0.11068511       0.04460000 </v>
   <v>       0.11068511       0.55578315       0.95539999 </v>
   <v>       0.22244981       0.44401845       0.04460000 </v>
   <v>       0.11068511       0.88911647       0.95539999 </v>
   <v>       0.22244981       0.77735180       0.04460000 </v>
   <v>       0.44401845       0.22244981       0.95539999 </v>
   <v>       0.55578315       0.11068511       0.04460000 </v>
   <v>       0.44401845       0.55578315       0.95539999 </v>
   <v>       0.55578315       0.44401845       0.04460000 </v>
   <v>       0.44401845       0.88911647       0.95539999 </v>
   <v>       0.55578315       0.77735180       0.04460000 </v>
   <v>       0.77735180       0.22244981       0.95539999 </v>
   <v>       0.88911647       0.11068511       0.04460000 </v>
   <v>       0.77735180       0.55578315       0.95539999 </v>
   <v>       0.88911647       0.44401845       0.04460000 </v>
   <v>       0.77735180       0.88911647       0.95539999 </v>
   <v>       0.88911647       0.77735180       0.04460000 </v>
  </varray>
 </structure>
 <calculation>
  <scstep>
   <time name="dav">   21.64   21.69</time>
   <time name="total">   21.68   21.74</time>
   <energy>
    <i name="alphaZ">     81.65567618 </i>
    <i name="ewald">  41890.25210944 </i>
    <i name="hartreedc"> -47722.88715279 </i>
    <i name="XCdc">   -242.92853597 </i>
    <i name="pawpsdc">   3467.42045192 </i>
    <i name="pawaedc">  -2871.19716117 </i>
    <i name="eentropy">     -0.53265821 </i>
    <i name="bandstr">   -239.67550792 </i>
    <i name="atom">   6761.44252427 </i>
    <i name="e_fr_energy">   1123.54974574 </i>
    <i name="e_wo_entrp">   1124.08240395 </i>
    <i name="e_0_energy">   1123.81607485 </i>
   </energy>
  </scstep>
  <scstep>
   <time name="dav">   28.23   28.30</time>
   <time name="total">   28.23   28.31</time>
   <energy>
    <i name="e_fr_energy">     -3.88140114 </i>
    <i name="e_wo_entrp">     -3.68280116 </i>
    <i name="e_0_energy">     -3.78210115 </i>
   </energy>
  </scstep>
  <scstep>
   <time name="dav">   27.49   27.55</time>
   <time name="total">   27.49   27.56</time>
   <energy>
    <i name="e_fr_energy">   -199.95007518 </i>
    <i name="e_wo_entrp">   -199.67043322 </i>
    <i name="e_0_energy">   -199.81025420 </i>
   </energy>
  </scstep>
  <scstep>
   <time name="dav">   30.19   30.26</time>
   <time name="total">   30.19   30.27</time>
   <energy>
    <i name="e_fr_energy">   -208.98742589 </i>
    <i name="e_wo_entrp">   -208.66966404 </i>
    <i name="e_0_energy">   -208.82854497 </i>
   </energy>
  </scstep>
  <scstep>
   <time name="dav">   28.39   28.46</time>
   <time name="total">   28.86   28.93</time>
   <energy>
    <i name="e_fr_energy">   -209.28700483 </i>
    <i name="e_wo_entrp">   -208.97163828 </i>
    <i name="e_0_energy">   -209.12932155 </i>
   </energy>
  </scstep>
  <scstep>
   <time name="dav">   30.83   30.91</time>
   <time name="total">   31.33   31.42</time>
   <energy>
    <i name="e_fr_energy">   -236.74987002 </i>
    <i name="e_wo_entrp">   -236.46282964 </i>
    <i name="e_0_energy">   -236.60634983 </i>
   </energy>
  </scstep>
  <scstep>
   <time name="dav">   32.65   32.73</time>
   <time name="total">   33.15   33.24</time>
   <energy>
    <i name="e_fr_energy">   -196.69406800 </i>
    <i name="e_wo_entrp">   -196.37384651 </i>
    <i name="e_0_energy">   -196.53395726 </i>
   </energy>
  </scstep>
  <scstep>
   <time name="dav">   29.28   29.35</time>
   <time name="total">   29.79   29.87</time>
   <energy>
    <i name="e_fr_energy">   -190.04416491 </i>
    <i name="e_wo_entrp">   -189.77078167 </i>
    <i name="e_0_energy">   -189.90747329 </i>
   </energy>
  </scstep>
  <scstep>
   <time name="dav">   29.40   29.47</time>
   <time name="total">   29.92   30.00</time>
   <energy>
    <i name="e_fr_energy">   -188.24785978 </i>
    <i name="e_wo_entrp">   -187.90956982 </i>
    <i name="e_0_energy">   -188.07871480 </i>
   </energy>
  </scstep>
  <scstep>
   <time name="dav">   32.51   32.59</time>
   <time name="total">   33.04   33.13</time>
   <energy>
    <i name="e_fr_energy">   -187.06001004 </i>
    <i name="e_wo_entrp">   -186.71669470 </i>
    <i name="e_0_energy">   -186.88835237 </i>
   </energy>
  </scstep>
  <scstep>
   <time name="dav">   31.48   31.56</time>
   <time name="total">   32.02   32.10</time>
   <energy>
    <i name="e_fr_energy">   -187.00123826 </i>
    <i name="e_wo_entrp">   -186.64995073 </i>
    <i name="e_0_energy">   -186.82559449 </i>
   </energy>
  </scstep>
  <scstep>
   <time name="dav">   31.37   31.44</time>
   <time name="total">   31.89   31.98</time>
   <energy>
    <i name="e_fr_energy">   -187.12803130 </i>
    <i name="e_wo_entrp">   -186.79447665 </i>
    <i name="e_0_energy">   -186.96125397 </i>
   </energy>
  </scstep>
  <scstep>
   <time name="dav">   31.62   31.70</time>
   <time name="total">   32.16   32.24</time>
   <energy>
    <i name="e_fr_energy">   -186.91443825 </i>
    <i name="e_wo_entrp">   -186.57741429 </i>
    <i name="e_0_energy">   -186.74592627 </i>
   </energy>
  </scstep>
  <scstep>
   <time name="dav">   32.12   32.20</time>
   <time name="total">   32.65   32.74</time>
   <energy>
    <i name="e_fr_energy">   -186.90193891 </i>
    <i name="e_wo_entrp">   -186.55918481 </i>
    <i name="e_0_energy">   -186.73056186 </i>
   </energy>
  </scstep>
  <scstep>
   <time name="dav">   30.88   30.95</time>
   <time name="total">   31.41   31.49</time>
   <energy>
    <i name="e_fr_energy">   -186.87294162 </i>
    <i name="e_wo_entrp">   -186.52673189 </i>
    <i name="e_0_energy">   -186.69983675 </i>
   </energy>
  </scstep>
  <scstep>
   <time name="dav">   31.10   31.17</time>
   <time name="total">   31.63   31.71</time>
   <energy>
    <i name="e_fr_energy">   -186.86835338 </i>
    <i name="e_wo_entrp">   -186.52272919 </i>
    <i name="e_0_energy">   -186.69554129 </i>
   </energy>
  </scstep>
  <scstep>
   <time name="dav">   31.19   31.27</time>
   <time name="total">   31.73   31.81</time>
   <energy>
    <i name="e_fr_energy">   -186.86602677 </i>
    <i name="e_wo_entrp">   -186.52214833 </i>
    <i name="e_0_energy">   -186.69408755 </i>
   </energy>
  </scstep>
  <scstep>
   <time name="dav">   28.96   29.03</time>
   <time name="total">   29.49   29.57</time>
   <energy>
    <i name="e_fr_energy">   -186.86547292 </i>
    <i name="e_wo_entrp">   -186.52156562 </i>
    <i name="e_0_energy">   -186.69351927 </i>
   </energy>
  </scstep>
  <scstep>
   <time name="dav">   25.53   25.59</time>
   <time name="total">   26.07   26.14</time>
   <energy>
    <i name="e_fr_energy">   -186.86529893 </i>
    <i name="e_wo_entrp">   -186.52112502 </i>
    <i name="e_0_energy">   -186.69321198 </i>
   </energy>
  </scstep>
  <scstep>
   <time name="dav">   23.79   23.84</time>
   <time name="total">   24.32   24.39</time>
   <energy>
    <i name="e_fr_energy">   -186.86613134 </i>
    <i name="e_wo_entrp">   -186.52212801 </i>
    <i name="e_0_energy">   -186.69412968 </i>
   </energy>
  </scstep>
  <scstep>
   <time name="dav">   21.90   21.96</time>
   <time name="total">   22.44   22.50</time>
   <energy>
    <i name="e_fr_energy">   -186.86676548 </i>
    <i name="e_wo_entrp">   -186.52286848 </i>
    <i name="e_0_energy">   -186.69481698 </i>
   </energy>
  </scstep>
  <scstep>
   <time name="dav">   20.34   20.39</time>
   <time name="total">   20.88   20.93</time>
   <energy>
    <i name="e_fr_energy">   -186.86784567 </i>
    <i name="e_wo_entrp">   -186.52380302 </i>
    <i name="e_0_energy">   -186.69582434 </i>
   </energy>
  </scstep>
  <scstep>
   <time name="dav">   20.56   20.60</time>
   <time name="total">   21.09   21.15</time>
   <energy>
    <i name="e_fr_energy">   -186.86900505 </i>
    <i name="e_wo_entrp">   -186.52508802 </i>
    <i name="e_0_energy">   -186.69704654 </i>
   </energy>
  </scstep>
  <scstep>
   <time name="dav">   18.59   18.63</time>
   <time name="total">   19.12   19.17</time>
   <energy>
    <i name="e_fr_energy">   -186.86959961 </i>
    <i name="e_wo_entrp">   -186.52564051 </i>
    <i name="e_0_energy">   -186.69762006 </i>
   </energy>
  </scstep>
  <scstep>
   <time name="dav">   16.48   16.52</time>
   <time name="total">   17.02   17.07</time>
   <energy>
    <i name="e_fr_energy">   -186.86995251 </i>
    <i name="e_wo_entrp">   -186.52597209 </i>
    <i name="e_0_energy">   -186.69796230 </i>
   </energy>
  </scstep>
  <scstep>
   <time name="dav">   18.78   18.82</time>
   <time name="total">   19.31   19.37</time>
   <energy>
    <i name="e_fr_energy">   -186.87019885 </i>
    <i name="e_wo_entrp">   -186.52623503 </i>
    <i name="e_0_energy">   -186.69821694 </i>
   </energy>
  </scstep>
  <scstep>
   <time name="dav">   19.80   19.85</time>
   <time name="total">   19.84   19.89</time>
   <energy>
    <i name="alphaZ">     81.65567618 </i>
    <i name="ewald">  41890.25210944 </i>
    <i name="hartreedc"> -47833.01526115 </i>
    <i name="XCdc">   -231.60443352 </i>
    <i name="pawpsdc">   4192.12202205 </i>
    <i name="pawaedc">  -3610.13613765 </i>
    <i name="eentropy">     -0.34396945 </i>
    <i name="bandstr">  -1437.24281798 </i>
    <i name="atom">   6761.44252427 </i>
    <i name="e_fr_energy">   -186.87028781 </i>
    <i name="e_wo_entrp">   -186.52631836 </i>
    <i name="e_0_energy">   -186.69830308 </i>
   </energy>
  </scstep>
  <structure>
   <crystal>
    <varray name="basis" >
     <v>       8.66999996       5.03999989       0.00000000 </v>
     <v>      -8.66999982       5.04000013       0.00000000 </v>
     <v>       0.00000000       0.00000000      30.00000000 </v>
    </varray>
    <i name="volume">   2621.80797419 </i>
    <varray name="rec_basis" >
     <v>       0.05767013       0.09920635       0.00000000 </v>
     <v>      -0.05767013       0.09920635       0.00000000 </v>
     <v>       0.00000000       0.00000000       0.03333333 </v>
    </varray>
   </crystal>
   <varray name="positions" >
    <v>       0.33333334       0.33333334       0.00000000 </v>
    <v>       0.00000000       0.66666669       0.00000000 </v>
    <v>       1.00000000       0.33333334       0.00000000 </v>
    <v>       0.33333334       0.66666669       0.00000000 </v>
    <v>       0.66666669       0.33333334       0.00000000 </v>
    <v>       0.66666669       0.00000000       0.00000000 </v>
    <v>       0.00000000       0.00000000       0.00000000 </v>
    <v>       0.33333334       0.00000000       0.00000000 </v>
    <v>       0.66666669       0.66666669       0.00000000 </v>
    <v>       0.11068511       0.22244981       0.95539999 </v>
    <v>       0.22244981       0.11068511       0.04460000 </v>
    <v>       0.11068511       0.55578315       0.95539999 </v>
    <v>       0.22244981       0.44401845       0.04460000 </v>
    <v>       0.11068511       0.88911647       0.95539999 </v>
    <v>       0.22244981       0.77735180       0.04460000 </v>
    <v>       0.44401845       0.22244981       0.95539999 </v>
    <v>       0.55578315       0.11068511       0.04460000 </v>
    <v>       0.44401845       0.55578315       0.95539999 </v>
    <v>       0.55578315       0.44401845       0.04460000 </v>
    <v>       0.44401845       0.88911647       0.95539999 </v>
    <v>       0.55578315       0.77735180       0.04460000 </v>
    <v>       0.77735180       0.22244981       0.95539999 </v>
    <v>       0.88911647       0.11068511       0.04460000 </v>
    <v>       0.77735180       0.55578315       0.95539999 </v>
    <v>       0.88911647       0.44401845       0.04460000 </v>
    <v>       0.77735180       0.88911647       0.95539999 </v>
    <v>       0.88911647       0.77735180       0.04460000 </v>
   </varray>
  </structure>
  <varray name="forces" >
   <v>      -0.08762580       0.20310935      -0.05930894 </v>
   <v>       0.28465196      -0.14693067       0.07178364 </v>
   <v>      -0.21482153      -0.02584996       0.01890795 </v>
   <v>       0.00069465       0.19285149       0.04255023 </v>
   <v>       0.30159860      -0.14175386      -0.02303452 </v>
   <v>      -0.26444563      -0.13116508      -0.01963501 </v>
   <v>      -0.33147082      -0.10020939      -0.02400834 </v>
   <v>       0.55342059       0.31004550      -0.12762089 </v>
   <v>      -0.23657471      -0.18568871       0.10172623 </v>
   <v>      -0.21696266       0.53343049      -1.43895903 </v>
   <v>      -0.47785815       0.56318250       2.11076870 </v>
   <v>      -0.31830802      -0.66639088      -1.41833697 </v>
   <v>       0.31772014      -0.65991560       1.39192685 </v>
   <v>       0.46177021      -0.55409283      -2.11367343 </v>
   <v>      -0.62710597      -0.58474142       2.15722562 </v>
   <v>      -0.68980312      -0.16974520      -2.12738433 </v>
   <v>      -0.19729761      -0.13169185       2.93689815 </v>
   <v>       0.62128160      -0.57996840      -2.18449066 </v>
   <v>      -0.61455632      -0.52470850       2.13486828 </v>
   <v>      -0.06819742       0.00952598      -2.94682038 </v>
   <v>       0.06707744       0.02091537       2.90395106 </v>
   <v>       0.52035693       0.69016697      -2.15326857 </v>
   <v>      -0.35684760       0.68867784       2.15865715 </v>
   <v>       0.37522750       0.69609386      -2.11006285 </v>
   <v>       0.31739137       0.68776985       1.45241509 </v>
   <v>       0.25585140       0.01498743      -2.88648995 </v>
   <v>       0.62483297      -0.00790427       2.15141496 </v>
  </varray>
  <varray name="stress" >
   <v>       7.27481943       0.08344636      -1.54064640 </v>
   <v>       0.08344647       4.49015860       0.06345745 </v>
   <v>      -1.54064647       0.06345763      30.29568208 </v>
  </varray>
  <energy>
   <i name="e_fr_energy">   -186.87028781 </i>
   <i name="e_wo_entrp">   -186.69830308 </i>
   <i name="e_0_energy">     -0.34396945 </i>
  </energy>
  <time name="totalsc">  779.29  781.38</time>
 </calculation>
 <calculation>
  <scstep>
   <time name="dav">   21.71   21.76</time>
   <time name="total">   22.25   22.31</time>
   <energy>
    <i name="alphaZ">     78.91889251 </i>
    <i name="ewald">  39378.81976591 </i>
    <i name="hartreedc"> -45336.29080363 </i>
    <i name="XCdc">   -239.06307993 </i>
    <i name="pawpsdc">   4192.10172835 </i>
    <i name="pawaedc">  -3610.11599874 </i>
    <i name="eentropy">     -0.28587421 </i>
    <i name="bandstr">  -1413.03405228 </i>
    <i name="atom">   6761.44252427 </i>
    <i name="e_fr_energy">   -187.50689774 </i>
    <i name="e_wo_entrp">   -187.22102353 </i>
    <i name="e_0_energy">   -187.36396063 </i>
   </energy>
  </scstep>
  <scstep>
   <time name="dav">   30.18   30.25</time>
   <time name="total">   30.72   30.80</time>
   <energy>
    <i name="e_fr_energy">   -189.39287920 </i>
    <i name="e_wo_entrp">   -189.06546387 </i>
    <i name="e_0_energy">   -189.22917153 </i>
   </energy>
  </scstep>
  <scstep>
   <time name="dav">   30.12   30.20</time>
   <time name="total">   30.67   30.76</time>
   <energy>
    <i name="e_fr_energy">   -189.40168296 </i>
    <i name="e_wo_entrp">   -189.12165533 </i>
    <i name="e_0_energy">   -189.26166915 </i>
   </energy>
  </scstep>
  <scstep>
   <time name="dav">   30.30   30.37</time>
   <time name="total">   30.84   30.92</time>
   <energy>
    <i name="e_fr_energy">   -188.78493260 </i>
    <i name="e_wo_entrp">   -188.50053832 </i>
    <i name="e_0_energy">   -188.64273546 </i>
   </energy>
  </scstep>
  <scstep>
   <time name="dav">   28.03   28.09</time>
   <time name="total">   28.57   28.65</time>
   <energy>
    <i name="e_fr_energy">   -188.89358841 </i>
    <i name="e_wo_entrp">   -188.60228819 </i>
    <i name="e_0_energy">   -188.74793830 </i>
   </energy>
  </scstep>
  <scstep>
   <time name="dav">   30.81   30.88</time>
   <time name="total">   31.35   31.44</time>
   <energy>
    <i name="e_fr_energy">   -188.75879036 </i>
    <i name="e_wo_entrp">   -188.47148877 </i>
    <i name="e_0_energy">   -188.61513957 </i>
   </energy>
  </scstep>
  <scstep>
   <time name="dav">   28.88   28.95</time>
   <time name="total">   29.42   29.50</time>
   <energy>
    <i name="e_fr_energy">   -188.71186622 </i>
    <i name="e_wo_entrp">   -188.42620285 </i>
    <i name="e_0_energy">   -188.56903454 </i>
   </energy>
  </scstep>
  <scstep>
   <time name="dav">   31.44   31.52</time>
   <time name="total">   31.99   32.07</time>
   <energy>
    <i name="e_fr_energy">   -188.71112201 </i>
    <i name="e_wo_entrp">   -188.42660647 </i>
    <i name="e_0_energy">   -188.56886424 </i>
   </energy>
  </scstep>
  <scstep>
   <time name="dav">   29.73   29.81</time>
   <time name="total">   30.28   30.36</time>
   <energy>
    <i name="e_fr_energy">   -188.68045143 </i>
    <i name="e_wo_entrp">   -188.39673182 </i>
    <i name="e_0_energy">   -188.53859163 </i>
   </energy>
  </scstep>
  <scstep>
   <time name="dav">   27.70   27.76</time>
   <time name="total">   28.24   28.32</time>
   <energy>
    <i name="e_fr_energy">   -188.67759301 </i>
    <i name="e_wo_entrp">   -188.39383960 </i>
    <i name="e_0_energy">   -188.53571631 </i>
   </energy>
  </scstep>
  <scstep>
   <time name="dav">   31.42   31.49</time>
   <time name="total">   31.96   32.05</time>
   <energy>
    <i name="e_fr_energy">   -188.67715232 </i>
    <i name="e_wo_entrp">   -188.39398513 </i>
    <i name="e_0_energy">   -188.53556873 </i>
   </energy>
  </scstep>
  <scstep>
   <time name="dav">   29.35   29.42</time>
   <time name="total">   29.89   29.97</time>
   <energy>
    <i name="e_fr_energy">   -188.67703533 </i>
    <i name="e_wo_entrp">   -188.39420854 </i>
    <i name="e_0_energy">   -188.53562194 </i>
   </energy>
  </scstep>
  <scstep>
   <time name="dav">   20.42   20.46</time>
   <time name="total">   20.45   20.51</time>
   <energy>
    <i name="alphaZ">     78.91889251 </i>
    <i name="ewald">  39378.81976591 </i>
    <i name="hartreedc"> -45347.06198039 </i>
    <i name="XCdc">   -237.97506034 </i>
    <i name="pawpsdc">   3950.54104191 </i>
    <i name="pawaedc">  -3365.05386590 </i>
    <i name="eentropy">     -0.28303139 </i>
    <i name="bandstr">  -1408.02533691 </i>
    <i name="atom">   6761.44252427 </i>
    <i name="e_fr_energy">   -188.67705032 </i>
    <i name="e_wo_entrp">   -188.39401893 </i>
    <i name="e_0_energy">   -188.53553462 </i>
   </energy>
  </scstep>
  <structure>
   <crystal>
    <varray name="basis" >
     <v>       8.85564584       5.10828355       0.00000000 </v>
     <v>      -8.85318632       5.10405307       0.00000000 </v>
     <v>       0.00000000       0.00000000      30.00000000 </v>
    </varray>
    <i name="volume">   2712.72817087 </i>
    <varray name="rec_basis" >
     <v>       0.05644561       0.09790719       0.00000000 </v>
     <v>      -0.05649239       0.09793439       0.00000000 </v>
     <v>       0.00000000       0.00000000       0.03333333 </v>
    </varray>
   </crystal>
   <varray name="positions" >
    <v>       0.33406163       0.33454921      -0.00009537 </v>
    <v>       0.00008874       0.66517153       0.00011543 </v>
    <v>       0.99927861       0.33380729       0.00003041 </v>
    <v>       0.33425826       0.66758774       0.00006842 </v>
    <v>       0.66682735       0.33181582      -0.00003704 </v>
    <v>       0.66530320       0.00010798      -0.00003157 </v>
    <v>      -0.00140180       0.00044260      -0.00003861 </v>
    <v>       0.33635692      -0.00005583      -0.00020523 </v>
    <v>       0.66511980       0.66643617       0.00016358 </v>
    <v>       0.11263447       0.22560642       0.95308602 </v>
    <v>       0.22381571       0.11470997       0.04799430 </v>
    <v>       0.10661019       0.55347940       0.95311918 </v>
    <v>       0.22017542       0.43997616       0.04683834 </v>
    <v>       0.10931795       0.88517987       0.95200102 </v>
    <v>       0.21790654       0.77629795       0.04806901 </v>
    <v>       0.44128691       0.22355656       0.95197897 </v>
    <v>       0.55460396       0.11060375       0.04932279 </v>
    <v>       0.44297124       0.55127893       0.95188714 </v>
    <v>       0.55156212       0.44321700       0.04803306 </v>
    <v>       0.44387431       0.88935179       0.95066124 </v>
    <v>       0.55606987       0.77726528       0.04926981 </v>
    <v>       0.78210264       0.22430522       0.95193734 </v>
    <v>       0.89141966       0.11497391       0.04807131 </v>
    <v>       0.78172723       0.55807070       0.95200682 </v>
    <v>       0.89329115       0.44642707       0.04693561 </v>
    <v>       0.77813535       0.88847638       0.95075826 </v>
    <v>       0.89081702       0.77557558       0.04805966 </v>
   </varray>
  </structure>
  <varray name="forces" >
   <v>      -0.05039523       0.20238408       0.07557442 </v>
   <v>       0.15807981      -0.12290201      -0.05736348 </v>
   <v>      -0.15291866      -0.06453561       0.00561143 </v>
   <v>       0.00200923       0.48822329       0.08125347 </v>
   <v>       0.26158433      -0.30420468      -0.08906652 </v>
   <v>      -0.28806775      -0.29745090      -0.00920330 </v>
   <v>      -0.26419460      -0.23576884       0.01826066 </v>
   <v>       0.61404905       0.37756541      -0.03782691 </v>
   <v>      -0.28357410      -0.03889185       0.04139412 </v>
   <v>       0.04558143      -0.06891673       0.10645686 </v>
   <v>       0.05527712      -0.07112695      -0.29784807 </v>
   <v>       0.01152141      -0.04368297       0.08274429 </v>
   <v>      -0.00326234      -0.04196044      -0.14472400 </v>
   <v>      -0.05519798       0.06970743       0.25180044 </v>
   <v>      -0.08663345       0.05641210      -0.02354342 </v>
   <v>       0.02283160      -0.11926355      -0.02208472 </v>
   <v>      -0.04731692      -0.11031425       0.23132731 </v>
   <v>       0.07941162       0.03542513      -0.05858579 </v>
   <v>      -0.07698552       0.05146333      -0.05236464 </v>
   <v>      -0.13858558       0.00942322      -0.27523064 </v>
   <v>       0.14121888       0.01616092       0.17049127 </v>
   <v>       0.03184551       0.08495979      -0.07340765 </v>
   <v>       0.10367252       0.05302032      -0.03130618 </v>
   <v>      -0.10920372       0.04959599       0.17561224 </v>
   <v>       0.02592390       0.04109676       0.03016335 </v>
   <v>       0.09000085      -0.00486164      -0.01102297 </v>
   <v>      -0.08667140      -0.01155737      -0.08711158 </v>
  </varray>
  <varray name="stress" >
   <v>     -19.88859368      -0.01261375       0.03462173 </v>
   <v>      -0.01261367     -19.49029433      -0.03086726 </v>
   <v>       0.03462176      -0.03086734      -1.74108192 </v>
  </varray>
  <energy>
   <i name="e_fr_energy">   -188.67705032 </i>
   <i name="e_wo_entrp">   -188.53553462 </i>
   <i name="e_0_energy">     -0.28303139 </i>
  </energy>
  <time name="totalsc">  418.86  419.97</time>
 </calculation>
 <calculation>
  <scstep>
   <time name="dav">   23.56   23.62</time>
   <time name="total">   24.10   24.16</time>
   <energy>
    <i name="alphaZ">     82.33785029 </i>
    <i name="ewald">  41299.35706153 </i>
    <i name="hartreedc"> -47298.06907456 </i>
    <i name="XCdc">   -233.85787009 </i>
    <i name="pawpsdc">   3949.79980207 </i>
    <i name="pawaedc">  -3364.30560311 </i>
    <i name="eentropy">     -0.23740803 </i>
    <i name="bandstr">  -1387.06234362 </i>
    <i name="atom">   6761.44252427 </i>
    <i name="e_fr_energy">   -190.59506123 </i>
    <i name="e_wo_entrp">   -190.35765321 </i>
    <i name="e_0_energy">   -190.47635722 </i>
   </energy>
  </scstep>
  <scstep>
   <time name="dav">   27.96   28.03</time>
   <time name="total">   28.48   28.56</time>
   <energy>
    <i name="e_fr_energy">   -190.55799663 </i>
    <i name="e_wo_entrp">   -190.31444114 </i>
    <i name="e_0_energy">   -190.43621888 </i>
   </energy>
  </scstep>
  <scstep>
   <time name="dav">   30.10   30.17</time>
   <time name="total">   30.62   30.70</time>
   <energy>
    <i name="e_fr_energy">   -190.08084571 </i>
    <i name="e_wo_entrp">   -189.82977512 </i>
    <i name="e_0_energy">   -189.95531041 </i>
   </energy>
  </scstep>
  <scstep>
   <time name="dav">   31.02   31.10</time>
   <time name="total">   31.56   31.64</time>
   <energy>
    <i name="e_fr_energy">   -189.87663904 </i>
    <i name="e_wo_entrp">   -189.63724155 </i>
    <i name="e_0_energy">   -189.75694029 </i>
   </energy>
  </scstep>
  <scstep>
   <time name="dav">   29.91   29.98</time>
   <time name="total">   30.44   30.52</time>
   <energy>
    <i name="e_fr_energy">   -189.91602956 </i>
    <i name="e_wo_entrp">   -189.66914985 </i>
    <i name="e_0_energy">   -189.79258970 </i>
   </energy>
  </scstep>
  <scstep>
   <time name="dav">   30.08   30.15</time>
   <time name="total">   30.61   30.70</time>
   <energy>
    <i name="e_fr_energy">   -189.77249760 </i>
    <i name="e_wo_entrp">   -189.53208034 </i>
    <i name="e_0_energy">   -189.65228897 </i>
   </energy>
  </scstep>
  <scstep>
   <time name="dav">   29.70   29.77</time>
   <time name="total">   30.22   30.31</time>
   <energy>
    <i name="e_fr_energy">   -189.76581787 </i>
    <i name="e_wo_entrp">   -189.52532220 </i>
    <i name="e_0_energy">   -189.64557003 </i>
   </energy>
  </scstep>
  <scstep>
   <time name="dav">   28.98   29.05</time>
   <time name="total">   29.51   29.59</time>
   <energy>
    <i name="e_fr_energy">   -189.76676946 </i>
    <i name="e_wo_entrp">   -189.52630769 </i>
    <i name="e_0_energy">   -189.64653857 </i>
   </energy>
  </scstep>
  <scstep>
   <time name="dav">   26.28   26.35</time>
   <time name="total">   26.81   26.89</time>
   <energy>
    <i name="e_fr_energy">   -189.76579698 </i>
    <i name="e_wo_entrp">   -189.52536180 </i>
    <i name="e_0_energy">   -189.64557939 </i>
   </energy>
  </scstep>
  <scstep>
   <time name="dav">   25.68   25.74</time>
   <time name="total">   26.21   26.28</time>
   <energy>
    <i name="e_fr_energy">   -189.76598640 </i>
    <i name="e_wo_entrp">   -189.52541369 </i>
    <i name="e_0_energy">   -189.64570004 </i>
   </energy>
  </scstep>
  <scstep>
   <time name="dav">   22.97   23.02</time>
   <time name="total">   23.50   23.56</time>
   <energy>
    <i name="e_fr_energy">   -189.76580893 </i>
    <i name="e_wo_entrp">   -189.52526280 </i>
    <i name="e_0_energy">   -189.64553586 </i>
   </energy>
  </scstep>
  <scstep>
   <time name="dav">   20.16   20.21</time>
   <time name="total">   20.20   20.25</time>
   <energy>
    <i name="alphaZ">     82.33785029 </i>
    <i name="ewald">  41299.35706153 </i>
    <i name="hartreedc"> -47271.62858188 </i>
    <i name="XCdc">   -235.24731743 </i>
    <i name="pawpsdc">   4038.79366802 </i>
    <i name="pawaedc">  -3454.49961918 </i>
    <i name="eentropy">     -0.24052173 </i>
    <i name="bandstr">  -1410.08089312 </i>
    <i name="atom">   6761.44252427 </i>
    <i name="e_fr_energy">   -189.76582921 </i>
    <i name="e_wo_entrp">   -189.52530748 </i>
    <i name="e_0_energy">   -189.64556834 </i>
   </energy>
  </scstep>
  <structure>
   <crystal>
    <varray name="basis" >
     <v>       8.66788991       5.00206732       0.00000000 </v>
     <v>      -8.66561978       4.99816274       0.00000000 </v>
     <v>       0.00000000       0.00000000      30.00000000 </v>
    </varray>
    <i name="volume">   2600.08613513 </i>
    <varray name="rec_basis" >
     <v>       0.05766920       0.09998461       0.00000000 </v>
     <v>      -0.05771425       0.10001080       0.00000000 </v>
     <v>       0.00000000       0.00000000       0.03333333 </v>
    </varray>
   </crystal>
   <varray name="positions" >
    <v>       0.33435001       0.33493440      -0.00005257 </v>
    <v>       0.00003589       0.66481524       0.00008294 </v>
    <v>       0.99902456       0.33384669       0.00003358 </v>
    <v>       0.33507248       0.66839832       0.00011445 </v>
    <v>       0.66657214       0.33105843      -0.00008749 </v>
    <v>       0.66453200      -0.00011051      -0.00003679 </v>
    <v>      -0.00204749       0.00030386      -0.00002826 </v>
    <v>       0.33757410      -0.00001696      -0.00022665 </v>
    <v>       0.66478308       0.66664368       0.00018703 </v>
    <v>       0.11256353       0.22544797       0.95314632 </v>
    <v>       0.22375039       0.11453853       0.04782559 </v>
    <v>       0.10654857       0.55339565       0.95316605 </v>
    <v>       0.22010247       0.43990946       0.04675636 </v>
    <v>       0.10938098       0.88534887       0.95214365 </v>
    <v>       0.21791730       0.77647500       0.04805567 </v>
    <v>       0.44111039       0.22333615       0.95196646 </v>
    <v>       0.55437504       0.11046558       0.04945382 </v>
    <v>       0.44310635       0.55126165       0.95185395 </v>
    <v>       0.55157389       0.44337656       0.04800339 </v>
    <v>       0.44375706       0.88950052       0.95050534 </v>
    <v>       0.55623222       0.77715660       0.04936638 </v>
    <v>       0.78227454       0.22441604       0.95189576 </v>
    <v>       0.89160731       0.11496263       0.04805358 </v>
    <v>       0.78170500       0.55825807       0.95210630 </v>
    <v>       0.89338439       0.44647058       0.04695270 </v>
    <v>       0.77821359       0.88838188       0.95075201 </v>
    <v>       0.89071466       0.77563955       0.04801032 </v>
   </varray>
  </structure>
  <varray name="forces" >
   <v>      -0.02836840       0.21842994       0.08728727 </v>
   <v>       0.10040208      -0.10556137      -0.07483190 </v>
   <v>      -0.13053774      -0.08873175      -0.00024426 </v>
   <v>       0.00545659       0.57316631       0.06385354 </v>
   <v>       0.24241611      -0.35430738      -0.07990437 </v>
   <v>      -0.28775059      -0.36043989      -0.00399320 </v>
   <v>      -0.23627254      -0.28861980       0.02413667 </v>
   <v>       0.62748171       0.38704134      -0.00004085 </v>
   <v>      -0.30258906       0.01263796       0.00738447 </v>
   <v>      -0.04074021       0.07156254      -0.35596522 </v>
   <v>       0.00620690       0.04340914       0.17264196 </v>
   <v>      -0.00843991      -0.08934065      -0.35196087 </v>
   <v>       0.02111124      -0.09758389       0.29168265 </v>
   <v>       0.02349214      -0.03802635      -0.22573257 </v>
   <v>      -0.08907838      -0.06023781       0.47057239 </v>
   <v>      -0.09047723      -0.05451119      -0.53048321 </v>
   <v>      -0.00609448      -0.03691883       0.80535353 </v>
   <v>       0.06566947      -0.08987714      -0.56323681 </v>
   <v>      -0.05739674      -0.07581843       0.43888188 </v>
   <v>      -0.03745814       0.00454958      -0.86893032 </v>
   <v>       0.05240540       0.02698930       0.74409110 </v>
   <v>       0.08539992       0.14539467      -0.56877906 </v>
   <v>      -0.03846893       0.10524845       0.47300225 </v>
   <v>      -0.00392215       0.10008662      -0.29598725 </v>
   <v>       0.05937895       0.09308239       0.48655523 </v>
   <v>       0.00474133      -0.02065227      -0.57172250 </v>
   <v>       0.06343266      -0.02097149       0.42636944 </v>
  </varray>
  <varray name="stress" >
   <v>     -10.15276610      -0.02365669       0.00525410 </v>
   <v>      -0.02365683      -9.84312810      -0.04686601 </v>
   <v>       0.00525422      -0.04686599       6.48093372 </v>
  </varray>
  <energy>
   <i name="e_fr_energy">   -189.76582921 </i>
   <i name="e_wo_entrp">   -189.64556834 </i>
   <i name="e_0_energy">     -0.24052173 </i>
  </energy>
  <time name="totalsc">  374.59  375.58</time>
 </calculation>
 <calculation>
  <scstep>
   <time name="dav">   21.69   21.74</time>
   <time name="total">   22.21   22.26</time>
   <energy>
    <i name="alphaZ">     85.81785881 </i>
    <i name="ewald">  42831.56750719 </i>
    <i name="hartreedc"> -48848.31810653 </i>
    <i name="XCdc">   -232.95946088 </i>
    <i name="pawpsdc">   4038.80370772 </i>
    <i name="pawaedc">  -3454.50695448 </i>
    <i name="eentropy">     -0.20381268 </i>
    <i name="bandstr">  -1372.97893213 </i>
    <i name="atom">   6761.44252427 </i>
    <i name="e_fr_energy">   -191.33566872 </i>
    <i name="e_wo_entrp">   -191.13185604 </i>
    <i name="e_0_energy">   -191.23376238 </i>
   </energy>
  </scstep>
  <scstep>
   <time name="dav">   32.05   32.13</time>
   <time name="total">   32.56   32.65</time>
   <energy>
    <i name="e_fr_energy">   -191.17876876 </i>
    <i name="e_wo_entrp">   -190.96929546 </i>
    <i name="e_0_energy">   -191.07403211 </i>
   </energy>
  </scstep>
  <scstep>
   <time name="dav">   29.94   30.01</time>
   <time name="total">   30.45   30.53</time>
   <energy>
    <i name="e_fr_energy">   -191.28380243 </i>
    <i name="e_wo_entrp">   -191.06256084 </i>
    <i name="e_0_energy">   -191.17318164 </i>
   </energy>
  </scstep>
  <scstep>
   <time name="dav">   31.26   31.33</time>
   <time name="total">   31.78   31.86</time>
   <energy>
    <i name="e_fr_energy">   -190.88306499 </i>
    <i name="e_wo_entrp">   -190.67572359 </i>
    <i name="e_0_energy">   -190.77939429 </i>
   </energy>
  </scstep>
  <scstep>
   <time name="dav">   30.02   30.09</time>
   <time name="total">   30.54   30.62</time>
   <energy>
    <i name="e_fr_energy">   -190.80418411 </i>
    <i name="e_wo_entrp">   -190.59327584 </i>
    <i name="e_0_energy">   -190.69872997 </i>
   </energy>
  </scstep>
  <scstep>
   <time name="dav">   30.63   30.70</time>
   <time name="total">   31.15   31.23</time>
   <energy>
    <i name="e_fr_energy">   -190.77547527 </i>
    <i name="e_wo_entrp">   -190.56458736 </i>
    <i name="e_0_energy">   -190.67003131 </i>
   </energy>
  </scstep>
  <scstep>
   <time name="dav">   29.14   29.21</time>
   <time name="total">   29.67   29.74</time>
   <energy>
    <i name="e_fr_energy">   -190.75535167 </i>
    <i name="e_wo_entrp">   -190.54528214 </i>
    <i name="e_0_energy">   -190.65031690 </i>
   </energy>
  </scstep>
  <scstep>
   <time name="dav">   28.91   28.98</time>
   <time name="total">   29.42   29.50</time>
   <energy>
    <i name="e_fr_energy">   -190.75248039 </i>
    <i name="e_wo_entrp">   -190.54238717 </i>
    <i name="e_0_energy">   -190.64743378 </i>
   </energy>
  </scstep>
  <scstep>
   <time name="dav">   28.11   28.18</time>
   <time name="total">   28.63   28.70</time>
   <energy>
    <i name="e_fr_energy">   -190.75186215 </i>
    <i name="e_wo_entrp">   -190.54180682 </i>
    <i name="e_0_energy">   -190.64683448 </i>
   </energy>
  </scstep>
  <scstep>
   <time name="dav">   28.28   28.35</time>
   <time name="total">   28.80   28.88</time>
   <energy>
    <i name="e_fr_energy">   -190.75198275 </i>
    <i name="e_wo_entrp">   -190.54166722 </i>
    <i name="e_0_energy">   -190.64682499 </i>
   </energy>
  </scstep>
  <scstep>
   <time name="dav">   25.45   25.51</time>
   <time name="total">   25.96   26.03</time>
   <energy>
    <i name="e_fr_energy">   -190.75175902 </i>
    <i name="e_wo_entrp">   -190.54169401 </i>
    <i name="e_0_energy">   -190.64672651 </i>
   </energy>
  </scstep>
  <scstep>
   <time name="dav">   20.34   20.39</time>
   <time name="total">   20.37   20.43</time>
   <energy>
    <i name="alphaZ">     85.81785881 </i>
    <i name="ewald">  42831.56750719 </i>
    <i name="hartreedc"> -48819.69807996 </i>
    <i name="XCdc">   -234.28936754 </i>
    <i name="pawpsdc">   4063.74015933 </i>
    <i name="pawaedc">  -3479.62781598 </i>
    <i name="eentropy">     -0.21008505 </i>
    <i name="bandstr">  -1399.49445580 </i>
    <i name="atom">   6761.44252427 </i>
    <i name="e_fr_energy">   -190.75175474 </i>
    <i name="e_wo_entrp">   -190.54166968 </i>
    <i name="e_0_energy">   -190.64671221 </i>
   </energy>
  </scstep>
  <structure>
   <crystal>
    <varray name="basis" >
     <v>       8.48562152       4.90111728       0.00000000 </v>
     <v>      -8.48443438       4.89908544       0.00000000 </v>
     <v>       0.00000000       0.00000000      30.00000000 </v>
    </varray>
    <i name="volume">   2494.64978396 </i>
    <varray name="rec_basis" >
     <v>       0.05891511       0.10203157       0.00000000 </v>
     <v>      -0.05893954       0.10204585       0.00000000 </v>
     <v>       0.00000000       0.00000000       0.03333333 </v>
    </varray>
   </crystal>
   <varray name="positions" >
    <v>       0.33568739       0.33641377       0.00013811 </v>
    <v>      -0.00030224       0.66391728      -0.00008684 </v>
    <v>       0.99796895       0.33367013       0.00002810 </v>
    <v>       0.33889919       0.67217664       0.00023186 </v>
    <v>       0.66507618       0.32786463      -0.00024514 </v>
    <v>       0.66107791      -0.00148593      -0.00004063 </v>
    <v>      -0.00480068      -0.00082222       0.00002671 </v>
    <v>       0.34230848       0.00014319      -0.00019461 </v>
    <v>       0.66387023       0.66797312       0.00017341 </v>
    <v>       0.11309108       0.22651890       0.95201617 </v>
    <v>       0.22426008       0.11514485       0.04858304 </v>
    <v>       0.10581575       0.55278117       0.95206775 </v>
    <v>       0.21946374       0.43904771       0.04773130 </v>
    <v>       0.10907195       0.88464320       0.95127029 </v>
    <v>       0.21692333       0.77613186       0.04945005 </v>
    <v>       0.44044062       0.22364682       0.95043589 </v>
    <v>       0.55436442       0.11038027       0.05160929 </v>
    <v>       0.44244801       0.55016793       0.95025876 </v>
    <v>       0.55060199       0.44276294       0.04932972 </v>
    <v>       0.44378363       0.88950658       0.94820152 </v>
    <v>       0.55648979       0.77729121       0.05139464 </v>
    <v>       0.78372178       0.22509191       0.95029698 </v>
    <v>       0.89205330       0.11609637       0.04946166 </v>
    <v>       0.78259536       0.55887371       0.95109252 </v>
    <v>       0.89435993       0.44692067       0.04834810 </v>
    <v>       0.77793918       0.88831876       0.94909160 </v>
    <v>       0.89100510       0.77503900       0.04932965 </v>
   </varray>
  </structure>
  <varray name="forces" >
   <v>      -0.03109422       0.24340364       0.08217705 </v>
   <v>       0.02661747      -0.09381167      -0.07980628 </v>
   <v>      -0.08295802      -0.08667304      -0.00852795 </v>
   <v>       0.02325576       0.59319271       0.00689388 </v>
   <v>       0.24276806      -0.38195713      -0.03927043 </v>
   <v>      -0.24440611      -0.39851361       0.00104269 </v>
   <v>      -0.26123279      -0.35610969       0.03250366 </v>
   <v>       0.63110460       0.38577229       0.03670999 </v>
   <v>      -0.34156176       0.07853283      -0.03384282 </v>
   <v>      -0.03715018       0.02016666      -0.23380523 </v>
   <v>       0.06135698      -0.00944701      -0.00933329 </v>
   <v>       0.05973186       0.03055107      -0.22443930 </v>
   <v>      -0.05719814       0.03665079       0.19783028 </v>
   <v>       0.03646878       0.04984961      -0.07153008 </v>
   <v>       0.00271405       0.02976198       0.30598658 </v>
   <v>       0.00479603      -0.04040762      -0.38867693 </v>
   <v>       0.03836962       0.01821388       0.61602255 </v>
   <v>      -0.01908474      -0.01722710      -0.38389405 </v>
   <v>       0.01517296      -0.00173302       0.26021599 </v>
   <v>       0.03025564       0.01323783      -0.70459779 </v>
   <v>      -0.01853003       0.04542429       0.59929158 </v>
   <v>       0.05133964       0.00960640      -0.40126845 </v>
   <v>      -0.09201539      -0.00963463       0.31665090 </v>
   <v>      -0.00046572      -0.04110824      -0.14415050 </v>
   <v>       0.01800392      -0.02043615       0.36342980 </v>
   <v>      -0.08353239      -0.04156881      -0.41378263 </v>
   <v>       0.02727413      -0.05573628       0.31817079 </v>
  </varray>
  <varray name="stress" >
   <v>      -5.78208382       0.08069198      -0.04724173 </v>
   <v>       0.08069209      -5.72041186       0.05533745 </v>
   <v>      -0.04724171       0.05533751       4.48407499 </v>
  </varray>
  <energy>
   <i name="e_fr_energy">   -190.75175474 </i>
   <i name="e_wo_entrp">   -190.64671221 </i>
   <i name="e_0_energy">     -0.21008505 </i>
  </energy>
  <time name="totalsc">  383.82  384.84</time>
 </calculation>
 <calculation>
  <scstep>
   <time name="dav">   21.70   21.75</time>
   <time name="total">   22.21   22.26</time>
   <energy>
    <i name="alphaZ">     90.17973875 </i>
    <i name="ewald">  44666.87647413 </i>
    <i name="hartreedc"> -50710.37082565 </i>
    <i name="XCdc">   -231.83192304 </i>
    <i name="pawpsdc">   4063.71627202 </i>
    <i name="pawaedc">  -3479.59866029 </i>
    <i name="eentropy">     -0.19690371 </i>
    <i name="bandstr">  -1352.34117942 </i>
    <i name="atom">   6761.44252427 </i>
    <i name="e_fr_energy">   -192.12448295 </i>
    <i name="e_wo_entrp">   -191.92757924 </i>
    <i name="e_0_energy">   -192.02603109 </i>
   </energy>
  </scstep>
  <scstep>
   <time name="dav">   28.05   28.12</time>
   <time name="total">   28.55   28.63</time>
   <energy>
    <i name="e_fr_energy">   -191.85691139 </i>
    <i name="e_wo_entrp">   -191.65333421 </i>
    <i name="e_0_energy">   -191.75512280 </i>
   </energy>
  </scstep>
  <scstep>
   <time name="dav">   29.20   29.27</time>
   <time name="total">   29.71   29.79</time>
   <energy>
    <i name="e_fr_energy">   -191.99293618 </i>
    <i name="e_wo_entrp">   -191.78879408 </i>
    <i name="e_0_energy">   -191.89086513 </i>
   </energy>
  </scstep>
  <scstep>
   <time name="dav">   28.34   28.41</time>
   <time name="total">   28.85   28.93</time>
   <energy>
    <i name="e_fr_energy">   -191.75005389 </i>
    <i name="e_wo_entrp">   -191.54932950 </i>
    <i name="e_0_energy">   -191.64969169 </i>
   </energy>
  </scstep>
  <scstep>
   <time name="dav">   30.02   30.09</time>
   <time name="total">   30.53   30.61</time>
   <energy>
    <i name="e_fr_energy">   -191.58222464 </i>
    <i name="e_wo_entrp">   -191.37855435 </i>
    <i name="e_0_energy">   -191.48038949 </i>
   </energy>
  </scstep>
  <scstep>
   <time name="dav">   30.11   30.18</time>
   <time name="total">   30.62   30.70</time>
   <energy>
    <i name="e_fr_energy">   -191.43855768 </i>
    <i name="e_wo_entrp">   -191.23247978 </i>
    <i name="e_0_energy">   -191.33551873 </i>
   </energy>
  </scstep>
  <scstep>
   <time name="dav">   30.10   30.17</time>
   <time name="total">   30.61   30.69</time>
   <energy>
    <i name="e_fr_energy">   -191.43110559 </i>
    <i name="e_wo_entrp">   -191.22691274 </i>
    <i name="e_0_energy">   -191.32900916 </i>
   </energy>
  </scstep>
  <scstep>
   <time name="dav">   29.72   29.79</time>
   <time name="total">   30.23   30.31</time>
   <energy>
    <i name="e_fr_energy">   -191.42888787 </i>
    <i name="e_wo_entrp">   -191.22384101 </i>
    <i name="e_0_energy">   -191.32636444 </i>
   </energy>
  </scstep>
  <scstep>
   <time name="dav">   30.41   30.48</time>
   <time name="total">   30.91   31.00</time>
   <energy>
    <i name="e_fr_energy">   -191.42222921 </i>
    <i name="e_wo_entrp">   -191.21716693 </i>
    <i name="e_0_energy">   -191.31969807 </i>
   </energy>
  </scstep>
  <scstep>
   <time name="dav">   27.45   27.52</time>
   <time name="total">   27.96   28.04</time>
   <energy>
    <i name="e_fr_energy">   -191.42253228 </i>
    <i name="e_wo_entrp">   -191.21719192 </i>
    <i name="e_0_energy">   -191.31986210 </i>
   </energy>
  </scstep>
  <scstep>
   <time name="dav">   27.76   27.83</time>
   <time name="total">   28.27   28.34</time>
   <energy>
    <i name="e_fr_energy">   -191.42237885 </i>
    <i name="e_wo_entrp">   -191.21718312 </i>
    <i name="e_0_energy">   -191.31978099 </i>
   </energy>
  </scstep>
  <scstep>
   <time name="dav">   19.47   19.51</time>
   <time name="total">   19.50   19.56</time>
   <energy>
    <i name="alphaZ">     90.17973875 </i>
    <i name="ewald">  44666.87647413 </i>
    <i name="hartreedc"> -50676.40962924 </i>
    <i name="XCdc">   -233.35987082 </i>
    <i name="pawpsdc">   4085.94719350 </i>
    <i name="pawaedc">  -3501.92825280 </i>
    <i name="eentropy">     -0.20527529 </i>
    <i name="bandstr">  -1383.96526541 </i>
    <i name="atom">   6761.44252427 </i>
    <i name="e_fr_energy">   -191.42236291 </i>
    <i name="e_wo_entrp">   -191.21708762 </i>
    <i name="e_0_energy">   -191.31972527 </i>
   </energy>
  </scstep>
  <structure>
   <crystal>
    <varray name="basis" >
     <v>       8.27816612       4.78597124       0.00000000 </v>
     <v>      -8.27265221       4.77644623       0.00000000 </v>
     <v>       0.00000000       0.00000000      30.00000000 </v>
    </varray>
    <i name="volume">   2373.98672806 </i>
    <varray name="rec_basis" >
     <v>       0.06035981       0.10454126       0.00000000 </v>
     <v>      -0.06048018       0.10461094       0.00000000 </v>
     <v>       0.00000000       0.00000000       0.03333333 </v>
    </varray>
   </crystal>
   <varray name="positions" >
    <v>       0.33850425       0.33959397       0.00048181 </v>
    <v>      -0.00126155       0.66263007      -0.00042131 </v>
    <v>       0.99623193       0.33312835      -0.00000742 </v>
    <v>       0.34656083       0.67953189       0.00027288 </v>
    <v>       0.66197136       0.32137514      -0.00041531 </v>
    <v>       0.65428119      -0.00472905      -0.00003401 </v>
    <v>      -0.01100504      -0.00345771       0.00015831 </v>
    <v>       0.35158291       0.00041539      -0.00002991 </v>
    <v>       0.66245561       0.67139906       0.00002632 </v>
    <v>       0.11342027       0.22767121       0.95055764 </v>
    <v>       0.22486440       0.11514786       0.04910695 </v>
    <v>       0.10618431       0.55249927       0.95067122 </v>
    <v>       0.21923934       0.43940343       0.04900480 </v>
    <v>       0.10960423       0.88441960       0.95043018 </v>
    <v>       0.21672813       0.77608315       0.05125191 </v>
    <v>       0.43986072       0.22356086       0.94830070 </v>
    <v>       0.55500732       0.11042623       0.05474597 </v>
    <v>       0.44167529       0.54954866       0.94812631 </v>
    <v>       0.55015900       0.44217876       0.05095282 </v>
    <v>       0.44423622       0.88932219       0.94470378 </v>
    <v>       0.55683754       0.77806214       0.05443997 </v>
    <v>       0.78472835       0.22512479       0.94811038 </v>
    <v>       0.89143873       0.11716047       0.05131189 </v>
    <v>       0.78264077       0.55858080       0.94996843 </v>
    <v>       0.89467216       0.44678570       0.05032081 </v>
    <v>       0.77676672       0.88844740       0.94679557 </v>
    <v>       0.89082947       0.77390481       0.05116921 </v>
   </varray>
  </structure>
  <varray name="forces" >
   <v>      -0.05405640       0.31666418       0.02275625 </v>
   <v>      -0.01661804      -0.10233563      -0.02009256 </v>
   <v>      -0.04237669      -0.06072415      -0.02021186 </v>
   <v>       0.10805829       0.21811989      -0.05252999 </v>
   <v>       0.21522631      -0.22807569       0.01742071 </v>
   <v>       0.09271107      -0.03019206       0.03456519 </v>
   <v>      -0.31823606      -0.44032927       0.06470435 </v>
   <v>       0.25075729       0.15216529      -0.05759738 </v>
   <v>      -0.34930394       0.16573640       0.05342358 </v>
   <v>       0.00240906      -0.05108124       0.07332382 </v>
   <v>       0.16875267      -0.11595764      -0.33699524 </v>
   <v>       0.09847065       0.14555322       0.07347612 </v>
   <v>      -0.12610274       0.19690384      -0.04833833 </v>
   <v>       0.01881454       0.20169356       0.24121044 </v>
   <v>       0.09162688       0.15255946      -0.01360095 </v>
   <v>       0.10569303      -0.07401597      -0.05475253 </v>
   <v>       0.11215627       0.05535046       0.29266209 </v>
   <v>      -0.07268453       0.07661700      -0.11961769 </v>
   <v>       0.06889202       0.12449569      -0.06966211 </v>
   <v>       0.04439007       0.01537934      -0.29045586 </v>
   <v>      -0.03526214       0.06613310       0.24453220 </v>
   <v>       0.00509573      -0.16570041      -0.06782379 </v>
   <v>      -0.09313664      -0.13398568       0.06306862 </v>
   <v>      -0.05400435      -0.22222221       0.12471543 </v>
   <v>      -0.02504601      -0.09730161       0.02243585 </v>
   <v>      -0.16285260      -0.06443570      -0.23635197 </v>
   <v>      -0.03337374      -0.10101418       0.05973560 </v>
  </varray>
  <varray name="stress" >
   <v>      -0.03836337       0.19648781       0.14984244 </v>
   <v>       0.19648760       0.44307835       0.31904276 </v>
   <v>       0.14984228       0.31904265      -0.55774565 </v>
  </varray>
  <energy>
   <i name="e_fr_energy">   -191.42236291 </i>
   <i name="e_wo_entrp">   -191.31972527 </i>
   <i name="e_0_energy">     -0.20527529 </i>
  </energy>
  <time name="totalsc">  379.76  380.77</time>
 </calculation>
 <calculation>
  <scstep>
   <time name="dav">   21.67   21.73</time>
   <time name="total">   22.18   22.24</time>
   <energy>
    <i name="alphaZ">     90.05765276 </i>
    <i name="ewald">  44593.15600753 </i>
    <i name="hartreedc"> -50602.07411941 </i>
    <i name="XCdc">   -233.51909727 </i>
    <i name="pawpsdc">   4085.88232493 </i>
    <i name="pawaedc">  -3501.85907405 </i>
    <i name="eentropy">     -0.20895635 </i>
    <i name="bandstr">  -1384.37085141 </i>
    <i name="atom">   6761.44252427 </i>
    <i name="e_fr_energy">   -191.49358899 </i>
    <i name="e_wo_entrp">   -191.28463264 </i>
    <i name="e_0_energy">   -191.38911081 </i>
   </energy>
  </scstep>
  <scstep>
   <time name="dav">   32.80   32.88</time>
   <time name="total">   33.31   33.40</time>
   <energy>
    <i name="e_fr_energy">   -191.56474136 </i>
    <i name="e_wo_entrp">   -191.35049639 </i>
    <i name="e_0_energy">   -191.45761887 </i>
   </energy>
  </scstep>
  <scstep>
   <time name="dav">   30.17   30.24</time>
   <time name="total">   30.67   30.76</time>
   <energy>
    <i name="e_fr_energy">   -191.50753217 </i>
    <i name="e_wo_entrp">   -191.29769153 </i>
    <i name="e_0_energy">   -191.40261185 </i>
   </energy>
  </scstep>
  <scstep>
   <time name="dav">   28.38   28.45</time>
   <time name="total">   28.89   28.96</time>
   <energy>
    <i name="e_fr_energy">   -191.50931845 </i>
    <i name="e_wo_entrp">   -191.29982973 </i>
    <i name="e_0_energy">   -191.40457409 </i>
   </energy>
  </scstep>
  <scstep>
   <time name="dav">   28.42   28.49</time>
   <time name="total">   28.92   29.00</time>
   <energy>
    <i name="e_fr_energy">   -191.50463859 </i>
    <i name="e_wo_entrp">   -191.29448978 </i>
    <i name="e_0_energy">   -191.39956418 </i>
   </energy>
  </scstep>
  <scstep>
   <time name="dav">   26.50   26.56</time>
   <time name="total">   27.01   27.08</time>
   <energy>
    <i name="e_fr_energy">   -191.50451280 </i>
    <i name="e_wo_entrp">   -191.29435567 </i>
    <i name="e_0_energy">   -191.39943423 </i>
   </energy>
  </scstep>
  <scstep>
   <time name="dav">   28.54   28.61</time>
   <time name="total">   29.05   29.13</time>
   <energy>
    <i name="e_fr_energy">   -191.50509780 </i>
    <i name="e_wo_entrp">   -191.29519032 </i>
    <i name="e_0_energy">   -191.40014406 </i>
   </energy>
  </scstep>
  <scstep>
   <time name="dav">   24.51   24.57</time>
   <time name="total">   25.02   25.09</time>
   <energy>
    <i name="e_fr_energy">   -191.50398826 </i>
    <i name="e_wo_entrp">   -191.29385095 </i>
    <i name="e_0_energy">   -191.39891960 </i>
   </energy>
  </scstep>
  <scstep>
   <time name="dav">   16.94   16.98</time>
   <time name="total">   16.97   17.02</time>
   <energy>
    <i name="alphaZ">     90.05765276 </i>
    <i name="ewald">  44593.15600753 </i>
    <i name="hartreedc"> -50603.98474581 </i>
    <i name="XCdc">   -233.45825906 </i>
    <i name="pawpsdc">   4082.66578831 </i>
    <i name="pawaedc">  -3498.59550785 </i>
    <i name="eentropy">     -0.20999791 </i>
    <i name="bandstr">  -1382.57746235 </i>
    <i name="atom">   6761.44252427 </i>
    <i name="e_fr_energy">   -191.50400011 </i>
    <i name="e_wo_entrp">   -191.29400220 </i>
    <i name="e_0_energy">   -191.39900116 </i>
   </energy>
  </scstep>
  <structure>
   <crystal>
    <varray name="basis" >
     <v>       8.28104155       4.79639923       0.00000000 </v>
     <v>      -8.27067787       4.77846822       0.00000000 </v>
     <v>       0.00000000       0.00000000      30.00000000 </v>
    </varray>
    <i name="volume">   2377.20500562 </i>
    <varray name="rec_basis" >
     <v>       0.06030361       0.10437482       0.00000000 </v>
     <v>      -0.06052990       0.10450560       0.00000000 </v>
     <v>       0.00000000       0.00000000       0.03333333 </v>
    </varray>
   </crystal>
   <varray name="positions" >
    <v>       0.33988907       0.34128623       0.00051408 </v>
    <v>      -0.00180624       0.66218332      -0.00044946 </v>
    <v>       0.99582848       0.33295484      -0.00003897 </v>
    <v>       0.34786944       0.68022530       0.00018935 </v>
    <v>       0.66149029       0.31969540      -0.00038592 </v>
    <v>       0.65446897      -0.00511014       0.00002052 </v>
    <v>      -0.01403300      -0.00470055       0.00025916 </v>
    <v>       0.35295719       0.00044813      -0.00012276 </v>
    <v>       0.66229196       0.67318630       0.00011235 </v>
    <v>       0.11316818       0.22739450       0.95069236 </v>
    <v>       0.22476430       0.11408515       0.04856508 </v>
    <v>       0.10718649       0.55294331       0.95080536 </v>
    <v>       0.21985851       0.44074114       0.04891178 </v>
    <v>       0.11065436       0.88537218       0.95082394 </v>
    <v>       0.21775239       0.77658024       0.05120760 </v>
    <v>       0.43980322       0.22288861       0.94824050 </v>
    <v>       0.55559477       0.11037802       0.05517101 </v>
    <v>       0.44185804       0.55014722       0.94796370 </v>
    <v>       0.55098137       0.44260788       0.05082177 </v>
    <v>       0.44443419       0.88927404       0.94428604 </v>
    <v>       0.55706129       0.77848256       0.05479009 </v>
    <v>       0.78390763       0.22428621       0.94803007 </v>
    <v>       0.89051360       0.11674827       0.05138818 </v>
    <v>       0.78138069       0.55763527       0.95018103 </v>
    <v>       0.89411203       0.44637472       0.05033207 </v>
    <v>       0.77599418       0.88859309       0.94645052 </v>
    <v>       0.89023304       0.77351321       0.05124046 </v>
   </varray>
  </structure>
  <varray name="forces" >
   <v>      -0.08415178       0.37624899       0.03063541 </v>
   <v>       0.01958507      -0.08817494      -0.04576783 </v>
   <v>      -0.05687001      -0.05205572      -0.04704665 </v>
   <v>       0.12619441       0.22267033      -0.02599556 </v>
   <v>       0.27312195      -0.29130915       0.01098294 </v>
   <v>       0.07522878      -0.03666036      -0.00130579 </v>
   <v>      -0.35493237      -0.49836218       0.03459621 </v>
   <v>       0.35018923       0.24041616       0.01915204 </v>
   <v>      -0.40273799       0.18262792       0.00861649 </v>
   <v>       0.01809130      -0.05238645       0.12801334 </v>
   <v>       0.07376286      -0.11320450      -0.37663327 </v>
   <v>       0.06215086       0.09053645       0.09576883 </v>
   <v>      -0.07583540       0.11954883      -0.07071944 </v>
   <v>      -0.01733189       0.12589439       0.25164868 </v>
   <v>       0.05711861       0.08920950      -0.05263448 </v>
   <v>       0.05874546      -0.03309154      -0.02834778 </v>
   <v>       0.07427592      -0.00072968       0.16996412 </v>
   <v>      -0.01658402       0.06448381      -0.11576332 </v>
   <v>       0.04785841       0.10650814      -0.08593047 </v>
   <v>       0.05136921       0.03111933      -0.17930763 </v>
   <v>      -0.03337798       0.03151283       0.20549169 </v>
   <v>       0.01371919      -0.09692971      -0.04931476 </v>
   <v>      -0.06820460      -0.06276300       0.10817637 </v>
   <v>      -0.05451484      -0.16128036       0.17834216 </v>
   <v>      -0.01308212      -0.05855729       0.00638544 </v>
   <v>      -0.09228256      -0.05482024      -0.23143799 </v>
   <v>      -0.03150569      -0.08045157       0.06243125 </v>
  </varray>
  <varray name="stress" >
   <v>      -0.19024543      -0.02577206      -0.00192723 </v>
   <v>      -0.02577195      -0.08680768       0.13026541 </v>
   <v>      -0.00192741       0.13026542      -1.27916672 </v>
  </varray>
  <energy>
   <i name="e_fr_energy">   -191.50400011 </i>
   <i name="e_wo_entrp">   -191.39900116 </i>
   <i name="e_0_energy">     -0.20999791 </i>
  </energy>
  <time name="totalsc">  284.70  285.45</time>
 </calculation>
 <calculation>
  <scstep>
   <time name="dav">   21.71   21.76</time>
   <time name="total">   22.22   22.27</time>
   <energy>
    <i name="alphaZ">     90.10798246 </i>
    <i name="ewald">  44617.16852531 </i>
    <i name="hartreedc"> -50628.49310799 </i>
    <i name="XCdc">   -233.42088005 </i>
    <i name="pawpsdc">   4082.49190846 </i>
    <i name="pawaedc">  -3498.41983977 </i>
    <i name="eentropy">     -0.21086272 </i>
    <i name="bandstr">  -1382.21668011 </i>
    <i name="atom">   6761.44252427 </i>
    <i name="e_fr_energy">   -191.55043014 </i>
    <i name="e_wo_entrp">   -191.33956742 </i>
    <i name="e_0_energy">   -191.44499878 </i>
   </energy>
  </scstep>
  <scstep>
   <time name="dav">   32.92   33.00</time>
   <time name="total">   33.42   33.51</time>
   <energy>
    <i name="e_fr_energy">   -191.56610660 </i>
    <i name="e_wo_entrp">   -191.35192845 </i>
    <i name="e_0_energy">   -191.45901753 </i>
   </energy>
  </scstep>
  <scstep>
   <time name="dav">   29.97   30.04</time>
   <time name="total">   30.47   30.56</time>
   <energy>
    <i name="e_fr_energy">   -191.55359027 </i>
    <i name="e_wo_entrp">   -191.34238358 </i>
    <i name="e_0_energy">   -191.44798693 </i>
   </energy>
  </scstep>
  <scstep>
   <time name="dav">   27.59   27.66</time>
   <time name="total">   28.10   28.18</time>
   <energy>
    <i name="e_fr_energy">   -191.55406601 </i>
    <i name="e_wo_entrp">   -191.34301182 </i>
    <i name="e_0_energy">   -191.44853891 </i>
   </energy>
  </scstep>
  <scstep>
   <time name="dav">   27.57   27.63</time>
   <time name="total">   28.07   28.15</time>
   <energy>
    <i name="e_fr_energy">   -191.55253270 </i>
    <i name="e_wo_entrp">   -191.34095055 </i>
    <i name="e_0_energy">   -191.44674163 </i>
   </energy>
  </scstep>
  <scstep>
   <time name="dav">   25.61   25.67</time>
   <time name="total">   25.64   25.71</time>
   <energy>
    <i name="alphaZ">     90.10798246 </i>
    <i name="ewald">  44617.16852531 </i>
    <i name="hartreedc"> -50628.45236115 </i>
    <i name="XCdc">   -233.42801045 </i>
    <i name="pawpsdc">   4083.61255941 </i>
    <i name="pawaedc">  -3499.55446481 </i>
    <i name="eentropy">     -0.21157317 </i>
    <i name="bandstr">  -1382.23766590 </i>
    <i name="atom">   6761.44252427 </i>
    <i name="e_fr_energy">   -191.55248403 </i>
    <i name="e_wo_entrp">   -191.34091087 </i>
[...]
      <set comment="kpoint 31">
       <r>  -17.5313    1.0000 </r>
       <r>  -17.3056    1.0000 </r>
       <r>  -16.8903    1.0000 </r>
       <r>  -16.6457    1.0000 </r>
       <r>  -16.5469    1.0000 </r>
       <r>  -16.4303    1.0000 </r>
       <r>  -16.2854    1.0000 </r>
       <r>  -16.1679    1.0000 </r>
       <r>  -16.1112    1.0000 </r>
       <r>  -16.0290    1.0000 </r>
       <r>  -15.9425    1.0000 </r>
       <r>  -15.8707    1.0000 </r>
       <r>  -15.7930    1.0000 </r>
       <r>  -15.6749    1.0000 </r>
       <r>  -15.5908    1.0000 </r>
       <r>  -15.5062    1.0000 </r>
       <r>  -15.3479    1.0000 </r>
       <r>  -15.2773    1.0000 </r>
       <r>   -9.7591    1.0000 </r>
       <r>   -9.5004    1.0000 </r>
       <r>   -9.2681    1.0000 </r>
       <r>   -8.9854    1.0000 </r>
       <r>   -8.8361    1.0000 </r>
       <r>   -8.7687    1.0000 </r>
       <r>   -8.6043    1.0000 </r>
       <r>   -8.5501    1.0000 </r>
       <r>   -8.4267    1.0000 </r>
       <r>   -8.3502    1.0000 </r>
       <r>   -8.2659    1.0000 </r>
       <r>   -8.1652    1.0000 </r>
       <r>   -8.1326    1.0000 </r>
       <r>   -8.0802    1.0000 </r>
       <r>   -8.0001    1.0000 </r>
       <r>   -7.9475    1.0000 </r>
       <r>   -7.7669    1.0000 </r>
       <r>   -7.7005    1.0000 </r>
       <r>   -7.5603    1.0000 </r>
       <r>   -7.4001    1.0000 </r>
       <r>   -7.2931    1.0000 </r>
       <r>   -7.2535    1.0000 </r>
       <r>   -7.1628    1.0000 </r>
       <r>   -7.0773    1.0000 </r>
       <r>   -6.9888    1.0000 </r>
       <r>   -6.9542    1.0000 </r>
       <r>   -6.8834    1.0000 </r>
       <r>   -6.7835    1.0000 </r>
       <r>   -6.6462    1.0000 </r>
       <r>   -6.5990    1.0000 </r>
       <r>   -6.4987    1.0000 </r>
       <r>   -6.4657    1.0000 </r>
       <r>   -6.4097    1.0000 </r>
       <r>   -6.3437    1.0000 </r>
       <r>   -6.2863    1.0000 </r>
       <r>   -6.1717    1.0000 </r>
       <r>   -6.1054    1.0000 </r>
       <r>   -6.0612    1.0000 </r>
       <r>   -6.0098    1.0000 </r>
       <r>   -5.9156    1.0000 </r>
       <r>   -5.8107    1.0000 </r>
       <r>   -5.7533    1.0000 </r>
       <r>   -5.6391    1.0000 </r>
       <r>   -5.5453    1.0000 </r>
       <r>   -5.4888    1.0000 </r>
       <r>   -5.4343    1.0000 </r>
       <r>   -5.3093    1.0000 </r>
       <r>   -5.1492    1.0000 </r>
       <r>   -5.0965    1.0000 </r>
       <r>   -4.9476    1.0000 </r>
       <r>   -4.7908    1.0000 </r>
       <r>   -4.6746    1.0000 </r>
       <r>   -4.5921    1.0000 </r>
       <r>   -4.3787    1.0000 </r>
       <r>   -4.3483    1.0000 </r>
       <r>   -4.1663    1.0000 </r>
       <r>   -4.0541    1.0000 </r>
       <r>   -3.8389    1.0000 </r>
       <r>   -3.7229    0.9997 </r>
       <r>   -3.6791    0.9992 </r>
       <r>   -3.5990    0.9953 </r>
       <r>   -3.1907    0.3872 </r>
       <r>   -3.0803    0.1428 </r>
       <r>   -2.8764    0.0060 </r>
       <r>   -2.7461    0.0003 </r>
       <r>   -2.5489    0.0000 </r>
       <r>   -2.5275    0.0000 </r>
       <r>   -2.4360    0.0000 </r>
       <r>   -2.2239    0.0000 </r>
       <r>   -2.0807    0.0000 </r>
       <r>   -2.0103    0.0000 </r>
       <r>   -1.7478    0.0000 </r>
       <r>   -1.6996    0.0000 </r>
       <r>   -1.5230    0.0000 </r>
       <r>   -1.3863    0.0000 </r>
       <r>   -1.3287    0.0000 </r>
       <r>   -1.2494    0.0000 </r>
       <r>   -1.1728    0.0000 </r>
       <r>   -1.0388    0.0000 </r>
       <r>   -0.9894    0.0000 </r>
       <r>   -0.9036    0.0000 </r>
       <r>   -0.8970    0.0000 </r>
       <r>   -0.8610    0.0000 </r>
       <r>   -0.7339    0.0000 </r>
       <r>   -0.6516    0.0000 </r>
       <r>   -0.6154    0.0000 </r>
       <r>   -0.5149    0.0000 </r>
       <r>   -0.3898    0.0000 </r>
       <r>   -0.3447    0.0000 </r>
       <r>   -0.1404    0.0000 </r>
       <r>    0.0497    0.0000 </r>
       <r>    0.2721    0.0000 </r>
       <r>    0.3606    0.0000 </r>
       <r>    0.6343    0.0000 </r>
       <r>    0.8490    0.0000 </r>
       <r>    0.9917    0.0000 </r>
       <r>    1.1405    0.0000 </r>
       <r>    1.2532    0.0000 </r>
       <r>    1.4341    0.0000 </r>
       <r>    2.1406    0.0000 </r>
       <r>    2.3015    0.0000 </r>
       <r>    2.3942    0.0000 </r>
      </set>
      <set comment="kpoint 32">
       <r>  -17.5453    1.0000 </r>
       <r>  -17.2505    1.0000 </r>
       <r>  -16.9799    1.0000 </r>
       <r>  -16.6386    1.0000 </r>
       <r>  -16.5462    1.0000 </r>
       <r>  -16.3295    1.0000 </r>
       <r>  -16.2539    1.0000 </r>
       <r>  -16.1995    1.0000 </r>
       <r>  -16.1055    1.0000 </r>
       <r>  -16.0817    1.0000 </r>
       <r>  -15.9726    1.0000 </r>
       <r>  -15.8727    1.0000 </r>
       <r>  -15.8041    1.0000 </r>
       <r>  -15.6726    1.0000 </r>
       <r>  -15.5757    1.0000 </r>
       <r>  -15.4901    1.0000 </r>
       <r>  -15.3487    1.0000 </r>
       <r>  -15.2798    1.0000 </r>
       <r>   -9.6929    1.0000 </r>
       <r>   -9.6018    1.0000 </r>
       <r>   -9.3365    1.0000 </r>
       <r>   -8.9543    1.0000 </r>
       <r>   -8.7606    1.0000 </r>
       <r>   -8.6492    1.0000 </r>
       <r>   -8.5944    1.0000 </r>
       <r>   -8.4717    1.0000 </r>
       <r>   -8.4097    1.0000 </r>
       <r>   -8.3360    1.0000 </r>
       <r>   -8.3291    1.0000 </r>
       <r>   -8.2521    1.0000 </r>
       <r>   -8.1767    1.0000 </r>
       <r>   -8.1106    1.0000 </r>
       <r>   -8.0611    1.0000 </r>
       <r>   -7.9695    1.0000 </r>
       <r>   -7.8247    1.0000 </r>
       <r>   -7.6274    1.0000 </r>
       <r>   -7.5170    1.0000 </r>
       <r>   -7.4300    1.0000 </r>
       <r>   -7.2893    1.0000 </r>
       <r>   -7.1990    1.0000 </r>
       <r>   -7.1558    1.0000 </r>
       <r>   -7.0939    1.0000 </r>
       <r>   -7.0020    1.0000 </r>
       <r>   -6.9554    1.0000 </r>
       <r>   -6.9061    1.0000 </r>
       <r>   -6.7982    1.0000 </r>
       <r>   -6.6987    1.0000 </r>
       <r>   -6.5918    1.0000 </r>
       <r>   -6.5221    1.0000 </r>
       <r>   -6.4595    1.0000 </r>
       <r>   -6.4285    1.0000 </r>
       <r>   -6.3364    1.0000 </r>
       <r>   -6.2836    1.0000 </r>
       <r>   -6.1399    1.0000 </r>
       <r>   -6.1059    1.0000 </r>
       <r>   -6.0195    1.0000 </r>
       <r>   -5.9602    1.0000 </r>
       <r>   -5.8959    1.0000 </r>
       <r>   -5.7356    1.0000 </r>
       <r>   -5.7161    1.0000 </r>
       <r>   -5.6521    1.0000 </r>
       <r>   -5.5862    1.0000 </r>
       <r>   -5.5382    1.0000 </r>
       <r>   -5.4290    1.0000 </r>
       <r>   -5.3109    1.0000 </r>
       <r>   -5.1372    1.0000 </r>
       <r>   -5.0577    1.0000 </r>
       <r>   -4.9204    1.0000 </r>
       <r>   -4.8654    1.0000 </r>
       <r>   -4.7467    1.0000 </r>
       <r>   -4.6470    1.0000 </r>
       <r>   -4.3755    1.0000 </r>
       <r>   -4.3297    1.0000 </r>
       <r>   -4.1658    1.0000 </r>
       <r>   -4.0455    1.0000 </r>
       <r>   -3.8303    1.0000 </r>
       <r>   -3.7401    0.9998 </r>
       <r>   -3.6340    0.9978 </r>
       <r>   -3.5783    0.9929 </r>
       <r>   -3.2153    0.4550 </r>
       <r>   -3.0406    0.0888 </r>
       <r>   -2.8369    0.0026 </r>
       <r>   -2.7729    0.0006 </r>
       <r>   -2.5809    0.0000 </r>
       <r>   -2.5349    0.0000 </r>
       <r>   -2.4297    0.0000 </r>
       <r>   -2.2258    0.0000 </r>
       <r>   -2.0865    0.0000 </r>
       <r>   -1.9834    0.0000 </r>
       <r>   -1.7993    0.0000 </r>
       <r>   -1.7061    0.0000 </r>
       <r>   -1.5478    0.0000 </r>
       <r>   -1.3850    0.0000 </r>
       <r>   -1.3364    0.0000 </r>
       <r>   -1.2253    0.0000 </r>
       <r>   -1.1241    0.0000 </r>
       <r>   -1.0520    0.0000 </r>
       <r>   -0.9863    0.0000 </r>
       <r>   -0.9304    0.0000 </r>
       <r>   -0.8617    0.0000 </r>
       <r>   -0.8231    0.0000 </r>
       <r>   -0.7605    0.0000 </r>
       <r>   -0.6702    0.0000 </r>
       <r>   -0.6117    0.0000 </r>
       <r>   -0.4755    0.0000 </r>
       <r>   -0.3770    0.0000 </r>
       <r>   -0.2781    0.0000 </r>
       <r>   -0.1226    0.0000 </r>
       <r>    0.0512    0.0000 </r>
       <r>    0.1946    0.0000 </r>
       <r>    0.3455    0.0000 </r>
       <r>    0.5570    0.0000 </r>
       <r>    0.7864    0.0000 </r>
       <r>    0.9810    0.0000 </r>
       <r>    1.1825    0.0000 </r>
       <r>    1.2702    0.0000 </r>
       <r>    1.4588    0.0000 </r>
       <r>    2.1099    0.0000 </r>
       <r>    2.2679    0.0000 </r>
       <r>    2.5609    0.0000 </r>
      </set>
      <set comment="kpoint 33">
       <r>  -17.5326    1.0000 </r>
       <r>  -17.3023    1.0000 </r>
       <r>  -16.8895    1.0000 </r>
       <r>  -16.6439    1.0000 </r>
       <r>  -16.5621    1.0000 </r>
       <r>  -16.4336    1.0000 </r>
       <r>  -16.2456    1.0000 </r>
       <r>  -16.1901    1.0000 </r>
       <r>  -16.0897    1.0000 </r>
       <r>  -16.0804    1.0000 </r>
       <r>  -15.9043    1.0000 </r>
       <r>  -15.8637    1.0000 </r>
       <r>  -15.8022    1.0000 </r>
       <r>  -15.6803    1.0000 </r>
       <r>  -15.6150    1.0000 </r>
       <r>  -15.4782    1.0000 </r>
       <r>  -15.3507    1.0000 </r>
       <r>  -15.2830    1.0000 </r>
       <r>   -9.7619    1.0000 </r>
       <r>   -9.4900    1.0000 </r>
       <r>   -9.2928    1.0000 </r>
       <r>   -8.9286    1.0000 </r>
       <r>   -8.8638    1.0000 </r>
       <r>   -8.7310    1.0000 </r>
       <r>   -8.6412    1.0000 </r>
       <r>   -8.5401    1.0000 </r>
       <r>   -8.4270    1.0000 </r>
       <r>   -8.3381    1.0000 </r>
       <r>   -8.3044    1.0000 </r>
       <r>   -8.1764    1.0000 </r>
       <r>   -8.1329    1.0000 </r>
       <r>   -8.0491    1.0000 </r>
       <r>   -8.0113    1.0000 </r>
       <r>   -7.9117    1.0000 </r>
       <r>   -7.8151    1.0000 </r>
       <r>   -7.6503    1.0000 </r>
       <r>   -7.5316    1.0000 </r>
       <r>   -7.4467    1.0000 </r>
       <r>   -7.3800    1.0000 </r>
       <r>   -7.2561    1.0000 </r>
       <r>   -7.1830    1.0000 </r>
       <r>   -7.0491    1.0000 </r>
       <r>   -6.9841    1.0000 </r>
       <r>   -6.9218    1.0000 </r>
       <r>   -6.8807    1.0000 </r>
       <r>   -6.7784    1.0000 </r>
       <r>   -6.6995    1.0000 </r>
       <r>   -6.5833    1.0000 </r>
       <r>   -6.4951    1.0000 </r>
       <r>   -6.4430    1.0000 </r>
       <r>   -6.4063    1.0000 </r>
       <r>   -6.3450    1.0000 </r>
       <r>   -6.2658    1.0000 </r>
       <r>   -6.1652    1.0000 </r>
       <r>   -6.1257    1.0000 </r>
       <r>   -6.0664    1.0000 </r>
       <r>   -5.9894    1.0000 </r>
       <r>   -5.8797    1.0000 </r>
       <r>   -5.8463    1.0000 </r>
       <r>   -5.7393    1.0000 </r>
       <r>   -5.6648    1.0000 </r>
       <r>   -5.5704    1.0000 </r>
       <r>   -5.4920    1.0000 </r>
       <r>   -5.4179    1.0000 </r>
       <r>   -5.3094    1.0000 </r>
       <r>   -5.1482    1.0000 </r>
       <r>   -5.0763    1.0000 </r>
       <r>   -4.9569    1.0000 </r>
       <r>   -4.7907    1.0000 </r>
       <r>   -4.6450    1.0000 </r>
       <r>   -4.6115    1.0000 </r>
       <r>   -4.3994    1.0000 </r>
       <r>   -4.3332    1.0000 </r>
       <r>   -4.1784    1.0000 </r>
       <r>   -4.0349    1.0000 </r>
       <r>   -3.8586    1.0000 </r>
       <r>   -3.7738    0.9999 </r>
       <r>   -3.6371    0.9979 </r>
       <r>   -3.5588    0.9897 </r>
       <r>   -3.2344    0.5088 </r>
       <r>   -3.0337    0.0812 </r>
       <r>   -2.8525    0.0037 </r>
       <r>   -2.7650    0.0005 </r>
       <r>   -2.5987    0.0000 </r>
       <r>   -2.5253    0.0000 </r>
       <r>   -2.4164    0.0000 </r>
       <r>   -2.2066    0.0000 </r>
       <r>   -2.0679    0.0000 </r>
       <r>   -1.9595    0.0000 </r>
       <r>   -1.8176    0.0000 </r>
       <r>   -1.7270    0.0000 </r>
       <r>   -1.5697    0.0000 </r>
       <r>   -1.3723    0.0000 </r>
       <r>   -1.3295    0.0000 </r>
       <r>   -1.2021    0.0000 </r>
       <r>   -1.0998    0.0000 </r>
       <r>   -1.0839    0.0000 </r>
       <r>   -1.0039    0.0000 </r>
       <r>   -0.9605    0.0000 </r>
       <r>   -0.8586    0.0000 </r>
       <r>   -0.7844    0.0000 </r>
       <r>   -0.7330    0.0000 </r>
       <r>   -0.6796    0.0000 </r>
       <r>   -0.5989    0.0000 </r>
       <r>   -0.4832    0.0000 </r>
       <r>   -0.4038    0.0000 </r>
       <r>   -0.2637    0.0000 </r>
       <r>   -0.0988    0.0000 </r>
       <r>    0.0304    0.0000 </r>
       <r>    0.1854    0.0000 </r>
       <r>    0.3129    0.0000 </r>
       <r>    0.5405    0.0000 </r>
       <r>    0.7590    0.0000 </r>
       <r>    0.9610    0.0000 </r>
       <r>    1.1869    0.0000 </r>
       <r>    1.3490    0.0000 </r>
       <r>    1.4721    0.0000 </r>
       <r>    2.1423    0.0000 </r>
       <r>    2.2993    0.0000 </r>
       <r>    2.3955    0.0000 </r>
      </set>
      <set comment="kpoint 34">
       <r>  -17.5156    1.0000 </r>
       <r>  -17.3477    1.0000 </r>
       <r>  -16.7323    1.0000 </r>
       <r>  -16.7200    1.0000 </r>
       <r>  -16.5931    1.0000 </r>
       <r>  -16.4996    1.0000 </r>
       <r>  -16.2473    1.0000 </r>
       <r>  -16.1875    1.0000 </r>
       <r>  -16.0860    1.0000 </r>
       <r>  -16.0734    1.0000 </r>
       <r>  -15.8611    1.0000 </r>
       <r>  -15.8438    1.0000 </r>
       <r>  -15.7655    1.0000 </r>
       <r>  -15.6982    1.0000 </r>
       <r>  -15.6650    1.0000 </r>
       <r>  -15.4752    1.0000 </r>
       <r>  -15.3518    1.0000 </r>
       <r>  -15.2844    1.0000 </r>
       <r>   -9.7976    1.0000 </r>
       <r>   -9.3858    1.0000 </r>
       <r>   -9.2457    1.0000 </r>
       <r>   -8.9809    1.0000 </r>
       <r>   -8.9092    1.0000 </r>
       <r>   -8.8143    1.0000 </r>
       <r>   -8.6874    1.0000 </r>
       <r>   -8.5446    1.0000 </r>
       <r>   -8.4455    1.0000 </r>
       <r>   -8.3266    1.0000 </r>
       <r>   -8.3241    1.0000 </r>
       <r>   -8.1647    1.0000 </r>
       <r>   -8.1189    1.0000 </r>
       <r>   -7.9493    1.0000 </r>
       <r>   -7.9295    1.0000 </r>
       <r>   -7.8653    1.0000 </r>
       <r>   -7.7832    1.0000 </r>
       <r>   -7.6221    1.0000 </r>
       <r>   -7.5839    1.0000 </r>
       <r>   -7.5500    1.0000 </r>
       <r>   -7.3985    1.0000 </r>
       <r>   -7.2641    1.0000 </r>
       <r>   -7.2578    1.0000 </r>
       <r>   -7.0015    1.0000 </r>
       <r>   -6.9869    1.0000 </r>
       <r>   -6.9153    1.0000 </r>
       <r>   -6.8572    1.0000 </r>
       <r>   -6.7230    1.0000 </r>
       <r>   -6.6164    1.0000 </r>
       <r>   -6.5774    1.0000 </r>
       <r>   -6.5053    1.0000 </r>
       <r>   -6.4479    1.0000 </r>
       <r>   -6.3966    1.0000 </r>
       <r>   -6.3561    1.0000 </r>
       <r>   -6.3229    1.0000 </r>
       <r>   -6.2224    1.0000 </r>
       <r>   -6.1237    1.0000 </r>
       <r>   -6.0676    1.0000 </r>
       <r>   -6.0394    1.0000 </r>
       <r>   -5.8467    1.0000 </r>
       <r>   -5.8300    1.0000 </r>
       <r>   -5.7715    1.0000 </r>
       <r>   -5.7057    1.0000 </r>
       <r>   -5.5496    1.0000 </r>
       <r>   -5.5255    1.0000 </r>
       <r>   -5.4378    1.0000 </r>
       <r>   -5.3027    1.0000 </r>
       <r>   -5.1247    1.0000 </r>
       <r>   -5.0274    1.0000 </r>
       <r>   -5.0137    1.0000 </r>
       <r>   -4.7613    1.0000 </r>
       <r>   -4.5899    1.0000 </r>
       <r>   -4.5152    1.0000 </r>
       <r>   -4.4267    1.0000 </r>
       <r>   -4.3261    1.0000 </r>
       <r>   -4.2147    1.0000 </r>
       <r>   -4.0219    1.0000 </r>
       <r>   -3.8755    1.0000 </r>
       <r>   -3.8157    1.0000 </r>
       <r>   -3.6396    0.9981 </r>
       <r>   -3.5533    0.9886 </r>
       <r>   -3.2418    0.5297 </r>
       <r>   -3.0371    0.0849 </r>
       <r>   -2.8742    0.0058 </r>
       <r>   -2.7547    0.0004 </r>
       <r>   -2.6028    0.0000 </r>
       <r>   -2.5163    0.0000 </r>
       <r>   -2.4068    0.0000 </r>
       <r>   -2.1938    0.0000 </r>
       <r>   -2.0494    0.0000 </r>
       <r>   -1.9539    0.0000 </r>
       <r>   -1.8175    0.0000 </r>
       <r>   -1.7389    0.0000 </r>
       <r>   -1.5760    0.0000 </r>
       <r>   -1.3642    0.0000 </r>
       <r>   -1.3245    0.0000 </r>
       <r>   -1.1773    0.0000 </r>
       <r>   -1.1446    0.0000 </r>
       <r>   -1.0696    0.0000 </r>
       <r>   -1.0218    0.0000 </r>
       <r>   -0.9706    0.0000 </r>
       <r>   -0.8542    0.0000 </r>
       <r>   -0.7633    0.0000 </r>
       <r>   -0.7275    0.0000 </r>
       <r>   -0.6654    0.0000 </r>
       <r>   -0.5947    0.0000 </r>
       <r>   -0.4919    0.0000 </r>
       <r>   -0.4434    0.0000 </r>
       <r>   -0.2743    0.0000 </r>
       <r>   -0.0821    0.0000 </r>
       <r>    0.0049    0.0000 </r>
       <r>    0.2040    0.0000 </r>
       <r>    0.3108    0.0000 </r>
       <r>    0.5411    0.0000 </r>
       <r>    0.7577    0.0000 </r>
       <r>    0.9497    0.0000 </r>
       <r>    1.1942    0.0000 </r>
       <r>    1.3786    0.0000 </r>
       <r>    1.4816    0.0000 </r>
       <r>    2.2301    0.0000 </r>
       <r>    2.2478    0.0000 </r>
       <r>    2.3768    0.0000 </r>
      </set>
     </set>
    </set>
   </array>
  </eigenvalues>
  <separator name="orbital magnetization" >
   <v name="MAGDIPOLOUT">      0.00000000      0.00000000      0.00000000</v>
  </separator>
 </calculation>
 <structure name="finalpos" >
  <crystal>
   <varray name="basis" >
    <v>       8.33563498       4.85443038       0.00000000 </v>
    <v>      -8.29539179       4.78482700       0.00000000 </v>
    <v>       0.00000000       0.00000000      30.00000000 </v>
   </varray>
   <i name="volume">   2404.61919707 </i>
   <varray name="rec_basis" >
    <v>       0.05969544       0.10349321       0.00000000 </v>
    <v>      -0.06056381       0.10399528       0.00000000 </v>
    <v>       0.00000000       0.00000000       0.03333333 </v>
   </varray>
  </crystal>
  <varray name="positions" >
   <v>       0.33595624       0.33413268      -0.00074239 </v>
   <v>       0.03374983       0.67532047      -0.00017090 </v>
   <v>       1.03306154       0.35058263      -0.00039756 </v>
   <v>       0.34393142       0.68300003      -0.00088422 </v>
   <v>       0.62873532       0.30882133       0.00100587 </v>
   <v>       0.63068548      -0.01290570       0.00059241 </v>
   <v>       0.03148378       0.02584447       0.00081801 </v>
   <v>       0.34698971      -0.00553050      -0.00120838 </v>
   <v>       0.62733501       0.64643989       0.00106522 </v>
   <v>       0.11667730       0.22975466       0.94698602 </v>
   <v>       0.23454658       0.11874666       0.05212954 </v>
   <v>       0.11076308       0.55425320       0.94759791 </v>
   <v>       0.22784203       0.44591124       0.05032632 </v>
   <v>       0.10910234       0.88382812       0.94892678 </v>
   <v>       0.22469318       0.77953539       0.05391347 </v>
   <v>       0.43147901       0.21663178       0.94588843 </v>
   <v>       0.55203800       0.10829623       0.05667850 </v>
   <v>       0.43438695       0.54715004       0.94567554 </v>
   <v>       0.54393460       0.43869282       0.05460572 </v>
   <v>       0.44161893       0.88748694       0.94185040 </v>
   <v>       0.55435569       0.77823558       0.05577993 </v>
   <v>       0.78171719       0.22523704       0.95439288 </v>
   <v>       0.88743312       0.11658240       0.04591918 </v>
   <v>       0.78094928       0.55709967       0.95626543 </v>
   <v>       0.89032507       0.44389209       0.04450541 </v>
   <v>       0.77764568       0.88821066       0.95457405 </v>
   <v>       0.88677809       0.77296466       0.04390635 </v>
  </varray>
 </structure>
</modeling>
