   27   27  100    1
  0.9710400E+02  0.1002848E-08  0.1002848E-08  0.3000000E-08  0.5000000E-15
  1.000000000000000E-004
  CAR 
 unknown system                          
    159     34    120
 
  0.0000000E+00  0.0000000E+00  0.0000000E+00  0.1562500E-01
    1      -17.810789   1.000000
    2      -16.710582   1.000000
    3      -16.645141   1.000000
    4      -16.583047   1.000000
    5      -16.528229   1.000000
    6      -16.478606   1.000000
    7      -16.398431   1.000000
    8      -16.249827   1.000000
    9      -16.130141   1.000000
   10      -16.089578   1.000000
   11      -16.075988   1.000000
   12      -15.942355   1.000000
   13      -15.921124   1.000000
   14      -15.756636   1.000000
   15      -15.579013   1.000000
   16      -15.549783   1.000000
   17      -15.397915   1.000000
   18      -15.330023   1.000000
   19       -9.307557   1.000000
   20       -8.975182   1.000000
   21       -8.941936   1.000000
   22       -8.829978   1.000000
   23       -8.758836   1.000000
   24       -8.672904   1.000000
   25       -8.652331   1.000000
   26       -8.602367   1.000000
   27       -8.495745   1.000000
   28       -8.493198   1.000000
   29       -8.433033   1.000000
   30       -8.405225   1.000000
   31       -8.255081   1.000000
   32       -8.116857   1.000000
   33       -8.071935   1.000000
   34       -7.953617   1.000000
   35       -7.815070   1.000000
   36       -7.782976   1.000000
   37       -7.719759   1.000000
   38       -7.514143   1.000000
   39       -7.508200   1.000000
   40       -7.406801   1.000000
   41       -7.359785   1.000000
   42       -7.317857   1.000000
   43       -7.108221   1.000000
   44       -6.881744   1.000000
   45       -6.844805   1.000000
   46       -6.782381   1.000000
   47       -6.767660   1.000000
   48       -6.558976   1.000000
   49       -6.518942   1.000000
   50       -6.448295   1.000000
   51       -6.422598   1.000000
   52       -6.374960   1.000000
   53       -6.349634   1.000000
   54       -6.335612   1.000000
   55       -6.242574   1.000000
   56       -6.164940   1.000000
   57       -6.109815   1.000000
   58       -5.987446   1.000000
   59       -5.777109   1.000000
   60       -5.621422   1.000000
   61       -5.354559   1.000000
   62       -5.327134   1.000000
   63       -5.276492   1.000000
   64       -5.187292   1.000000
   65       -5.035007   1.000000
   66       -4.998611   1.000000
   67       -4.940886   1.000000
   68       -4.871788   1.000000
   69       -4.825848   1.000000
   70       -4.705573   1.000000
   71       -4.678251   1.000000
   72       -4.589682   1.000000
   73       -4.570583   1.000000
   74       -4.333126   1.000000
   75       -4.116941   1.000000
   76       -3.929385   1.000000
   77       -3.710828   0.999865
   78       -3.576031   0.996419
   79       -3.425765   0.948102
   80       -3.386974   0.911880
   81       -3.229866   0.595417
   82       -2.899816   0.018206
   83       -2.879477   0.012672
   84       -2.699495   0.000225
   85       -2.570800   0.000005
   86       -2.474277   0.000000
   87       -2.426148   0.000000
   88       -2.284049   0.000000
   89       -2.159857   0.000000
   90       -2.111463   0.000000
   91       -1.785774   0.000000
   92       -1.680432   0.000000
   93       -1.556849   0.000000
   94       -1.413191   0.000000
   95       -1.205746   0.000000
   96       -0.983618   0.000000
   97       -0.883751   0.000000
   98       -0.873760   0.000000
   99       -0.767824   0.000000
  100       -0.572058   0.000000
  101       -0.527439   0.000000
  102       -0.481350   0.000000
  103       -0.397679   0.000000
  104       -0.367019   0.000000
  105       -0.200242   0.000000
  106       -0.160710   0.000000
  107       -0.106318   0.000000
  108        0.026893   0.000000
  109        0.215109   0.000000
  110        0.262070   0.000000
  111        0.272459   0.000000
  112        0.429673   0.000000
  113        0.819426   0.000000
  114        0.874575   0.000000
  115        0.914574   0.000000
  116        1.070714   0.000000
  117        1.188646   0.000000
  118        1.646834   0.000000
  119        1.832928   0.000000
  120        2.157201   0.000000
 
  0.1250000E+00  0.2775558E-16  0.0000000E+00  0.3125000E-01
    1      -17.786351   1.000000
    2      -16.769090   1.000000
    3      -16.700974   1.000000
    4      -16.618963   1.000000
    5      -16.550016   1.000000
    6      -16.437549   1.000000
    7      -16.370264   1.000000
    8      -16.251066   1.000000
    9      -16.122356   1.000000
   10      -16.062489   1.000000
   11      -16.021949   1.000000
   12      -15.952182   1.000000
   13      -15.884940   1.000000
   14      -15.746653   1.000000
   15      -15.592238   1.000000
   16      -15.549467   1.000000
   17      -15.415924   1.000000
   18      -15.333294   1.000000
   19       -9.307742   1.000000
   20       -9.118012   1.000000
   21       -9.022823   1.000000
   22       -8.928739   1.000000
   23       -8.795582   1.000000
   24       -8.697031   1.000000
   25       -8.670957   1.000000
   26       -8.611448   1.000000
   27       -8.512936   1.000000
   28       -8.500242   1.000000
   29       -8.388354   1.000000
   30       -8.256209   1.000000
   31       -8.163289   1.000000
   32       -8.051934   1.000000
   33       -7.979462   1.000000
   34       -7.889984   1.000000
   35       -7.809228   1.000000
   36       -7.718697   1.000000
   37       -7.682754   1.000000
   38       -7.553999   1.000000
   39       -7.501305   1.000000
   40       -7.437724   1.000000
   41       -7.330409   1.000000
   42       -7.259103   1.000000
   43       -7.161706   1.000000
   44       -6.941731   1.000000
   45       -6.836647   1.000000
   46       -6.804189   1.000000
   47       -6.724646   1.000000
   48       -6.628996   1.000000
   49       -6.515459   1.000000
   50       -6.463867   1.000000
   51       -6.453654   1.000000
   52       -6.386556   1.000000
   53       -6.336392   1.000000
   54       -6.299049   1.000000
   55       -6.230575   1.000000
   56       -6.157650   1.000000
   57       -6.074668   1.000000
   58       -5.983228   1.000000
   59       -5.737291   1.000000
   60       -5.581012   1.000000
   61       -5.429180   1.000000
   62       -5.325931   1.000000
   63       -5.271671   1.000000
   64       -5.224503   1.000000
   65       -5.163953   1.000000
   66       -5.048883   1.000000
   67       -4.985492   1.000000
   68       -4.939364   1.000000
   69       -4.825362   1.000000
   70       -4.686743   1.000000
   71       -4.653822   1.000000
   72       -4.557892   1.000000
   73       -4.486248   1.000000
   74       -4.221486   1.000000
   75       -4.096181   1.000000
   76       -3.875742   0.999999
   77       -3.774685   0.999979
   78       -3.663282   0.999527
   79       -3.588024   0.997232
   80       -3.319684   0.809650
   81       -3.079171   0.204949
   82       -2.888302   0.014863
   83       -2.871709   0.010980
   84       -2.697769   0.000215
   85       -2.582332   0.000007
   86       -2.473869   0.000000
   87       -2.411447   0.000000
   88       -2.282802   0.000000
   89       -2.157818   0.000000
   90       -2.113324   0.000000
   91       -1.780173   0.000000
   92       -1.677190   0.000000
   93       -1.548225   0.000000
   94       -1.400872   0.000000
   95       -1.196584   0.000000
   96       -0.982033   0.000000
   97       -0.902281   0.000000
   98       -0.867608   0.000000
   99       -0.778782   0.000000
  100       -0.617096   0.000000
  101       -0.594163   0.000000
  102       -0.546453   0.000000
  103       -0.498270   0.000000
  104       -0.394677   0.000000
  105       -0.301450   0.000000
  106       -0.191755   0.000000
  107       -0.125118   0.000000
  108        0.122478   0.000000
  109        0.206974   0.000000
  110        0.260169   0.000000
  111        0.321605   0.000000
  112        0.397947   0.000000
  113        0.676164   0.000000
  114        0.855274   0.000000
  115        1.062871   0.000000
  116        1.161052   0.000000
  117        1.211179   0.000000
  118        1.690999   0.000000
  119        1.872817   0.000000
  120        2.192284   0.000000
 
  0.2500000E+00  0.5551115E-16  0.0000000E+00  0.3125000E-01
    1      -17.714995   1.000000
    2      -16.969053   1.000000
    3      -16.717042   1.000000
    4      -16.664841   1.000000
    5      -16.596649   1.000000
    6      -16.385806   1.000000
    7      -16.365403   1.000000
    8      -16.191640   1.000000
    9      -16.097416   1.000000
   10      -16.028592   1.000000
   11      -16.002099   1.000000
   12      -15.900404   1.000000
   13      -15.809131   1.000000
   14      -15.729509   1.000000
   15      -15.610017   1.000000
   16      -15.555989   1.000000
   17      -15.450002   1.000000
   18      -15.349267   1.000000
   19       -9.480085   1.000000
   20       -9.231829   1.000000
   21       -9.129816   1.000000
   22       -9.017823   1.000000
   23       -8.923933   1.000000
   24       -8.796947   1.000000
   25       -8.626239   1.000000
   26       -8.562970   1.000000
   27       -8.483157   1.000000
   28       -8.411518   1.000000
   29       -8.316470   1.000000
   30       -8.183793   1.000000
   31       -8.111862   1.000000
   32       -8.045813   1.000000
   33       -7.892966   1.000000
   34       -7.776485   1.000000
   35       -7.744694   1.000000
   36       -7.635354   1.000000
   37       -7.606331   1.000000
   38       -7.531571   1.000000
   39       -7.433278   1.000000
   40       -7.367981   1.000000
   41       -7.311876   1.000000
   42       -7.232036   1.000000
   43       -7.130510   1.000000
   44       -6.989673   1.000000
   45       -6.868506   1.000000
   46       -6.772413   1.000000
   47       -6.713614   1.000000
   48       -6.648071   1.000000
   49       -6.573968   1.000000
   50       -6.529964   1.000000
   51       -6.464314   1.000000
   52       -6.406557   1.000000
   53       -6.320581   1.000000
   54       -6.255157   1.000000
   55       -6.172559   1.000000
   56       -6.100237   1.000000
   57       -6.009592   1.000000
   58       -5.932442   1.000000
   59       -5.690042   1.000000
   60       -5.653735   1.000000
   61       -5.564510   1.000000
   62       -5.553834   1.000000
   63       -5.403990   1.000000
   64       -5.317043   1.000000
   65       -5.218279   1.000000
   66       -5.088255   1.000000
   67       -5.031869   1.000000
   68       -4.920927   1.000000
   69       -4.777606   1.000000
   70       -4.683849   1.000000
   71       -4.552846   1.000000
   72       -4.475490   1.000000
   73       -4.370103   1.000000
   74       -4.244766   1.000000
   75       -4.077894   1.000000
   76       -3.981156   1.000000
   77       -3.887351   0.999999
   78       -3.681656   0.999705
   79       -3.494560   0.982707
   80       -3.254229   0.660479
   81       -2.984699   0.067837
   82       -2.865752   0.009819
   83       -2.833246   0.005188
   84       -2.695671   0.000203
   85       -2.601184   0.000013
   86       -2.488692   0.000000
   87       -2.376150   0.000000
   88       -2.266146   0.000000
   89       -2.168707   0.000000
   90       -2.085082   0.000000
   91       -1.762040   0.000000
   92       -1.671916   0.000000
   93       -1.531182   0.000000
   94       -1.369460   0.000000
   95       -1.176875   0.000000
   96       -1.018131   0.000000
   97       -0.945130   0.000000
   98       -0.896205   0.000000
   99       -0.840075   0.000000
  100       -0.743275   0.000000
  101       -0.698366   0.000000
  102       -0.662014   0.000000
  103       -0.607735   0.000000
  104       -0.500772   0.000000
  105       -0.389140   0.000000
  106       -0.240082   0.000000
  107       -0.173419   0.000000
  108        0.057432   0.000000
  109        0.104164   0.000000
  110        0.277034   0.000000
  111        0.354395   0.000000
  112        0.440033   0.000000
  113        0.610134   0.000000
  114        0.886894   0.000000
  115        1.199681   0.000000
  116        1.258700   0.000000
  117        1.340842   0.000000
  118        1.814176   0.000000
  119        1.986896   0.000000
  120        2.296296   0.000000
 
  0.3750000E+00  0.0000000E+00  0.0000000E+00  0.3125000E-01
    1      -17.606305   1.000000
    2      -17.172702   1.000000
    3      -16.752680   1.000000
    4      -16.667296   1.000000
    5      -16.628216   1.000000
    6      -16.408088   1.000000
    7      -16.331638   1.000000
    8      -16.127261   1.000000
    9      -16.073694   1.000000
   10      -16.015904   1.000000
   11      -15.946894   1.000000
   12      -15.874299   1.000000
   13      -15.778254   1.000000
   14      -15.710406   1.000000
   15      -15.624511   1.000000
   16      -15.558499   1.000000
   17      -15.454224   1.000000
   18      -15.378317   1.000000
   19       -9.691750   1.000000
   20       -9.301505   1.000000
   21       -9.177791   1.000000
   22       -9.044870   1.000000
   23       -8.972509   1.000000
   24       -8.875172   1.000000
   25       -8.579032   1.000000
   26       -8.493219   1.000000
   27       -8.419716   1.000000
   28       -8.319278   1.000000
   29       -8.308976   1.000000
   30       -8.202705   1.000000
   31       -8.122602   1.000000
   32       -8.006508   1.000000
   33       -7.940585   1.000000
   34       -7.813570   1.000000
   35       -7.739830   1.000000
   36       -7.648348   1.000000
   37       -7.573923   1.000000
   38       -7.462377   1.000000
   39       -7.358966   1.000000
   40       -7.268147   1.000000
   41       -7.180324   1.000000
   42       -7.148459   1.000000
   43       -7.038474   1.000000
   44       -6.963269   1.000000
   45       -6.856825   1.000000
   46       -6.766415   1.000000
   47       -6.671997   1.000000
   48       -6.625777   1.000000
   49       -6.606644   1.000000
   50       -6.557381   1.000000
   51       -6.386239   1.000000
   52       -6.345706   1.000000
   53       -6.304488   1.000000
   54       -6.198978   1.000000
   55       -6.113946   1.000000
   56       -6.061751   1.000000
   57       -5.972715   1.000000
   58       -5.950732   1.000000
   59       -5.890659   1.000000
   60       -5.772222   1.000000
   61       -5.748993   1.000000
   62       -5.660353   1.000000
   63       -5.593682   1.000000
   64       -5.350413   1.000000
   65       -5.254765   1.000000
   66       -5.032138   1.000000
   67       -4.989089   1.000000
   68       -4.870061   1.000000
   69       -4.808474   1.000000
   70       -4.699713   1.000000
   71       -4.605843   1.000000
   72       -4.451348   1.000000
   73       -4.360328   1.000000
   74       -4.281306   1.000000
   75       -4.191775   1.000000
   76       -3.887837   1.000000
   77       -3.846123   0.999998
   78       -3.686975   0.999743
   79       -3.300219   0.770038
   80       -3.228742   0.592334
   81       -2.969671   0.054982
   82       -2.848573   0.007051
   83       -2.815152   0.003562
   84       -2.704505   0.000257
   85       -2.615261   0.000020
   86       -2.497457   0.000000
   87       -2.346544   0.000000
   88       -2.230230   0.000000
   89       -2.175381   0.000000
   90       -2.038511   0.000000
   91       -1.728259   0.000000
   92       -1.673423   0.000000
   93       -1.517269   0.000000
   94       -1.341928   0.000000
   95       -1.193213   0.000000
   96       -1.095110   0.000000
   97       -1.041447   0.000000
   98       -0.980646   0.000000
   99       -0.877987   0.000000
  100       -0.815847   0.000000
  101       -0.792428   0.000000
  102       -0.713002   0.000000
  103       -0.655326   0.000000
  104       -0.556530   0.000000
  105       -0.447706   0.000000
  106       -0.328740   0.000000
  107       -0.219396   0.000000
  108       -0.077651   0.000000
  109       -0.002234   0.000000
  110        0.270853   0.000000
  111        0.358227   0.000000
  112        0.464539   0.000000
  113        0.646691   0.000000
  114        0.957504   0.000000
  115        1.296371   0.000000
  116        1.319473   0.000000
  117        1.472181   0.000000
  118        1.997490   0.000000
  119        2.162751   0.000000
  120        2.463127   0.000000
 
  0.5000000E+00  0.1110223E-15  0.0000000E+00  0.1562500E-01
    1      -17.522547   1.000000
    2      -17.290257   1.000000
    3      -16.767322   1.000000
    4      -16.667819   1.000000
    5      -16.635805   1.000000
    6      -16.419700   1.000000
    7      -16.319902   1.000000
    8      -16.121232   1.000000
    9      -16.042927   1.000000
   10      -15.997933   1.000000
   11      -15.933732   1.000000
   12      -15.861452   1.000000
   13      -15.759824   1.000000
   14      -15.739632   1.000000
   15      -15.621146   1.000000
   16      -15.561488   1.000000
   17      -15.430017   1.000000
   18      -15.404380   1.000000
   19       -9.769873   1.000000
   20       -9.335870   1.000000
   21       -9.198776   1.000000
   22       -9.069061   1.000000
   23       -8.951825   1.000000
   24       -8.884671   1.000000
   25       -8.554373   1.000000
   26       -8.503337   1.000000
   27       -8.414478   1.000000
   28       -8.284573   1.000000
   29       -8.266921   1.000000
   30       -8.191392   1.000000
   31       -8.123377   1.000000
   32       -7.991641   1.000000
   33       -7.968949   1.000000
   34       -7.855919   1.000000
   35       -7.762443   1.000000
   36       -7.718837   1.000000
   37       -7.555482   1.000000
   38       -7.433322   1.000000
   39       -7.353661   1.000000
   40       -7.242868   1.000000
   41       -7.143118   1.000000
   42       -7.055175   1.000000
   43       -6.992970   1.000000
   44       -6.900698   1.000000
   45       -6.775104   1.000000
   46       -6.727164   1.000000
   47       -6.687404   1.000000
   48       -6.635998   1.000000
   49       -6.574455   1.000000
   50       -6.481507   1.000000
   51       -6.432039   1.000000
   52       -6.362445   1.000000
   53       -6.297156   1.000000
   54       -6.257978   1.000000
   55       -6.162984   1.000000
   56       -6.094005   1.000000
   57       -5.963916   1.000000
   58       -5.938847   1.000000
   59       -5.870067   1.000000
   60       -5.765421   1.000000
   61       -5.721742   1.000000
   62       -5.674819   1.000000
   63       -5.610220   1.000000
   64       -5.466515   1.000000
   65       -5.362810   1.000000
   66       -5.073738   1.000000
   67       -5.000716   1.000000
   68       -4.899125   1.000000
   69       -4.839002   1.000000
   70       -4.648626   1.000000
   71       -4.592749   1.000000
   72       -4.427399   1.000000
   73       -4.340446   1.000000
   74       -4.302368   1.000000
   75       -4.247546   1.000000
   76       -3.841059   0.999997
   77       -3.758029   0.999965
   78       -3.732254   0.999926
   79       -3.248538   0.645623
   80       -3.175723   0.443796
   81       -2.973027   0.057672
   82       -2.858284   0.008517
   83       -2.813174   0.003416
   84       -2.725614   0.000444
   85       -2.607385   0.000016
   86       -2.497976   0.000000
   87       -2.334736   0.000000
   88       -2.211301   0.000000
   89       -2.175256   0.000000
   90       -2.016066   0.000000
   91       -1.702770   0.000000
   92       -1.680494   0.000000
   93       -1.510954   0.000000
   94       -1.332717   0.000000
   95       -1.229760   0.000000
   96       -1.135258   0.000000
   97       -1.085001   0.000000
   98       -1.019028   0.000000
   99       -0.877051   0.000000
  100       -0.847993   0.000000
  101       -0.822614   0.000000
  102       -0.715767   0.000000
  103       -0.663742   0.000000
  104       -0.567853   0.000000
  105       -0.499361   0.000000
  106       -0.352118   0.000000
  107       -0.244949   0.000000
  108       -0.141415   0.000000
  109       -0.036091   0.000000
  110        0.267171   0.000000
  111        0.366312   0.000000
  112        0.458887   0.000000
  113        0.671215   0.000000
  114        0.986875   0.000000
  115        1.329957   0.000000
  116        1.346915   0.000000
  117        1.520424   0.000000
  118        2.208345   0.000000
  119        2.250898   0.000000
  120        2.380482   0.000000
 
  0.0000000E+00  0.1250000E+00  0.0000000E+00  0.3125000E-01
    1      -17.785333   1.000000
    2      -16.780428   1.000000
    3      -16.696749   1.000000
    4      -16.626775   1.000000
    5      -16.537061   1.000000
    6      -16.410289   1.000000
    7      -16.371193   1.000000
    8      -16.274186   1.000000
    9      -16.146206   1.000000
   10      -16.078385   1.000000
   11      -16.010618   1.000000
   12      -15.931305   1.000000
   13      -15.875605   1.000000
   14      -15.748315   1.000000
   15      -15.594869   1.000000
   16      -15.547109   1.000000
   17      -15.411763   1.000000
   18      -15.338750   1.000000
   19       -9.292688   1.000000
   20       -9.177045   1.000000
   21       -9.043758   1.000000
   22       -8.912664   1.000000
   23       -8.766457   1.000000
   24       -8.700182   1.000000
   25       -8.662389   1.000000
   26       -8.589239   1.000000
   27       -8.528695   1.000000
   28       -8.402627   1.000000
   29       -8.379087   1.000000
   30       -8.298897   1.000000
   31       -8.247425   1.000000
   32       -8.009536   1.000000
   33       -7.985440   1.000000
   34       -7.913808   1.000000
   35       -7.826271   1.000000
   36       -7.714443   1.000000
   37       -7.692971   1.000000
   38       -7.538674   1.000000
   39       -7.483710   1.000000
   40       -7.405902   1.000000
   41       -7.346655   1.000000
   42       -7.290985   1.000000
   43       -7.116194   1.000000
   44       -6.933738   1.000000
   45       -6.878475   1.000000
   46       -6.803713   1.000000
   47       -6.712478   1.000000
   48       -6.653737   1.000000
   49       -6.527440   1.000000
   50       -6.456822   1.000000
   51       -6.420604   1.000000
   52       -6.390405   1.000000
   53       -6.331904   1.000000
   54       -6.294220   1.000000
   55       -6.240033   1.000000
   56       -6.156652   1.000000
   57       -6.077333   1.000000
   58       -5.968915   1.000000
   59       -5.732232   1.000000
   60       -5.613077   1.000000
   61       -5.436043   1.000000
   62       -5.366452   1.000000
   63       -5.279348   1.000000
   64       -5.190476   1.000000
   65       -5.142572   1.000000
   66       -5.013559   1.000000
   67       -4.987751   1.000000
   68       -4.843983   1.000000
   69       -4.834968   1.000000
   70       -4.736423   1.000000
   71       -4.629347   1.000000
   72       -4.567284   1.000000
   73       -4.548217   1.000000
   74       -4.310148   1.000000
   75       -4.034982   1.000000
   76       -3.863513   0.999999
   77       -3.789937   0.999987
   78       -3.663351   0.999528
   79       -3.587349   0.997191
   80       -3.302704   0.775338
   81       -3.106353   0.263736
   82       -2.894568   0.016610
   83       -2.854666   0.007942
   84       -2.693328   0.000191
   85       -2.581182   0.000007
   86       -2.474186   0.000000
   87       -2.420357   0.000000
   88       -2.276447   0.000000
   89       -2.164511   0.000000
   90       -2.083912   0.000000
   91       -1.790150   0.000000
   92       -1.679381   0.000000
   93       -1.553261   0.000000
   94       -1.392510   0.000000
   95       -1.194874   0.000000
   96       -0.983633   0.000000
   97       -0.898235   0.000000
   98       -0.851162   0.000000
   99       -0.777914   0.000000
  100       -0.649193   0.000000
  101       -0.564502   0.000000
  102       -0.523351   0.000000
  103       -0.482900   0.000000
  104       -0.378159   0.000000
  105       -0.333922   0.000000
  106       -0.212809   0.000000
  107       -0.181228   0.000000
  108        0.128539   0.000000
  109        0.188951   0.000000
  110        0.285647   0.000000
  111        0.348498   0.000000
  112        0.428572   0.000000
  113        0.808657   0.000000
  114        0.881575   0.000000
  115        0.951774   0.000000
  116        1.123771   0.000000
  117        1.163131   0.000000
  118        1.691362   0.000000
  119        1.871963   0.000000
  120        2.192570   0.000000
 
  0.1250000E+00  0.1250000E+00  0.0000000E+00  0.3125000E-01
    1      -17.736511   1.000000
    2      -16.900901   1.000000
    3      -16.753301   1.000000
    4      -16.676067   1.000000
    5      -16.507462   1.000000
    6      -16.402685   1.000000
    7      -16.365880   1.000000
    8      -16.230290   1.000000
    9      -16.129917   1.000000
   10      -16.047069   1.000000
   11      -16.029129   1.000000
   12      -15.863594   1.000000
   13      -15.826263   1.000000
   14      -15.723277   1.000000
   15      -15.617214   1.000000
   16      -15.534416   1.000000
   17      -15.444163   1.000000
   18      -15.356269   1.000000
   19       -9.385960   1.000000
   20       -9.289169   1.000000
   21       -9.158126   1.000000
   22       -8.981107   1.000000
   23       -8.834451   1.000000
   24       -8.750194   1.000000
   25       -8.619806   1.000000
   26       -8.558700   1.000000
   27       -8.485770   1.000000
   28       -8.433668   1.000000
   29       -8.344951   1.000000
   30       -8.244438   1.000000
   31       -8.117363   1.000000
   32       -8.059583   1.000000
   33       -7.925671   1.000000
   34       -7.833065   1.000000
   35       -7.742874   1.000000
   36       -7.669122   1.000000
   37       -7.583623   1.000000
   38       -7.513148   1.000000
   39       -7.444816   1.000000
   40       -7.386869   1.000000
   41       -7.270256   1.000000
   42       -7.255903   1.000000
   43       -7.173121   1.000000
   44       -6.976509   1.000000
   45       -6.892337   1.000000
   46       -6.793117   1.000000
   47       -6.752983   1.000000
   48       -6.646663   1.000000
   49       -6.552205   1.000000
   50       -6.501458   1.000000
   51       -6.441129   1.000000
   52       -6.414963   1.000000
   53       -6.354943   1.000000
   54       -6.240399   1.000000
   55       -6.175825   1.000000
   56       -6.151889   1.000000
   57       -6.007210   1.000000
   58       -5.924421   1.000000
   59       -5.685995   1.000000
   60       -5.619174   1.000000
   61       -5.552525   1.000000
   62       -5.402299   1.000000
   63       -5.347222   1.000000
   64       -5.320576   1.000000
   65       -5.199985   1.000000
   66       -5.106093   1.000000
   67       -5.044646   1.000000
   68       -4.898004   1.000000
   69       -4.794613   1.000000
   70       -4.690623   1.000000
   71       -4.589857   1.000000
   72       -4.494840   1.000000
   73       -4.447183   1.000000
   74       -4.192800   1.000000
   75       -4.096509   1.000000
   76       -3.993092   1.000000
   77       -3.869555   0.999999
   78       -3.648255   0.999313
   79       -3.541026   0.992691
   80       -3.254681   0.661649
   81       -3.041079   0.137103
   82       -2.865915   0.009850
   83       -2.826051   0.004476
   84       -2.684437   0.000150
   85       -2.612639   0.000019
   86       -2.484156   0.000000
   87       -2.402235   0.000000
   88       -2.265032   0.000000
   89       -2.163934   0.000000
   90       -2.078406   0.000000
   91       -1.785634   0.000000
   92       -1.666907   0.000000
   93       -1.543381   0.000000
   94       -1.369918   0.000000
   95       -1.173398   0.000000
   96       -0.995207   0.000000
   97       -0.946731   0.000000
   98       -0.856126   0.000000
   99       -0.807469   0.000000
  100       -0.711819   0.000000
  101       -0.660560   0.000000
  102       -0.608557   0.000000
  103       -0.557507   0.000000
  104       -0.453471   0.000000
  105       -0.416468   0.000000
  106       -0.242437   0.000000
  107       -0.199498   0.000000
  108        0.096196   0.000000
  109        0.120214   0.000000
  110        0.287018   0.000000
  111        0.357336   0.000000
  112        0.459903   0.000000
  113        0.704381   0.000000
  114        0.890863   0.000000
  115        1.100378   0.000000
  116        1.212787   0.000000
  117        1.249134   0.000000
  118        1.776298   0.000000
  119        1.947587   0.000000
  120        2.262720   0.000000
 
  0.2500000E+00  0.1250000E+00  0.0000000E+00  0.3125000E-01
    1      -17.644249   1.000000
    2      -17.075656   1.000000
    3      -16.865586   1.000000
    4      -16.657509   1.000000
    5      -16.505837   1.000000
    6      -16.393361   1.000000
    7      -16.338104   1.000000
    8      -16.180378   1.000000
    9      -16.096229   1.000000
   10      -16.035999   1.000000
   11      -15.996853   1.000000
   12      -15.860820   1.000000
   13      -15.768699   1.000000
   14      -15.688306   1.000000
   15      -15.634020   1.000000
   16      -15.526151   1.000000
   17      -15.464447   1.000000
   18      -15.383589   1.000000
   19       -9.593668   1.000000
   20       -9.421072   1.000000
   21       -9.197634   1.000000
   22       -9.033460   1.000000
   23       -8.858666   1.000000
   24       -8.770316   1.000000
   25       -8.567882   1.000000
   26       -8.499228   1.000000
   27       -8.449428   1.000000
   28       -8.355676   1.000000
   29       -8.309005   1.000000
   30       -8.224109   1.000000
   31       -8.111165   1.000000
   32       -8.067512   1.000000
   33       -7.948736   1.000000
   34       -7.874341   1.000000
   35       -7.779783   1.000000
   36       -7.657967   1.000000
   37       -7.529711   1.000000
   38       -7.401926   1.000000
   39       -7.319231   1.000000
   40       -7.259662   1.000000
   41       -7.212401   1.000000
   42       -7.183809   1.000000
   43       -7.148022   1.000000
   44       -6.946061   1.000000
   45       -6.881691   1.000000
   46       -6.781369   1.000000
   47       -6.697521   1.000000