       N       E                     dE             d eps       ncg     rms          rms(c)
DAV:   1     0.112390102445E+04    0.11239E+04   -0.35868E+04  8160   0.577E+02
DAV:   2    -0.127583333903E+01   -0.11252E+04   -0.10803E+04 11200   0.173E+02
DAV:   3    -0.199820786576E+03   -0.19854E+03   -0.19079E+03 10920   0.823E+01
DAV:   4    -0.208929843850E+03   -0.91091E+01   -0.88099E+01 11840   0.260E+01
DAV:   5    -0.209288227307E+03   -0.35838E+00   -0.35748E+00 11640   0.385E+00    0.275E+01
DAV:   6    -0.236791800035E+03   -0.27504E+02   -0.11064E+02 12600   0.604E+01    0.594E+01
DAV:   7    -0.196667923225E+03    0.40124E+02   -0.17924E+02 13120   0.152E+02    0.203E+01
DAV:   8    -0.190028500723E+03    0.66394E+01   -0.20796E+01 11840   0.134E+01    0.136E+01
DAV:   9    -0.188240093637E+03    0.17884E+01   -0.30927E+00 11880   0.626E+00    0.919E+00
DAV:  10    -0.187056389810E+03    0.11837E+01   -0.18277E+00 13400   0.772E+00    0.300E+00
DAV:  11    -0.186995947843E+03    0.60442E-01   -0.62059E-01 12440   0.238E+00    0.248E+00
DAV:  12    -0.187072884699E+03   -0.76937E-01   -0.59357E-01 12640   0.413E+00    0.452E+00
DAV:  13    -0.186905927384E+03    0.16696E+00   -0.42302E-01 13080   0.363E+00    0.185E+00
DAV:  14    -0.186893843392E+03    0.12084E-01   -0.11931E-01 12920   0.209E+00    0.177E+00
DAV:  15    -0.186870069324E+03    0.23774E-01   -0.58039E-02 12960   0.147E+00    0.736E-01
DAV:  16    -0.186865576015E+03    0.44933E-02   -0.88521E-03 13000   0.372E-01    0.414E-01
DAV:  17    -0.186863622124E+03    0.19539E-02   -0.74619E-03 12760   0.368E-01    0.222E-01
DAV:  18    -0.186862980217E+03    0.64191E-03   -0.17463E-03 11720   0.126E-01    0.131E-01
DAV:  19    -0.186862857800E+03    0.12242E-03   -0.59348E-04  9880   0.997E-02    0.449E-02
DAV:  20    -0.186863705873E+03   -0.84807E-03   -0.76640E-04  9000   0.507E-02    0.374E-02
DAV:  21    -0.186864385958E+03   -0.68008E-03   -0.19158E-04  8200   0.394E-02    0.338E-02
DAV:  22    -0.186865418295E+03   -0.10323E-02   -0.16132E-04  7480   0.460E-02    0.404E-02
DAV:  23    -0.186866566543E+03   -0.11482E-02   -0.13699E-04  7480   0.488E-02    0.163E-02
DAV:  24    -0.186867141292E+03   -0.57475E-03   -0.28877E-05  6720   0.171E-02    0.452E-03
DAV:  25    -0.186867505651E+03   -0.36436E-03   -0.16892E-05  5560   0.964E-03    0.440E-03
DAV:  26    -0.186867749061E+03   -0.24341E-03   -0.93531E-06  6760   0.724E-03    0.157E-03
DAV:  27    -0.186867839963E+03   -0.90901E-04   -0.32735E-06  7240   0.416E-03
   1 F= -.18686784E+03 E0= -.18669574E+03  d E =-.186868E+03
       N       E                     dE             d eps       ncg     rms          rms(c)
DAV:   1    -0.187506850608E+03   -0.63910E+00   -0.27185E+02  8160   0.350E+01    0.467E+00
DAV:   2    -0.189514014055E+03   -0.20072E+01   -0.20435E+01 12240   0.156E+01    0.986E+00
DAV:   3    -0.189363197288E+03    0.15082E+00   -0.50269E+00 12440   0.126E+01    0.648E+00
DAV:   4    -0.188791563723E+03    0.57163E+00   -0.60332E-01 12440   0.458E+00    0.230E+00
DAV:   5    -0.188886408696E+03   -0.94845E-01   -0.45010E-01 11240   0.375E+00    0.524E+00
DAV:   6    -0.188758638203E+03    0.12777E+00   -0.73493E-01 12640   0.410E+00    0.223E+00
DAV:   7    -0.188704692230E+03    0.53946E-01   -0.19647E-01 10520   0.140E+00    0.136E+00
DAV:   8    -0.188696134750E+03    0.85575E-02   -0.91304E-02 12920   0.147E+00    0.150E+00
DAV:   9    -0.188681087472E+03    0.15047E-01   -0.32707E-02 11920   0.106E+00    0.625E-01
DAV:  10    -0.188677440297E+03    0.36472E-02   -0.71353E-03 12440   0.380E-01    0.330E-01
DAV:  11    -0.188676738988E+03    0.70131E-03   -0.37504E-03 12840   0.280E-01    0.128E-01
DAV:  12    -0.188676836298E+03   -0.97311E-04   -0.95322E-04 12000   0.988E-02
   2 F= -.18867684E+03 E0= -.18853551E+03  d E =-.180900E+01
       N       E                     dE             d eps       ncg     rms          rms(c)
DAV:   1    -0.190607401141E+03   -0.19307E+01   -0.31416E+01  9120   0.143E+01    0.446E+00
DAV:   2    -0.190566999250E+03    0.40402E-01   -0.28186E+00 11160   0.953E+00    0.734E+00
DAV:   3    -0.190088002641E+03    0.47900E+00   -0.14096E+00 12320   0.862E+00    0.425E+00
DAV:   4    -0.189880733219E+03    0.20727E+00   -0.76867E-01 12680   0.423E+00    0.265E+00
DAV:   5    -0.189920098563E+03   -0.39365E-01   -0.47532E-01 12240   0.405E+00    0.375E+00
DAV:   6    -0.189775656175E+03    0.14444E+00   -0.21615E-01 12280   0.316E+00    0.655E-01
DAV:   7    -0.189769470916E+03    0.61853E-02   -0.16163E-02 12520   0.511E-01    0.266E-01
DAV:   8    -0.189770498783E+03   -0.10279E-02   -0.51855E-03 11640   0.419E-01    0.412E-01
DAV:   9    -0.189769283538E+03    0.12152E-02   -0.27010E-03 11120   0.331E-01    0.133E-01
DAV:  10    -0.189769570894E+03   -0.28736E-03   -0.90007E-04 10200   0.115E-01    0.129E-01
DAV:  11    -0.189769355009E+03    0.21588E-03   -0.46670E-04  8880   0.742E-02    0.198E-02
DAV:  12    -0.189769377306E+03   -0.22297E-04   -0.68097E-05  6960   0.269E-02
   3 F= -.18976938E+03 E0= -.18964926E+03  d E =-.109254E+01
       N       E                     dE             d eps       ncg     rms          rms(c)
DAV:   1    -0.191314310451E+03   -0.15450E+01   -0.75286E+01  8160   0.198E+01    0.456E+00
DAV:   2    -0.191164827712E+03    0.14948E+00   -0.53461E+00 13160   0.782E+00    0.478E+00
DAV:   3    -0.191269141299E+03   -0.10431E+00   -0.15782E+00 12240   0.905E+00    0.643E+00
DAV:   4    -0.190873253930E+03    0.39589E+00   -0.12258E+00 12960   0.722E+00    0.263E+00
DAV:   5    -0.190789650559E+03    0.83603E-01   -0.31510E-01 12280   0.272E+00    0.182E+00
DAV:   6    -0.190772167663E+03    0.17483E-01   -0.15922E-01 12640   0.258E+00    0.166E+00
DAV:   7    -0.190751088426E+03    0.21079E-01   -0.64250E-02 11800   0.154E+00    0.494E-01
DAV:   8    -0.190747998249E+03    0.30902E-02   -0.89862E-03 11560   0.474E-01    0.320E-01
DAV:   9    -0.190747400401E+03    0.59785E-03   -0.28299E-03 11480   0.364E-01    0.211E-01
DAV:  10    -0.190747515304E+03   -0.11490E-03   -0.14940E-03 11160   0.206E-01    0.138E-01
DAV:  11    -0.190747301418E+03    0.21389E-03   -0.92642E-04 10040   0.111E-01    0.463E-02
DAV:  12    -0.190747296736E+03    0.46816E-05   -0.14093E-04  7320   0.441E-02
   4 F= -.19074730E+03 E0= -.19064225E+03  d E =-.977919E+00
       N       E                     dE             d eps       ncg     rms          rms(c)
DAV:   1    -0.192157235569E+03   -0.14099E+01   -0.16448E+02  8160   0.287E+01    0.576E+00
DAV:   2    -0.191865822960E+03    0.29141E+00   -0.95594E+00 11320   0.819E+00    0.388E+00
DAV:   3    -0.192011222764E+03   -0.14540E+00   -0.20522E+00 12080   0.868E+00    0.742E+00
DAV:   4    -0.191753041248E+03    0.25818E+00   -0.25205E+00 11480   0.108E+01    0.452E+00
DAV:   5    -0.191587101019E+03    0.16594E+00   -0.77203E-01 12280   0.583E+00    0.347E+00
DAV:   6    -0.191436111326E+03    0.15099E+00   -0.28090E-01 12240   0.382E+00    0.122E+00
DAV:   7    -0.191427880511E+03    0.82308E-02   -0.72394E-02 12320   0.143E+00    0.833E-01
DAV:   8    -0.191426054929E+03    0.18256E-02   -0.34070E-02 12040   0.122E+00    0.775E-01
DAV:   9    -0.191419491797E+03    0.65631E-02   -0.10699E-02 12440   0.701E-01    0.186E-01
DAV:  10    -0.191419782614E+03   -0.29082E-03   -0.23751E-03 11240   0.183E-01    0.109E-01
DAV:  11    -0.191419637405E+03    0.14521E-03   -0.64252E-04 11200   0.971E-02    0.554E-02
DAV:  12    -0.191419618938E+03    0.18467E-04   -0.10718E-04  7040   0.461E-02
   5 F= -.19141962E+03 E0= -.19131715E+03  d E =-.672322E+00
       N       E                     dE             d eps       ncg     rms          rms(c)
DAV:   1    -0.191483866424E+03   -0.64229E-01   -0.46197E+00  8160   0.456E+00    0.674E-01
DAV:   2    -0.191546676930E+03   -0.62811E-01   -0.28234E-01 12960   0.300E+00    0.231E+00
DAV:   3    -0.191493421440E+03    0.53255E-01   -0.10860E-01 12400   0.232E+00    0.455E-01
DAV:   4    -0.191495949045E+03   -0.25276E-02   -0.18475E-02 11160   0.880E-01    0.737E-01
DAV:   5    -0.191490737886E+03    0.52112E-02   -0.12124E-02 11280   0.734E-01    0.255E-01
DAV:   6    -0.191490448049E+03    0.28984E-03   -0.35483E-03 10960   0.283E-01    0.209E-01
DAV:   7    -0.191490827846E+03   -0.37980E-03   -0.37329E-03 11480   0.403E-01    0.317E-01
DAV:   8    -0.191489850793E+03    0.97705E-03   -0.18898E-03  9720   0.284E-01    0.474E-02
DAV:   9    -0.191489839150E+03    0.11643E-04   -0.10582E-04  5720   0.444E-02
   6 F= -.19148984E+03 E0= -.19138499E+03  d E =-.702202E-01
       N       E                     dE             d eps       ncg     rms          rms(c)
DAV:   1    -0.191535837050E+03   -0.45986E-01   -0.22490E+00  8160   0.316E+00    0.366E-01
DAV:   2    -0.191549586534E+03   -0.13749E-01   -0.72921E-02 13400   0.118E+00    0.103E+00
DAV:   3    -0.191538956819E+03    0.10630E-01   -0.28781E-02 12160   0.116E+00    0.346E-01
DAV:   4    -0.191539279854E+03   -0.32304E-03   -0.63586E-03 11080   0.492E-01    0.400E-01
DAV:   5    -0.191537746225E+03    0.15336E-02   -0.38344E-03 11040   0.417E-01    0.139E-01
DAV:   6    -0.191537655515E+03    0.90710E-04   -0.91109E-04  9960   0.137E-01
   7 F= -.19153766E+03 E0= -.19143193E+03  d E =-.478164E-01
       N       E                     dE             d eps       ncg     rms          rms(c)
DAV:   1    -0.191594405485E+03   -0.56659E-01   -0.33650E+00  8160   0.386E+00    0.447E-01
DAV:   2    -0.191620786427E+03   -0.26381E-01   -0.11840E-01 13600   0.164E+00    0.151E+00
DAV:   3    -0.191598998336E+03    0.21788E-01   -0.56673E-02 12200   0.154E+00    0.404E-01
DAV:   4    -0.191599685501E+03   -0.68717E-03   -0.10371E-02 11360   0.640E-01    0.478E-01
DAV:   5    -0.191597343897E+03    0.23416E-02   -0.49668E-03 11240   0.476E-01    0.145E-01
DAV:   6    -0.191597383791E+03   -0.39895E-04   -0.13672E-03 10400   0.178E-01    0.149E-01
DAV:   7    -0.191597629108E+03   -0.24532E-03   -0.17467E-03 10240   0.283E-01    0.235E-01
DAV:   8    -0.191597087011E+03    0.54210E-03   -0.88643E-04  8320   0.198E-01    0.274E-02
DAV:   9    -0.191597106088E+03   -0.19077E-04   -0.60338E-05  5640   0.308E-02
   8 F= -.19159711E+03 E0= -.19149088E+03  d E =-.594506E-01
       N       E                     dE             d eps       ncg     rms          rms(c)
DAV:   1    -0.191625544167E+03   -0.28457E-01   -0.77062E-01  8160   0.185E+00    0.218E-01
DAV:   2    -0.191631758450E+03   -0.62143E-02   -0.29237E-02 13480   0.898E-01    0.709E-01
DAV:   3    -0.191626650085E+03    0.51084E-02   -0.11518E-02 11320   0.728E-01    0.178E-01
DAV:   4    -0.191626949944E+03   -0.29986E-03   -0.23150E-03  9760   0.304E-01    0.246E-01
DAV:   5    -0.191626346412E+03    0.60353E-03   -0.12728E-03  9400   0.238E-01    0.634E-02
DAV:   6    -0.191626364066E+03   -0.17654E-04   -0.23323E-04  6680   0.640E-02
   9 F= -.19162636E+03 E0= -.19152014E+03  d E =-.292580E-01
       N       E                     dE             d eps       ncg     rms          rms(c)
DAV:   1    -0.191606475375E+03    0.19871E-01   -0.33290E-01  8160   0.122E+00    0.140E-01
DAV:   2    -0.191609199351E+03   -0.27240E-02   -0.12592E-02 12760   0.564E-01    0.466E-01
DAV:   3    -0.191606897458E+03    0.23019E-02   -0.47779E-03 11400   0.467E-01    0.109E-01
DAV:   4    -0.191607029933E+03   -0.13247E-03   -0.90544E-04  8720   0.190E-01    0.151E-01
DAV:   5    -0.191606787320E+03    0.24261E-03   -0.48647E-04  8560   0.152E-01    0.386E-02
DAV:   6    -0.191606795335E+03   -0.80149E-05   -0.10187E-04  6200   0.488E-02
  10 F= -.19160680E+03 E0= -.19150048E+03  d E =0.195687E-01
       N       E                     dE             d eps       ncg     rms          rms(c)
DAV:   1    -0.191568088305E+03    0.38699E-01   -0.17648E+00  8160   0.287E+00    0.406E-01
DAV:   2    -0.191581305512E+03   -0.13217E-01   -0.81713E-02 11400   0.135E+00    0.105E+00
DAV:   3    -0.191570399968E+03    0.10906E-01   -0.28249E-02 11920   0.113E+00    0.375E-01
DAV:   4    -0.191570569675E+03   -0.16971E-03   -0.80004E-03 11280   0.546E-01    0.407E-01
DAV:   5    -0.191569073254E+03    0.14964E-02   -0.52492E-03 10760   0.491E-01    0.208E-01
DAV:   6    -0.191568677107E+03    0.39615E-03   -0.17998E-03 11640   0.237E-01    0.896E-02
DAV:   7    -0.191568554546E+03    0.12256E-03   -0.60112E-04 11360   0.940E-02    0.448E-02
DAV:   8    -0.191568561860E+03   -0.73145E-05   -0.14676E-04  6520   0.813E-02
  11 F= -.19156856E+03 E0= -.19146227E+03  d E =0.382335E-01
       N       E                     dE             d eps       ncg     rms          rms(c)
DAV:   1    -0.191350388721E+03    0.21817E+00   -0.44040E+01  8160   0.142E+01    0.157E+00
DAV:   2    -0.191578806658E+03   -0.22842E+00   -0.14243E+00 12560   0.528E+00    0.361E+00
DAV:   3    -0.191413851545E+03    0.16496E+00   -0.28213E-01 11760   0.413E+00    0.115E+00
DAV:   4    -0.191414391621E+03   -0.54008E-03   -0.70963E-02 12400   0.165E+00    0.136E+00
DAV:   5    -0.191399084369E+03    0.15307E-01   -0.53093E-02 11560   0.160E+00    0.636E-01
DAV:   6    -0.191396835818E+03    0.22486E-02   -0.15912E-02 11480   0.670E-01    0.369E-01
DAV:   7    -0.191396431245E+03    0.40457E-03   -0.10894E-02 12200   0.661E-01    0.510E-01
DAV:   8    -0.191393997379E+03    0.24339E-02   -0.48958E-03 11320   0.468E-01    0.957E-02
DAV:   9    -0.191393964574E+03    0.32805E-04   -0.50421E-04  9960   0.977E-02
  12 F= -.19139396E+03 E0= -.19129300E+03  d E =0.174597E+00
       N       E                     dE             d eps       ncg     rms          rms(c)
DAV:   1    -0.191432636849E+03   -0.38639E-01   -0.24555E+00  8160   0.333E+00    0.441E-01
DAV:   2    -0.191454807371E+03   -0.22171E-01   -0.13597E-01 13400   0.175E+00    0.119E+00
DAV:   3    -0.191439917310E+03    0.14890E-01   -0.35540E-02 12320   0.135E+00    0.336E-01
DAV:   4    -0.191440147590E+03   -0.23028E-03   -0.67172E-03 11440   0.519E-01    0.421E-01
DAV:   5    -0.191438617665E+03    0.15299E-02   -0.48016E-03 11480   0.481E-01    0.200E-01
DAV:   6    -0.191438273626E+03    0.34404E-03   -0.15483E-03 11320   0.201E-01    0.888E-02
DAV:   7    -0.191438305535E+03   -0.31909E-04   -0.85508E-04 10840   0.151E-01
  13 F= -.19143831E+03 E0= -.19133566E+03  d E =-.443410E-01
       N       E                     dE             d eps       ncg     rms          rms(c)
DAV:   1    -0.191437303960E+03    0.96967E-03   -0.88346E+00  8160   0.643E+00    0.695E-01
DAV:   2    -0.191465112764E+03   -0.27809E-01   -0.22046E-01 13440   0.192E+00    0.151E+00
DAV:   3    -0.191448562864E+03    0.16550E-01   -0.69301E-02 11960   0.181E+00    0.736E-01
DAV:   4    -0.191444062556E+03    0.45003E-02   -0.13216E-02 12360   0.728E-01    0.389E-01
DAV:   5    -0.191443392779E+03    0.66978E-03   -0.84971E-03 11160   0.656E-01    0.440E-01
DAV:   6    -0.191442509059E+03    0.88372E-03   -0.75976E-03 10480   0.584E-01    0.300E-01
DAV:   7    -0.191442005789E+03    0.50327E-03   -0.35487E-03 11280   0.398E-01    0.249E-01
DAV:   8    -0.191441342875E+03    0.66291E-03   -0.12278E-03  9760   0.251E-01    0.482E-02
DAV:   9    -0.191441331990E+03    0.10885E-04   -0.96411E-05  6480   0.490E-02
  14 F= -.19144133E+03 E0= -.19133952E+03  d E =-.302646E-02
       N       E                     dE             d eps       ncg     rms          rms(c)
DAV:   1    -0.191499063916E+03   -0.57721E-01   -0.58267E+00  8160   0.510E+00    0.614E-01
DAV:   2    -0.191546059369E+03   -0.46995E-01   -0.21952E-01 13600   0.253E+00    0.199E+00
DAV:   3    -0.191508394021E+03    0.37665E-01   -0.89020E-02 12160   0.210E+00    0.535E-01
DAV:   4    -0.191508889220E+03   -0.49520E-03   -0.15636E-02 11440   0.850E-01    0.609E-01
DAV:   5    -0.191505181479E+03    0.37077E-02   -0.86657E-03 11560   0.659E-01    0.236E-01
DAV:   6    -0.191504592328E+03    0.58915E-03   -0.23549E-03 10640   0.222E-01    0.118E-01
DAV:   7    -0.191504685915E+03   -0.93587E-04   -0.13290E-03 11800   0.200E-01    0.169E-01
DAV:   8    -0.191504403830E+03    0.28208E-03   -0.67358E-04  8800   0.184E-01    0.575E-02
DAV:   9    -0.191504375720E+03    0.28109E-04   -0.95288E-05  5960   0.565E-02
  15 F= -.19150438E+03 E0= -.19140144E+03  d E =-.630437E-01
       N       E                     dE             d eps       ncg     rms          rms(c)
DAV:   1    -0.191446589879E+03    0.57814E-01   -0.42649E+00  8160   0.437E+00    0.500E-01
DAV:   2    -0.191470765957E+03   -0.24176E-01   -0.13849E-01 13600   0.186E+00    0.129E+00
DAV:   3    -0.191452090877E+03    0.18675E-01   -0.38427E-02 11840   0.146E+00    0.412E-01
DAV:   4    -0.191452461301E+03   -0.37042E-03   -0.97781E-03 11240   0.620E-01    0.476E-01
DAV:   5    -0.191450520544E+03    0.19408E-02   -0.64576E-03 11280   0.573E-01    0.251E-01
DAV:   6    -0.191449867866E+03    0.65268E-03   -0.20260E-03 10960   0.249E-01    0.101E-01
DAV:   7    -0.191449766789E+03    0.10108E-03   -0.57375E-04 10760   0.977E-02    0.557E-02
DAV:   8    -0.191449756065E+03    0.10724E-04   -0.16362E-04  6760   0.904E-02
  16 F= -.19144976E+03 E0= -.19134715E+03  d E =0.546197E-01
       N       E                     dE             d eps       ncg     rms          rms(c)
DAV:   1    -0.191385576525E+03    0.64190E-01   -0.68771E+00  8160   0.553E+00    0.598E-01
DAV:   2    -0.191421061552E+03   -0.35485E-01   -0.19888E-01 12800   0.205E+00    0.155E+00
DAV:   3    -0.191394994799E+03    0.26067E-01   -0.57527E-02 11840   0.176E+00    0.557E-01
DAV:   4    -0.191394567868E+03    0.42693E-03   -0.13262E-02 11240   0.729E-01    0.516E-01
DAV:   5    -0.191392200630E+03    0.23672E-02   -0.76827E-03 10960   0.640E-01    0.286E-01
DAV:   6    -0.191391442360E+03    0.75827E-03   -0.27080E-03 11920   0.306E-01    0.137E-01
DAV:   7    -0.191391537607E+03   -0.95247E-04   -0.13382E-03 11240   0.220E-01    0.185E-01
DAV:   8    -0.191391201205E+03    0.33640E-03   -0.72223E-04  8600   0.191E-01    0.482E-02
DAV:   9    -0.191391192952E+03    0.82527E-05   -0.64077E-05  6080   0.459E-02
  17 F= -.19139119E+03 E0= -.19128990E+03  d E =0.585631E-01
       N       E                     dE             d eps       ncg     rms          rms(c)
DAV:   1    -0.191388996736E+03    0.22045E-02   -0.11298E+00  8160   0.225E+00    0.255E-01
DAV:   2    -0.191392799684E+03   -0.38029E-02   -0.35145E-02 12760   0.721E-01    0.497E-01
DAV:   3    -0.191391243442E+03    0.15562E-02   -0.10457E-02 12280   0.693E-01    0.363E-01
DAV:   4    -0.191390018244E+03    0.12252E-02   -0.27820E-03 11320   0.331E-01    0.117E-01
DAV:   5    -0.191389862653E+03    0.15559E-03   -0.81089E-04 10040   0.134E-01    0.920E-02
DAV:   6    -0.191389997192E+03   -0.13454E-03   -0.72760E-04 10000   0.203E-01    0.138E-01
DAV:   7    -0.191389791320E+03    0.20587E-03   -0.40361E-04  8400   0.150E-01    0.410E-02
DAV:   8    -0.191389795738E+03   -0.44177E-05   -0.10888E-04  5800   0.680E-02
  18 F= -.19138980E+03 E0= -.19128869E+03  d E =0.139721E-02
       N       E                     dE             d eps       ncg     rms          rms(c)
DAV:   1    -0.191430247633E+03   -0.40456E-01   -0.39998E+00  8160   0.424E+00    0.520E-01
DAV:   2    -0.191457078852E+03   -0.26831E-01   -0.13886E-01 13600   0.195E+00    0.152E+00
DAV:   3    -0.191435260383E+03    0.21818E-01   -0.53572E-02 12200   0.164E+00    0.461E-01
DAV:   4    -0.191435490593E+03   -0.23021E-03   -0.11354E-02 11440   0.705E-01    0.511E-01
DAV:   5    -0.191433096029E+03    0.23946E-02   -0.71433E-03 11040   0.605E-01    0.261E-01
DAV:   6    -0.191432344064E+03    0.75197E-03   -0.23593E-03 11000   0.255E-01    0.108E-01
DAV:   7    -0.191432537977E+03   -0.19391E-03   -0.12789E-03 10840   0.221E-01    0.191E-01
DAV:   8    -0.191432169540E+03    0.36844E-03   -0.71709E-04  8880   0.190E-01    0.407E-02
DAV:   9    -0.191432162325E+03    0.72153E-05   -0.60779E-05  6040   0.405E-02
  19 F= -.19143216E+03 E0= -.19132950E+03  d E =-.423666E-01
       N       E                     dE             d eps       ncg     rms          rms(c)
DAV:   1    -0.191462068140E+03   -0.29899E-01   -0.17109E+00  8160   0.278E+00    0.348E-01
DAV:   2    -0.191475591437E+03   -0.13523E-01   -0.67067E-02 13600   0.140E+00    0.105E+00
DAV:   3    -0.191464467014E+03    0.11124E-01   -0.24564E-02 12240   0.112E+00    0.274E-01
DAV:   4    -0.191464990354E+03   -0.52334E-03   -0.49980E-03 11400   0.474E-01    0.374E-01
DAV:   5    -0.191463651551E+03    0.13388E-02   -0.31945E-03 11160   0.398E-01    0.139E-01
DAV:   6    -0.191463469280E+03    0.18227E-03   -0.82244E-04  9800   0.131E-01    0.660E-02
DAV:   7    -0.191463409735E+03    0.59545E-04   -0.27928E-04  8120   0.596E-02
  20 F= -.19146341E+03 E0= -.19136000E+03  d E =-.312474E-01
       N       E                     dE             d eps       ncg     rms          rms(c)
DAV:   1    -0.191425725498E+03    0.37744E-01   -0.21972E+00  8160   0.314E+00    0.370E-01
DAV:   2    -0.191440184128E+03   -0.14459E-01   -0.79579E-02 13600   0.144E+00    0.101E+00
DAV:   3    -0.191428825841E+03    0.11358E-01   -0.22186E-02 12080   0.111E+00    0.275E-01
DAV:   4    -0.191429272609E+03   -0.44677E-03   -0.50322E-03 10880   0.453E-01    0.372E-01
DAV:   5    -0.191427996852E+03    0.12758E-02   -0.34247E-03 10960   0.413E-01    0.157E-01
DAV:   6    -0.191427790602E+03    0.20625E-03   -0.97795E-04 10200   0.156E-01    0.763E-02
DAV:   7    -0.191427723615E+03    0.66987E-04   -0.34268E-04  9120   0.797E-02
  21 F= -.19142772E+03 E0= -.19132498E+03  d E =0.356861E-01
       N       E                     dE             d eps       ncg     rms          rms(c)
DAV:   1    -0.191369199199E+03    0.58591E-01   -0.59577E+00  8160   0.516E+00    0.569E-01
DAV:   2    -0.191399025749E+03   -0.29827E-01   -0.18775E-01 13320   0.194E+00    0.136E+00
DAV:   3    -0.191378394427E+03    0.20631E-01   -0.47473E-02 11840   0.161E+00    0.498E-01
DAV:   4    -0.191378430812E+03   -0.36384E-04   -0.12204E-02 11520   0.689E-01    0.529E-01
DAV:   5    -0.191375953877E+03    0.24769E-02   -0.72569E-03 11400   0.610E-01    0.259E-01
DAV:   6    -0.191375381318E+03    0.57256E-03   -0.24052E-03 11360   0.278E-01    0.127E-01
DAV:   7    -0.191375211801E+03    0.16952E-03   -0.86507E-04 10960   0.122E-01    0.592E-02
DAV:   8    -0.191375191624E+03    0.20177E-04   -0.21159E-04  7240   0.100E-01
  22 F= -.19137519E+03 E0= -.19127317E+03  d E =0.525320E-01
       N       E                     dE             d eps       ncg     rms          rms(c)
DAV:   1    -0.191355524480E+03    0.19687E-01   -0.24420E+00  8160   0.329E+00    0.360E-01
DAV:   2    -0.191365816726E+03   -0.10292E-01   -0.71325E-02 13240   0.118E+00    0.810E-01
DAV:   3    -0.191359128154E+03    0.66886E-02   -0.19735E-02 11400   0.992E-01    0.376E-01
DAV:   4    -0.191358459588E+03    0.66857E-03   -0.53488E-03 11320   0.467E-01    0.298E-01
DAV:   5    -0.191357871319E+03    0.58827E-03   -0.29439E-03 10840   0.391E-01    0.208E-01
DAV:   6    -0.191357428281E+03    0.44304E-03   -0.11779E-03 10760   0.222E-01    0.708E-02
DAV:   7    -0.191357428541E+03   -0.26007E-06   -0.40137E-04  9280   0.789E-02
  23 F= -.19135743E+03 E0= -.19125505E+03  d E =0.177631E-01
       N       E                     dE             d eps       ncg     rms          rms(c)
DAV:   1    -0.191395557574E+03   -0.38129E-01   -0.44040E+00  8160   0.446E+00    0.547E-01
DAV:   2    -0.191426851477E+03   -0.31294E-01   -0.16233E-01 13600   0.212E+00    0.158E+00
DAV:   3    -0.191401681833E+03    0.25170E-01   -0.59011E-02 12200   0.174E+00    0.445E-01
DAV:   4    -0.191402365969E+03   -0.68414E-03   -0.11921E-02 11480   0.718E-01    0.565E-01
DAV:   5    -0.191399449045E+03    0.29169E-02   -0.78623E-03 11240   0.624E-01    0.248E-01
DAV:   6    -0.191398754242E+03    0.69480E-03   -0.22969E-03 11200   0.245E-01    0.105E-01
DAV:   7    -0.191398910902E+03   -0.15666E-03   -0.12404E-03 11080   0.201E-01    0.175E-01
DAV:   8    -0.191398608363E+03    0.30254E-03   -0.66574E-04  8840   0.184E-01    0.536E-02
DAV:   9    -0.191398583698E+03    0.24665E-04   -0.79455E-05  5960   0.526E-02
  24 F= -.19139858E+03 E0= -.19129476E+03  d E =-.411552E-01
       N       E                     dE             d eps       ncg     rms          rms(c)
DAV:   1    -0.191411389899E+03   -0.12782E-01   -0.50350E-01  8160   0.150E+00    0.176E-01
DAV:   2    -0.191414435535E+03   -0.30456E-02   -0.17093E-02 13600   0.682E-01    0.473E-01
DAV:   3    -0.191412061629E+03    0.23739E-02   -0.54533E-03 11680   0.541E-01    0.141E-01
DAV:   4    -0.191412118112E+03   -0.56482E-04   -0.11485E-03  9720   0.212E-01    0.170E-01
DAV:   5    -0.191411889736E+03    0.22838E-03   -0.77859E-04  8520   0.199E-01    0.916E-02
DAV:   6    -0.191411806841E+03    0.82894E-04   -0.22379E-04  5880   0.893E-02
  25 F= -.19141181E+03 E0= -.19130725E+03  d E =-.132231E-01
       N       E                     dE             d eps       ncg     rms          rms(c)
DAV:   1    -0.191399411735E+03    0.12478E-01   -0.17272E+00  8160   0.283E+00    0.404E-01
DAV:   2    -0.191406365440E+03   -0.69537E-02   -0.60053E-02 12680   0.125E+00    0.814E-01
DAV:   3    -0.191399581652E+03    0.67838E-02   -0.18320E-02 12120   0.103E+00    0.327E-01
DAV:   4    -0.191399032021E+03    0.54963E-03   -0.54300E-03 11200   0.443E-01    0.323E-01
DAV:   5    -0.191398804869E+03    0.22715E-03   -0.49603E-03 11320   0.497E-01    0.321E-01
DAV:   6    -0.191397717977E+03    0.10869E-02   -0.24618E-03 11000   0.314E-01    0.796E-02
DAV:   7    -0.191397685351E+03    0.32626E-04   -0.44594E-04  8960   0.833E-02
  26 F= -.19139769E+03 E0= -.19129498E+03  d E =0.141215E-01
       N       E                     dE             d eps       ncg     rms          rms(c)
DAV:   1    -0.191450272922E+03   -0.52555E-01   -0.79085E+00  8160   0.599E+00    0.750E-01
DAV:   2    -0.191495157742E+03   -0.44885E-01   -0.27034E-01 13600   0.269E+00    0.192E+00
DAV:   3    -0.191458223895E+03    0.36934E-01   -0.91767E-02 12240   0.223E+00    0.582E-01
DAV:   4    -0.191459183088E+03   -0.95919E-03   -0.20966E-02 12280   0.916E-01    0.762E-01
DAV:   5    -0.191454702222E+03    0.44809E-02   -0.16638E-02 10960   0.908E-01    0.449E-01
DAV:   6    -0.191452594674E+03    0.21075E-02   -0.60405E-03 11280   0.434E-01    0.165E-01
DAV:   7    -0.191452614845E+03   -0.20171E-04   -0.22512E-03 11840   0.250E-01    0.195E-01
DAV:   8    -0.191452287072E+03    0.32777E-03   -0.12303E-03  9600   0.242E-01    0.103E-01
DAV:   9    -0.191452172236E+03    0.11484E-03   -0.23758E-04  6800   0.932E-02    0.254E-02
DAV:  10    -0.191452168821E+03    0.34150E-05   -0.64941E-05  6840   0.288E-02
  27 F= -.19145217E+03 E0= -.19134680E+03  d E =-.544835E-01
       N       E                     dE             d eps       ncg     rms          rms(c)
DAV:   1    -0.191482484266E+03   -0.30312E-01   -0.18225E+00  8160   0.286E+00    0.335E-01
DAV:   2    -0.191493906326E+03   -0.11422E-01   -0.60817E-02 13600   0.127E+00    0.963E-01
DAV:   3    -0.191484941924E+03    0.89644E-02   -0.22263E-02 12000   0.105E+00    0.306E-01
DAV:   4    -0.191485044485E+03   -0.10256E-03   -0.47441E-03 11120   0.456E-01    0.337E-01
DAV:   5    -0.191484030039E+03    0.10144E-02   -0.29434E-03 10880   0.387E-01    0.160E-01
DAV:   6    -0.191483747307E+03    0.28273E-03   -0.87849E-04 10400   0.154E-01    0.619E-02
DAV:   7    -0.191483707407E+03    0.39900E-04   -0.25255E-04  7400   0.562E-02
  28 F= -.19148371E+03 E0= -.19137841E+03  d E =-.315386E-01
       N       E                     dE             d eps       ncg     rms          rms(c)
DAV:   1    -0.191449409257E+03    0.34338E-01   -0.23577E+00  8160   0.323E+00    0.330E-01
DAV:   2    -0.191458542098E+03   -0.91328E-02   -0.62285E-02 12320   0.998E-01    0.774E-01
DAV:   3    -0.191453123642E+03    0.54185E-02   -0.18257E-02 12200   0.940E-01    0.389E-01
DAV:   4    -0.191452234768E+03    0.88887E-03   -0.44534E-03 11000   0.413E-01    0.248E-01
DAV:   5    -0.191451764000E+03    0.47077E-03   -0.21565E-03 10640   0.340E-01    0.179E-01
DAV:   6    -0.191451483438E+03    0.28056E-03   -0.10488E-03 10160   0.212E-01    0.854E-02
DAV:   7    -0.191451453401E+03    0.30037E-04   -0.37831E-04  8880   0.102E-01
  29 F= -.19145145E+03 E0= -.19134572E+03  d E =0.322540E-01
       N       E                     dE             d eps       ncg     rms          rms(c)
DAV:   1    -0.191434751164E+03    0.16732E-01   -0.34718E+00  8160   0.391E+00    0.409E-01
DAV:   2    -0.191446911737E+03   -0.12161E-01   -0.97134E-02 12680   0.132E+00    0.877E-01
DAV:   3    -0.191440314959E+03    0.65968E-02   -0.23573E-02 11960   0.108E+00    0.461E-01
DAV:   4    -0.191439129700E+03    0.11853E-02   -0.68113E-03 11280   0.535E-01    0.323E-01
DAV:   5    -0.191438542489E+03    0.58721E-03   -0.39900E-03 10280   0.464E-01    0.258E-01
DAV:   6    -0.191437975834E+03    0.56666E-03   -0.19864E-03 12680   0.285E-01    0.992E-02
DAV:   7    -0.191437912731E+03    0.63103E-04   -0.63231E-04 10120   0.129E-01
  30 F= -.19143791E+03 E0= -.19133214E+03  d E =0.135407E-01
       N       E                     dE             d eps       ncg     rms          rms(c)
DAV:   1    -0.191484838655E+03   -0.46863E-01   -0.61202E+00  8160   0.523E+00    0.602E-01
DAV:   2    -0.191520644459E+03   -0.35806E-01   -0.20026E-01 13520   0.221E+00    0.171E+00
DAV:   3    -0.191494202826E+03    0.26442E-01   -0.69023E-02 12240   0.188E+00    0.579E-01
DAV:   4    -0.191493783976E+03    0.41885E-03   -0.14222E-02 11400   0.799E-01    0.572E-01
DAV:   5    -0.191490748333E+03    0.30356E-02   -0.87608E-03 10800   0.680E-01    0.296E-01
DAV:   6    -0.191489888877E+03    0.85946E-03   -0.32266E-03 11560   0.307E-01    0.141E-01
DAV:   7    -0.191490330814E+03   -0.44194E-03   -0.23327E-03 12080   0.308E-01    0.268E-01
DAV:   8    -0.191489618412E+03    0.71240E-03   -0.13385E-03  9520   0.259E-01    0.521E-02
DAV:   9    -0.191489597751E+03    0.20661E-04   -0.94775E-05  5760   0.507E-02
  31 F= -.19148960E+03 E0= -.19138395E+03  d E =-.516850E-01
       N       E                     dE             d eps       ncg     rms          rms(c)
DAV:   1    -0.191514267526E+03   -0.24649E-01   -0.12899E+00  8160   0.242E+00    0.274E-01
DAV:   2    -0.191519716048E+03   -0.54485E-02   -0.36846E-02 13600   0.939E-01    0.637E-01
DAV:   3    -0.191515502958E+03    0.42131E-02   -0.10438E-02 12120   0.758E-01    0.211E-01
DAV:   4    -0.191515583854E+03   -0.80896E-04   -0.24982E-03 11240   0.304E-01    0.258E-01
DAV:   5    -0.191515156853E+03    0.42700E-03   -0.22789E-03 10160   0.333E-01    0.179E-01
DAV:   6    -0.191514856742E+03    0.30011E-03   -0.88658E-04  9680   0.179E-01    0.631E-02
DAV:   7    -0.191514826100E+03    0.30642E-04   -0.17834E-04  6480   0.728E-02
  32 F= -.19151483E+03 E0= -.19140937E+03  d E =-.252283E-01
       N       E                     dE             d eps       ncg     rms          rms(c)
DAV:   1    -0.191503091614E+03    0.11765E-01   -0.15663E+00  8160   0.266E+00    0.264E-01
DAV:   2    -0.191506255641E+03   -0.31640E-02   -0.35370E-02 13600   0.732E-01    0.433E-01
DAV:   3    -0.191505113024E+03    0.11426E-02   -0.79406E-03 11960   0.636E-01    0.316E-01
DAV:   4    -0.191504561679E+03    0.55134E-03   -0.33908E-03 10640   0.382E-01    0.240E-01
DAV:   5    -0.191504213944E+03    0.34773E-03   -0.21522E-03  9720   0.329E-01    0.169E-01
DAV:   6    -0.191503962815E+03    0.25113E-03   -0.88167E-04 10360   0.168E-01    0.660E-02
DAV:   7    -0.191503988113E+03   -0.25298E-04   -0.33300E-04  7560   0.114E-01
  33 F= -.19150399E+03 E0= -.19139846E+03  d E =0.108380E-01
       N       E                     dE             d eps       ncg     rms          rms(c)
DAV:   1    -0.191557636620E+03   -0.53674E-01   -0.49439E+00  8160   0.471E+00    0.482E-01
DAV:   2    -0.191575983407E+03   -0.18347E-01   -0.13132E-01 13600   0.160E+00    0.111E+00
DAV:   3    -0.191564787439E+03    0.11196E-01   -0.36106E-02 12200   0.136E+00    0.488E-01
DAV:   4    -0.191564541946E+03    0.24549E-03   -0.99521E-03 11760   0.657E-01    0.492E-01
DAV:   5    -0.191562481952E+03    0.20600E-02   -0.65630E-03 11240   0.585E-01    0.260E-01
DAV:   6    -0.191561843527E+03    0.63842E-03   -0.22194E-03 11240   0.266E-01    0.114E-01
DAV:   7    -0.191561702470E+03    0.14106E-03   -0.66269E-04 10480   0.110E-01    0.633E-02
DAV:   8    -0.191561682122E+03    0.20348E-04   -0.19570E-04  7080   0.100E-01
  34 F= -.19156168E+03 E0= -.19145753E+03  d E =-.576940E-01
       N       E                     dE             d eps       ncg     rms          rms(c)
DAV:   1    -0.191487316088E+03    0.74386E-01   -0.73645E+00  8160   0.575E+00    0.599E-01
DAV:   2    -0.191513787524E+03   -0.26471E-01   -0.19362E-01 13600   0.187E+00    0.129E+00
DAV:   3    -0.191496644350E+03    0.17143E-01   -0.48064E-02 11920   0.158E+00    0.585E-01
DAV:   4    -0.191496251602E+03    0.39275E-03   -0.16383E-02 12000   0.789E-01    0.572E-01
DAV:   5    -0.191493768035E+03    0.24836E-02   -0.10320E-02 11360   0.727E-01    0.360E-01
DAV:   6    -0.191492447023E+03    0.13210E-02   -0.38745E-03 11120   0.377E-01    0.139E-01
DAV:   7    -0.191492376757E+03    0.70266E-04   -0.11073E-03 11000   0.174E-01    0.134E-01
DAV:   8    -0.191492210010E+03    0.16675E-03   -0.42558E-04  8760   0.146E-01    0.517E-02
DAV:   9    -0.191492197584E+03    0.12426E-04   -0.71166E-05  6080   0.505E-02
  35 F= -.19149220E+03 E0= -.19138655E+03  d E =0.694845E-01
       N       E                     dE             d eps       ncg     rms          rms(c)
DAV:   1    -0.191487734077E+03    0.44759E-02   -0.12266E+00  8160   0.234E+00    0.213E-01
DAV:   2    -0.191490203386E+03   -0.24693E-02   -0.31040E-02 12240   0.569E-01    0.258E-01
DAV:   3    -0.191490173303E+03    0.30084E-04   -0.42904E-03 12320   0.441E-01    0.275E-01
DAV:   4    -0.191489496975E+03    0.67633E-03   -0.19378E-03  9880   0.306E-01    0.157E-01
DAV:   5    -0.191489515680E+03   -0.18705E-04   -0.12229E-03  9640   0.240E-01    0.172E-01
DAV:   6    -0.191489335168E+03    0.18051E-03   -0.91045E-04  9720   0.200E-01    0.811E-02
DAV:   7    -0.191489233780E+03    0.10139E-03   -0.20460E-04  6280   0.745E-02    0.173E-02
DAV:   8    -0.191489236730E+03   -0.29499E-05   -0.50816E-05  7200   0.326E-02
  36 F= -.19148924E+03 E0= -.19138339E+03  d E =0.296085E-02
       N       E                     dE             d eps       ncg     rms          rms(c)
DAV:   1    -0.191540146419E+03   -0.50913E-01   -0.46642E+00  8160   0.457E+00    0.470E-01
DAV:   2    -0.191558175097E+03   -0.18029E-01   -0.12470E-01 13560   0.152E+00    0.112E+00
DAV:   3    -0.191547348347E+03    0.10827E-01   -0.38225E-02 11920   0.135E+00    0.522E-01
DAV:   4    -0.191546481226E+03    0.86712E-03   -0.99562E-03 11320   0.646E-01    0.445E-01
DAV:   5    -0.191544833683E+03    0.16475E-02   -0.57970E-03 10960   0.554E-01    0.261E-01
DAV:   6    -0.191544148572E+03    0.68511E-03   -0.20978E-03 11480   0.264E-01    0.108E-01
DAV:   7    -0.191544051327E+03    0.97245E-04   -0.61717E-04 10680   0.107E-01
  37 F= -.19154405E+03 E0= -.19143899E+03  d E =-.548146E-01
       N       E                     dE             d eps       ncg     rms          rms(c)
DAV:   1    -0.191560651105E+03   -0.16503E-01   -0.56924E-01  8160   0.159E+00    0.172E-01
DAV:   2    -0.191563615900E+03   -0.29648E-02   -0.17715E-02 12640   0.556E-01    0.474E-01
DAV:   3    -0.191561521535E+03    0.20944E-02   -0.60847E-03 11600   0.525E-01    0.165E-01
DAV:   4    -0.191561552289E+03   -0.30754E-04   -0.11793E-03  9840   0.223E-01    0.160E-01
DAV:   5    -0.191561297082E+03    0.25521E-03   -0.62643E-04  8400   0.190E-01    0.749E-02
DAV:   6    -0.191561288687E+03    0.83949E-05   -0.24417E-04  7520   0.938E-02
  38 F= -.19156129E+03 E0= -.19145665E+03  d E =-.172374E-01
       N       E                     dE             d eps       ncg     rms          rms(c)
DAV:   1    -0.191584623111E+03   -0.23326E-01   -0.11186E+00  8160   0.225E+00    0.264E-01
DAV:   2    -0.191591908628E+03   -0.72855E-02   -0.32952E-02 13600   0.951E-01    0.815E-01
DAV:   3    -0.191585639476E+03    0.62692E-02   -0.12809E-02 11720   0.843E-01    0.227E-01
DAV:   4    -0.191585815356E+03   -0.17588E-03   -0.24552E-03 10320   0.336E-01    0.248E-01
DAV:   5    -0.191585241495E+03    0.57386E-03   -0.16083E-03 10000   0.302E-01    0.130E-01
DAV:   6    -0.191585093861E+03    0.14763E-03   -0.59515E-04  9520   0.141E-01    0.728E-02
DAV:   7    -0.191585231478E+03   -0.13762E-03   -0.57977E-04  9280   0.169E-01    0.140E-01
DAV:   8    -0.191585018302E+03    0.21318E-03   -0.30184E-04  7320   0.125E-01    0.101E-02
DAV:   9    -0.191585030989E+03   -0.12687E-04   -0.21268E-05  5800   0.161E-02
  39 F= -.19158503E+03 E0= -.19148105E+03  d E =-.237423E-01
       N       E                     dE             d eps       ncg     rms          rms(c)
DAV:   1    -0.191619415613E+03   -0.34397E-01   -0.23515E+00  8160   0.324E+00    0.368E-01
DAV:   2    -0.191634453870E+03   -0.15038E-01   -0.79589E-02 13200   0.138E+00    0.112E+00
DAV:   3    -0.191622992459E+03    0.11461E-01   -0.29097E-02 11960   0.117E+00    0.334E-01
DAV:   4    -0.191623224496E+03   -0.23204E-03   -0.57938E-03 11440   0.520E-01    0.379E-01
DAV:   5    -0.191621781412E+03    0.14431E-02   -0.32936E-03 10840   0.422E-01    0.149E-01
DAV:   6    -0.191621673345E+03    0.10807E-03   -0.10546E-03 10160   0.176E-01    0.118E-01
DAV:   7    -0.191621891601E+03   -0.21826E-03   -0.11440E-03 10800   0.246E-01    0.194E-01
DAV:   8    -0.191621502759E+03    0.38884E-03   -0.56572E-04  8560   0.172E-01    0.260E-02
DAV:   9    -0.191621507308E+03   -0.45490E-05   -0.39890E-05  5760   0.269E-02
  40 F= -.19162151E+03 E0= -.19151807E+03  d E =-.364763E-01
       N       E                     dE             d eps       ncg     rms          rms(c)
DAV:   1    -0.191612012127E+03    0.94906E-02   -0.66134E+00  8160   0.550E+00    0.547E-01
DAV:   2    -0.191621011171E+03   -0.89990E-02   -0.14341E-01 12280   0.105E+00    0.496E-01
DAV:   3    -0.191624333947E+03   -0.33228E-02   -0.24678E-02 12640   0.100E+00    0.817E-01
DAV:   4    -0.191618873403E+03    0.54605E-02   -0.15354E-02 12120   0.898E-01    0.419E-01
DAV:   5    -0.191617812812E+03    0.10606E-02   -0.65435E-03 10960   0.531E-01    0.353E-01
DAV:   6    -0.191617260577E+03    0.55223E-03   -0.47766E-03 12080   0.487E-01    0.223E-01
DAV:   7    -0.191616613724E+03    0.64685E-03   -0.12717E-03 10000   0.223E-01    0.371E-02
DAV:   8    -0.191616601935E+03    0.11789E-04   -0.11632E-04  6800   0.447E-02
  41 F= -.19161660E+03 E0= -.19151240E+03  d E =0.490537E-02
       N       E                     dE             d eps       ncg     rms          rms(c)
DAV:   1    -0.191665675733E+03   -0.49062E-01   -0.37559E+00  8160   0.409E+00    0.450E-01
DAV:   2    -0.191688683998E+03   -0.23008E-01   -0.11722E-01 13000   0.164E+00    0.145E+00
DAV:   3    -0.191670918799E+03    0.17765E-01   -0.53386E-02 11960   0.148E+00    0.447E-01
DAV:   4    -0.191670294137E+03    0.62466E-03   -0.84662E-03 11360   0.589E-01    0.391E-01
DAV:   5    -0.191669012855E+03    0.12813E-02   -0.46962E-03 11000   0.502E-01    0.237E-01
DAV:   6    -0.191668486305E+03    0.52655E-03   -0.19161E-03 10720   0.260E-01    0.139E-01
DAV:   7    -0.191668999829E+03   -0.51352E-03   -0.18817E-03 10840   0.316E-01    0.264E-01
DAV:   8    -0.191668280064E+03    0.71977E-03   -0.97927E-04  9320   0.227E-01    0.233E-02
DAV:   9    -0.191668293899E+03   -0.13835E-04   -0.50084E-05  5800   0.280E-02
  42 F= -.19166829E+03 E0= -.19156493E+03  d E =-.516920E-01
       N       E                     dE             d eps       ncg     rms          rms(c)
DAV:   1    -0.191661670160E+03    0.66099E-02   -0.47303E-01  8160   0.146E+00    0.147E-01
DAV:   2    -0.191662562840E+03   -0.89268E-03   -0.10229E-02 13080   0.342E-01    0.230E-01
DAV:   3    -0.191662380762E+03    0.18208E-03   -0.27214E-03 11160   0.352E-01    0.213E-01
DAV:   4    -0.191662057422E+03    0.32334E-03   -0.12019E-03  9400   0.218E-01    0.103E-01
DAV:   5    -0.191661991824E+03    0.65598E-04   -0.49514E-04  8240   0.153E-01
  43 F= -.19166199E+03 E0= -.19155867E+03  d E =0.630207E-02
       N       E                     dE             d eps       ncg     rms          rms(c)
DAV:   1    -0.191717382336E+03   -0.55325E-01   -0.47024E+00  8160   0.459E+00    0.491E-01
DAV:   2    -0.191740522209E+03   -0.23140E-01   -0.15018E-01 12600   0.165E+00    0.134E+00
DAV:   3    -0.191726224412E+03    0.14298E-01   -0.54876E-02 12040   0.151E+00    0.557E-01
DAV:   4    -0.191724904880E+03    0.13195E-02   -0.11144E-02 11040   0.676E-01    0.439E-01
DAV:   5    -0.191723088945E+03    0.18159E-02   -0.57246E-03 10560   0.553E-01    0.236E-01
DAV:   6    -0.191722555901E+03    0.53304E-03   -0.20762E-03 11920   0.249E-01    0.113E-01
DAV:   7    -0.191722509256E+03    0.46645E-04   -0.87016E-04 10920   0.140E-01
  44 F= -.19172251E+03 E0= -.19161990E+03  d E =-.605174E-01
       N       E                     dE             d eps       ncg     rms          rms(c)
DAV:   1    -0.191735379394E+03   -0.12823E-01   -0.27433E-01  8160   0.112E+00    0.157E-01
DAV:   2    -0.191738500069E+03   -0.31207E-02   -0.12700E-02 12760   0.634E-01    0.549E-01
DAV:   3    -0.191735571476E+03    0.29286E-02   -0.61074E-03 11160   0.541E-01    0.115E-01
DAV:   4    -0.191735627495E+03   -0.56019E-04   -0.78306E-04  9120   0.182E-01
  45 F= -.19173563E+03 E0= -.19163342E+03  d E =-.131182E-01
       N       E                     dE             d eps       ncg     rms          rms(c)
DAV:   1    -0.191803295622E+03   -0.67724E-01   -0.85665E+00  8160   0.622E+00    0.700E-01
DAV:   2    -0.191850307803E+03   -0.47012E-01   -0.29181E-01 13520   0.250E+00    0.202E+00
DAV:   3    -0.191818080594E+03    0.32227E-01   -0.12058E-01 11840   0.215E+00    0.742E-01
DAV:   4    -0.191816419720E+03    0.16609E-02   -0.23693E-02 11440   0.101E+00    0.668E-01
DAV:   5    -0.191812324477E+03    0.40952E-02   -0.13668E-02 11120   0.840E-01    0.369E-01
DAV:   6    -0.191810938433E+03    0.13860E-02   -0.52807E-03 10960   0.391E-01    0.195E-01
DAV:   7    -0.191812124157E+03   -0.11857E-02   -0.42692E-03 12200   0.470E-01    0.406E-01
DAV:   8    -0.191810443822E+03    0.16803E-02   -0.24265E-03 10160   0.362E-01    0.420E-02
DAV:   9    -0.191810447875E+03   -0.40534E-05   -0.11766E-04  5880   0.449E-02
  46 F= -.19181045E+03 E0= -.19170921E+03  d E =-.748204E-01
       N       E                     dE             d eps       ncg     rms          rms(c)
DAV:   1    -0.191879460632E+03   -0.69017E-01   -0.38549E+01  8160   0.132E+01    0.134E+00
DAV:   2    -0.192044322488E+03   -0.16486E+00   -0.12668E+00 12040   0.446E+00    0.352E+00
DAV:   3    -0.191968646837E+03    0.75676E-01   -0.47615E-01 11800   0.403E+00    0.154E+00
DAV:   4    -0.191958184880E+03    0.10462E-01   -0.89426E-02 12280   0.198E+00    0.128E+00
DAV:   5    -0.191940011293E+03    0.18174E-01   -0.44809E-02 11400   0.155E+00    0.602E-01
DAV:   6    -0.191938926061E+03    0.10852E-02   -0.20217E-02 11200   0.762E-01    0.533E-01
DAV:   7    -0.191940663934E+03   -0.17379E-02   -0.18277E-02 12160   0.100E+00    0.707E-01
DAV:   8    -0.191935213204E+03    0.54507E-02   -0.82271E-03 11480   0.663E-01    0.102E-01
DAV:   9    -0.191935111441E+03    0.10176E-03   -0.75730E-04 10000   0.997E-02    0.482E-02
DAV:  10    -0.191935053593E+03    0.57849E-04   -0.24015E-04  8600   0.549E-02
  47 F= -.19193505E+03 E0= -.19183679E+03  d E =-.124606E+00
       N       E                     dE             d eps       ncg     rms          rms(c)
DAV:   1    -0.191939147771E+03   -0.40363E-02   -0.93071E-01  8160   0.210E+00    0.304E-01
DAV:   2    -0.191941336515E+03   -0.21887E-02   -0.29521E-02 11480   0.790E-01    0.549E-01
DAV:   3    -0.191939320673E+03    0.20158E-02   -0.12237E-02 11880   0.772E-01    0.372E-01
DAV:   4    -0.191938463923E+03    0.85675E-03   -0.52980E-03 11320   0.470E-01    0.289E-01
DAV:   5    -0.191938026109E+03    0.43781E-03   -0.33116E-03 10000   0.399E-01    0.220E-01
DAV:   6    -0.191937503714E+03    0.52239E-03   -0.15573E-03 11600   0.244E-01    0.859E-02
DAV:   7    -0.191937478990E+03    0.24724E-04   -0.48751E-04  8400   0.145E-01
  48 F= -.19193748E+03 E0= -.19183987E+03  d E =-.242540E-02
       N       E                     dE             d eps       ncg     rms          rms(c)
DAV:   1    -0.191960575306E+03   -0.23072E-01   -0.17602E+00  8160   0.283E+00    0.283E-01
DAV:   2    -0.191964514304E+03   -0.39390E-02   -0.56176E-02 11840   0.674E-01    0.255E-01
DAV:   3    -0.191966144763E+03   -0.16305E-02   -0.83178E-03 11360   0.609E-01    0.499E-01
DAV:   4    -0.191963686535E+03    0.24582E-02   -0.41639E-03 11000   0.471E-01    0.143E-01
DAV:   5    -0.191963801695E+03   -0.11516E-03   -0.14495E-03 10080   0.251E-01    0.182E-01
DAV:   6    -0.191963582474E+03    0.21922E-03   -0.13252E-03 11080   0.240E-01    0.109E-01
DAV:   7    -0.191963548583E+03    0.33891E-04   -0.59442E-04  8720   0.162E-01
  49 F= -.19196355E+03 E0= -.19186748E+03  d E =-.260696E-01
       N       E                     dE             d eps       ncg     rms          rms(c)
DAV:   1    -0.191981733430E+03   -0.18151E-01   -0.73896E-01  8160   0.186E+00    0.213E-01
DAV:   2    -0.191983593220E+03   -0.18598E-02   -0.25120E-02 12160   0.459E-01    0.247E-01
DAV:   3    -0.191984163286E+03   -0.57007E-03   -0.52881E-03 12400   0.491E-01    0.377E-01
DAV:   4    -0.191982979931E+03    0.11834E-02   -0.27846E-03 10840   0.362E-01    0.121E-01
DAV:   5    -0.191982819646E+03    0.16029E-03   -0.68001E-04  9920   0.133E-01    0.905E-02
DAV:   6    -0.191982966499E+03   -0.14685E-03   -0.67681E-04  9960   0.196E-01    0.145E-01
DAV:   7    -0.191982743419E+03    0.22308E-03   -0.33678E-04  7400   0.134E-01    0.238E-02
DAV:   8    -0.191982751837E+03   -0.84183E-05   -0.42140E-05  5840   0.450E-02
  50 F= -.19198275E+03 E0= -.19188897E+03  d E =-.192033E-01
       N       E                     dE             d eps       ncg     rms          rms(c)
DAV:   1    -0.191950859468E+03    0.31884E-01   -0.20732E+00  8160   0.312E+00    0.363E-01
DAV:   2    -0.191956690501E+03   -0.58310E-02   -0.64005E-02 12720   0.853E-01    0.614E-01
DAV:   3    -0.191955540334E+03    0.11502E-02   -0.19427E-02 12120   0.896E-01    0.522E-01
DAV:   4    -0.191953128920E+03    0.24114E-02   -0.59490E-03 11560   0.471E-01    0.186E-01
DAV:   5    -0.191952893230E+03    0.23569E-03   -0.24911E-03 11560   0.318E-01    0.195E-01
DAV:   6    -0.191952779970E+03    0.11326E-03   -0.19104E-03 11840   0.303E-01    0.156E-01
DAV:   7    -0.191952556861E+03    0.22311E-03   -0.71396E-04  9240   0.185E-01    0.103E-01
DAV:   8    -0.191952461567E+03    0.95294E-04   -0.23043E-04  7400   0.117E-01
  51 F= -.19195246E+03 E0= -.19185500E+03  d E =0.302903E-01
       N       E                     dE             d eps       ncg     rms          rms(c)
DAV:   1    -0.191920512967E+03    0.32044E-01   -0.47218E+00  8160   0.473E+00    0.539E-01
DAV:   2    -0.191929903587E+03   -0.93906E-02   -0.13648E-01 12560   0.109E+00    0.621E-01
DAV:   3    -0.191933415052E+03   -0.35115E-02   -0.35146E-02 12160   0.122E+00    0.903E-01
DAV:   4    -0.191926133832E+03    0.72812E-02   -0.16543E-02 12160   0.877E-01    0.307E-01
DAV:   5    -0.191925133097E+03    0.10007E-02   -0.52177E-03  9880   0.406E-01    0.275E-01
DAV:   6    -0.191925567421E+03   -0.43432E-03   -0.47807E-03 12240   0.491E-01    0.327E-01
DAV:   7    -0.191924513044E+03    0.10544E-02   -0.19091E-03 10080   0.323E-01    0.122E-01
DAV:   8    -0.191924372441E+03    0.14060E-03   -0.36558E-04  8800   0.144E-01    0.399E-02
DAV:   9    -0.191924356196E+03    0.16245E-04   -0.59684E-05  7360   0.485E-02
  52 F= -.19192436E+03 E0= -.19182303E+03  d E =0.281054E-01
       N       E                     dE             d eps       ncg     rms          rms(c)
DAV:   1    -0.191933828588E+03   -0.94561E-02   -0.87317E-01  8160   0.198E+00    0.227E-01
DAV:   2    -0.191939920419E+03   -0.60918E-02   -0.37030E-02 12280   0.834E-01    0.676E-01
DAV:   3    -0.191935882348E+03    0.40381E-02   -0.11258E-02 11520   0.714E-01    0.193E-01
DAV:   4    -0.191935772136E+03    0.11021E-03   -0.15027E-03  9720   0.229E-01    0.184E-01
DAV:   5    -0.191935545752E+03    0.22638E-03   -0.11208E-03 10320   0.243E-01    0.128E-01
DAV:   6    -0.191935459320E+03    0.86433E-04   -0.49337E-04  8400   0.129E-01
  53 F= -.19193546E+03 E0= -.19183377E+03  d E =-.111031E-01
       N       E                     dE             d eps       ncg     rms          rms(c)
DAV:   1    -0.191944189879E+03   -0.86441E-02   -0.54027E-01  8160   0.160E+00    0.232E-01
DAV:   2    -0.191947222803E+03   -0.30329E-02   -0.27450E-02 11960   0.681E-01    0.506E-01
DAV:   3    -0.191945298631E+03    0.19242E-02   -0.81952E-03 11920   0.619E-01    0.243E-01
DAV:   4    -0.191944932651E+03    0.36598E-03   -0.21748E-03 10800   0.305E-01    0.197E-01
DAV:   5    -0.191944686034E+03    0.24662E-03   -0.16370E-03  9800   0.278E-01    0.147E-01
DAV:   6    -0.191944602789E+03    0.83246E-04   -0.87240E-04  9080   0.187E-01
  54 F= -.19194460E+03 E0= -.19184275E+03  d E =-.914347E-02
       N       E                     dE             d eps       ncg     rms          rms(c)
DAV:   1    -0.191954493710E+03   -0.98077E-02   -0.71924E+00  8160   0.568E+00    0.667E-01
DAV:   2    -0.191992369472E+03   -0.37876E-01   -0.31077E-01 11760   0.222E+00    0.160E+00
DAV:   3    -0.191974144667E+03    0.18225E-01   -0.84944E-02 12240   0.186E+00    0.687E-01
DAV:   4    -0.191972200401E+03    0.19443E-02   -0.18437E-02 12160   0.876E-01    0.628E-01
DAV:   5    -0.191968619891E+03    0.35805E-02   -0.12441E-02 11040   0.768E-01    0.345E-01
DAV:   6    -0.191968979395E+03   -0.35950E-03   -0.60458E-03 11560   0.509E-01    0.379E-01
DAV:   7    -0.191967771572E+03    0.12078E-02   -0.41571E-03 11120   0.499E-01    0.182E-01
DAV:   8    -0.191967298171E+03    0.47340E-03   -0.85126E-04 10400   0.177E-01    0.417E-02
DAV:   9    -0.191967274896E+03    0.23275E-04   -0.12025E-04  7000   0.408E-02
  55 F= -.19196727E+03 E0= -.19186462E+03  d E =-.226721E-01
       N       E                     dE             d eps       ncg     rms          rms(c)
DAV:   1    -0.191969195663E+03   -0.18975E-02   -0.20790E-01  8160   0.105E+00    0.216E-01
DAV:   2    -0.191969575616E+03   -0.37995E-03   -0.11398E-02 11600   0.482E-01    0.359E-01
DAV:   3    -0.191968651653E+03    0.92396E-03   -0.45916E-03 11480   0.502E-01    0.223E-01
DAV:   4    -0.191968294197E+03    0.35746E-03   -0.18883E-03 10600   0.307E-01    0.175E-01
DAV:   5    -0.191968125464E+03    0.16873E-03   -0.12729E-03  9560   0.276E-01    0.139E-01
DAV:   6    -0.191967887968E+03    0.23750E-03   -0.52906E-04  9080   0.155E-01    0.332E-02
DAV:   7    -0.191967883597E+03    0.43713E-05   -0.79991E-05  5800   0.378E-02
  56 F= -.19196788E+03 E0= -.19186605E+03  d E =-.608701E-03
       N       E                     dE             d eps       ncg     rms          rms(c)
DAV:   1    -0.191971858633E+03   -0.39707E-02   -0.27655E-01  8160   0.113E+00    0.151E-01
DAV:   2    -0.191973820372E+03   -0.19617E-02   -0.14045E-02 11280   0.505E-01    0.395E-01
DAV:   3    -0.191972559615E+03    0.12608E-02   -0.43358E-03 11320   0.432E-01    0.153E-01
DAV:   4    -0.191972450579E+03    0.10904E-03   -0.91286E-04  8360   0.192E-01    0.125E-01
DAV:   5    -0.191972324402E+03    0.12618E-03   -0.59069E-04  9120   0.171E-01    0.819E-02
DAV:   6    -0.191972304020E+03    0.20382E-04   -0.31729E-04  7040   0.112E-01
  57 F= -.19197230E+03 E0= -.19187064E+03  d E =-.442042E-02
       N       E                     dE             d eps       ncg     rms          rms(c)
DAV:   1    -0.191971716586E+03    0.60782E-03   -0.44623E-03 10960   0.182E-01    0.589E-02
DAV:   2    -0.191972515251E+03   -0.79867E-03   -0.14888E-03 11040   0.307E-01    0.274E-01
DAV:   3    -0.191971676307E+03    0.83894E-03   -0.10084E-03  9840   0.263E-01    0.337E-02
DAV:   4    -0.191971682856E+03   -0.65485E-05   -0.46045E-05  5720   0.442E-02
  58 F= -.19197168E+03 E0= -.19186993E+03  d E =0.621164E-03
       N       E                     dE             d eps       ncg     rms          rms(c)
DAV:   1    -0.191975977739E+03   -0.43014E-02   -0.24701E-01  8160   0.107E+00    0.122E-01
DAV:   2    -0.191976681329E+03   -0.70359E-03   -0.84637E-03 11320   0.290E-01    0.179E-01
DAV:   3    -0.191976690342E+03   -0.90126E-05   -0.20930E-03 11720   0.296E-01    0.194E-01
DAV:   4    -0.191976365686E+03    0.32466E-03   -0.82415E-04  8240   0.184E-01    0.699E-02
DAV:   5    -0.191976350173E+03    0.15514E-04   -0.24403E-04  7000   0.111E-01
  59 F= -.19197635E+03 E0= -.19187516E+03  d E =-.466732E-02
       N       E                     dE             d eps       ncg     rms          rms(c)
DAV:   1    -0.191966593797E+03    0.97719E-02   -0.10364E+00  8160   0.221E+00    0.267E-01
DAV:   2    -0.191970960451E+03   -0.43667E-02   -0.37443E-02 12320   0.707E-01    0.542E-01
DAV:   3    -0.191968860843E+03    0.20996E-02   -0.10649E-02 12760   0.698E-01    0.330E-01
DAV:   4    -0.191968038326E+03    0.82252E-03   -0.31260E-03 11400   0.341E-01    0.182E-01
DAV:   5    -0.191968036549E+03    0.17772E-05   -0.19514E-03 10400   0.300E-01    0.223E-01
DAV:   6    -0.191967619543E+03    0.41701E-03   -0.12810E-03  9720   0.249E-01    0.871E-02
DAV:   7    -0.191967616110E+03    0.34335E-05   -0.35934E-04  8000   0.122E-01
  60 F= -.19196762E+03 E0= -.19186484E+03  d E =0.873406E-02
       N       E                     dE             d eps       ncg     rms          rms(c)
DAV:   1    -0.191967101404E+03    0.51814E-03   -0.13030E-01  8160   0.783E-01    0.981E-02
DAV:   2    -0.191967329262E+03   -0.22786E-03   -0.40503E-03 12040   0.197E-01    0.114E-01
DAV:   3    -0.191967373353E+03   -0.44091E-04   -0.10337E-03 10920   0.216E-01    0.145E-01
DAV:   4    -0.191967212931E+03    0.16042E-03   -0.52591E-04  8520   0.162E-01    0.768E-02
DAV:   5    -0.191967189776E+03    0.23155E-04   -0.29843E-04  7400   0.115E-01
  61 F= -.19196719E+03 E0= -.19186420E+03  d E =0.426334E-03
       N       E                     dE             d eps       ncg     rms          rms(c)
DAV:   1    -0.191967605709E+03   -0.39278E-03   -0.43456E-02  8160   0.457E-01    0.674E-02
DAV:   2    -0.191968107036E+03   -0.50133E-03   -0.20634E-03 12760   0.239E-01    0.215E-01
DAV:   3    -0.191967645349E+03    0.46169E-03   -0.83900E-04  9280   0.215E-01    0.472E-02
DAV:   4    -0.191967670180E+03   -0.24831E-04   -0.11897E-04  5760   0.678E-02
  62 F= -.19196767E+03 E0= -.19186473E+03  d E =-.480404E-03
       N       E                     dE             d eps       ncg     rms          rms(c)
DAV:   1    -0.191970164923E+03   -0.25196E-02   -0.15837E-01  8160   0.858E-01    0.105E-01
DAV:   2    -0.191970577135E+03   -0.41221E-03   -0.60784E-03 10440   0.233E-01    0.111E-01
DAV:   3    -0.191970602125E+03   -0.24990E-04   -0.10441E-03 10760   0.216E-01    0.147E-01
DAV:   4    -0.191970428345E+03    0.17378E-03   -0.53586E-04  8360   0.176E-01    0.739E-02
DAV:   5    -0.191970377711E+03    0.50634E-04   -0.17667E-04  5560   0.872E-02
  63 F= -.19197038E+03 E0= -.19186763E+03  d E =-.270753E-02
       N       E                     dE             d eps       ncg     rms          rms(c)
DAV:   1    -0.191971977255E+03   -0.15489E-02   -0.59619E-02  8160   0.532E-01    0.905E-02
DAV:   2    -0.191973167546E+03   -0.11903E-02   -0.42479E-03 12360   0.346E-01    0.348E-01
DAV:   3    -0.191972005637E+03    0.11619E-02   -0.22297E-03 10000   0.313E-01    0.593E-02
DAV:   4    -0.191972073687E+03   -0.68050E-04   -0.24103E-04  7400   0.116E-01
  64 F= -.19197207E+03 E0= -.19186916E+03  d E =-.169598E-02
       N       E                     dE             d eps       ncg     rms          rms(c)
DAV:   1    -0.191972469219E+03   -0.46358E-03   -0.17794E-02  8160   0.298E-01    0.646E-02
DAV:   2    -0.191973009963E+03   -0.54074E-03   -0.15457E-03 10600   0.258E-01    0.242E-01
DAV:   3    -0.191972417905E+03    0.59206E-03   -0.94379E-04  8480   0.228E-01    0.384E-02
DAV:   4    -0.191972456285E+03   -0.38380E-04   -0.14630E-04  5960   0.792E-02
  65 F= -.19197246E+03 E0= -.19186982E+03  d E =-.382598E-03
       N       E                     dE             d eps       ncg     rms          rms(c)
DAV:   1    -0.191974901596E+03   -0.24837E-02   -0.15812E-01  8160   0.852E-01    0.102E-01
DAV:   2    -0.191975504202E+03   -0.60261E-03   -0.57587E-03 11240   0.245E-01    0.193E-01
DAV:   3    -0.191975305193E+03    0.19901E-03   -0.16047E-03 10040   0.260E-01    0.140E-01
DAV:   4    -0.191975141764E+03    0.16343E-03   -0.41616E-04  7440   0.123E-01    0.542E-02
DAV:   5    -0.191975153124E+03   -0.11360E-04   -0.18475E-04  7160   0.101E-01
  66 F= -.19197515E+03 E0= -.19187286E+03  d E =-.269684E-02
       N       E                     dE             d eps       ncg     rms          rms(c)
DAV:   1    -0.191974027326E+03    0.11144E-02   -0.24904E-02  8160   0.350E-01    0.624E-02
DAV:   2    -0.191974844356E+03   -0.81703E-03   -0.21383E-03 11720   0.295E-01    0.272E-01
DAV:   3    -0.191974049600E+03    0.79476E-03   -0.11906E-03  9480   0.267E-01    0.423E-02
DAV:   4    -0.191974050628E+03   -0.10283E-05   -0.85344E-05  5520   0.524E-02
  67 F= -.19197405E+03 E0= -.19187161E+03  d E =0.110250E-02
       N       E                     dE             d eps       ncg     rms          rms(c)
DAV:   1    -0.191973219344E+03    0.83026E-03   -0.32107E-02  8160   0.395E-01    0.682E-02
DAV:   2    -0.191973489546E+03   -0.27020E-03   -0.15414E-03 11480   0.200E-01    0.178E-01
DAV:   3    -0.191973199912E+03    0.28963E-03   -0.82224E-04  8320   0.199E-01    0.701E-02
DAV:   4    -0.191973171030E+03    0.28881E-04   -0.16179E-04  5440   0.755E-02
  68 F= -.19197317E+03 E0= -.19187068E+03  d E =0.879598E-03
       N       E                     dE             d eps       ncg     rms          rms(c)
DAV:   1    -0.191975582282E+03   -0.23824E-02   -0.15499E-01  8160   0.848E-01    0.118E-01
DAV:   2    -0.191977590867E+03   -0.20086E-02   -0.78139E-03 11080   0.488E-01    0.403E-01
DAV:   3    -0.191975835315E+03    0.17556E-02   -0.27849E-03 11200   0.417E-01    0.746E-02
DAV:   4    -0.191975890923E+03   -0.55608E-04   -0.37626E-04  8280   0.136E-01
  69 F= -.19197589E+03 E0= -.19187323E+03  d E =-.271989E-02
       N       E                     dE             d eps       ncg     rms          rms(c)
DAV:   1    -0.191975532949E+03    0.30237E-03   -0.17440E-03 10480   0.151E-01    0.419E-02
DAV:   2    -0.191975903111E+03   -0.37016E-03   -0.75670E-04  9400   0.195E-01    0.194E-01
DAV:   3    -0.191975523314E+03    0.37980E-03   -0.60746E-04  8240   0.175E-01    0.337E-02
DAV:   4    -0.191975529438E+03   -0.61241E-05   -0.48283E-05  5520   0.462E-02
  70 F= -.19197553E+03 E0= -.19187327E+03  d E =0.361485E-03
       N       E                     dE             d eps       ncg     rms          rms(c)
DAV:   1    -0.191978018652E+03   -0.24953E-02   -0.14461E-01  8160   0.817E-01    0.994E-02
DAV:   2    -0.191978525248E+03   -0.50660E-03   -0.50777E-03 10680   0.238E-01    0.177E-01
DAV:   3    -0.191978381790E+03    0.14346E-03   -0.14446E-03 10120   0.251E-01    0.142E-01
DAV:   4    -0.191978221053E+03    0.16074E-03   -0.46832E-04  7800   0.133E-01    0.596E-02
DAV:   5    -0.191978224138E+03   -0.30853E-05   -0.18997E-04  6000   0.975E-02
  71 F= -.19197822E+03 E0= -.19187606E+03  d E =-.269470E-02
       N       E                     dE             d eps       ncg     rms          rms(c)
DAV:   1    -0.191975411107E+03    0.28099E-02   -0.14240E-01  8160   0.816E-01    0.103E-01
DAV:   2    -0.191976768579E+03   -0.13575E-02   -0.66034E-03 12800   0.361E-01    0.341E-01
DAV:   3    -0.191975686181E+03    0.10824E-02   -0.27045E-03 10520   0.341E-01    0.947E-02
DAV:   4    -0.191975638563E+03    0.47619E-04   -0.35607E-04  7920   0.102E-01
  72 F= -.19197564E+03 E0= -.19187354E+03  d E =0.258558E-02
       N       E                     dE             d eps       ncg     rms          rms(c)
DAV:   1    -0.191972834587E+03    0.28516E-02   -0.25773E-01  8160   0.111E+00    0.166E-01
DAV:   2    -0.191974675028E+03   -0.18404E-02   -0.10657E-02 12680   0.473E-01    0.425E-01
DAV:   3    -0.191973072445E+03    0.16026E-02   -0.49195E-03 11720   0.468E-01    0.171E-01
DAV:   4    -0.191972908138E+03    0.16431E-03   -0.10463E-03 10000   0.186E-01    0.110E-01
DAV:   5    -0.191972910156E+03   -0.20182E-05   -0.66981E-04  9800   0.197E-01
  73 F= -.19197291E+03 E0= -.19187017E+03  d E =0.272841E-02
       N       E                     dE             d eps       ncg     rms          rms(c)
DAV:   1    -0.191974277382E+03   -0.13692E-02   -0.10259E-01  8160   0.700E-01    0.103E-01
DAV:   2    -0.191974697409E+03   -0.42003E-03   -0.45687E-03 10600   0.242E-01    0.179E-01
DAV:   3    -0.191974520336E+03    0.17707E-03   -0.17470E-03 10000   0.268E-01    0.162E-01
DAV:   4    -0.191974306481E+03    0.21386E-03   -0.61510E-04  8160   0.154E-01    0.652E-02
DAV:   5    -0.191974294551E+03    0.11930E-04   -0.26856E-04  7880   0.110E-01
  74 F= -.19197429E+03 E0= -.19187166E+03  d E =-.138439E-02
       N       E                     dE             d eps       ncg     rms          rms(c)
DAV:   1    -0.191974830561E+03   -0.52408E-03   -0.10291E-02  8160   0.234E-01    0.502E-02
DAV:   2    -0.191975188549E+03   -0.35799E-03   -0.10227E-03 10400   0.211E-01    0.186E-01
DAV:   3    -0.191974811379E+03    0.37717E-03   -0.53273E-04  8520   0.184E-01    0.307E-02
DAV:   4    -0.191974826441E+03   -0.15062E-04   -0.58752E-05  5480   0.510E-02
  75 F= -.19197483E+03 E0= -.19187197E+03  d E =-.531890E-03
       N       E                     dE             d eps       ncg     rms          rms(c)
DAV:   1    -0.191977668633E+03   -0.28573E-02   -0.28333E-01  8160   0.115E+00    0.159E-01
DAV:   2    -0.191978489875E+03   -0.82124E-03   -0.11507E-02 10520   0.419E-01    0.233E-01
DAV:   3    -0.191978140945E+03    0.34893E-03   -0.26754E-03 12280   0.361E-01    0.166E-01
DAV:   4    -0.191978005730E+03    0.13521E-03   -0.13018E-03 10760   0.227E-01    0.157E-01
DAV:   5    -0.191977889219E+03    0.11651E-03   -0.85315E-04  8520   0.210E-01    0.120E-01
DAV:   6    -0.191977765947E+03    0.12327E-03   -0.37917E-04  7760   0.120E-01    0.510E-02
DAV:   7    -0.191977795867E+03   -0.29920E-04   -0.17456E-04  6680   0.101E-01
  76 F= -.19197780E+03 E0= -.19187560E+03  d E =-.296943E-02
       N       E                     dE             d eps       ncg     rms          rms(c)
DAV:   1    -0.191978595254E+03   -0.82931E-03   -0.25211E-02  8160   0.354E-01    0.661E-02
DAV:   2    -0.191979005902E+03   -0.41065E-03   -0.17776E-03 11600   0.239E-01    0.205E-01
DAV:   3    -0.191978598780E+03    0.40712E-03   -0.79577E-04  8840   0.202E-01    0.565E-02
DAV:   4    -0.191978621018E+03   -0.22238E-04   -0.22484E-04  6920   0.101E-01
  77 F= -.19197862E+03 E0= -.19187614E+03  d E =-.825152E-03
       N       E                     dE             d eps       ncg     rms          rms(c)
DAV:   1    -0.191980723763E+03   -0.21250E-02   -0.14496E-01  8160   0.827E-01    0.105E-01
DAV:   2    -0.191981190158E+03   -0.46640E-03   -0.51061E-03 12160   0.249E-01    0.175E-01
DAV:   3    -0.191981045196E+03    0.14496E-03   -0.13892E-03 11040   0.256E-01    0.147E-01
DAV:   4    -0.191980884655E+03    0.16054E-03   -0.56660E-04  8160   0.150E-01    0.760E-02
DAV:   5    -0.191980884880E+03   -0.22518E-06   -0.32313E-04  7600   0.124E-01
  78 F= -.19198088E+03 E0= -.19187880E+03  d E =-.226386E-02
       N       E                     dE             d eps       ncg     rms          rms(c)
DAV:   1    -0.191980972369E+03   -0.87715E-04   -0.71401E-04 10080   0.115E-01    0.387E-02
DAV:   2    -0.191981265221E+03   -0.29285E-03   -0.54203E-04  9240   0.179E-01    0.168E-01
DAV:   3    -0.191980951965E+03    0.31326E-03   -0.41005E-04  8120   0.162E-01    0.271E-02
DAV:   4    -0.191980958234E+03   -0.62693E-05   -0.30730E-05  5600   0.322E-02
  79 F= -.19198096E+03 E0= -.19187868E+03  d E =-.733541E-04
       N       E                     dE             d eps       ncg     rms          rms(c)
DAV:   1    -0.191983362441E+03   -0.24105E-02   -0.14540E-01  8160   0.824E-01    0.113E-01
DAV:   2    -0.191984255185E+03   -0.89274E-03   -0.59573E-03 11040   0.358E-01    0.282E-01
DAV:   3    -0.191983557354E+03    0.69783E-03   -0.23016E-03 10920   0.316E-01    0.115E-01
DAV:   4    -0.191983556333E+03    0.10207E-05   -0.56726E-04  8320   0.167E-01
  80 F= -.19198356E+03 E0= -.19188135E+03  d E =-.259810E-02
       N       E                     dE             d eps       ncg     rms          rms(c)
DAV:   1    -0.191984004523E+03   -0.44717E-03   -0.65785E-03  8240   0.227E-01    0.709E-02
DAV:   2    -0.191984695884E+03   -0.69136E-03   -0.14801E-03 11200   0.284E-01    0.253E-01
DAV:   3    -0.191983970288E+03    0.72560E-03   -0.10728E-03  9320   0.259E-01    0.619E-02
DAV:   4    -0.191983966972E+03    0.33156E-05   -0.15308E-04  5480   0.811E-02
  81 F= -.19198397E+03 E0= -.19188217E+03  d E =-.410639E-03
       N       E                     dE             d eps       ncg     rms          rms(c)
DAV:   1    -0.191986822624E+03   -0.28523E-02   -0.16352E-01  8160   0.876E-01    0.120E-01
DAV:   2    -0.191987815359E+03   -0.99273E-03   -0.61962E-03 12480   0.325E-01    0.302E-01
DAV:   3    -0.191987064429E+03    0.75093E-03   -0.26806E-03 10240   0.334E-01    0.135E-01
DAV:   4    -0.191986938281E+03    0.12615E-03   -0.53223E-04  8400   0.129E-01    0.656E-02
DAV:   5    -0.191986929921E+03    0.83605E-05   -0.28147E-04  7760   0.109E-01
  82 F= -.19198693E+03 E0= -.19188596E+03  d E =-.296295E-02
       N       E                     dE             d eps       ncg     rms          rms(c)
DAV:   1    -0.191980117861E+03    0.68204E-02   -0.82337E-01  8160   0.197E+00    0.253E-01
DAV:   2    -0.191986927076E+03   -0.68092E-02   -0.34847E-02 12840   0.869E-01    0.773E-01
DAV:   3    -0.191981402133E+03    0.55249E-02   -0.14513E-02 12400   0.797E-01    0.229E-01
DAV:   4    -0.191981103961E+03    0.29817E-03   -0.20189E-03 11240   0.258E-01    0.160E-01
DAV:   5    -0.191981030523E+03    0.73438E-04   -0.12101E-03 10680   0.269E-01    0.171E-01
DAV:   6    -0.191980771385E+03    0.25914E-03   -0.76489E-04  9360   0.201E-01    0.780E-02
DAV:   7    -0.191980832038E+03   -0.60653E-04   -0.45957E-04  8600   0.151E-01
  83 F= -.19198083E+03 E0= -.19187894E+03  d E =0.609788E-02
       N       E                     dE             d eps       ncg     rms          rms(c)
DAV:   1    -0.191977107123E+03    0.36643E-02   -0.44784E-01  8160   0.146E+00    0.187E-01
DAV:   2    -0.191979867291E+03   -0.27602E-02   -0.16761E-02 12680   0.552E-01    0.491E-01
DAV:   3    -0.191977835727E+03    0.20316E-02   -0.64889E-03 11920   0.528E-01    0.189E-01
DAV:   4    -0.191977606339E+03    0.22939E-03   -0.11140E-03  9760   0.179E-01    0.101E-01
DAV:   5    -0.191977509448E+03    0.96891E-04   -0.47108E-04  9480   0.138E-01
  84 F= -.19197751E+03 E0= -.19187486E+03  d E =0.332259E-02
       N       E                     dE             d eps       ncg     rms          rms(c)
DAV:   1    -0.191978158435E+03   -0.55210E-03   -0.64364E-02  8160   0.569E-01    0.115E-01
DAV:   2    -0.191980118037E+03   -0.19596E-02   -0.55506E-03 11880   0.498E-01    0.407E-01
DAV:   3    -0.191978172756E+03    0.19453E-02   -0.28511E-03 10200   0.425E-01    0.766E-02
DAV:   4    -0.191978217715E+03   -0.44959E-04   -0.38381E-04  8080   0.134E-01
  85 F= -.19197822E+03 E0= -.19187500E+03  d E =-.708267E-03
       N       E                     dE             d eps       ncg     rms          rms(c)
DAV:   1    -0.191979252168E+03   -0.10794E-02   -0.69513E-02  8160   0.578E-01    0.912E-02
DAV:   2    -0.191980767483E+03   -0.15153E-02   -0.46722E-03 12320   0.379E-01    0.392E-01
DAV:   3    -0.191979313826E+03    0.14537E-02   -0.28259E-03  9840   0.354E-01    0.712E-02
DAV:   4    -0.191979276162E+03    0.37664E-04   -0.18798E-04  6040   0.693E-02
  86 F= -.19197928E+03 E0= -.19187648E+03  d E =-.105845E-02
       N       E                     dE             d eps       ncg     rms          rms(c)
DAV:   1    -0.191980879968E+03   -0.15661E-02   -0.86431E-02  8160   0.641E-01    0.107E-01
DAV:   2    -0.191982280505E+03   -0.14005E-02   -0.48400E-03 11920   0.408E-01    0.369E-01
DAV:   3    -0.191980919239E+03    0.13613E-02   -0.25591E-03 10000   0.372E-01    0.783E-02
DAV:   4    -0.191980982010E+03   -0.62771E-04   -0.39808E-04  7680   0.132E-01
  87 F= -.19198098E+03 E0= -.19187820E+03  d E =-.170585E-02
       N       E                     dE             d eps       ncg     rms          rms(c)
DAV:   1    -0.191980419967E+03    0.49927E-03   -0.14140E-02  9480   0.302E-01    0.651E-02
DAV:   2    -0.191981333122E+03   -0.91316E-03   -0.21376E-03 12240   0.312E-01    0.305E-01
DAV:   3    -0.191980382401E+03    0.95072E-03   -0.13368E-03 10040   0.270E-01    0.351E-02
DAV:   4    -0.191980408662E+03   -0.26261E-04   -0.89967E-05  5760   0.612E-02
  88 F= -.19198041E+03 E0= -.19187764E+03  d E =0.573349E-03
       N       E                     dE             d eps       ncg     rms          rms(c)
DAV:   1    -0.191982152027E+03   -0.17696E-02   -0.10928E-01  8160   0.714E-01    0.978E-02
DAV:   2    -0.191983100897E+03   -0.94887E-03   -0.49676E-03 12040   0.325E-01    0.288E-01
DAV:   3    -0.191982335673E+03    0.76522E-03   -0.21533E-03 10040   0.311E-01    0.982E-02
DAV:   4    -0.191982310890E+03    0.24783E-04   -0.36023E-04  7880   0.126E-01
  89 F= -.19198231E+03 E0= -.19187977E+03  d E =-.190223E-02
       N       E                     dE             d eps       ncg     rms          rms(c)
DAV:   1    -0.191982087576E+03    0.24810E-03   -0.13377E-03 12000   0.147E-01    0.586E-02
DAV:   2    -0.191982794765E+03   -0.70719E-03   -0.12638E-03 11000   0.285E-01    0.259E-01
DAV:   3    -0.191982051708E+03    0.74306E-03   -0.91817E-04  9280   0.249E-01    0.396E-02
DAV:   4    -0.191982060473E+03   -0.87647E-05   -0.60414E-05  5680   0.507E-02
  90 F= -.19198206E+03 E0= -.19187967E+03  d E =0.250417E-03
       N       E                     dE             d eps       ncg     rms          rms(c)
DAV:   1    -0.191983518404E+03   -0.14667E-02   -0.76968E-02  8160   0.600E-01    0.888E-02
DAV:   2    -0.191984344221E+03   -0.82582E-03   -0.39307E-03 12000   0.291E-01    0.287E-01
DAV:   3    -0.191983615507E+03    0.72871E-03   -0.17494E-03  9720   0.277E-01    0.732E-02
DAV:   4    -0.191983580500E+03    0.35006E-04   -0.14187E-04  5560   0.664E-02
  91 F= -.19198358E+03 E0= -.19188137E+03  d E =-.152003E-02
       N       E                     dE             d eps       ncg     rms          rms(c)
DAV:   1    -0.191982282997E+03    0.13325E-02   -0.53015E-02  8160   0.512E-01    0.766E-02
DAV:   2    -0.191983070821E+03   -0.78782E-03   -0.29498E-03 12320   0.299E-01    0.262E-01
DAV:   3    -0.191982358931E+03    0.71189E-03   -0.12796E-03  9840   0.270E-01    0.634E-02
DAV:   4    -0.191982388819E+03   -0.29888E-04   -0.23661E-04  6560   0.100E-01
  92 F= -.19198239E+03 E0= -.19187997E+03  d E =0.119168E-02
       N       E                     dE             d eps       ncg     rms          rms(c)
DAV:   1    -0.191982044809E+03    0.31412E-03   -0.15126E-02  8160   0.280E-01    0.708E-02
DAV:   2    -0.191982217149E+03   -0.17234E-03   -0.12461E-03 11040   0.178E-01    0.169E-01
DAV:   3    -0.191981977552E+03    0.23960E-03   -0.80753E-04  8280   0.192E-01    0.786E-02
DAV:   4    -0.191981918802E+03    0.58751E-04   -0.17120E-04  5960   0.777E-02
  93 F= -.19198192E+03 E0= -.19187935E+03  d E =0.470018E-03
       N       E                     dE             d eps       ncg     rms          rms(c)
DAV:   1    -0.191983495396E+03   -0.15178E-02   -0.96724E-02  8160   0.671E-01    0.903E-02
DAV:   2    -0.191984479312E+03   -0.98392E-03   -0.43906E-03 12040   0.335E-01    0.298E-01
DAV:   3    -0.191983631312E+03    0.84800E-03   -0.18964E-03  9680   0.307E-01    0.750E-02
DAV:   4    -0.191983642698E+03   -0.11386E-04   -0.25733E-04  6280   0.106E-01
  94 F= -.19198364E+03 E0= -.19188115E+03  d E =-.172390E-02
       N       E                     dE             d eps       ncg     rms          rms(c)
DAV:   1    -0.191984100232E+03   -0.46892E-03   -0.77721E-03  9760   0.216E-01    0.650E-02
DAV:   2    -0.191984886004E+03   -0.78577E-03   -0.18032E-03 10880   0.287E-01    0.289E-01
DAV:   3    -0.191984048514E+03    0.83749E-03   -0.12708E-03  9560   0.257E-01    0.416E-02
DAV:   4    -0.191984062761E+03   -0.14247E-04   -0.94673E-05  5720   0.621E-02
  95 F= -.19198406E+03 E0= -.19188144E+03  d E =-.420063E-03
       N       E                     dE             d eps       ncg     rms          rms(c)
DAV:   1    -0.191985758511E+03   -0.17100E-02   -0.82515E-02  8160   0.625E-01    0.950E-02
DAV:   2    -0.191986570292E+03   -0.81178E-03   -0.38523E-03 12640   0.308E-01    0.276E-01
DAV:   3    -0.191985858609E+03    0.71168E-03   -0.19033E-03 10040   0.298E-01    0.955E-02
DAV:   4    -0.191985836961E+03    0.21648E-04   -0.33847E-04  7840   0.121E-01
  96 F= -.19198584E+03 E0= -.19188349E+03  d E =-.177420E-02
       N       E                     dE             d eps       ncg     rms          rms(c)
DAV:   1    -0.191987088152E+03   -0.12295E-02   -0.36670E-02  8160   0.445E-01    0.110E-01
DAV:   2    -0.191989074222E+03   -0.19861E-02   -0.48121E-03 12240   0.466E-01    0.455E-01
DAV:   3    -0.191986998649E+03    0.20756E-02   -0.32231E-03 10400   0.422E-01    0.751E-02
DAV:   4    -0.191987027944E+03   -0.29296E-04   -0.33220E-04  7920   0.113E-01
  97 F= -.19198703E+03 E0= -.19188476E+03  d E =-.119098E-02
       N       E                     dE             d eps       ncg     rms          rms(c)
DAV:   1    -0.191988322181E+03   -0.13235E-02   -0.45226E-02  8160   0.478E-01    0.103E-01
DAV:   2    -0.191990105068E+03   -0.17829E-02   -0.44801E-03 12360   0.437E-01    0.429E-01
DAV:   3    -0.191988293210E+03    0.18119E-02   -0.32186E-03  9640   0.403E-01    0.814E-02
DAV:   4    -0.191988285315E+03    0.78946E-05   -0.28716E-04  7080   0.112E-01
  98 F= -.19198829E+03 E0= -.19188638E+03  d E =-.125737E-02
       N       E                     dE             d eps       ncg     rms          rms(c)
DAV:   1    -0.191990230086E+03   -0.19369E-02   -0.75141E-02  8160   0.609E-01    0.128E-01
DAV:   2    -0.191992753497E+03   -0.25234E-02   -0.68537E-03 12240   0.520E-01    0.503E-01
DAV:   3    -0.191990186460E+03    0.25670E-02   -0.40888E-03 11040   0.473E-01    0.860E-02
DAV:   4    -0.191990229725E+03   -0.43265E-04   -0.46024E-04  8440   0.132E-01
  99 F= -.19199023E+03 E0= -.19188823E+03  d E =-.194441E-02
       N       E                     dE             d eps       ncg     rms          rms(c)
DAV:   1    -0.191990089296E+03    0.97164E-04   -0.14052E-02 10720   0.312E-01    0.115E-01
DAV:   2    -0.191992823877E+03   -0.27346E-02   -0.55049E-03 11960   0.565E-01    0.536E-01
DAV:   3    -0.191989912239E+03    0.29116E-02   -0.41048E-03  9560   0.487E-01    0.669E-02
DAV:   4    -0.191989964427E+03   -0.52189E-04   -0.32470E-04  7120   0.116E-01
 100 F= -.19198996E+03 E0= -.19188819E+03  d E =0.265298E-03
