       N       E                     dE             d eps       ncg     rms          rms(c)
DAV:   1     0.112607808453E+04    0.11261E+04   -0.35977E+04  8160   0.577E+02
DAV:   2    -0.252223274344E+01   -0.11286E+04   -0.10879E+04 11160   0.173E+02
DAV:   3    -0.199654698602E+03   -0.19713E+03   -0.18916E+03 10880   0.820E+01
DAV:   4    -0.208972794738E+03   -0.93181E+01   -0.90202E+01 12040   0.262E+01
DAV:   5    -0.209321555401E+03   -0.34876E+00   -0.34774E+00 11640   0.371E+00    0.275E+01
DAV:   6    -0.236714042691E+03   -0.27392E+02   -0.10605E+02 12640   0.604E+01    0.594E+01
DAV:   7    -0.196530321127E+03    0.40184E+02   -0.17695E+02 13360   0.152E+02    0.200E+01
DAV:   8    -0.189393276818E+03    0.71370E+01   -0.17353E+01 12000   0.127E+01    0.125E+01
DAV:   9    -0.188132979215E+03    0.12603E+01   -0.30435E+00 13160   0.649E+00    0.903E+00
DAV:  10    -0.187009263118E+03    0.11237E+01   -0.21785E+00 13400   0.718E+00    0.282E+00
DAV:  11    -0.186972107344E+03    0.37156E-01   -0.61310E-01 13320   0.261E+00    0.282E+00
DAV:  12    -0.187103837612E+03   -0.13173E+00   -0.89683E-01 12280   0.506E+00    0.495E+00
DAV:  13    -0.186887345899E+03    0.21649E+00   -0.53618E-01 12720   0.403E+00    0.217E+00
DAV:  14    -0.186862697290E+03    0.24649E-01   -0.13562E-01 13400   0.217E+00    0.177E+00
DAV:  15    -0.186839603511E+03    0.23094E-01   -0.72716E-02 12360   0.164E+00    0.835E-01
DAV:  16    -0.186832733436E+03    0.68701E-02   -0.10845E-02 12120   0.412E-01    0.472E-01
DAV:  17    -0.186830885192E+03    0.18482E-02   -0.79728E-03 12920   0.408E-01    0.237E-01
DAV:  18    -0.186830213389E+03    0.67180E-03   -0.29291E-03 12160   0.163E-01    0.205E-01
DAV:  19    -0.186829795004E+03    0.41839E-03   -0.10924E-03 11120   0.157E-01    0.460E-02
DAV:  20    -0.186830541676E+03   -0.74667E-03   -0.70441E-04  9280   0.566E-02    0.498E-02
DAV:  21    -0.186831124591E+03   -0.58291E-03   -0.24537E-04  7920   0.428E-02    0.392E-02
DAV:  22    -0.186832296912E+03   -0.11723E-02   -0.19193E-04  7480   0.513E-02    0.335E-02
DAV:  23    -0.186833523362E+03   -0.12265E-02   -0.13088E-04  7480   0.399E-02    0.106E-02
DAV:  24    -0.186834126180E+03   -0.60282E-03   -0.29843E-05  6640   0.135E-02    0.709E-03
DAV:  25    -0.186834483191E+03   -0.35701E-03   -0.14907E-05  5640   0.112E-02    0.476E-03
DAV:  26    -0.186834712952E+03   -0.22976E-03   -0.88024E-06  6800   0.716E-03    0.160E-03
DAV:  27    -0.186834813277E+03   -0.10032E-03   -0.36998E-06  7160   0.442E-03    0.136E-03
DAV:  28    -0.186834856359E+03   -0.43082E-04   -0.20200E-06  7480   0.338E-03
   1 F= -.18683486E+03 E0= -.18666271E+03  d E =-.186835E+03
       N       E                     dE             d eps       ncg     rms          rms(c)
DAV:   1    -0.187451606153E+03   -0.61679E+00   -0.27167E+02  8160   0.350E+01    0.457E+00
DAV:   2    -0.189149109818E+03   -0.16975E+01   -0.19870E+01 12240   0.145E+01    0.691E+00
DAV:   3    -0.189402111246E+03   -0.25300E+00   -0.31939E+00 12480   0.112E+01    0.725E+00
DAV:   4    -0.188719180563E+03    0.68293E+00   -0.67320E-01 12720   0.524E+00    0.182E+00
DAV:   5    -0.188725852561E+03   -0.66720E-02   -0.32400E-01 10800   0.180E+00    0.257E+00
DAV:   6    -0.188696004502E+03    0.29848E-01   -0.36344E-01 12880   0.302E+00    0.276E+00
DAV:   7    -0.188665422518E+03    0.30582E-01   -0.23047E-01 12280   0.278E+00    0.177E+00
DAV:   8    -0.188630354838E+03    0.35068E-01   -0.59956E-02 12720   0.118E+00    0.425E-01
DAV:   9    -0.188629822042E+03    0.53280E-03   -0.98928E-03 12360   0.510E-01    0.442E-01
DAV:  10    -0.188628913822E+03    0.90822E-03   -0.47264E-03 13600   0.380E-01    0.234E-01
DAV:  11    -0.188628174368E+03    0.73945E-03   -0.22001E-03 12920   0.158E-01    0.845E-02
DAV:  12    -0.188628259609E+03   -0.85241E-04   -0.82884E-04 11080   0.876E-02
   2 F= -.18862826E+03 E0= -.18848628E+03  d E =-.179340E+01
       N       E                     dE             d eps       ncg     rms          rms(c)
DAV:   1    -0.190541729035E+03   -0.19136E+01   -0.30737E+01  9280   0.141E+01    0.447E+00
DAV:   2    -0.190564613840E+03   -0.22885E-01   -0.28746E+00 11360   0.991E+00    0.763E+00
DAV:   3    -0.190007670845E+03    0.55694E+00   -0.13300E+00 12320   0.870E+00    0.406E+00
DAV:   4    -0.189808481028E+03    0.19919E+00   -0.67169E-01 12760   0.395E+00    0.249E+00
DAV:   5    -0.189733075767E+03    0.75405E-01   -0.30861E-01 11400   0.213E+00    0.151E+00
DAV:   6    -0.189712205835E+03    0.20870E-01   -0.81405E-02 11920   0.167E+00    0.896E-01
DAV:   7    -0.189704792047E+03    0.74138E-02   -0.16035E-02 12680   0.700E-01    0.194E-01
DAV:   8    -0.189704871960E+03   -0.79913E-04   -0.25468E-03 11040   0.181E-01    0.159E-01
DAV:   9    -0.189705072385E+03   -0.20042E-03   -0.11791E-03 11200   0.201E-01    0.196E-01
DAV:  10    -0.189705338165E+03   -0.26578E-03   -0.15121E-03 10320   0.264E-01    0.212E-01
DAV:  11    -0.189704855185E+03    0.48298E-03   -0.75520E-04  9520   0.156E-01    0.235E-02
DAV:  12    -0.189704885081E+03   -0.29896E-04   -0.82574E-05  6600   0.328E-02
   3 F= -.18970489E+03 E0= -.18958546E+03  d E =-.107663E+01
       N       E                     dE             d eps       ncg     rms          rms(c)
DAV:   1    -0.191217895932E+03   -0.15130E+01   -0.66721E+01  8160   0.187E+01    0.459E+00
DAV:   2    -0.191163334384E+03    0.54562E-01   -0.53678E+00 13520   0.882E+00    0.563E+00
DAV:   3    -0.191084766392E+03    0.78568E-01   -0.15501E+00 12000   0.920E+00    0.586E+00
DAV:   4    -0.190765842237E+03    0.31892E+00   -0.11103E+00 13000   0.652E+00    0.283E+00
DAV:   5    -0.190755738452E+03    0.10104E-01   -0.43764E-01 12200   0.429E+00    0.312E+00
DAV:   6    -0.190642398419E+03    0.11334E+00   -0.19448E-01 12240   0.318E+00    0.928E-01
DAV:   7    -0.190636825179E+03    0.55732E-02   -0.36102E-02 12520   0.997E-01    0.545E-01
DAV:   8    -0.190635664102E+03    0.11611E-02   -0.13466E-02 11440   0.782E-01    0.584E-01
DAV:   9    -0.190632397302E+03    0.32668E-02   -0.50406E-03 11680   0.512E-01    0.139E-01
DAV:  10    -0.190632760556E+03   -0.36325E-03   -0.12290E-03 10120   0.124E-01    0.125E-01
DAV:  11    -0.190632565692E+03    0.19486E-03   -0.78189E-04 10720   0.107E-01    0.456E-02
DAV:  12    -0.190632570379E+03   -0.46872E-05   -0.11561E-04  7120   0.432E-02
   4 F= -.19063257E+03 E0= -.19053272E+03  d E =-.927685E+00
       N       E                     dE             d eps       ncg     rms          rms(c)
DAV:   1    -0.192063407057E+03   -0.14308E+01   -0.14061E+02  8160   0.268E+01    0.586E+00
DAV:   2    -0.191875382400E+03    0.18802E+00   -0.98077E+00 12600   0.977E+00    0.526E+00
DAV:   3    -0.192155322750E+03   -0.27994E+00   -0.24267E+00 10920   0.113E+01    0.935E+00
DAV:   4    -0.191527479101E+03    0.62784E+00   -0.29356E+00 12120   0.117E+01    0.409E+00
DAV:   5    -0.191453982303E+03    0.73497E-01   -0.85067E-01 12240   0.621E+00    0.371E+00
DAV:   6    -0.191264984938E+03    0.18900E+00   -0.28985E-01 12280   0.399E+00    0.977E-01
DAV:   7    -0.191258477700E+03    0.65072E-02   -0.53487E-02 12160   0.112E+00    0.541E-01
DAV:   8    -0.191253612258E+03    0.48654E-02   -0.10735E-02 10560   0.498E-01    0.268E-01
DAV:   9    -0.191254410307E+03   -0.79805E-03   -0.42487E-03 12640   0.476E-01    0.359E-01
DAV:  10    -0.191253594270E+03    0.81604E-03   -0.32073E-03 11240   0.369E-01    0.104E-01
DAV:  11    -0.191253509071E+03    0.85199E-04   -0.68705E-04 10600   0.103E-01
   5 F= -.19125351E+03 E0= -.19116104E+03  d E =-.620939E+00
       N       E                     dE             d eps       ncg     rms          rms(c)
DAV:   1    -0.191316746509E+03   -0.63152E-01   -0.59330E+00  8160   0.515E+00    0.671E-01
DAV:   2    -0.191374961191E+03   -0.58215E-01   -0.25342E-01 13320   0.257E+00    0.223E+00
DAV:   3    -0.191327461457E+03    0.47500E-01   -0.12038E-01 11840   0.239E+00    0.579E-01
DAV:   4    -0.191326804865E+03    0.65659E-03   -0.15101E-02 11400   0.824E-01    0.567E-01
DAV:   5    -0.191323589849E+03    0.32150E-02   -0.74808E-03 11280   0.662E-01    0.245E-01
DAV:   6    -0.191322976486E+03    0.61336E-03   -0.21845E-03 11120   0.256E-01    0.133E-01
DAV:   7    -0.191323349497E+03   -0.37301E-03   -0.19449E-03 11680   0.295E-01    0.233E-01
DAV:   8    -0.191322808300E+03    0.54120E-03   -0.11800E-03 10000   0.263E-01    0.700E-02
DAV:   9    -0.191322760200E+03    0.48100E-04   -0.11983E-04  6200   0.661E-02
   6 F= -.19132276E+03 E0= -.19122689E+03  d E =-.692511E-01
       N       E                     dE             d eps       ncg     rms          rms(c)
DAV:   1    -0.191368455680E+03   -0.45647E-01   -0.28805E+00  8160   0.359E+00    0.460E-01
DAV:   2    -0.191396782216E+03   -0.28327E-01   -0.11773E-01 13600   0.189E+00    0.156E+00
DAV:   3    -0.191372643617E+03    0.24139E-01   -0.55412E-02 12040   0.164E+00    0.370E-01
DAV:   4    -0.191372767471E+03   -0.12385E-03   -0.71146E-03 11320   0.576E-01    0.405E-01
DAV:   5    -0.191371137691E+03    0.16298E-02   -0.36238E-03 11240   0.453E-01    0.159E-01
DAV:   6    -0.191370900283E+03    0.23741E-03   -0.10361E-03 10520   0.167E-01    0.905E-02
DAV:   7    -0.191371062287E+03   -0.16200E-03   -0.85604E-04 10440   0.192E-01    0.151E-01
DAV:   8    -0.191370823630E+03    0.23866E-03   -0.48290E-04  8680   0.169E-01    0.434E-02
DAV:   9    -0.191370809845E+03    0.13785E-04   -0.55669E-05  6240   0.446E-02
   7 F= -.19137081E+03 E0= -.19127274E+03  d E =-.480496E-01
       N       E                     dE             d eps       ncg     rms          rms(c)
DAV:   1    -0.191310926890E+03    0.59897E-01   -0.42660E+00  8160   0.439E+00    0.554E-01
DAV:   2    -0.191343794195E+03   -0.32867E-01   -0.16013E-01 13600   0.214E+00    0.154E+00
DAV:   3    -0.191315625062E+03    0.28169E-01   -0.49847E-02 12000   0.172E+00    0.390E-01
DAV:   4    -0.191315946568E+03   -0.32151E-03   -0.92542E-03 11560   0.612E-01    0.463E-01
DAV:   5    -0.191314015704E+03    0.19309E-02   -0.56433E-03 11480   0.562E-01    0.240E-01
DAV:   6    -0.191313431363E+03    0.58434E-03   -0.19742E-03 11720   0.258E-01    0.105E-01
DAV:   7    -0.191313351755E+03    0.79608E-04   -0.77911E-04 10440   0.122E-01
   8 F= -.19131335E+03 E0= -.19121809E+03  d E =0.574581E-01
       N       E                     dE             d eps       ncg     rms          rms(c)
DAV:   1    -0.191231911559E+03    0.81520E-01   -0.97960E+00  8160   0.664E+00    0.752E-01
DAV:   2    -0.191279947496E+03   -0.48036E-01   -0.30039E-01 13600   0.232E+00    0.170E+00
DAV:   3    -0.191246464089E+03    0.33483E-01   -0.85060E-02 12400   0.217E+00    0.744E-01
DAV:   4    -0.191243661805E+03    0.28023E-02   -0.20714E-02 12640   0.895E-01    0.543E-01
DAV:   5    -0.191241178091E+03    0.24837E-02   -0.97879E-03 11720   0.718E-01    0.401E-01
DAV:   6    -0.191239746489E+03    0.14316E-02   -0.48792E-03 11040   0.490E-01    0.203E-01
DAV:   7    -0.191239726912E+03    0.19576E-04   -0.22447E-03 11920   0.281E-01    0.189E-01
DAV:   8    -0.191239374756E+03    0.35216E-03   -0.11011E-03 10560   0.249E-01    0.106E-01
DAV:   9    -0.191239248180E+03    0.12658E-03   -0.24711E-04  8080   0.108E-01    0.250E-02
DAV:  10    -0.191239249895E+03   -0.17149E-05   -0.63909E-05  7640   0.312E-02
   9 F= -.19123925E+03 E0= -.19114842E+03  d E =0.741019E-01
       N       E                     dE             d eps       ncg     rms          rms(c)
DAV:   1    -0.191291978511E+03   -0.52730E-01   -0.51034E+00  8160   0.478E+00    0.575E-01
DAV:   2    -0.191331607749E+03   -0.39629E-01   -0.18583E-01 13520   0.205E+00    0.181E+00
DAV:   3    -0.191300190594E+03    0.31417E-01   -0.83512E-02 12200   0.200E+00    0.528E-01
DAV:   4    -0.191299128058E+03    0.10625E-02   -0.10797E-02 11400   0.666E-01    0.465E-01
DAV:   5    -0.191297037399E+03    0.20907E-02   -0.51816E-03 11480   0.547E-01    0.226E-01
DAV:   6    -0.191296602168E+03    0.43523E-03   -0.19508E-03 11000   0.261E-01    0.143E-01
DAV:   7    -0.191296890224E+03   -0.28806E-03   -0.17114E-03 11960   0.286E-01    0.220E-01
DAV:   8    -0.191296384250E+03    0.50597E-03   -0.95774E-04  9400   0.239E-01    0.559E-02
DAV:   9    -0.191296356265E+03    0.27985E-04   -0.91799E-05  6200   0.544E-02
  10 F= -.19129636E+03 E0= -.19120153E+03  d E =-.571064E-01
       N       E                     dE             d eps       ncg     rms          rms(c)
DAV:   1    -0.191313624640E+03   -0.17240E-01   -0.46009E-01  8160   0.145E+00    0.219E-01
DAV:   2    -0.191319785853E+03   -0.61612E-02   -0.23850E-02 13480   0.928E-01    0.742E-01
DAV:   3    -0.191313970498E+03    0.58154E-02   -0.11046E-02 11560   0.764E-01    0.150E-01
DAV:   4    -0.191314130198E+03   -0.15970E-03   -0.15443E-03 10160   0.273E-01    0.200E-01
DAV:   5    -0.191313744065E+03    0.38613E-03   -0.94186E-04 10000   0.229E-01    0.861E-02
DAV:   6    -0.191313662669E+03    0.81396E-04   -0.25747E-04  7080   0.882E-02
  11 F= -.19131366E+03 E0= -.19121739E+03  d E =-.173064E-01
       N       E                     dE             d eps       ncg     rms          rms(c)
DAV:   1    -0.191378481494E+03   -0.64737E-01   -0.68996E+00  8160   0.558E+00    0.749E-01
DAV:   2    -0.191453743834E+03   -0.75262E-01   -0.30199E-01 13480   0.309E+00    0.269E+00
DAV:   3    -0.191387779645E+03    0.65964E-01   -0.17037E-01 11880   0.273E+00    0.621E-01
DAV:   4    -0.191388070299E+03   -0.29065E-03   -0.20561E-02 11600   0.100E+00    0.691E-01
DAV:   5    -0.191383149188E+03    0.49211E-02   -0.10548E-02 11680   0.761E-01    0.264E-01
DAV:   6    -0.191382407280E+03    0.74191E-03   -0.32414E-03 11040   0.293E-01    0.162E-01
DAV:   7    -0.191382986430E+03   -0.57915E-03   -0.29270E-03 11920   0.381E-01    0.292E-01
DAV:   8    -0.191382063896E+03    0.92253E-03   -0.15811E-03 10160   0.300E-01    0.580E-02
DAV:   9    -0.191382027865E+03    0.36031E-04   -0.11541E-04  6080   0.558E-02
  12 F= -.19138203E+03 E0= -.19128145E+03  d E =-.683652E-01
       N       E                     dE             d eps       ncg     rms          rms(c)
DAV:   1    -0.191389420693E+03   -0.73568E-02   -0.79439E-02  8160   0.601E-01    0.733E-02
DAV:   2    -0.191389914468E+03   -0.49378E-03   -0.28211E-03 13600   0.258E-01    0.194E-01
DAV:   3    -0.191389533861E+03    0.38061E-03   -0.98997E-04 10200   0.224E-01    0.686E-02
DAV:   4    -0.191389524144E+03    0.97163E-05   -0.16902E-04  5960   0.912E-02
  13 F= -.19138952E+03 E0= -.19128871E+03  d E =-.749628E-02
       N       E                     dE             d eps       ncg     rms          rms(c)
DAV:   1    -0.191361012184E+03    0.28522E-01   -0.20924E+00  8160   0.311E+00    0.441E-01
DAV:   2    -0.191375507081E+03   -0.14495E-01   -0.84857E-02 12800   0.149E+00    0.108E+00
DAV:   3    -0.191362434489E+03    0.13073E-01   -0.27630E-02 12240   0.125E+00    0.367E-01
DAV:   4    -0.191362436071E+03   -0.15817E-05   -0.76848E-03 11160   0.562E-01    0.408E-01
DAV:   5    -0.191361169673E+03    0.12664E-02   -0.54330E-03 10160   0.500E-01    0.257E-01
DAV:   6    -0.191360449105E+03    0.72057E-03   -0.21073E-03 11080   0.281E-01    0.942E-02
DAV:   7    -0.191360369950E+03    0.79155E-04   -0.68080E-04 10800   0.113E-01
  14 F= -.19136037E+03 E0= -.19126014E+03  d E =0.291542E-01
       N       E                     dE             d eps       ncg     rms          rms(c)
DAV:   1    -0.191437235593E+03   -0.76786E-01   -0.89850E+00  8160   0.644E+00    0.822E-01
DAV:   2    -0.191491778778E+03   -0.54543E-01   -0.33161E-01 13560   0.285E+00    0.207E+00
DAV:   3    -0.191448461172E+03    0.43318E-01   -0.12129E-01 12280   0.248E+00    0.674E-01
DAV:   4    -0.191446832633E+03    0.16285E-02   -0.23068E-02 12400   0.947E-01    0.690E-01
DAV:   5    -0.191443353282E+03    0.34794E-02   -0.16831E-02 12200   0.926E-01    0.486E-01
DAV:   6    -0.191440982262E+03    0.23710E-02   -0.69788E-03 11400   0.514E-01    0.191E-01
DAV:   7    -0.191441236229E+03   -0.25397E-03   -0.35037E-03 11880   0.355E-01    0.265E-01
DAV:   8    -0.191440556061E+03    0.68017E-03   -0.18751E-03 10080   0.323E-01    0.109E-01
DAV:   9    -0.191440401011E+03    0.15505E-03   -0.32465E-04  8280   0.108E-01    0.268E-02
DAV:  10    -0.191440396954E+03    0.40569E-05   -0.80788E-05  7240   0.325E-02
  15 F= -.19144040E+03 E0= -.19133803E+03  d E =-.800270E-01
       N       E                     dE             d eps       ncg     rms          rms(c)
DAV:   1    -0.191475293357E+03   -0.34892E-01   -0.16880E+00  8160   0.277E+00    0.356E-01
DAV:   2    -0.191489867537E+03   -0.14574E-01   -0.68036E-02 13600   0.138E+00    0.115E+00
DAV:   3    -0.191477406641E+03    0.12461E-01   -0.31280E-02 12200   0.120E+00    0.283E-01
DAV:   4    -0.191477531479E+03   -0.12484E-03   -0.42333E-03 11520   0.446E-01    0.322E-01
DAV:   5    -0.191476491145E+03    0.10403E-02   -0.25334E-03 10720   0.382E-01    0.141E-01
DAV:   6    -0.191476389502E+03    0.10164E-03   -0.10060E-03  9920   0.187E-01    0.112E-01
DAV:   7    -0.191476460962E+03   -0.71460E-04   -0.85691E-04  9800   0.218E-01
  16 F= -.19147646E+03 E0= -.19137395E+03  d E =-.360640E-01
       N       E                     dE             d eps       ncg     rms          rms(c)
DAV:   1    -0.191458462730E+03    0.17927E-01   -0.49699E-01  8160   0.150E+00    0.197E-01
DAV:   2    -0.191463187142E+03   -0.47244E-02   -0.21972E-02 13160   0.775E-01    0.619E-01
DAV:   3    -0.191459175357E+03    0.40118E-02   -0.78139E-03 10960   0.644E-01    0.147E-01
DAV:   4    -0.191459143827E+03    0.31530E-04   -0.11688E-03  9640   0.217E-01    0.144E-01
DAV:   5    -0.191458941196E+03    0.20263E-03   -0.61506E-04  9360   0.188E-01    0.784E-02
DAV:   6    -0.191458885887E+03    0.55310E-04   -0.23322E-04  6640   0.937E-02
  17 F= -.19145889E+03 E0= -.19135651E+03  d E =0.175751E-01
       N       E                     dE             d eps       ncg     rms          rms(c)
DAV:   1    -0.191458914487E+03    0.26709E-04   -0.17563E-04  7120   0.613E-02    0.372E-02
DAV:   2    -0.191459220042E+03   -0.30556E-03   -0.62326E-04  9760   0.198E-01    0.168E-01
DAV:   3    -0.191458889803E+03    0.33024E-03   -0.45343E-04  8240   0.169E-01    0.213E-02
DAV:   4    -0.191458899514E+03   -0.97110E-05   -0.19244E-05  5560   0.224E-02
  18 F= -.19145890E+03 E0= -.19135660E+03  d E =-.136274E-04
       N       E                     dE             d eps       ncg     rms          rms(c)
DAV:   1    -0.191506497011E+03   -0.47607E-01   -0.40619E+00  8160   0.428E+00    0.435E-01
DAV:   2    -0.191513207870E+03   -0.67109E-02   -0.92196E-02 13200   0.947E-01    0.574E-01
DAV:   3    -0.191513001652E+03    0.20622E-03   -0.24129E-02 12520   0.106E+00    0.668E-01
DAV:   4    -0.191508767770E+03    0.42339E-02   -0.94864E-03 12320   0.673E-01    0.215E-01
DAV:   5    -0.191508184179E+03    0.58359E-03   -0.26584E-03 11400   0.276E-01    0.173E-01
DAV:   6    -0.191508474008E+03   -0.28983E-03   -0.23953E-03 11680   0.360E-01    0.232E-01
DAV:   7    -0.191507920320E+03    0.55369E-03   -0.11288E-03 10080   0.248E-01    0.780E-02
DAV:   8    -0.191507889537E+03    0.30784E-04   -0.26188E-04  7240   0.119E-01
  19 F= -.19150789E+03 E0= -.19140614E+03  d E =-.489900E-01
       N       E                     dE             d eps       ncg     rms          rms(c)
DAV:   1    -0.191516090633E+03   -0.81703E-02   -0.61525E-01  8160   0.168E+00    0.305E-01
DAV:   2    -0.191526457746E+03   -0.10367E-01   -0.42132E-02 12640   0.125E+00    0.100E+00
DAV:   3    -0.191515779359E+03    0.10678E-01   -0.22882E-02 11560   0.108E+00    0.235E-01
DAV:   4    -0.191515375096E+03    0.40426E-03   -0.28700E-03 11320   0.318E-01    0.196E-01
DAV:   5    -0.191515360183E+03    0.14913E-04   -0.20552E-03 11080   0.329E-01    0.219E-01
DAV:   6    -0.191514820338E+03    0.53985E-03   -0.13098E-03  9640   0.240E-01    0.787E-02
DAV:   7    -0.191514857896E+03   -0.37559E-04   -0.46629E-04  7440   0.153E-01
  20 F= -.19151486E+03 E0= -.19141374E+03  d E =-.696836E-02
       N       E                     dE             d eps       ncg     rms          rms(c)
DAV:   1    -0.191579137300E+03   -0.64317E-01   -0.51290E+00  8160   0.485E+00    0.549E-01
DAV:   2    -0.191601653547E+03   -0.22516E-01   -0.16833E-01 13480   0.174E+00    0.128E+00
DAV:   3    -0.191587760183E+03    0.13893E-01   -0.53912E-02 12000   0.158E+00    0.548E-01
DAV:   4    -0.191586254080E+03    0.15061E-02   -0.10600E-02 11600   0.695E-01    0.450E-01
DAV:   5    -0.191584285673E+03    0.19684E-02   -0.59893E-03 11600   0.600E-01    0.269E-01
DAV:   6    -0.191583826474E+03    0.45920E-03   -0.31470E-03 11960   0.350E-01    0.168E-01
DAV:   7    -0.191583805117E+03    0.21358E-04   -0.17292E-03 11400   0.284E-01    0.191E-01
DAV:   8    -0.191583399096E+03    0.40602E-03   -0.74496E-04  9000   0.214E-01    0.474E-02
DAV:   9    -0.191583378454E+03    0.20643E-04   -0.10332E-04  6160   0.554E-02
  21 F= -.19158338E+03 E0= -.19148484E+03  d E =-.685206E-01
       N       E                     dE             d eps       ncg     rms          rms(c)
DAV:   1    -0.191572543762E+03    0.10855E-01   -0.12022E-01  8160   0.741E-01    0.780E-02
DAV:   2    -0.191572811265E+03   -0.26750E-03   -0.33061E-03 13280   0.198E-01    0.112E-01
DAV:   3    -0.191572750450E+03    0.60815E-04   -0.66161E-04  9600   0.189E-01
  22 F= -.19157275E+03 E0= -.19147334E+03  d E =0.106280E-01
       N       E                     dE             d eps       ncg     rms          rms(c)
DAV:   1    -0.191537160008E+03    0.35651E-01   -0.15973E+00  8160   0.269E+00    0.324E-01
DAV:   2    -0.191545083090E+03   -0.79231E-02   -0.52539E-02 13360   0.995E-01    0.756E-01
DAV:   3    -0.191539309334E+03    0.57738E-02   -0.18264E-02 12480   0.957E-01    0.334E-01
DAV:   4    -0.191538515142E+03    0.79419E-03   -0.35624E-03 11320   0.358E-01    0.208E-01
DAV:   5    -0.191538172545E+03    0.34260E-03   -0.17582E-03 11440   0.303E-01    0.179E-01
DAV:   6    -0.191538024340E+03    0.14820E-03   -0.14483E-03 10280   0.271E-01    0.137E-01
DAV:   7    -0.191537921019E+03    0.10332E-03   -0.74776E-04  8920   0.190E-01    0.113E-01
DAV:   8    -0.191537796512E+03    0.12451E-03   -0.31280E-04  7600   0.138E-01    0.358E-02
DAV:   9    -0.191537783385E+03    0.13127E-04   -0.46453E-05  6680   0.397E-02
  23 F= -.19153778E+03 E0= -.19143674E+03  d E =0.349671E-01
       N       E                     dE             d eps       ncg     rms          rms(c)
DAV:   1    -0.191615279165E+03   -0.77483E-01   -0.78808E+00  8160   0.598E+00    0.618E-01
DAV:   2    -0.191640023243E+03   -0.24744E-01   -0.22180E-01 12760   0.179E+00    0.120E+00
DAV:   3    -0.191629363582E+03    0.10660E-01   -0.59827E-02 12360   0.170E+00    0.700E-01
DAV:   4    -0.191625176913E+03    0.41867E-02   -0.12273E-02 11760   0.731E-01    0.391E-01
DAV:   5    -0.191623941838E+03    0.12351E-02   -0.59513E-03 11800   0.584E-01    0.330E-01
DAV:   6    -0.191623569802E+03    0.37204E-03   -0.47361E-03 12520   0.484E-01    0.242E-01
DAV:   7    -0.191623170552E+03    0.39925E-03   -0.23155E-03 11280   0.339E-01    0.193E-01
DAV:   8    -0.191622759990E+03    0.41056E-03   -0.80928E-04  9080   0.225E-01    0.532E-02
DAV:   9    -0.191622735548E+03    0.24442E-04   -0.12794E-04  6240   0.613E-02
  24 F= -.19162274E+03 E0= -.19152618E+03  d E =-.849522E-01
       N       E                     dE             d eps       ncg     rms          rms(c)
DAV:   1    -0.191641851726E+03   -0.19092E-01   -0.41056E-01  8160   0.137E+00    0.139E-01
DAV:   2    -0.191642597541E+03   -0.74581E-03   -0.11573E-02 12200   0.312E-01    0.133E-01
DAV:   3    -0.191642856286E+03   -0.25875E-03   -0.18335E-03 11360   0.303E-01    0.215E-01
DAV:   4    -0.191642383283E+03    0.47300E-03   -0.92923E-04  9640   0.226E-01    0.740E-02
DAV:   5    -0.191642378630E+03    0.46527E-05   -0.25662E-04  6800   0.117E-01
  25 F= -.19164238E+03 E0= -.19154681E+03  d E =-.196431E-01
       N       E                     dE             d eps       ncg     rms          rms(c)
DAV:   1    -0.191639960989E+03    0.24223E-02   -0.14397E-01  8160   0.875E-01    0.174E-01
DAV:   2    -0.191641030267E+03   -0.10693E-02   -0.84490E-03 12720   0.461E-01    0.356E-01
DAV:   3    -0.191639759226E+03    0.12710E-02   -0.40920E-03 10080   0.499E-01    0.177E-01
DAV:   4    -0.191639526345E+03    0.23288E-03   -0.10526E-03  9560   0.214E-01    0.123E-01
DAV:   5    -0.191639431185E+03    0.95160E-04   -0.64690E-04  8840   0.201E-01
  26 F= -.19163943E+03 E0= -.19154390E+03  d E =0.294745E-02
       N       E                     dE             d eps       ncg     rms          rms(c)
DAV:   1    -0.191712069482E+03   -0.72543E-01   -0.54925E+00  8160   0.511E+00    0.667E-01
DAV:   2    -0.191720654036E+03   -0.85846E-02   -0.18964E-01 12560   0.142E+00    0.741E-01
DAV:   3    -0.191722598612E+03   -0.19446E-02   -0.39898E-02 11560   0.150E+00    0.885E-01
DAV:   4    -0.191713820415E+03    0.87782E-02   -0.17759E-02 11120   0.102E+00    0.404E-01
DAV:   5    -0.191713331758E+03    0.48866E-03   -0.84953E-03 11440   0.675E-01    0.416E-01
DAV:   6    -0.191711751385E+03    0.15804E-02   -0.54162E-03 11360   0.556E-01    0.181E-01
DAV:   7    -0.191711292508E+03    0.45888E-03   -0.12960E-03 10360   0.203E-01    0.621E-02
DAV:   8    -0.191711223749E+03    0.68760E-04   -0.22249E-04  8320   0.786E-02
  27 F= -.19171122E+03 E0= -.19161942E+03  d E =-.717926E-01
       N       E                     dE             d eps       ncg     rms          rms(c)
DAV:   1    -0.191763231472E+03   -0.51939E-01   -0.43916E+00  8160   0.450E+00    0.535E-01
DAV:   2    -0.191771702562E+03   -0.84711E-02   -0.13893E-01 12120   0.124E+00    0.660E-01
DAV:   3    -0.191771813667E+03   -0.11110E-03   -0.25750E-02 12400   0.125E+00    0.732E-01
DAV:   4    -0.191766290033E+03    0.55236E-02   -0.12027E-02 12000   0.838E-01    0.272E-01
DAV:   5    -0.191765781644E+03    0.50839E-03   -0.46602E-03 11520   0.379E-01    0.232E-01
DAV:   6    -0.191765731053E+03    0.50592E-04   -0.34959E-03 12360   0.437E-01    0.247E-01
DAV:   7    -0.191765066500E+03    0.66455E-03   -0.13391E-03 10160   0.283E-01    0.725E-02
DAV:   8    -0.191765040776E+03    0.25724E-04   -0.26713E-04  7080   0.118E-01
  28 F= -.19176504E+03 E0= -.19167776E+03  d E =-.538170E-01
       N       E                     dE             d eps       ncg     rms          rms(c)
DAV:   1    -0.191794644025E+03   -0.29578E-01   -0.11590E+00  8160   0.238E+00    0.368E-01
DAV:   2    -0.191796175429E+03   -0.15314E-02   -0.45806E-02 13200   0.748E-01    0.453E-01
DAV:   3    -0.191796187816E+03   -0.12387E-04   -0.12667E-02 12240   0.901E-01    0.495E-01
DAV:   4    -0.191793292070E+03    0.28957E-02   -0.51587E-03 11600   0.552E-01    0.145E-01
DAV:   5    -0.191793086846E+03    0.20522E-03   -0.18366E-03 10160   0.224E-01    0.148E-01
DAV:   6    -0.191793007259E+03    0.79586E-04   -0.11634E-03 10640   0.262E-01    0.128E-01
DAV:   7    -0.191792827461E+03    0.17980E-03   -0.33114E-04  7320   0.139E-01    0.281E-02
DAV:   8    -0.191792815115E+03    0.12346E-04   -0.49682E-05  6160   0.319E-02
  29 F= -.19179282E+03 E0= -.19170621E+03  d E =-.277743E-01
       N       E                     dE             d eps       ncg     rms          rms(c)
DAV:   1    -0.191854079265E+03   -0.61252E-01   -0.62147E+00  8160   0.533E+00    0.545E-01
DAV:   2    -0.191867711113E+03   -0.13632E-01   -0.19348E-01 11640   0.123E+00    0.508E-01
DAV:   3    -0.191871280518E+03   -0.35694E-02   -0.24459E-02 12440   0.123E+00    0.807E-01
DAV:   4    -0.191863990242E+03    0.72903E-02   -0.12308E-02 12320   0.906E-01    0.233E-01
DAV:   5    -0.191863824689E+03    0.16555E-03   -0.35371E-03 12240   0.388E-01    0.241E-01
DAV:   6    -0.191863934337E+03   -0.10965E-03   -0.30975E-03 12160   0.463E-01    0.258E-01
DAV:   7    -0.191863103439E+03    0.83090E-03   -0.12987E-03 10360   0.283E-01    0.701E-02
DAV:   8    -0.191863091605E+03    0.11834E-04   -0.25440E-04  7560   0.120E-01
  30 F= -.19186309E+03 E0= -.19178062E+03  d E =-.702765E-01
       N       E                     dE             d eps       ncg     rms          rms(c)
DAV:   1    -0.191940697172E+03   -0.77594E-01   -0.20898E+01  8160   0.978E+00    0.978E-01
DAV:   2    -0.191988768197E+03   -0.48071E-01   -0.67353E-01 12000   0.222E+00    0.786E-01
DAV:   3    -0.192001757605E+03   -0.12989E-01   -0.64027E-02 12280   0.201E+00    0.144E+00
DAV:   4    -0.191979412101E+03    0.22346E-01   -0.35932E-02 11920   0.165E+00    0.418E-01
DAV:   5    -0.191977931782E+03    0.14803E-02   -0.94259E-03 12040   0.549E-01    0.320E-01
DAV:   6    -0.191979114573E+03   -0.11828E-02   -0.82351E-03 12960   0.735E-01    0.484E-01
DAV:   7    -0.191976323532E+03    0.27910E-02   -0.39571E-03 12080   0.546E-01    0.760E-02
DAV:   8    -0.191976304506E+03    0.19026E-04   -0.48159E-04  9640   0.106E-01
  31 F= -.19197630E+03 E0= -.19190105E+03  d E =-.113213E+00
       N       E                     dE             d eps       ncg     rms          rms(c)
DAV:   1    -0.192011699152E+03   -0.35376E-01   -0.40100E+00  8160   0.426E+00    0.447E-01
DAV:   2    -0.192023593143E+03   -0.11894E-01   -0.13849E-01 12120   0.111E+00    0.523E-01
DAV:   3    -0.192023391174E+03    0.20197E-03   -0.15555E-02 12200   0.105E+00    0.551E-01
DAV:   4    -0.192020164963E+03    0.32262E-02   -0.57224E-03 11080   0.643E-01    0.224E-01
DAV:   5    -0.192020065318E+03    0.99645E-04   -0.23720E-03 11960   0.415E-01    0.226E-01
DAV:   6    -0.192019850230E+03    0.21509E-03   -0.16750E-03 12200   0.321E-01    0.137E-01
DAV:   7    -0.192019524564E+03    0.32567E-03   -0.62568E-04 10360   0.139E-01    0.371E-02
DAV:   8    -0.192019532815E+03   -0.82515E-05   -0.92783E-05  7760   0.758E-02
  32 F= -.19201953E+03 E0= -.19194736E+03  d E =-.432283E-01
       N       E                     dE             d eps       ncg     rms          rms(c)
DAV:   1    -0.192060953169E+03   -0.41429E-01   -0.14647E+01  8160   0.816E+00    0.835E-01
DAV:   2    -0.192095762549E+03   -0.34809E-01   -0.48201E-01 12040   0.188E+00    0.682E-01
DAV:   3    -0.192102556008E+03   -0.67935E-02   -0.44547E-02 12280   0.168E+00    0.112E+00
DAV:   4    -0.192089069064E+03    0.13487E-01   -0.22555E-02 11880   0.137E+00    0.385E-01
DAV:   5    -0.192087987316E+03    0.10817E-02   -0.73139E-03 12520   0.593E-01    0.322E-01
DAV:   6    -0.192088563404E+03   -0.57609E-03   -0.62172E-03 12400   0.657E-01    0.378E-01
DAV:   7    -0.192086673090E+03    0.18903E-02   -0.26812E-03 12120   0.417E-01    0.831E-02
DAV:   8    -0.192086683689E+03   -0.10599E-04   -0.41820E-04  9320   0.159E-01
  33 F= -.19208668E+03 E0= -.19201917E+03  d E =-.671509E-01
       N       E                     dE             d eps       ncg     rms          rms(c)
DAV:   1    -0.192108298088E+03   -0.21625E-01   -0.31834E+00  8160   0.377E+00    0.425E-01
DAV:   2    -0.192117282997E+03   -0.89849E-02   -0.11961E-01 12240   0.102E+00    0.392E-01
DAV:   3    -0.192118437622E+03   -0.11546E-02   -0.12992E-02 12160   0.916E-01    0.516E-01
DAV:   4    -0.192115316132E+03    0.31215E-02   -0.52786E-03 12360   0.656E-01    0.188E-01
DAV:   5    -0.192115208303E+03    0.10783E-03   -0.16048E-03 12080   0.311E-01    0.175E-01
DAV:   6    -0.192115216939E+03   -0.86360E-05   -0.13709E-03 10960   0.325E-01    0.155E-01
DAV:   7    -0.192114887466E+03    0.32947E-03   -0.54965E-04 10040   0.174E-01    0.312E-02
DAV:   8    -0.192114876122E+03    0.11344E-04   -0.66959E-05  6880   0.351E-02
  34 F= -.19211488E+03 E0= -.19204908E+03  d E =-.281924E-01
       N       E                     dE             d eps       ncg     rms          rms(c)
DAV:   1    -0.192133953699E+03   -0.19066E-01   -0.54138E+00  8160   0.495E+00    0.540E-01
DAV:   2    -0.192146353785E+03   -0.12400E-01   -0.18542E-01 12200   0.115E+00    0.377E-01
DAV:   3    -0.192148413131E+03   -0.20593E-02   -0.15310E-02 11440   0.885E-01    0.626E-01
DAV:   4    -0.192144338187E+03    0.40749E-02   -0.79155E-03 11320   0.828E-01    0.280E-01
DAV:   5    -0.192143537434E+03    0.80075E-03   -0.31414E-03 11720   0.369E-01    0.170E-01
DAV:   6    -0.192143855289E+03   -0.31786E-03   -0.21662E-03 11720   0.368E-01    0.228E-01
DAV:   7    -0.192143188441E+03    0.66685E-03   -0.95892E-04 10800   0.276E-01    0.456E-02
DAV:   8    -0.192143172168E+03    0.16272E-04   -0.94332E-05  6360   0.658E-02
  35 F= -.19214317E+03 E0= -.19207888E+03  d E =-.282960E-01
       N       E                     dE             d eps       ncg     rms          rms(c)
DAV:   1    -0.192146507869E+03   -0.33194E-02   -0.16962E-01  8240   0.922E-01    0.171E-01
DAV:   2    -0.192147028324E+03   -0.52046E-03   -0.96434E-03 11760   0.449E-01    0.252E-01
DAV:   3    -0.192146477069E+03    0.55126E-03   -0.21747E-03 11920   0.411E-01    0.147E-01
DAV:   4    -0.192146195446E+03    0.28162E-03   -0.72675E-04 10680   0.213E-01    0.866E-02
DAV:   5    -0.192146222885E+03   -0.27438E-04   -0.48731E-04  9800   0.185E-01
  36 F= -.19214622E+03 E0= -.19208224E+03  d E =-.305072E-02
       N       E                     dE             d eps       ncg     rms          rms(c)
DAV:   1    -0.192157472208E+03   -0.11277E-01   -0.78802E+00  8160   0.595E+00    0.657E-01
DAV:   2    -0.192177412671E+03   -0.19940E-01   -0.27380E-01 12240   0.164E+00    0.612E-01
DAV:   3    -0.192179190270E+03   -0.17776E-02   -0.28402E-02 12320   0.139E+00    0.785E-01
DAV:   4    -0.192172164201E+03    0.70261E-02   -0.13561E-02 12040   0.103E+00    0.308E-01
DAV:   5    -0.192171457255E+03    0.70695E-03   -0.53277E-03 11840   0.477E-01    0.260E-01
DAV:   6    -0.192171637142E+03   -0.17989E-03   -0.34843E-03 11920   0.509E-01    0.267E-01
DAV:   7    -0.192170666479E+03    0.97066E-03   -0.14724E-03 11960   0.307E-01    0.523E-02
DAV:   8    -0.192170652525E+03    0.13954E-04   -0.18983E-04  7880   0.817E-02
  37 F= -.19217065E+03 E0= -.19210834E+03  d E =-.244296E-01
       N       E                     dE             d eps       ncg     rms          rms(c)
DAV:   1    -0.192167530599E+03    0.31359E-02   -0.43383E-01  8160   0.143E+00    0.213E-01
DAV:   2    -0.192168991342E+03   -0.14607E-02   -0.18991E-02 11040   0.610E-01    0.333E-01
DAV:   3    -0.192167956853E+03    0.10345E-02   -0.35426E-03 11800   0.527E-01    0.176E-01
DAV:   4    -0.192167530423E+03    0.42643E-03   -0.99739E-04 10680   0.248E-01    0.111E-01
DAV:   5    -0.192167557413E+03   -0.26990E-04   -0.72298E-04 10720   0.229E-01
  38 F= -.19216756E+03 E0= -.19210460E+03  d E =0.309511E-02
       N       E                     dE             d eps       ncg     rms          rms(c)
DAV:   1    -0.192170598409E+03   -0.30680E-02   -0.25529E-01  8160   0.108E+00    0.132E-01
DAV:   2    -0.192171440102E+03   -0.84169E-03   -0.10865E-02 11720   0.342E-01    0.149E-01
DAV:   3    -0.192171311512E+03    0.12859E-03   -0.14545E-03 12520   0.284E-01    0.144E-01
DAV:   4    -0.192171115902E+03    0.19561E-03   -0.50972E-04 10160   0.213E-01    0.808E-02
DAV:   5    -0.192171013759E+03    0.10214E-03   -0.15785E-04  6560   0.870E-02    0.307E-02
DAV:   6    -0.192171057818E+03   -0.44059E-04   -0.14705E-04  7280   0.962E-02
  39 F= -.19217106E+03 E0= -.19210825E+03  d E =-.350041E-02
       N       E                     dE             d eps       ncg     rms          rms(c)
DAV:   1    -0.192172551325E+03   -0.15376E-02   -0.35422E-02  8320   0.409E-01    0.745E-02
DAV:   2    -0.192172626813E+03   -0.75488E-04   -0.18567E-03 11040   0.189E-01    0.989E-02
DAV:   3    -0.192172559520E+03    0.67293E-04   -0.37703E-04  9440   0.175E-01
  40 F= -.19217256E+03 E0= -.19210987E+03  d E =-.150170E-02
       N       E                     dE             d eps       ncg     rms          rms(c)
DAV:   1    -0.192176623144E+03   -0.39963E-02   -0.46973E-01  8160   0.147E+00    0.196E-01
DAV:   2    -0.192178119023E+03   -0.14959E-02   -0.16884E-02 12840   0.563E-01    0.306E-01
DAV:   3    -0.192177211999E+03    0.90702E-03   -0.29397E-03 12480   0.481E-01    0.162E-01
DAV:   4    -0.192176946005E+03    0.26599E-03   -0.98437E-04 10160   0.236E-01    0.109E-01
DAV:   5    -0.192176918666E+03    0.27338E-04   -0.67640E-04 10600   0.206E-01
  41 F= -.19217692E+03 E0= -.19211479E+03  d E =-.435915E-02
       N       E                     dE             d eps       ncg     rms          rms(c)
DAV:   1    -0.192179630933E+03   -0.26849E-02   -0.33423E-01  8160   0.123E+00    0.159E-01
DAV:   2    -0.192180396243E+03   -0.76531E-03   -0.13868E-02 11520   0.341E-01    0.120E-01
DAV:   3    -0.192180485226E+03   -0.88984E-04   -0.12712E-03 11840   0.263E-01    0.162E-01
DAV:   4    -0.192180200299E+03    0.28493E-03   -0.58739E-04 10440   0.234E-01    0.819E-02
DAV:   5    -0.192180163096E+03    0.37203E-04   -0.28490E-04  8680   0.126E-01
  42 F= -.19218016E+03 E0= -.19211841E+03  d E =-.324443E-02
       N       E                     dE             d eps       ncg     rms          rms(c)
DAV:   1    -0.192181485103E+03   -0.12848E-02   -0.53223E-02  8160   0.529E-01    0.922E-02
DAV:   2    -0.192181950712E+03   -0.46561E-03   -0.27870E-03 12520   0.276E-01    0.193E-01
DAV:   3    -0.192181501530E+03    0.44918E-03   -0.92234E-04 10960   0.273E-01    0.834E-02
DAV:   4    -0.192181447430E+03    0.54099E-04   -0.20602E-04  8240   0.103E-01
  43 F= -.19218145E+03 E0= -.19211968E+03  d E =-.128433E-02
       N       E                     dE             d eps       ncg     rms          rms(c)
DAV:   1    -0.192183420149E+03   -0.19186E-02   -0.14530E-01  8160   0.826E-01    0.147E-01
DAV:   2    -0.192184235559E+03   -0.81541E-03   -0.78295E-03 11880   0.458E-01    0.268E-01
DAV:   3    -0.192183419760E+03    0.81580E-03   -0.17629E-03 11680   0.377E-01    0.101E-01
DAV:   4    -0.192183322462E+03    0.97299E-04   -0.42364E-04  9360   0.152E-01
  44 F= -.19218332E+03 E0= -.19212151E+03  d E =-.187503E-02
       N       E                     dE             d eps       ncg     rms          rms(c)
DAV:   1    -0.192184696635E+03   -0.12769E-02   -0.10252E-01  8160   0.695E-01    0.119E-01
DAV:   2    -0.192186374255E+03   -0.16776E-02   -0.64965E-03 12280   0.489E-01    0.346E-01
DAV:   3    -0.192184879692E+03    0.14946E-02   -0.19257E-03 11560   0.408E-01    0.637E-02
DAV:   4    -0.192184907386E+03   -0.27694E-04   -0.20808E-04  8320   0.113E-01
  45 F= -.19218491E+03 E0= -.19212321E+03  d E =-.158492E-02
       N       E                     dE             d eps       ncg     rms          rms(c)
DAV:   1    -0.192186027339E+03   -0.11476E-02   -0.60718E-02  8160   0.554E-01    0.878E-02
DAV:   2    -0.192186182285E+03   -0.15495E-03   -0.26688E-03 12520   0.194E-01    0.113E-01
DAV:   3    -0.192186135263E+03    0.47022E-04   -0.55061E-04 10560   0.211E-01
  46 F= -.19218614E+03 E0= -.19212461E+03  d E =-.122788E-02
       N       E                     dE             d eps       ncg     rms          rms(c)
DAV:   1    -0.192186818296E+03   -0.63601E-03   -0.33103E-02  8160   0.409E-01    0.756E-02
DAV:   2    -0.192186898109E+03   -0.79813E-04   -0.14850E-03 12040   0.172E-01    0.103E-01
DAV:   3    -0.192186801855E+03    0.96254E-04   -0.37354E-04  9280   0.172E-01
  47 F= -.19218680E+03 E0= -.19212544E+03  d E =-.666593E-03
       N       E                     dE             d eps       ncg     rms          rms(c)
DAV:   1    -0.192187737641E+03   -0.83953E-03   -0.74691E-02  8160   0.585E-01    0.787E-02
DAV:   2    -0.192187975716E+03   -0.23807E-03   -0.30486E-03 11920   0.172E-01    0.875E-02
DAV:   3    -0.192187900083E+03    0.75633E-04   -0.48577E-04 10240   0.158E-01
  48 F= -.19218790E+03 E0= -.19212670E+03  d E =-.109823E-02
       N       E                     dE             d eps       ncg     rms          rms(c)
DAV:   1    -0.192188433562E+03   -0.45785E-03   -0.22616E-02  8160   0.335E-01    0.694E-02
DAV:   2    -0.192188676104E+03   -0.24254E-03   -0.13063E-03 12920   0.192E-01    0.139E-01
DAV:   3    -0.192188432236E+03    0.24387E-03   -0.48200E-04  9840   0.200E-01    0.619E-02
DAV:   4    -0.192188402608E+03    0.29628E-04   -0.13131E-04  6240   0.865E-02
  49 F= -.19218840E+03 E0= -.19212728E+03  d E =-.502525E-03
       N       E                     dE             d eps       ncg     rms          rms(c)
DAV:   1    -0.192189581785E+03   -0.11495E-02   -0.53741E-01  8160   0.155E+00    0.181E-01
DAV:   2    -0.192191165440E+03   -0.15837E-02   -0.22553E-02 11520   0.420E-01    0.139E-01
DAV:   3    -0.192191286233E+03   -0.12079E-03   -0.19368E-03 12720   0.314E-01    0.200E-01
DAV:   4    -0.192190874092E+03    0.41214E-03   -0.79416E-04 10920   0.274E-01    0.963E-02
DAV:   5    -0.192190780679E+03    0.93413E-04   -0.34597E-04  8880   0.126E-01
  50 F= -.19219078E+03 E0= -.19213000E+03  d E =-.237807E-02
       N       E                     dE             d eps       ncg     rms          rms(c)
DAV:   1    -0.192190829393E+03    0.44699E-04   -0.14718E-02  8160   0.272E-01    0.844E-02
DAV:   2    -0.192191797527E+03   -0.96813E-03   -0.20705E-03 12120   0.395E-01    0.276E-01
DAV:   3    -0.192190737888E+03    0.10596E-02   -0.10901E-03 10480   0.321E-01    0.307E-02
DAV:   4    -0.192190736817E+03    0.10703E-05   -0.55976E-05  6280   0.415E-02
  51 F= -.19219074E+03 E0= -.19212993E+03  d E =0.438617E-04
