unknown system                          
           1
     8.855686    5.106260    0.000000
    -8.854601    5.104393    0.000000
     0.000000    0.000000   30.000000
   V    Mo   W    S 
   3   3   3  18
Direct configuration=     1
   1.00000000  0.33333334  0.00000000
   0.66666669  0.33333334  0.00000000
   0.00000000  0.00000000  0.00000000
   0.33333334  0.00000000  0.00000000
   0.33333334  0.33333334  0.00000000
   0.00000000  0.66666669  0.00000000
   0.33333334  0.66666669  0.00000000
   0.66666669  0.00000000  0.00000000
   0.66666669  0.66666669  0.00000000
   0.11068511  0.22244981  0.95539999
   0.22244981  0.11068511  0.04460000
   0.11068511  0.55578315  0.95539999
   0.22244981  0.44401845  0.04460000
   0.11068511  0.88911647  0.95539999
   0.22244981  0.77735180  0.04460000
   0.44401845  0.22244981  0.95539999
   0.55578315  0.11068511  0.04460000
   0.44401845  0.55578315  0.95539999
   0.55578315  0.44401845  0.04460000
   0.44401845  0.88911647  0.95539999
   0.55578315  0.77735180  0.04460000
   0.77735180  0.22244981  0.95539999
   0.88911647  0.11068511  0.04460000
   0.77735180  0.55578315  0.95539999
   0.88911647  0.44401845  0.04460000
   0.77735180  0.88911647  0.95539999
   0.88911647  0.77735180  0.04460000
unknown system                          
           1
     8.667368    4.999793    0.000000
    -8.666450    4.998217    0.000000
     0.000000    0.000000   30.000000
   V    Mo   W    S 
   3   3   3  18
Direct configuration=     2
   1.00069689  0.33408076  0.00004229
   0.66588701  0.33338373  0.00019349
   0.00239083  0.00036779 -0.00018230
   0.33194186  0.00010866 -0.00021338
   0.33311800  0.33167938 -0.00012799
   0.00110175  0.66769307  0.00010455
   0.33153773  0.66652415  0.00000204
   0.66580636  0.00066072  0.00003988
   0.66700003  0.66514743  0.00017814
   0.10656365  0.22003680  0.95310683
   0.21766423  0.10889448  0.04810050
   0.10986126  0.55149476  0.95190106
   0.21821059  0.44317722  0.04804795
   0.10863024  0.89134983  0.95192179
   0.22262217  0.77718886  0.04925223
   0.44872048  0.22424732  0.95194489
   0.55828888  0.11521775  0.04807453
   0.44474514  0.55632676  0.95080391
   0.55851680  0.44292408  0.04808196
   0.44470751  0.88833985  0.95071250
   0.55539494  0.77758267  0.04930728
   0.77920605  0.22558936  0.95312106
   0.89225231  0.11252098  0.04683341
   0.77510624  0.55143040  0.95193082
   0.88675163  0.43990632  0.04685120
   0.78153638  0.89069119  0.95193160
   0.88995550  0.78165012  0.04803968
unknown system                          
           1
     8.486492    4.900140    0.000000
    -8.486097    4.899467    0.000000
     0.000000    0.000000   30.000000
   V    Mo   W    S 
   3   3   3  18
Direct configuration=     3
   1.00102639  0.33442552  0.00009334
   0.66557521  0.33346468  0.00021440
   0.00315045  0.00044304 -0.00020634
   0.33148356 -0.00018357 -0.00023864
   0.33332133  0.33142524 -0.00017800
   0.00176397  0.66825102  0.00014741
   0.33123515  0.66678219  0.00000905
   0.66515227  0.00035748  0.00004786
   0.66685605  0.66468844  0.00014784
   0.10646963  0.21994805  0.95312529
   0.21750872  0.10881488  0.04816654
   0.10998794  0.55148294  0.95186799
   0.21820493  0.44330724  0.04801821
   0.10856437  0.89143102  0.95179765
   0.22277686  0.77710258  0.04932979
   0.44887749  0.22432941  0.95189744
   0.55847086  0.11523025  0.04806547
   0.44487387  0.55660242  0.95086661
   0.55869041  0.44307334  0.04815268
   0.44478587  0.88824012  0.95068211
   0.55537710  0.77752245  0.04924889
   0.77914687  0.22542579  0.95320084
   0.89207225  0.11245725  0.04670210
   0.77493758  0.55143076  0.95196838
   0.88670461  0.43983196  0.04678951
   0.78140150  0.89065187  0.95205794
   0.88979921  0.78167810  0.04802554
unknown system                          
           1
     8.270645    4.775685    0.000000
    -8.269594    4.773877    0.000000
     0.000000    0.000000   30.000000
   V    Mo   W    S 
   3   3   3  18
Direct configuration=     4
   1.00243278  0.33592957  0.00026460
   0.66408711  0.33386032  0.00021288
   0.00577557  0.00039470 -0.00020269
   0.32991801 -0.00187449 -0.00023356
   0.33467330  0.33109433 -0.00027732
   0.00458815  0.67060295  0.00023859
   0.33086416  0.66844457  0.00002492
   0.66200817 -0.00172764  0.00006297
   0.66573862  0.66305814 -0.00002960
   0.10535666  0.21929388  0.95187885
   0.21624409  0.10819408  0.04982048
   0.10918662  0.55028164  0.95026844
   0.21716487  0.44259489  0.04932447
   0.10792515  0.89204183  0.94984466
   0.22302003  0.77734672  0.05126252
   0.45031498  0.22494229  0.95028989
   0.55890429  0.11637501  0.04948779
   0.44491792  0.55689602  0.94952544
   0.55918156  0.44233389  0.04992214
   0.44462643  0.88823633  0.94890741
   0.55523922  0.77721079  0.05067377
   0.77968977  0.22639319  0.95218695
   0.89289888  0.11289635  0.04750707
   0.77455594  0.55029350  0.95068913
   0.88615524  0.43886804  0.04784094
   0.78234321  0.89123985  0.95109195
   0.89040373  0.78299369  0.04941721
unknown system                          
           1
     8.262053    4.774378    0.000000
    -8.261237    4.772974    0.000000
     0.000000    0.000000   30.000000
   V    Mo   W    S 
   3   3   3  18
Direct configuration=     5
   1.00520192  0.33890990  0.00047303
   0.66083341  0.33481928  0.00003107
   0.01088732  0.00025156 -0.00000861
   0.32703142 -0.00621550 -0.00012044
   0.33798539  0.33083716 -0.00030855
   0.01085700  0.67553647  0.00022522
   0.33072778  0.67296449  0.00003038
   0.65543658 -0.00602390  0.00010021
   0.66276323  0.65952405 -0.00027912
   0.10475046  0.21878623  0.95003479
   0.21535655  0.10776352  0.05205406
   0.10824879  0.54932901  0.94808639
   0.21652712  0.44191238  0.05098842
   0.10761955  0.89266682  0.94688969
   0.22308389  0.77806074  0.05417576
   0.45147595  0.22494224  0.94803175
   0.55848198  0.11733048  0.05142440
   0.44419858  0.55659753  0.94775205
   0.55940487  0.44121969  0.05253545
   0.44355665  0.88828551  0.94619144
   0.55457082  0.77629270  0.05271679
   0.77996637  0.22715195  0.95100433
   0.89343527  0.11302290  0.04836864
   0.77514804  0.54929105  0.94914166
   0.88590020  0.43871873  0.04934722
   0.78352707  0.89191254  0.94996995
   0.89123826  0.78432692  0.05114390
unknown system                          
           1
     8.263013    4.775491    0.000000
    -8.262103    4.773925    0.000000
     0.000000    0.000000   30.000000
   V    Mo   W    S 
   3   3   3  18
Direct configuration=     6
   1.00619704  0.33986149  0.00052979
   0.65955650  0.33519289 -0.00000946
   0.01294467  0.00070028 -0.00003005
   0.32675258 -0.00769517 -0.00012881
   0.33922755  0.33091093 -0.00034001
   0.01280257  0.67671812  0.00017810
   0.33103889  0.67496817  0.00008079
   0.65308652 -0.00731800  0.00012592
   0.66093976  0.65802297 -0.00026299
   0.10538743  0.21894146  0.94996266
   0.21603054  0.10790335  0.05226886
   0.10859947  0.54994936  0.94789885
   0.21741607  0.44253026  0.05094184
   0.10804369  0.89268442  0.94656459
   0.22303307  0.77821443  0.05465429
   0.45091473  0.22417161  0.94786598
   0.55780894  0.11686776  0.05152166
   0.44330557  0.55621201  0.94768097
   0.55928781  0.44114957  0.05287206
   0.44280723  0.88824690  0.94568791
   0.55399954  0.77565108  0.05296500
   0.77947370  0.22672881  0.95115623
   0.89283376  0.11244241  0.04808570
   0.77603075  0.54982058  0.94921404
   0.88619772  0.43968950  0.04928010
   0.78330245  0.89172949  0.95020754
   0.89119592  0.78391975  0.05102833
unknown system                          
           1
     8.257708    4.770211    0.000000
    -8.257816    4.770408    0.000000
     0.000000    0.000000   30.000000
   V    Mo   W    S 
   3   3   3  18
Direct configuration=     7
   1.00693431  0.34052444  0.00059458
   0.65872943  0.33546808 -0.00005016
   0.01458456  0.00131317 -0.00001871
   0.32661637 -0.00860103 -0.00010135
   0.34003159  0.33082937 -0.00033888
   0.01423073  0.67743780  0.00017435
   0.33124926  0.67635028  0.00010458
   0.65135441 -0.00822902  0.00011666
   0.65943054  0.65682149 -0.00029156
   0.10572139  0.21899353  0.94996781
   0.21642402  0.10796346  0.05231942
   0.10886209  0.55028618  0.94783171
   0.21795256  0.44293022  0.05083953
   0.10830166  0.89271595  0.94641920
   0.22303520  0.77830949  0.05488185
   0.45066205  0.22375050  0.94781082
   0.55748688  0.11664303  0.05155374
   0.44276659  0.55602361  0.94769538
   0.55920225  0.44108752  0.05305289
   0.44245480  0.88819362  0.94542367
   0.55369128  0.77534789  0.05307938
   0.77916053  0.22644916  0.95133513
   0.89244777  0.11207044  0.04780778
   0.77640113  0.55010907  0.94935015
   0.88629796  0.44016431  0.04914384
   0.78310728  0.89155599  0.95046226
   0.89107782  0.78370592  0.05083583
unknown system                          
           1
     8.252554    4.766600    0.000000
    -8.254466    4.769917    0.000000
     0.000000    0.000000   30.000000
   V    Mo   W    S 
   3   3   3  18
Direct configuration=     8
   1.00584617  0.33959554  0.00050590
   0.65970761  0.33517141 -0.00001149
   0.01238197  0.00020376  0.00000548
   0.32666199 -0.00784363 -0.00009971
   0.33914493  0.33109941 -0.00031131
   0.01250204  0.67678630  0.00019692
   0.33108682  0.67495330  0.00006986
   0.65340609 -0.00721763  0.00010581
   0.66163135  0.65848916 -0.00028078
   0.10547304  0.21897544  0.94994527
   0.21599924  0.10790686  0.05223238
   0.10860969  0.55002027  0.94788285
   0.21740635  0.44251318  0.05097986
   0.10806742  0.89270034  0.94651178
   0.22296567  0.77823296  0.05463631
   0.45081497  0.22410126  0.94785179
   0.55763795  0.11677497  0.05151540
   0.44348366  0.55628447  0.94767589
   0.55928772  0.44119502  0.05286110
   0.44279945  0.88825289  0.94571449
   0.55395664  0.77556075  0.05298512
   0.77943811  0.22669648  0.95108691
   0.89286503  0.11245579  0.04818442
   0.77612996  0.54982355  0.94914253
   0.88628453  0.43983523  0.04935053
   0.78331478  0.89174481  0.95009492
   0.89131129  0.78390254  0.05116766
unknown system                          
           1
     8.248924    4.765786    0.000000
    -8.250116    4.767859    0.000000
     0.000000    0.000000   30.000000
   V    Mo   W    S 
   3   3   3  18
Direct configuration=     9
   1.00402597  0.33818034  0.00036184
   0.66105925  0.33489822  0.00003118
   0.00849971 -0.00230561  0.00001257
   0.32659278 -0.00755267 -0.00017807
   0.33818305  0.33198848 -0.00032402
   0.01006220  0.67627072  0.00012546
   0.33072162  0.67327160  0.00002660
   0.65617398 -0.00600728  0.00017588
   0.66567472  0.66120648 -0.00025187
   0.10529601  0.21902838  0.94998043
   0.21556518  0.10786486  0.05212016
   0.10835977  0.54988775  0.94798591
   0.21673891  0.44217741  0.05114261
   0.10782347  0.89268608  0.94656668
   0.22275961  0.77800108  0.05445837
   0.45078886  0.22435901  0.94796017
   0.55757465  0.11680827  0.05145243
   0.44456066  0.55687510  0.94768817
   0.55962070  0.44149448  0.05262977
   0.44305561  0.88832736  0.94597880
   0.55422383  0.77562227  0.05286962
   0.77964278  0.22693059  0.95068065
   0.89332533  0.11287977  0.04875070
   0.77609621  0.54949003  0.94876977
   0.88637150  0.43971748  0.04967136
   0.78362508  0.89206698  0.94942463
   0.89179303  0.78404728  0.05189011
unknown system                          
           1
     8.252366    4.767953    0.000000
    -8.253782    4.770414    0.000000
     0.000000    0.000000   30.000000
   V    Mo   W    S 
   3   3   3  18
Direct configuration=    10
   1.00509367  0.33910021  0.00047690
   0.65995923  0.33531630 -0.00001563
   0.01049319 -0.00177267  0.00003586
   0.32637593 -0.00881842 -0.00010658
   0.33932700  0.33192776 -0.00031939
   0.01185595  0.67742465  0.00016489
   0.33083673  0.67510519  0.00006887
   0.65378523 -0.00729228  0.00017835
   0.66398165  0.65967074 -0.00026798
   0.10559497  0.21897272  0.95006346
   0.21604075  0.10792127  0.05209153
   0.10868186  0.55028196  0.94791911
   0.21737509  0.44270878  0.05096102
   0.10810783  0.89276834  0.94639223
   0.22274960  0.77807004  0.05473123
   0.45052401  0.22385821  0.94793882
   0.55725461  0.11652055  0.05144536
   0.44402403  0.55682935  0.94778120
   0.55963690  0.44153164  0.05281820
   0.44274920  0.88825622  0.94563610
   0.55394467  0.77525649  0.05294358
   0.77919088  0.22646266  0.95097560
   0.89273132  0.11232793  0.04829752
   0.77648905  0.54985169  0.94896979
   0.88641869  0.44024450  0.04941059
   0.78337150  0.89186100  0.94981612
   0.89162092  0.78382964  0.05159315
unknown system                          
           1
     8.259399    4.772789    0.000000
    -8.261073    4.775696    0.000000
     0.000000    0.000000   30.000000
   V    Mo   W    S 
   3   3   3  18
Direct configuration=    11
   1.00539691  0.33935727  0.00050024
   0.65963016  0.33545524 -0.00003387
   0.01106716 -0.00163752  0.00003314
   0.32632652 -0.00922897 -0.00011184
   0.33968069  0.33193440 -0.00032752
   0.01236335  0.67775321  0.00015134
   0.33085827  0.67567171  0.00007143
   0.65304701 -0.00767798  0.00017519
   0.66355135  0.65921107 -0.00028055
   0.10567772  0.21896273  0.95007921
   0.21617185  0.10793243  0.05210945
   0.10875684  0.55039033  0.94789313
   0.21755832  0.44285938  0.05092788
   0.10819699  0.89280205  0.94632945
   0.22273145  0.77808411  0.05485233
   0.45045267  0.22371170  0.94792173
   0.55715433  0.11646009  0.05146716
   0.44386776  0.55683321  0.94780003
   0.55964574  0.44152206  0.05289992
   0.44264299  0.88823830  0.94551470
   0.55384039  0.77513066  0.05298446
   0.77907457  0.22635811  0.95104496
   0.89258122  0.11216790  0.04818456
   0.77662034  0.54993132  0.94900304
   0.88641472  0.44038452  0.04935428
   0.78331498  0.89181786  0.94990573
   0.89159016  0.78378925  0.05155033
unknown system                          
           1
     8.259988    4.773347    0.000000
    -8.261451    4.775890    0.000000
     0.000000    0.000000   30.000000
   V    Mo   W    S 
   3   3   3  18
Direct configuration=    12
   1.00671194  0.34046668  0.00061239
   0.65833536  0.33599418 -0.00009086
   0.01360817 -0.00068525  0.00003001
   0.32623287 -0.01056521 -0.00010118
   0.34102298  0.33182211 -0.00034990
   0.01436524  0.67877277  0.00013474
   0.33089061  0.67772352  0.00011446
   0.65022589 -0.00904680  0.00017595
   0.66150663  0.65715483 -0.00031776
   0.10601793  0.21897882  0.95013582
   0.21670385  0.10798227  0.05217424
   0.10906475  0.55079339  0.94782160
   0.21828154  0.44344410  0.05075521
   0.10854301  0.89287275  0.94613633
   0.22269493  0.77814317  0.05521779
   0.45023098  0.22322315  0.94786133
   0.55684240  0.11624039  0.05152254
   0.44313542  0.55672842  0.94788293
   0.55960739  0.44142406  0.05317508
   0.44221321  0.88813591  0.94509221
   0.55340981  0.77472552  0.05308959
   0.77866174  0.22598857  0.95135807
   0.89200105  0.11159169  0.04769910
   0.77705295  0.55022993  0.94918563
   0.88641339  0.44086705  0.04908913
   0.78303119  0.89160590  0.95032655
   0.89140923  0.78360256  0.05126888
unknown system                          
           1
     8.248360    4.765251    0.000000
    -8.252669    4.772719    0.000000
     0.000000    0.000000   30.000000
   V    Mo   W    S 
   3   3   3  18
Direct configuration=    13
   1.00689294  0.34060553  0.00062317
   0.65820232  0.33601640 -0.00009753
   0.01396779 -0.00048629  0.00002442
   0.32622505 -0.01062671 -0.00010364
   0.34111093  0.33173726 -0.00035563
   0.01459157  0.67885349  0.00013172
   0.33089589  0.67789212  0.00011499
   0.64995026 -0.00916379  0.00017198
   0.66119593  0.65690812 -0.00032283
   0.10603259  0.21897063  0.95012874
   0.21674502  0.10798572  0.05219413
   0.10907693  0.55080213  0.94780472
   0.21834759  0.44347845  0.05075010
   0.10856217  0.89287869  0.94612749
   0.22270621  0.77816960  0.05525417
   0.45022465  0.22318720  0.94784647
   0.55683968  0.11624292  0.05153641
   0.44303950  0.55668535  0.94788271
   0.55958621  0.44140125  0.05321085
   0.44217308  0.88813100  0.94505623
   0.55338513  0.77470922  0.05310347
   0.77864411  0.22597142  0.95138690
   0.89196014  0.11154926  0.04765284
   0.77707103  0.55025572  0.94920549
   0.88640083  0.44087886  0.04907132
   0.78301250  0.89158322  0.95038088
   0.89137438  0.78359768  0.05122036
unknown system                          
           1
     8.263737    4.776197    0.000000
    -8.264891    4.778206    0.000000
     0.000000    0.000000   30.000000
   V    Mo   W    S 
   3   3   3  18
Direct configuration=    14
   1.00563585  0.33964287  0.00054378
   0.65861617  0.33624384 -0.00009966
   0.01224807 -0.00216728  0.00004536
   0.32588902 -0.01111645 -0.00014540
   0.34121304  0.33222510 -0.00036709
   0.01367188  0.67924701  0.00008757
   0.33084309  0.67788019  0.00008288
   0.65077231 -0.00887405  0.00018174
   0.66324053  0.65795586 -0.00032611
   0.10597409  0.21887128  0.95026032
   0.21653491  0.10792584  0.05201346
   0.10910887  0.55091309  0.94785743
   0.21820076  0.44342922  0.05076665
   0.10851470  0.89301661  0.94617167
   0.22258347  0.77802301  0.05523245
   0.45026414  0.22328945  0.94800064
   0.55678145  0.11624039  0.05142648
   0.44370296  0.55720419  0.94797979
   0.55984151  0.44158595  0.05311082
   0.44241572  0.88816981  0.94514498
   0.55346417  0.77463575  0.05302331
   0.77847294  0.22592080  0.95126236
   0.89211614  0.11151275  0.04785066
   0.77704582  0.55007830  0.94908579
   0.88627011  0.44088775  0.04915400
   0.78311666  0.89174339  0.95012784
   0.89167608  0.78372979  0.05152819
unknown system                          
           1
     8.267762    4.778962    0.000000
    -8.268577    4.780384    0.000000
     0.000000    0.000000   30.000000
   V    Mo   W    S 
   3   3   3  18
Direct configuration=    15
   1.00786129  0.34140603  0.00071698
   0.65728916  0.33642988 -0.00012949
   0.01588524  0.00027015  0.00002252
   0.32616671 -0.01154281 -0.00007939
   0.34206640  0.33158369 -0.00037104
   0.01598659  0.67954747  0.00013653
   0.33081375  0.67933665  0.00015823
   0.64793855 -0.01006935  0.00018370
   0.65977214  0.65533849 -0.00034509
   0.10625068  0.21896781  0.95016526
   0.21712672  0.10801580  0.05224147
   0.10927138  0.55106071  0.94774791
   0.21886358  0.44389083  0.05061758
   0.10878932  0.89293020  0.94599084
   0.22266931  0.77822922  0.05550102
   0.45009611  0.22284648  0.94778867
   0.55664937  0.11611724  0.05157075
   0.44250205  0.55661685  0.94795706
   0.55956318  0.44133198  0.05342035
   0.44186414  0.88805631  0.94474818
   0.55309501  0.77444572  0.05315048
   0.77836214  0.22572848  0.95161127
   0.89155150  0.11113579  0.04729239
   0.77736234  0.55044488  0.94931805
   0.88637119  0.44117409  0.04887726
   0.78280871  0.89142934  0.95070575
   0.89123788  0.78349253  0.05100268
unknown system                          
           1
     8.265684    4.777962    0.000000
    -8.266331    4.779093    0.000000
     0.000000    0.000000   30.000000
   V    Mo   W    S 
   3   3   3  18
Direct configuration=    16
   1.00861204  0.34202987  0.00077730
   0.65660826  0.33669583 -0.00015694
   0.01727152  0.00084516  0.00000505
   0.32613759 -0.01202864 -0.00007432
   0.34274733  0.33141012 -0.00039469
   0.01686527  0.67996499  0.00013037
   0.33065717  0.68020511  0.00017764
   0.64661089 -0.01060001  0.00018589
   0.65877408  0.65414359 -0.00036573
   0.10639077  0.21895707  0.95018816
   0.21739658  0.10804937  0.05229030
   0.10939398  0.55123120  0.94770343
   0.21923059  0.44417208  0.05053811
   0.10893455  0.89295499  0.94590996
   0.22264364  0.77828134  0.05567807
   0.45004128  0.22263020  0.94775063
   0.55654394  0.11607038  0.05160020
   0.44211345  0.55656046  0.94801647
   0.55954290  0.44126040  0.05357209
   0.44164186  0.88799717  0.94454758
   0.55289277  0.77426990  0.05317578
   0.77817933  0.22557870  0.95176900
   0.89127173  0.11085200  0.04704353
   0.77754582  0.55055370  0.94939159
   0.88632615  0.44134314  0.04874868
   0.78269265  0.89133273  0.95094420
   0.89114830  0.78345361  0.05084752
unknown system                          
           1
     8.265711    4.777990    0.000000
    -8.266342    4.779093    0.000000
     0.000000    0.000000   30.000000
   V    Mo   W    S 
   3   3   3  18
Direct configuration=    17
   1.00828030  0.34175223  0.00073733
   0.65689814  0.33650546 -0.00015230
   0.01668401  0.00084156  0.00001746
   0.32627841 -0.01163551 -0.00009738
   0.34235265  0.33144111 -0.00038408
   0.01654874  0.67960120  0.00011682
   0.33087228  0.67970729  0.00015219
   0.64727641 -0.01033172  0.00016435
   0.65892198  0.65468087 -0.00036277
   0.10629765  0.21900909  0.95014828
   0.21725059  0.10802479  0.05228426
   0.10934144  0.55109682  0.94773137
   0.21898433  0.44397993  0.05059481
   0.10885895  0.89291977  0.94598187
   0.22271271  0.77825649  0.05557912
   0.45009961  0.22279881  0.94779493
   0.55662609  0.11612254  0.05159218
   0.44225428  0.55650696  0.94794468
   0.55951503  0.44124474  0.05346727
   0.44176341  0.88803386  0.94467427
   0.55301268  0.77440755  0.05320139
   0.77831656  0.22570473  0.95168978
   0.89145759  0.11106910  0.04719932
   0.77738603  0.55047724  0.94939743
   0.88633541  0.44119705  0.04882715
   0.78272911  0.89137998  0.95080479
   0.89116006  0.78342250  0.05089537
unknown system                          
           1
     8.258965    4.775178    0.000000
    -8.260349    4.777586    0.000000
     0.000000    0.000000   30.000000
   V    Mo   W    S 
   3   3   3  18
Direct configuration=    18
   1.00828113  0.34175341  0.00073739
   0.65689772  0.33650373 -0.00015215
   0.01668632  0.00084866  0.00001771
   0.32628010 -0.01163333 -0.00009697
   0.34235016  0.33143946 -0.00038378
   0.01655407  0.67959810  0.00011722
   0.33087506  0.67970554  0.00015265
   0.64727795 -0.01033124  0.00016430
   0.65891197  0.65468055 -0.00036263
   0.10629687  0.21901018  0.95014749
   0.21725074  0.10802471  0.05228462
   0.10934187  0.55109504  0.94773105
   0.21898260  0.44397858  0.05059503
   0.10885873  0.89291940  0.94598253
   0.22271480  0.77825694  0.05557825
   0.45010052  0.22279967  0.94779490
   0.55662732  0.11612375  0.05159215
   0.44225226  0.55650424  0.94794309
   0.55951394  0.44124340  0.05346684
   0.44176360  0.88803417  0.94467424
   0.55301369  0.77440931  0.05320212
   0.77831749  0.22570607  0.95168985
   0.89145845  0.11107108  0.04719988
   0.77738473  0.55047706  0.94939855
   0.88633490  0.44119534  0.04882720
   0.78272846  0.89137974  0.95080456
   0.89115902  0.78342089  0.05089378
unknown system                          
           1
     8.268492    4.780387    0.000000
    -8.267898    4.779373    0.000000
     0.000000    0.000000   30.000000
   V    Mo   W    S 
   3   3   3  18
Direct configuration=    19
   1.00963884  0.34304413  0.00081560
   0.65637346  0.33658125 -0.00016932
   0.01924928  0.00197290  0.00000369
   0.32556200 -0.01276684 -0.00005534
   0.34249431  0.33055388 -0.00040405
   0.01849539  0.68047897  0.00013582
   0.33009722  0.68082559  0.00022119
   0.64543125 -0.01090113  0.00017462
   0.65738181  0.65322657 -0.00036353
   0.10633021  0.21909110  0.95014262
   0.21753363  0.10812241  0.05238414
   0.10936489  0.55095704  0.94766319
   0.21930868  0.44414735  0.05052436
   0.10897729  0.89295177  0.94593299
   0.22280622  0.77839315  0.05573514
   0.45007278  0.22251836  0.94773246
   0.55667816  0.11630298  0.05162300
   0.44166958  0.55628482  0.94795014
   0.55935129  0.44109841  0.05364304
   0.44152742  0.88801155  0.94443992
   0.55287708  0.77422355  0.05321672
   0.77828899  0.22566096  0.95187147
   0.89132113  0.11094775  0.04686470
   0.77756638  0.55063887  0.94952699
   0.88628871  0.44123332  0.04867783
   0.78258521  0.89125960  0.95112579
   0.89094325  0.78335612  0.05058670
unknown system                          
           1
     8.275684    4.786533    0.000000
    -8.272752    4.781472    0.000000
     0.000000    0.000000   30.000000
   V    Mo   W    S 
   3   3   3  18
Direct configuration=    20
   1.00958291  0.34279149  0.00083520
   0.65589476  0.33673777 -0.00018311
   0.01891447  0.00201426 -0.00000985
   0.32627011 -0.01211141 -0.00005491
   0.34317485  0.33111264 -0.00040074
   0.01796529  0.68010642  0.00015218
   0.33077488  0.68081487  0.00021715
   0.64542281 -0.01113603  0.00016971
   0.65699740  0.65294744 -0.00037515
   0.10653173  0.21901096  0.95015595
   0.21764481  0.10809029  0.05236162
   0.10952110  0.55130963  0.94765887
   0.21952863  0.44435840  0.05048006
   0.10905920  0.89291561  0.94591033
   0.22274364  0.77837149  0.05574133
   0.45000704  0.22251080  0.94769213
   0.55653571  0.11603082  0.05164314
   0.44157345  0.55625024  0.94798739
   0.55939953  0.44111629  0.05368407
   0.44142998  0.88794440  0.94441137
   0.55274293  0.77422915  0.05323070
   0.77809377  0.22548416  0.95195289
   0.89100991  0.11069527  0.04680732
   0.77760468  0.55069840  0.94955023
   0.88632261  0.44142022  0.04861870
   0.78252771  0.89117899  0.95121792
   0.89094051  0.78332188  0.05054540
unknown system                          
           1
     8.274624    4.785478    0.000000
    -8.272228    4.781344    0.000000
     0.000000    0.000000   30.000000
   V    Mo   W    S 
   3   3   3  18
Direct configuration=    21
   1.01131680  0.34414852  0.00090964
   0.65455035  0.33681975 -0.00022872
   0.02157132  0.00347230 -0.00007965
   0.32634047 -0.01236031 -0.00005100
   0.34412919  0.33066083 -0.00043864
   0.01961832  0.68063470  0.00014035
   0.33067242  0.68188706  0.00022475
   0.64329338 -0.01204738  0.00014524
   0.65447064  0.65086614 -0.00038526
   0.10683234  0.21900689  0.95013688
   0.21812512  0.10821310  0.05250074
   0.10970981  0.55157322  0.94756764
   0.22022142  0.44478065  0.05041426
   0.10928392  0.89288261  0.94583802
   0.22282599  0.77856285  0.05596803
   0.44991415  0.22221444  0.94755827
   0.55647298  0.11596744  0.05174094
   0.44070519  0.55585999  0.94799862
   0.55923385  0.44091621  0.05395701
   0.44098411  0.88780570  0.94414870
   0.55243240  0.77400762  0.05332743
   0.77787227  0.22525469  0.95227000
   0.89049799  0.11027689  0.04636243
   0.77781345  0.55096235  0.94974302
   0.88629477  0.44164831  0.04839417
   0.78237624  0.89094465  0.95170812
   0.89065557  0.78325522  0.05012890
unknown system                          
           1
     8.278351    4.785147    0.000000
    -8.278635    4.785651    0.000000
     0.000000    0.000000   30.000000
   V    Mo   W    S 
   3   3   3  18
Direct configuration=    22
   1.01100292  0.34389635  0.00089677
   0.65476993  0.33684203 -0.00022505
   0.02118583  0.00324139 -0.00006890
   0.32631228 -0.01236128 -0.00005809
   0.34400089  0.33074322 -0.00043470
   0.01935721  0.68058012  0.00013733
   0.33071456  0.68177422  0.00021684
   0.64359054 -0.01193507  0.00014372
   0.65488031  0.65117609 -0.00038775
   0.10678869  0.21899726  0.95014294
   0.21804486  0.10818476  0.05247660
   0.10969165  0.55154907  0.94758637
   0.22012943  0.44472952  0.05042291
   0.10925080  0.89289192  0.94585202
   0.22280187  0.77852415  0.05594171
   0.44992186  0.22225799  0.94758019
   0.55647525  0.11596774  0.05172879
   0.44084513  0.55593310  0.94800211
   0.55926272  0.44095567  0.05392063
   0.44105917  0.88782814  0.94418686
   0.55247881  0.77403732  0.05331629
   0.77789232  0.22528217  0.95221766
   0.89056744  0.11032171  0.04643380
   0.77779472  0.55092288  0.94970681
   0.88629479  0.44162438  0.04843325
   0.78239616  0.89098386  0.95163077
   0.89070432  0.78326575  0.05020001
unknown system                          
           1
     8.280054    4.790454    0.000000
    -8.275378    4.782377    0.000000
     0.000000    0.000000   30.000000
   V    Mo   W    S 
   3   3   3  18
Direct configuration=    23
   1.01012039  0.34320655  0.00090146
   0.65588835  0.33695589 -0.00020669
   0.02013935  0.00268913  0.00000218
   0.32608544 -0.01238465 -0.00006238
   0.34310075  0.33075221 -0.00042770
   0.01843592  0.68027318  0.00014191
   0.33053951  0.68118446  0.00020874
   0.64464721 -0.01140918  0.00017843
   0.65643631  0.65226675 -0.00041437
   0.10652810  0.21894684  0.95018739
   0.21777082  0.10800939  0.05240841
   0.10958767  0.55132965  0.94765574
   0.21966887  0.44455949  0.05038653
   0.10915817  0.89299486  0.94586053
   0.22273441  0.77841292  0.05591351
   0.44990881  0.22228252  0.94765599
   0.55641615  0.11594162  0.05167951
   0.44121335  0.55618807  0.94803181
   0.55935228  0.44107273  0.05382303
   0.44126556  0.88793898  0.94424589
   0.55258338  0.77413337  0.05327043
   0.77805650  0.22544344  0.95204504
   0.89090989  0.11055290  0.04660736
   0.77781959  0.55080702  0.94954917
   0.88638001  0.44149904  0.04853859
   0.78252942  0.89117182  0.95137991
   0.89093822  0.78339544  0.05043949
unknown system                          
           1
     8.281998    4.792394    0.000000
    -8.276198    4.782373    0.000000
     0.000000    0.000000   30.000000
   V    Mo   W    S 
   3   3   3  18
Direct configuration=    24
   1.01248491  0.34516792  0.00097993
   0.65405086  0.33685369 -0.00023760
   0.02316103  0.00442385 -0.00010878
   0.32632525 -0.01249634 -0.00002516
   0.34436141  0.33013955 -0.00046588
   0.02054271  0.68079251  0.00015616
   0.33029888  0.68232819  0.00025254
   0.64216784 -0.01234813  0.00016916
   0.65320119  0.64968783 -0.00039348
   0.10687641  0.21901413  0.95012695
   0.21843476  0.10827556  0.05261510
   0.10972594  0.55156009  0.94750330
   0.22049324  0.44498462  0.05035201
   0.10938214  0.89286545  0.94576935
   0.22289486  0.77869770  0.05610580
   0.44986603  0.22199316  0.94752298
   0.55641467  0.11596215  0.05176136
   0.44017226  0.55562034  0.94803645
   0.55911849  0.44077034  0.05405045
   0.44068677  0.88772949  0.94400382