   27   27  100    1
  0.9710400E+02  0.1002848E-08  0.1002848E-08  0.3000000E-08  0.5000000E-15
  1.000000000000000E-004
  CAR 
 unknown system                          
    159     34    120
 
  0.0000000E+00  0.0000000E+00  0.0000000E+00  0.1562500E-01
    1      -17.834778   1.000000
    2      -16.641808   1.000000
    3      -16.605883   1.000000
    4      -16.532777   1.000000
    5      -16.476537   1.000000
    6      -16.463780   1.000000
    7      -16.356418   1.000000
    8      -16.311721   1.000000
    9      -16.122730   1.000000
   10      -16.085070   1.000000
   11      -16.029922   1.000000
   12      -15.988191   1.000000
   13      -15.883125   1.000000
   14      -15.835924   1.000000
   15      -15.603930   1.000000
   16      -15.494754   1.000000
   17      -15.480491   1.000000
   18      -15.358268   1.000000
   19       -9.391830   1.000000
   20       -8.952212   1.000000
   21       -8.840063   1.000000
   22       -8.771035   1.000000
   23       -8.713190   1.000000
   24       -8.660194   1.000000
   25       -8.632413   1.000000
   26       -8.497632   1.000000
   27       -8.472987   1.000000
   28       -8.415152   1.000000
   29       -8.374759   1.000000
   30       -8.283256   1.000000
   31       -8.246341   1.000000
   32       -8.186722   1.000000
   33       -8.088268   1.000000
   34       -8.066840   1.000000
   35       -7.879450   1.000000
   36       -7.870326   1.000000
   37       -7.724344   1.000000
   38       -7.560788   1.000000
   39       -7.546212   1.000000
   40       -7.452859   1.000000
   41       -7.363018   1.000000
   42       -7.206478   1.000000
   43       -7.188977   1.000000
   44       -6.869665   1.000000
   45       -6.806022   1.000000
   46       -6.773317   1.000000
   47       -6.707492   1.000000
   48       -6.660982   1.000000
   49       -6.587720   1.000000
   50       -6.526302   1.000000
   51       -6.484227   1.000000
   52       -6.406742   1.000000
   53       -6.324114   1.000000
   54       -6.263021   1.000000
   55       -6.231026   1.000000
   56       -6.076786   1.000000
   57       -6.002754   1.000000
   58       -5.894490   1.000000
   59       -5.670811   1.000000
   60       -5.561724   1.000000
   61       -5.499719   1.000000
   62       -5.438511   1.000000
   63       -5.342668   1.000000
   64       -5.108313   1.000000
   65       -4.984467   1.000000
   66       -4.912652   1.000000
   67       -4.774279   1.000000
   68       -4.743902   1.000000
   69       -4.673644   1.000000
   70       -4.618866   1.000000
   71       -4.508146   1.000000
   72       -4.491048   1.000000
   73       -4.435842   1.000000
   74       -4.315995   1.000000
   75       -4.217830   1.000000
   76       -4.060115   1.000000
   77       -3.543426   0.999651
   78       -3.523155   0.999417
   79       -3.423567   0.994502
   80       -3.129094   0.677458
   81       -3.048251   0.455789
   82       -2.748280   0.012802
   83       -2.601373   0.000536
   84       -2.501989   0.000035
   85       -2.457928   0.000009
   86       -2.423727   0.000003
   87       -2.309451   0.000000
   88       -2.276748   0.000000
   89       -2.187564   0.000000
   90       -2.083032   0.000000
   91       -1.785764   0.000000
   92       -1.648898   0.000000
   93       -1.585988   0.000000
   94       -1.544712   0.000000
   95       -1.419876   0.000000
   96       -1.278415   0.000000
   97       -1.220045   0.000000
   98       -1.002831   0.000000
   99       -0.792993   0.000000
  100       -0.463901   0.000000
  101       -0.383543   0.000000
  102       -0.347496   0.000000
  103       -0.320815   0.000000
  104       -0.233550   0.000000
  105       -0.021909   0.000000
  106        0.243544   0.000000
  107        0.279357   0.000000
  108        0.292442   0.000000
  109        0.343349   0.000000
  110        0.392371   0.000000
  111        0.425280   0.000000
  112        0.650896   0.000000
  113        0.716818   0.000000
  114        0.810953   0.000000
  115        0.885901   0.000000
  116        0.936499   0.000000
  117        1.019103   0.000000
  118        1.678000   0.000000
  119        1.838167   0.000000
  120        2.186874   0.000000
 
  0.1250000E+00  0.2775558E-16  0.0000000E+00  0.3125000E-01
    1      -17.810738   1.000000
    2      -16.706170   1.000000
    3      -16.635445   1.000000
    4      -16.600248   1.000000
    5      -16.543136   1.000000
    6      -16.382672   1.000000
    7      -16.336915   1.000000
    8      -16.262083   1.000000
    9      -16.143473   1.000000
   10      -16.097364   1.000000
   11      -15.985598   1.000000
   12      -15.946299   1.000000
   13      -15.874910   1.000000
   14      -15.779851   1.000000
   15      -15.631929   1.000000
   16      -15.505532   1.000000
   17      -15.479186   1.000000
   18      -15.370786   1.000000
   19       -9.404547   1.000000
   20       -9.038512   1.000000
   21       -8.976142   1.000000
   22       -8.877030   1.000000
   23       -8.779244   1.000000
   24       -8.700290   1.000000
   25       -8.630747   1.000000
   26       -8.536395   1.000000
   27       -8.505055   1.000000
   28       -8.425471   1.000000
   29       -8.355581   1.000000
   30       -8.217587   1.000000
   31       -8.155229   1.000000
   32       -8.103243   1.000000
   33       -8.008709   1.000000
   34       -7.890526   1.000000
   35       -7.820166   1.000000
   36       -7.729626   1.000000
   37       -7.662255   1.000000
   38       -7.593811   1.000000
   39       -7.545538   1.000000
   40       -7.519346   1.000000
   41       -7.287040   1.000000
   42       -7.190864   1.000000
   43       -7.160003   1.000000
   44       -6.958559   1.000000
   45       -6.863694   1.000000
   46       -6.785290   1.000000
   47       -6.736575   1.000000
   48       -6.680629   1.000000
   49       -6.569959   1.000000
   50       -6.535913   1.000000
   51       -6.485319   1.000000
   52       -6.357103   1.000000
   53       -6.336813   1.000000
   54       -6.285301   1.000000
   55       -6.240168   1.000000
   56       -6.116445   1.000000
   57       -5.991124   1.000000
   58       -5.813658   1.000000
   59       -5.710811   1.000000
   60       -5.560364   1.000000
   61       -5.433238   1.000000
   62       -5.393995   1.000000
   63       -5.277738   1.000000
   64       -5.142479   1.000000
   65       -5.059474   1.000000
   66       -5.031047   1.000000
   67       -4.940368   1.000000
   68       -4.867146   1.000000
   69       -4.761234   1.000000
   70       -4.705621   1.000000
   71       -4.614011   1.000000
   72       -4.305849   1.000000
   73       -4.256845   1.000000
   74       -4.177916   1.000000
   75       -4.072939   1.000000
   76       -3.911921   1.000000
   77       -3.749361   0.999999
   78       -3.626175   0.999965
   79       -3.497821   0.998922
   80       -3.023546   0.387540
   81       -2.921834   0.157461
   82       -2.784800   0.024195
   83       -2.612399   0.000704
   84       -2.580028   0.000311
   85       -2.471136   0.000014
   86       -2.402751   0.000001
   87       -2.339213   0.000000
   88       -2.254704   0.000000
   89       -2.197881   0.000000
   90       -2.097877   0.000000
   91       -1.779534   0.000000
   92       -1.665975   0.000000
   93       -1.557928   0.000000
   94       -1.480545   0.000000
   95       -1.391344   0.000000
   96       -1.248557   0.000000
   97       -1.199862   0.000000
   98       -0.993149   0.000000
   99       -0.780242   0.000000
  100       -0.528845   0.000000
  101       -0.477110   0.000000
  102       -0.439757   0.000000
  103       -0.394515   0.000000
  104       -0.209701   0.000000
  105       -0.036575   0.000000
  106        0.108501   0.000000
  107        0.146584   0.000000
  108        0.230682   0.000000
  109        0.271259   0.000000
  110        0.389598   0.000000
  111        0.421407   0.000000
  112        0.679929   0.000000
  113        0.821600   0.000000
  114        0.884801   0.000000
  115        0.952674   0.000000
  116        1.009551   0.000000
  117        1.062047   0.000000
  118        1.720390   0.000000
  119        1.877383   0.000000
  120        2.222067   0.000000
 
  0.2500000E+00  0.5551115E-16  0.0000000E+00  0.3125000E-01
    1      -17.741519   1.000000
    2      -16.916647   1.000000
    3      -16.682698   1.000000
    4      -16.628299   1.000000
    5      -16.577237   1.000000
    6      -16.335807   1.000000
    7      -16.306430   1.000000
    8      -16.229848   1.000000
    9      -16.150802   1.000000
   10      -16.056707   1.000000
   11      -15.967244   1.000000
   12      -15.852478   1.000000
   13      -15.836009   1.000000
   14      -15.696065   1.000000
   15      -15.657447   1.000000
   16      -15.527750   1.000000
   17      -15.491917   1.000000
   18      -15.403720   1.000000
   19       -9.538611   1.000000
   20       -9.173053   1.000000
   21       -9.122584   1.000000
   22       -8.995951   1.000000
   23       -8.896861   1.000000
   24       -8.855598   1.000000
   25       -8.576201   1.000000
   26       -8.503341   1.000000
   27       -8.466553   1.000000
   28       -8.390751   1.000000
   29       -8.285990   1.000000
   30       -8.225873   1.000000
   31       -8.109795   1.000000
   32       -8.015339   1.000000
   33       -7.872020   1.000000
   34       -7.788054   1.000000
   35       -7.719405   1.000000
   36       -7.680291   1.000000
   37       -7.642453   1.000000
   38       -7.515664   1.000000
   39       -7.398609   1.000000
   40       -7.337245   1.000000
   41       -7.232057   1.000000
   42       -7.122633   1.000000
   43       -7.054091   1.000000
   44       -6.966728   1.000000
   45       -6.945084   1.000000
   46       -6.836987   1.000000
   47       -6.791539   1.000000
   48       -6.721496   1.000000
   49       -6.612539   1.000000
   50       -6.591370   1.000000
   51       -6.474791   1.000000
   52       -6.385880   1.000000
   53       -6.304596   1.000000
   54       -6.239428   1.000000
   55       -6.150373   1.000000
   56       -6.110078   1.000000
   57       -5.966927   1.000000
   58       -5.785005   1.000000
   59       -5.693656   1.000000
   60       -5.562862   1.000000
   61       -5.516502   1.000000
   62       -5.457744   1.000000
   63       -5.421764   1.000000
   64       -5.306473   1.000000
   65       -5.221375   1.000000
   66       -5.162219   1.000000
   67       -5.059790   1.000000
   68       -4.827743   1.000000
   69       -4.739831   1.000000
   70       -4.696358   1.000000
   71       -4.639169   1.000000
   72       -4.252838   1.000000
   73       -4.144761   1.000000
   74       -4.042009   1.000000
   75       -3.967788   1.000000
   76       -3.913938   1.000000
   77       -3.776195   1.000000
   78       -3.667850   0.999990
   79       -3.461769   0.997546
   80       -2.947487   0.205097
   81       -2.852831   0.067735
   82       -2.807193   0.034717
   83       -2.726470   0.008508
   84       -2.584243   0.000347
   85       -2.490329   0.000025
   86       -2.384115   0.000001
   87       -2.354928   0.000000
   88       -2.285554   0.000000
   89       -2.222981   0.000000
   90       -2.100290   0.000000
   91       -1.765708   0.000000
   92       -1.656318   0.000000
   93       -1.524488   0.000000
   94       -1.392734   0.000000
   95       -1.314990   0.000000
   96       -1.200939   0.000000
   97       -1.123608   0.000000
   98       -0.972483   0.000000
   99       -0.771424   0.000000
  100       -0.698508   0.000000
  101       -0.643667   0.000000
  102       -0.567287   0.000000
  103       -0.477834   0.000000
  104       -0.298666   0.000000
  105       -0.180638   0.000000
  106       -0.094251   0.000000
  107       -0.046117   0.000000
  108        0.095367   0.000000
  109        0.191928   0.000000
  110        0.319430   0.000000
  111        0.427898   0.000000
  112        0.722230   0.000000
  113        0.915182   0.000000
  114        0.998330   0.000000
  115        1.064963   0.000000
  116        1.175788   0.000000
  117        1.234906   0.000000
  118        1.840148   0.000000
  119        1.991141   0.000000
  120        2.326618   0.000000
 
  0.3750000E+00  0.0000000E+00  0.0000000E+00  0.3125000E-01
    1      -17.641411   1.000000
    2      -17.120610   1.000000
    3      -16.720733   1.000000
    4      -16.666825   1.000000
    5      -16.554278   1.000000
    6      -16.378922   1.000000
    7      -16.280046   1.000000
    8      -16.201997   1.000000
    9      -16.099921   1.000000
   10      -16.022674   1.000000
   11      -15.927701   1.000000
   12      -15.833009   1.000000
   13      -15.775132   1.000000
   14      -15.726604   1.000000
   15      -15.599332   1.000000
   16      -15.529082   1.000000
   17      -15.507432   1.000000
   18      -15.438221   1.000000
   19       -9.733757   1.000000
   20       -9.272263   1.000000
   21       -9.154343   1.000000
   22       -9.037423   1.000000
   23       -8.984139   1.000000
   24       -8.951045   1.000000
   25       -8.511493   1.000000
   26       -8.438725   1.000000
   27       -8.411936   1.000000
   28       -8.364630   1.000000
   29       -8.265802   1.000000
   30       -8.221095   1.000000
   31       -8.144735   1.000000
   32       -7.953507   1.000000
   33       -7.885603   1.000000
   34       -7.801273   1.000000
   35       -7.781155   1.000000
   36       -7.624091   1.000000
   37       -7.572883   1.000000
   38       -7.431661   1.000000
   39       -7.290378   1.000000
   40       -7.227837   1.000000
   41       -7.177239   1.000000
   42       -7.106014   1.000000
   43       -7.006141   1.000000
   44       -6.915093   1.000000
   45       -6.840045   1.000000
   46       -6.804716   1.000000
   47       -6.734838   1.000000
   48       -6.639469   1.000000
   49       -6.606574   1.000000
   50       -6.549900   1.000000
   51       -6.410905   1.000000
   52       -6.315797   1.000000
   53       -6.268660   1.000000
   54       -6.205124   1.000000
   55       -6.083896   1.000000
   56       -5.978688   1.000000
   57       -5.941883   1.000000
   58       -5.908707   1.000000
   59       -5.839435   1.000000
   60       -5.730418   1.000000
   61       -5.719331   1.000000
   62       -5.675297   1.000000
   63       -5.659231   1.000000
   64       -5.518479   1.000000
   65       -5.198876   1.000000
   66       -5.054907   1.000000
   67       -4.975978   1.000000
   68       -4.812785   1.000000
   69       -4.718936   1.000000
   70       -4.677031   1.000000
   71       -4.642143   1.000000
   72       -4.581838   1.000000
   73       -4.188375   1.000000
   74       -4.048067   1.000000
   75       -3.873361   1.000000
   76       -3.764532   1.000000
   77       -3.626889   0.999966
   78       -3.477924   0.998290
   79       -3.376936   0.986555
   80       -3.011494   0.355335
   81       -2.946014   0.202149
   82       -2.877843   0.094085
   83       -2.662399   0.002260
   84       -2.559043   0.000178
   85       -2.519980   0.000060
   86       -2.423524   0.000003
   87       -2.351485   0.000000
   88       -2.284297   0.000000
   89       -2.223280   0.000000
   90       -2.078282   0.000000
   91       -1.760816   0.000000
   92       -1.631213   0.000000
   93       -1.500081   0.000000
   94       -1.372383   0.000000
   95       -1.246864   0.000000
   96       -1.173352   0.000000
   97       -1.031075   0.000000
   98       -0.974182   0.000000
   99       -0.842096   0.000000
  100       -0.798873   0.000000
  101       -0.715110   0.000000
  102       -0.632335   0.000000
  103       -0.554861   0.000000
  104       -0.420239   0.000000
  105       -0.362476   0.000000
  106       -0.269300   0.000000
  107       -0.226213   0.000000
  108        0.031480   0.000000
  109        0.111816   0.000000
  110        0.276211   0.000000
  111        0.427915   0.000000
  112        0.749169   0.000000
  113        0.962228   0.000000
  114        1.091007   0.000000
  115        1.158384   0.000000
  116        1.317531   0.000000
  117        1.385407   0.000000
  118        2.023554   0.000000
  119        2.169736   0.000000
  120        2.495985   0.000000
 
  0.5000000E+00  0.1110223E-15  0.0000000E+00  0.1562500E-01
    1      -17.575366   1.000000
    2      -17.223223   1.000000
    3      -16.734144   1.000000
    4      -16.681637   1.000000
    5      -16.536857   1.000000
    6      -16.404218   1.000000
    7      -16.277580   1.000000
    8      -16.197911   1.000000
    9      -16.041447   1.000000
   10      -16.016931   1.000000
   11      -15.924921   1.000000
   12      -15.847956   1.000000
   13      -15.744669   1.000000
   14      -15.707831   1.000000
   15      -15.615696   1.000000
   16      -15.545602   1.000000
   17      -15.493235   1.000000
   18      -15.440056   1.000000
   19       -9.811919   1.000000
   20       -9.311455   1.000000
   21       -9.174310   1.000000
   22       -9.050416   1.000000
   23       -9.015956   1.000000
   24       -8.942905   1.000000
   25       -8.487228   1.000000
   26       -8.440551   1.000000
   27       -8.388834   1.000000
   28       -8.364044   1.000000
   29       -8.259405   1.000000
   30       -8.210566   1.000000
   31       -8.120138   1.000000
   32       -7.928139   1.000000
   33       -7.880279   1.000000
   34       -7.833573   1.000000
   35       -7.822550   1.000000
   36       -7.651444   1.000000
   37       -7.562914   1.000000
   38       -7.420013   1.000000
   39       -7.320188   1.000000
   40       -7.243653   1.000000
   41       -7.111353   1.000000
   42       -7.045430   1.000000
   43       -6.948784   1.000000
   44       -6.844123   1.000000
   45       -6.813339   1.000000
   46       -6.761771   1.000000
   47       -6.692927   1.000000
   48       -6.586155   1.000000
   49       -6.548848   1.000000
   50       -6.428148   1.000000
   51       -6.404081   1.000000
   52       -6.348893   1.000000
   53       -6.263365   1.000000
   54       -6.158787   1.000000
   55       -6.144955   1.000000
   56       -6.028514   1.000000
   57       -5.997534   1.000000
   58       -5.855262   1.000000
   59       -5.812855   1.000000
   60       -5.798294   1.000000
   61       -5.744776   1.000000
   62       -5.716659   1.000000
   63       -5.677323   1.000000
   64       -5.579757   1.000000
   65       -5.452801   1.000000
   66       -5.054468   1.000000
   67       -4.995660   1.000000
   68       -4.868235   1.000000
   69       -4.688955   1.000000
   70       -4.673955   1.000000
   71       -4.641204   1.000000
   72       -4.505104   1.000000
   73       -4.331508   1.000000
   74       -4.019168   1.000000
   75       -3.787502   1.000000
   76       -3.720584   0.999998
   77       -3.558700   0.999766
   78       -3.419426   0.994024
   79       -3.259698   0.916838
   80       -3.147063   0.721620
   81       -2.977050   0.269438
   82       -2.878369   0.094710
   83       -2.656060   0.001962
   84       -2.570509   0.000242
   85       -2.519713   0.000059
   86       -2.424177   0.000003
   87       -2.364605   0.000000
   88       -2.269877   0.000000
   89       -2.212461   0.000000
   90       -2.064741   0.000000
   91       -1.760673   0.000000
   92       -1.618192   0.000000
   93       -1.493315   0.000000
   94       -1.374200   0.000000
   95       -1.234564   0.000000
   96       -1.170876   0.000000
   97       -1.014274   0.000000
   98       -0.962662   0.000000
   99       -0.891356   0.000000
  100       -0.799396   0.000000
  101       -0.721586   0.000000
  102       -0.655664   0.000000
  103       -0.574655   0.000000
  104       -0.464321   0.000000
  105       -0.452583   0.000000
  106       -0.343664   0.000000
  107       -0.305106   0.000000
  108        0.009758   0.000000
  109        0.086616   0.000000
  110        0.263108   0.000000
  111        0.425355   0.000000
  112        0.757297   0.000000
  113        0.980191   0.000000
  114        1.124734   0.000000
  115        1.195586   0.000000
  116        1.371340   0.000000
  117        1.434506   0.000000
  118        2.249640   0.000000
  119        2.269043   0.000000
  120        2.385487   0.000000
 
  0.0000000E+00  0.1250000E+00  0.0000000E+00  0.3125000E-01
    1      -17.808655   1.000000
    2      -16.767331   1.000000
    3      -16.634153   1.000000
    4      -16.563892   1.000000
    5      -16.505913   1.000000
    6      -16.370510   1.000000
    7      -16.304578   1.000000
    8      -16.291000   1.000000
    9      -16.181052   1.000000
   10      -16.073262   1.000000
   11      -16.030528   1.000000
   12      -15.922180   1.000000
   13      -15.862487   1.000000
   14      -15.793282   1.000000
   15      -15.616908   1.000000
   16      -15.532886   1.000000
   17      -15.469388   1.000000
   18      -15.364633   1.000000
   19       -9.378063   1.000000
   20       -9.181430   1.000000
   21       -8.926583   1.000000
   22       -8.857636   1.000000
   23       -8.777524   1.000000
   24       -8.637552   1.000000
   25       -8.587208   1.000000
   26       -8.536656   1.000000
   27       -8.485582   1.000000
   28       -8.427195   1.000000
   29       -8.307386   1.000000
   30       -8.240497   1.000000
   31       -8.189032   1.000000
   32       -8.130458   1.000000
   33       -8.000578   1.000000
   34       -7.952505   1.000000
   35       -7.826747   1.000000
   36       -7.749357   1.000000
   37       -7.717642   1.000000
   38       -7.570239   1.000000
   39       -7.506215   1.000000
   40       -7.428213   1.000000
   41       -7.360675   1.000000
   42       -7.206117   1.000000
   43       -7.146034   1.000000
   44       -6.965506   1.000000
   45       -6.858022   1.000000
   46       -6.819051   1.000000
   47       -6.727268   1.000000
   48       -6.628281   1.000000
   49       -6.594732   1.000000
   50       -6.521433   1.000000
   51       -6.433950   1.000000
   52       -6.370841   1.000000
   53       -6.350530   1.000000
   54       -6.304894   1.000000
   55       -6.220845   1.000000
   56       -6.111272   1.000000
   57       -6.028362   1.000000
   58       -5.843034   1.000000
   59       -5.673770   1.000000
   60       -5.575262   1.000000
   61       -5.470640   1.000000
   62       -5.337858   1.000000
   63       -5.275870   1.000000
   64       -5.144003   1.000000
   65       -5.128634   1.000000
   66       -5.013650   1.000000
   67       -4.992561   1.000000
   68       -4.892091   1.000000
   69       -4.676028   1.000000
   70       -4.647669   1.000000
   71       -4.553281   1.000000
   72       -4.356086   1.000000
   73       -4.320585   1.000000
   74       -4.113584   1.000000
   75       -4.047810   1.000000
   76       -3.983602   1.000000
   77       -3.696998   0.999996
   78       -3.652566   0.999984
   79       -3.516632   0.999315
   80       -3.014813   0.364113
   81       -2.939707   0.189819
   82       -2.771090   0.019186
   83       -2.664800   0.002383
   84       -2.519386   0.000059
   85       -2.459647   0.000010
   86       -2.417852   0.000002
   87       -2.303505   0.000000
   88       -2.262034   0.000000
   89       -2.195466   0.000000
   90       -2.093028   0.000000
   91       -1.801321   0.000000
   92       -1.637839   0.000000
   93       -1.563505   0.000000
   94       -1.523939   0.000000
   95       -1.399881   0.000000
   96       -1.265449   0.000000
   97       -1.203614   0.000000
   98       -0.950768   0.000000
   99       -0.775638   0.000000
  100       -0.541154   0.000000
  101       -0.476280   0.000000
  102       -0.417309   0.000000
  103       -0.359157   0.000000
  104       -0.266484   0.000000
  105       -0.102087   0.000000
  106        0.100377   0.000000
  107        0.196970   0.000000
  108        0.270893   0.000000
  109        0.311671   0.000000
  110        0.422760   0.000000
  111        0.507596   0.000000
  112        0.540744   0.000000
  113        0.772519   0.000000
  114        0.809363   0.000000
  115        0.922712   0.000000
  116        1.065704   0.000000
  117        1.127006   0.000000
  118        1.720540   0.000000
  119        1.878547   0.000000
  120        2.222051   0.000000
 
  0.1250000E+00  0.1250000E+00  0.0000000E+00  0.3125000E-01
    1      -17.761754   1.000000
    2      -16.848886   1.000000
    3      -16.776520   1.000000
    4      -16.597937   1.000000
    5      -16.423892   1.000000
    6      -16.388565   1.000000
    7      -16.296454   1.000000
    8      -16.247143   1.000000
    9      -16.172935   1.000000
   10      -16.079407   1.000000
   11      -15.975443   1.000000
   12      -15.924971   1.000000
   13      -15.776713   1.000000
   14      -15.724153   1.000000
   15      -15.667026   1.000000
   16      -15.549902   1.000000
   17      -15.475498   1.000000
   18      -15.382332   1.000000
   19       -9.430089   1.000000
   20       -9.319852   1.000000
   21       -9.056983   1.000000
   22       -9.011300   1.000000
   23       -8.800124   1.000000
   24       -8.656676   1.000000
   25       -8.579876   1.000000
   26       -8.532460   1.000000
   27       -8.489447   1.000000
   28       -8.392698   1.000000
   29       -8.280094   1.000000
   30       -8.243894   1.000000
   31       -8.143194   1.000000
   32       -8.060482   1.000000
   33       -7.992262   1.000000
   34       -7.813526   1.000000
   35       -7.770423   1.000000
   36       -7.701985   1.000000
   37       -7.573831   1.000000
   38       -7.479174   1.000000
   39       -7.408498   1.000000
   40       -7.360161   1.000000
   41       -7.271995   1.000000
   42       -7.185144   1.000000
   43       -7.103203   1.000000
   44       -7.065972   1.000000
   45       -6.904002   1.000000
   46       -6.822619   1.000000
   47       -6.750259   1.000000
   48       -6.712339   1.000000
   49       -6.615650   1.000000
   50       -6.542628   1.000000
   51       -6.459834   1.000000
   52       -6.386471   1.000000
   53       -6.327580   1.000000
   54       -6.256108   1.000000
   55       -6.197334   1.000000
   56       -6.110462   1.000000
   57       -6.007337   1.000000
   58       -5.803699   1.000000
   59       -5.719314   1.000000
   60       -5.487272   1.000000
   61       -5.438793   1.000000
   62       -5.393271   1.000000
   63       -5.383599   1.000000
   64       -5.332597   1.000000
   65       -5.192606   1.000000
   66       -5.033718   1.000000
   67       -5.002793   1.000000
   68       -4.947384   1.000000
   69       -4.856956   1.000000
   70       -4.775469   1.000000
   71       -4.391044   1.000000
   72       -4.274088   1.000000
   73       -4.193086   1.000000
   74       -4.036572   1.000000
   75       -3.934389   1.000000
   76       -3.913371   1.000000
   77       -3.801944   1.000000
   78       -3.749360   0.999999
   79       -3.514942   0.999286
   80       -2.942690   0.195590
   81       -2.851915   0.066891
   82       -2.799868   0.030925
   83       -2.662962   0.002288
   84       -2.598751   0.000502
   85       -2.492193   0.000026
   86       -2.411031   0.000002
   87       -2.324854   0.000000
   88       -2.269339   0.000000
   89       -2.204530   0.000000
   90       -2.082323   0.000000
   91       -1.784687   0.000000
   92       -1.639895   0.000000
   93       -1.523749   0.000000
   94       -1.460225   0.000000
   95       -1.356240   0.000000
   96       -1.229347   0.000000
   97       -1.177230   0.000000
   98       -0.938629   0.000000
   99       -0.755290   0.000000
  100       -0.633689   0.000000
  101       -0.610351   0.000000
  102       -0.526057   0.000000
  103       -0.497301   0.000000
  104       -0.299748   0.000000
  105       -0.113161   0.000000
  106       -0.039262   0.000000
  107        0.017910   0.000000
  108        0.155310   0.000000
  109        0.173604   0.000000
  110        0.419619   0.000000
  111        0.489095   0.000000
  112        0.636310   0.000000
  113        0.822495   0.000000
  114        0.942784   0.000000
  115        1.043834   0.000000
  116        1.155628   0.000000
  117        1.197220   0.000000
  118        1.800893   0.000000
  119        1.955395   0.000000
  120        2.291570   0.000000
 
  0.2500000E+00  0.1250000E+00  0.0000000E+00  0.3125000E-01
    1      -17.674377   1.000000
    2      -17.008380   1.000000
    3      -16.899692   1.000000
    4      -16.570619   1.000000
    5      -16.451298   1.000000
    6      -16.353683   1.000000
    7      -16.300764   1.000000
    8      -16.201705   1.000000
    9      -16.160064   1.000000
   10      -16.036680   1.000000
   11      -15.926198   1.000000
   12      -15.903435   1.000000
   13      -15.773092   1.000000
   14      -15.687962   1.000000
   15      -15.615508   1.000000
   16      -15.570536   1.000000
   17      -15.500690   1.000000
   18      -15.400248   1.000000
   19       -9.617231   1.000000
   20       -9.436141   1.000000
   21       -9.183365   1.000000
   22       -9.051976   1.000000
   23       -8.857828   1.000000
   24       -8.705903   1.000000
   25       -8.527169   1.000000
   26       -8.450415   1.000000
   27       -8.432996   1.000000
   28       -8.343717   1.000000
   29       -8.281580   1.000000
   30       -8.221684   1.000000
   31       -8.155097   1.000000
   32       -8.067137   1.000000
   33       -7.978733   1.000000
   34       -7.878274   1.000000
   35       -7.795412   1.000000
   36       -7.584610   1.000000
   37       -7.422445   1.000000
   38       -7.397131   1.000000
   39       -7.312127   1.000000
   40       -7.274465   1.000000
   41       -7.207633   1.000000
   42       -7.118064   1.000000
   43       -7.036637   1.000000
   44       -6.944598   1.000000
   45       -6.874330   1.000000
   46       -6.820236   1.000000
   47       -6.765837   1.000000