       N       E                     dE             d eps       ncg     rms          rms(c)
DAV:   1     0.112430195007E+04    0.11243E+04   -0.35871E+04  8160   0.577E+02
DAV:   2    -0.257564836638E+01   -0.11269E+04   -0.10856E+04 11080   0.173E+02
DAV:   3    -0.199757373651E+03   -0.19718E+03   -0.18911E+03 10920   0.819E+01
DAV:   4    -0.208974125111E+03   -0.92168E+01   -0.89098E+01 12080   0.260E+01
DAV:   5    -0.209323557916E+03   -0.34943E+00   -0.34844E+00 11560   0.370E+00    0.275E+01
DAV:   6    -0.237082726743E+03   -0.27759E+02   -0.10976E+02 12720   0.603E+01    0.596E+01
DAV:   7    -0.196444414782E+03    0.40638E+02   -0.17750E+02 13520   0.152E+02    0.199E+01
DAV:   8    -0.189403975498E+03    0.70404E+01   -0.17458E+01 12080   0.127E+01    0.126E+01
DAV:   9    -0.188170295353E+03    0.12337E+01   -0.31512E+00 13040   0.637E+00    0.914E+00
DAV:  10    -0.186999125983E+03    0.11712E+01   -0.20866E+00 13360   0.737E+00    0.272E+00
DAV:  11    -0.186967550844E+03    0.31575E-01   -0.59136E-01 13280   0.251E+00    0.274E+00
DAV:  12    -0.187090063550E+03   -0.12251E+00   -0.81839E-01 12160   0.483E+00    0.497E+00
DAV:  13    -0.186880999158E+03    0.20906E+00   -0.54640E-01 12840   0.410E+00    0.210E+00
DAV:  14    -0.186856754407E+03    0.24245E-01   -0.12768E-01 13320   0.206E+00    0.169E+00
DAV:  15    -0.186837070044E+03    0.19684E-01   -0.71382E-02 11760   0.161E+00    0.864E-01
DAV:  16    -0.186829426226E+03    0.76438E-02   -0.12287E-02 12160   0.467E-01    0.449E-01
DAV:  17    -0.186827553921E+03    0.18723E-02   -0.79675E-03 12520   0.431E-01    0.234E-01
DAV:  18    -0.186827093480E+03    0.46044E-03   -0.24473E-03 11560   0.144E-01    0.180E-01
DAV:  19    -0.186826739416E+03    0.35406E-03   -0.98542E-04 10760   0.134E-01    0.479E-02
DAV:  20    -0.186827477106E+03   -0.73769E-03   -0.69399E-04  9440   0.585E-02    0.497E-02
DAV:  21    -0.186828068635E+03   -0.59153E-03   -0.26516E-04  7800   0.450E-02    0.446E-02
DAV:  22    -0.186829234488E+03   -0.11659E-02   -0.21817E-04  7680   0.619E-02    0.400E-02
DAV:  23    -0.186830460050E+03   -0.12256E-02   -0.14556E-04  7440   0.443E-02    0.112E-02
DAV:  24    -0.186831048205E+03   -0.58816E-03   -0.30872E-05  6680   0.141E-02    0.776E-03
DAV:  25    -0.186831413612E+03   -0.36541E-03   -0.15778E-05  5760   0.122E-02    0.492E-03
DAV:  26    -0.186831648283E+03   -0.23467E-03   -0.90243E-06  6760   0.728E-03    0.159E-03
DAV:  27    -0.186831751182E+03   -0.10290E-03   -0.38352E-06  7120   0.480E-03    0.160E-03
DAV:  28    -0.186831791912E+03   -0.40730E-04   -0.20014E-06  7280   0.363E-03
   1 F= -.18683179E+03 E0= -.18665924E+03  d E =-.186832E+03
       N       E                     dE             d eps       ncg     rms          rms(c)
DAV:   1    -0.187459325668E+03   -0.62757E+00   -0.27120E+02  8160   0.350E+01    0.460E+00
DAV:   2    -0.189260647429E+03   -0.18013E+01   -0.20040E+01 12280   0.149E+01    0.789E+00
DAV:   3    -0.189367180990E+03   -0.10653E+00   -0.36212E+00 12440   0.117E+01    0.697E+00
DAV:   4    -0.188724900854E+03    0.64228E+00   -0.65837E-01 12640   0.492E+00    0.178E+00
DAV:   5    -0.188721341349E+03    0.35595E-02   -0.29496E-01 10160   0.142E+00    0.214E+00
DAV:   6    -0.188660227402E+03    0.61114E-01   -0.28279E-01 10880   0.145E+00    0.116E+00
DAV:   7    -0.188642711687E+03    0.17516E-01   -0.80942E-02 11400   0.106E+00    0.821E-01
DAV:   8    -0.188638582494E+03    0.41292E-02   -0.28480E-02 12360   0.934E-01    0.780E-01
DAV:   9    -0.188634119783E+03    0.44627E-02   -0.10624E-02 13080   0.564E-01    0.237E-01
DAV:  10    -0.188633771311E+03    0.34847E-03   -0.28643E-03 12880   0.206E-01    0.151E-01
DAV:  11    -0.188633518420E+03    0.25289E-03   -0.14178E-03 12120   0.128E-01    0.110E-01
DAV:  12    -0.188633854731E+03   -0.33631E-03   -0.99318E-04 10960   0.189E-01    0.216E-01
DAV:  13    -0.188633531559E+03    0.32317E-03   -0.56978E-04  9600   0.147E-01    0.216E-02
DAV:  14    -0.188633639359E+03   -0.10780E-03   -0.68367E-05  7400   0.272E-02    0.302E-02
DAV:  15    -0.188633673314E+03   -0.33955E-04   -0.37811E-05  7560   0.210E-02
   2 F= -.18863367E+03 E0= -.18849138E+03  d E =-.180188E+01
       N       E                     dE             d eps       ncg     rms          rms(c)
DAV:   1    -0.190551984527E+03   -0.19183E+01   -0.30897E+01  9280   0.142E+01    0.446E+00
DAV:   2    -0.190545929231E+03    0.60553E-02   -0.28405E+00 11680   0.972E+00    0.748E+00
DAV:   3    -0.190024515313E+03    0.52141E+00   -0.13436E+00 12320   0.865E+00    0.413E+00
DAV:   4    -0.189819915537E+03    0.20460E+00   -0.69847E-01 12920   0.404E+00    0.247E+00
DAV:   5    -0.189737220572E+03    0.82695E-01   -0.29526E-01 11440   0.198E+00    0.118E+00
DAV:   6    -0.189723062680E+03    0.14158E-01   -0.63916E-02 11920   0.139E+00    0.855E-01
DAV:   7    -0.189717106003E+03    0.59567E-02   -0.15036E-02 12240   0.702E-01    0.215E-01
DAV:   8    -0.189716959136E+03    0.14687E-03   -0.21953E-03 10560   0.170E-01    0.143E-01
DAV:   9    -0.189717175033E+03   -0.21590E-03   -0.10443E-03 11080   0.144E-01    0.160E-01
DAV:  10    -0.189717573819E+03   -0.39879E-03   -0.14387E-03 10160   0.263E-01    0.251E-01
DAV:  11    -0.189716990465E+03    0.58335E-03   -0.83317E-04  9800   0.193E-01    0.267E-02
DAV:  12    -0.189717012990E+03   -0.22525E-04   -0.66930E-05  5760   0.320E-02
   3 F= -.18971701E+03 E0= -.18959717E+03  d E =-.108334E+01
       N       E                     dE             d eps       ncg     rms          rms(c)
DAV:   1    -0.191282131740E+03   -0.15651E+01   -0.71857E+01  8160   0.194E+01    0.464E+00
DAV:   2    -0.191157201803E+03    0.12493E+00   -0.54527E+00 13360   0.833E+00    0.521E+00
DAV:   3    -0.191196996475E+03   -0.39795E-01   -0.16174E+00 12280   0.927E+00    0.650E+00
DAV:   4    -0.190837654954E+03    0.35934E+00   -0.13703E+00 12600   0.737E+00    0.318E+00
DAV:   5    -0.190833406034E+03    0.42489E-02   -0.56380E-01 12000   0.490E+00    0.337E+00
DAV:   6    -0.190688531315E+03    0.14487E+00   -0.21611E-01 12160   0.327E+00    0.841E-01
DAV:   7    -0.190683073514E+03    0.54578E-02   -0.39141E-02 12320   0.907E-01    0.491E-01
DAV:   8    -0.190681548024E+03    0.15255E-02   -0.11065E-02 11720   0.640E-01    0.496E-01
DAV:   9    -0.190679354027E+03    0.21940E-02   -0.39993E-03 11360   0.464E-01    0.157E-01
DAV:  10    -0.190679626341E+03   -0.27231E-03   -0.11871E-03 10480   0.144E-01    0.126E-01
DAV:  11    -0.190679466353E+03    0.15999E-03   -0.87959E-04 10520   0.108E-01    0.485E-02
DAV:  12    -0.190679460266E+03    0.60871E-05   -0.14694E-04  7120   0.453E-02
   4 F= -.19067946E+03 E0= -.19057825E+03  d E =-.962447E+00
       N       E                     dE             d eps       ncg     rms          rms(c)
DAV:   1    -0.192064042871E+03   -0.13846E+01   -0.14996E+02  8160   0.274E+01    0.569E+00
DAV:   2    -0.191841817865E+03    0.22223E+00   -0.94432E+00 12040   0.869E+00    0.450E+00
DAV:   3    -0.192225417941E+03   -0.38360E+00   -0.23901E+00 12200   0.108E+01    0.914E+00
DAV:   4    -0.191561089161E+03    0.66433E+00   -0.23402E+00 12160   0.111E+01    0.353E+00
DAV:   5    -0.191387990164E+03    0.17310E+00   -0.49998E-01 12320   0.349E+00    0.176E+00
DAV:   6    -0.191371177928E+03    0.16812E-01   -0.20053E-01 12560   0.292E+00    0.180E+00
DAV:   7    -0.191347236403E+03    0.23942E-01   -0.10384E-01 12240   0.206E+00    0.675E-01
DAV:   8    -0.191339873547E+03    0.73629E-02   -0.11470E-02 11160   0.538E-01    0.201E-01
DAV:   9    -0.191341190572E+03   -0.13170E-02   -0.38553E-03 12560   0.423E-01    0.379E-01
DAV:  10    -0.191340160709E+03    0.10299E-02   -0.35234E-03 11360   0.406E-01    0.125E-01
DAV:  11    -0.191339994166E+03    0.16654E-03   -0.73881E-04 10480   0.123E-01    0.579E-02
DAV:  12    -0.191339960644E+03    0.33523E-04   -0.13262E-04  7400   0.470E-02
   5 F= -.19133996E+03 E0= -.19124564E+03  d E =-.660500E+00
       N       E                     dE             d eps       ncg     rms          rms(c)
DAV:   1    -0.191426669762E+03   -0.86676E-01   -0.77903E+00  8160   0.589E+00    0.715E-01
DAV:   2    -0.191489327168E+03   -0.62657E-01   -0.31664E-01 13200   0.271E+00    0.223E+00
DAV:   3    -0.191442463081E+03    0.46864E-01   -0.13571E-01 12320   0.241E+00    0.660E-01
DAV:   4    -0.191442892261E+03   -0.42918E-03   -0.20580E-02 11800   0.987E-01    0.724E-01
DAV:   5    -0.191437530511E+03    0.53617E-02   -0.10100E-02 11720   0.765E-01    0.240E-01
DAV:   6    -0.191437078975E+03    0.45154E-03   -0.25834E-03 11040   0.237E-01    0.141E-01
DAV:   7    -0.191436844036E+03    0.23494E-03   -0.14036E-03 10400   0.138E-01    0.824E-02
DAV:   8    -0.191436799026E+03    0.45010E-04   -0.42222E-04  9520   0.131E-01
   6 F= -.19143680E+03 E0= -.19134101E+03  d E =-.968384E-01
       N       E                     dE             d eps       ncg     rms          rms(c)
DAV:   1    -0.191459979131E+03   -0.23135E-01   -0.45476E-01  8160   0.143E+00    0.172E-01
DAV:   2    -0.191463264102E+03   -0.32850E-02   -0.16632E-02 13600   0.641E-01    0.507E-01
DAV:   3    -0.191460630511E+03    0.26336E-02   -0.62704E-03 11480   0.547E-01    0.143E-01
DAV:   4    -0.191460797720E+03   -0.16721E-03   -0.11629E-03 10000   0.235E-01    0.187E-01
DAV:   5    -0.191460454831E+03    0.34289E-03   -0.61824E-04  8720   0.193E-01    0.566E-02
DAV:   6    -0.191460459925E+03   -0.50939E-05   -0.13596E-04  6120   0.655E-02
   7 F= -.19146046E+03 E0= -.19136461E+03  d E =-.236609E-01
       N       E                     dE             d eps       ncg     rms          rms(c)
DAV:   1    -0.191364622999E+03    0.95832E-01   -0.77937E+00  8160   0.593E+00    0.731E-01
DAV:   2    -0.191421118880E+03   -0.56496E-01   -0.28947E-01 13600   0.286E+00    0.204E+00
DAV:   3    -0.191373794733E+03    0.47324E-01   -0.90810E-02 12440   0.224E+00    0.540E-01
DAV:   4    -0.191375981678E+03   -0.21869E-02   -0.18774E-02 10640   0.957E-01    0.760E-01
DAV:   5    -0.191370279234E+03    0.57024E-02   -0.12508E-02 10800   0.822E-01    0.281E-01
DAV:   6    -0.191369859009E+03    0.42022E-03   -0.39883E-03 11600   0.336E-01    0.206E-01
DAV:   7    -0.191370136607E+03   -0.27760E-03   -0.32619E-03 12200   0.393E-01    0.297E-01
DAV:   8    -0.191369218754E+03    0.91785E-03   -0.15986E-03 10080   0.280E-01    0.486E-02
DAV:   9    -0.191369214273E+03    0.44809E-05   -0.95507E-05  6000   0.448E-02
   8 F= -.19136921E+03 E0= -.19127457E+03  d E =0.912457E-01
       N       E                     dE             d eps       ncg     rms          rms(c)
DAV:   1    -0.191322156064E+03    0.47063E-01   -0.47309E+00  8160   0.462E+00    0.441E-01
DAV:   2    -0.191331924932E+03   -0.97689E-02   -0.12207E-01 12520   0.108E+00    0.538E-01
DAV:   3    -0.191332875975E+03   -0.95104E-03   -0.23228E-02 12600   0.100E+00    0.701E-01
DAV:   4    -0.191328675875E+03    0.42001E-02   -0.11027E-02 12040   0.707E-01    0.273E-01
DAV:   5    -0.191327919244E+03    0.75663E-03   -0.31551E-03 10200   0.325E-01    0.214E-01
DAV:   6    -0.191328158900E+03   -0.23966E-03   -0.29708E-03 12000   0.380E-01    0.244E-01
DAV:   7    -0.191327622292E+03    0.53661E-03   -0.15600E-03  9880   0.273E-01    0.127E-01
DAV:   8    -0.191327473800E+03    0.14849E-03   -0.44172E-04  8560   0.156E-01    0.607E-02
DAV:   9    -0.191327435245E+03    0.38555E-04   -0.88795E-05  6760   0.659E-02
   9 F= -.19132744E+03 E0= -.19123359E+03  d E =0.417790E-01
       N       E                     dE             d eps       ncg     rms          rms(c)
DAV:   1    -0.191385479301E+03   -0.58006E-01   -0.52278E+00  8160   0.483E+00    0.539E-01
DAV:   2    -0.191408064483E+03   -0.22585E-01   -0.16487E-01 13320   0.147E+00    0.122E+00
DAV:   3    -0.191395451372E+03    0.12613E-01   -0.59834E-02 12240   0.159E+00    0.659E-01
DAV:   4    -0.191392711147E+03    0.27402E-02   -0.12743E-02 11920   0.699E-01    0.461E-01
DAV:   5    -0.191390849622E+03    0.18615E-02   -0.56752E-03 11320   0.562E-01    0.258E-01
DAV:   6    -0.191390299551E+03    0.55007E-03   -0.25213E-03 12080   0.288E-01    0.143E-01
DAV:   7    -0.191390178933E+03    0.12062E-03   -0.12796E-03 11120   0.190E-01    0.119E-01
DAV:   8    -0.191390095719E+03    0.83215E-04   -0.59568E-04  8960   0.179E-01
  10 F= -.19139010E+03 E0= -.19129436E+03  d E =-.626605E-01
       N       E                     dE             d eps       ncg     rms          rms(c)
DAV:   1    -0.191409228484E+03   -0.19050E-01   -0.39059E-01  8160   0.135E+00    0.215E-01
DAV:   2    -0.191413336378E+03   -0.41079E-02   -0.20109E-02 12760   0.807E-01    0.616E-01
DAV:   3    -0.191409317779E+03    0.40186E-02   -0.87396E-03 11560   0.656E-01    0.149E-01
DAV:   4    -0.191409656926E+03   -0.33915E-03   -0.20333E-03 10120   0.296E-01    0.257E-01
DAV:   5    -0.191409041387E+03    0.61554E-03   -0.14109E-03  9760   0.268E-01    0.890E-02
DAV:   6    -0.191408953055E+03    0.88333E-04   -0.27666E-04  6000   0.856E-02
  11 F= -.19140895E+03 E0= -.19131261E+03  d E =-.188573E-01
       N       E                     dE             d eps       ncg     rms          rms(c)
DAV:   1    -0.191491675441E+03   -0.82634E-01   -0.75453E+00  8160   0.584E+00    0.724E-01
DAV:   2    -0.191553151655E+03   -0.61476E-01   -0.28895E-01 13600   0.288E+00    0.236E+00
DAV:   3    -0.191501992870E+03    0.51159E-01   -0.13772E-01 12280   0.241E+00    0.645E-01
DAV:   4    -0.191503303734E+03   -0.13109E-02   -0.23625E-02 11320   0.106E+00    0.786E-01
DAV:   5    -0.191497070039E+03    0.62337E-02   -0.12282E-02 11880   0.802E-01    0.260E-01
DAV:   6    -0.191496441579E+03    0.62846E-03   -0.35481E-03 11280   0.266E-01    0.152E-01
DAV:   7    -0.191496188786E+03    0.25279E-03   -0.15921E-03 11640   0.188E-01    0.125E-01
DAV:   8    -0.191496066866E+03    0.12192E-03   -0.65143E-04  8920   0.182E-01    0.900E-02
DAV:   9    -0.191495979973E+03    0.86893E-04   -0.16327E-04  6400   0.914E-02
  12 F= -.19149598E+03 E0= -.19139918E+03  d E =-.870269E-01
       N       E                     dE             d eps       ncg     rms          rms(c)
DAV:   1    -0.191242494901E+03    0.25357E+00   -0.57341E+01  8160   0.161E+01    0.174E+00
DAV:   2    -0.191496869848E+03   -0.25437E+00   -0.17266E+00 13200   0.553E+00    0.372E+00
DAV:   3    -0.191319887303E+03    0.17698E+00   -0.36368E-01 11680   0.451E+00    0.145E+00
DAV:   4    -0.191320545582E+03   -0.65828E-03   -0.11374E-01 12360   0.206E+00    0.159E+00
DAV:   5    -0.191298415849E+03    0.22130E-01   -0.67568E-02 11720   0.183E+00    0.792E-01
DAV:   6    -0.191293759236E+03    0.46566E-02   -0.24484E-02 12200   0.944E-01    0.467E-01
DAV:   7    -0.191292695853E+03    0.10634E-02   -0.12390E-02 12760   0.675E-01    0.501E-01
DAV:   8    -0.191290404862E+03    0.22910E-02   -0.55365E-03 11600   0.563E-01    0.180E-01
DAV:   9    -0.191290063269E+03    0.34159E-03   -0.90551E-04 10360   0.167E-01    0.584E-02
DAV:  10    -0.191290015603E+03    0.47666E-04   -0.35120E-04 10240   0.606E-02
  13 F= -.19129002E+03 E0= -.19119741E+03  d E =0.205964E+00
       N       E                     dE             d eps       ncg     rms          rms(c)
DAV:   1    -0.191260308320E+03    0.29755E-01   -0.73176E+00  8160   0.567E+00    0.562E-01
DAV:   2    -0.191276178102E+03   -0.15870E-01   -0.15800E-01 12440   0.139E+00    0.847E-01
DAV:   3    -0.191269676984E+03    0.65011E-02   -0.32444E-02 12880   0.127E+00    0.602E-01
DAV:   4    -0.191266859725E+03    0.28173E-02   -0.11403E-02 12320   0.736E-01    0.345E-01
DAV:   5    -0.191265783090E+03    0.10766E-02   -0.51744E-03 11800   0.469E-01    0.317E-01
DAV:   6    -0.191265492729E+03    0.29036E-03   -0.41565E-03 11280   0.469E-01    0.251E-01
DAV:   7    -0.191264896012E+03    0.59672E-03   -0.14594E-03 10360   0.244E-01    0.684E-02
DAV:   8    -0.191264866985E+03    0.29026E-04   -0.30596E-04  7880   0.111E-01
  14 F= -.19126487E+03 E0= -.19117287E+03  d E =0.251486E-01
       N       E                     dE             d eps       ncg     rms          rms(c)
DAV:   1    -0.191292071926E+03   -0.27176E-01   -0.21086E+00  8160   0.308E+00    0.411E-01
DAV:   2    -0.191308019074E+03   -0.15947E-01   -0.86904E-02 13400   0.154E+00    0.111E+00
DAV:   3    -0.191294945082E+03    0.13074E-01   -0.33913E-02 12240   0.129E+00    0.344E-01
DAV:   4    -0.191294706955E+03    0.23813E-03   -0.67518E-03 11280   0.492E-01    0.369E-01
DAV:   5    -0.191293746736E+03    0.96022E-03   -0.43148E-03 11480   0.461E-01    0.226E-01
DAV:   6    -0.191293126021E+03    0.62071E-03   -0.14083E-03 10080   0.219E-01    0.661E-02
DAV:   7    -0.191293223602E+03   -0.97581E-04   -0.54599E-04 10720   0.121E-01
  15 F= -.19129322E+03 E0= -.19119865E+03  d E =-.283566E-01
       N       E                     dE             d eps       ncg     rms          rms(c)
DAV:   1    -0.191339246964E+03   -0.46121E-01   -0.10934E+01  8160   0.700E+00    0.834E-01
DAV:   2    -0.191397138677E+03   -0.57892E-01   -0.37609E-01 13480   0.288E+00    0.201E+00
DAV:   3    -0.191357280814E+03    0.39858E-01   -0.13853E-01 12320   0.255E+00    0.818E-01
DAV:   4    -0.191353662327E+03    0.36185E-02   -0.29007E-02 12200   0.101E+00    0.719E-01
DAV:   5    -0.191350595271E+03    0.30671E-02   -0.18257E-02 12240   0.946E-01    0.509E-01
DAV:   6    -0.191347651709E+03    0.29436E-02   -0.64507E-03 12280   0.486E-01    0.148E-01
DAV:   7    -0.191347613334E+03    0.38375E-04   -0.18687E-03 10600   0.159E-01    0.888E-02
DAV:   8    -0.191347479058E+03    0.13428E-03   -0.50649E-04 10800   0.127E-01    0.774E-02
DAV:   9    -0.191347437356E+03    0.41702E-04   -0.19275E-04  6760   0.105E-01
  16 F= -.19134744E+03 E0= -.19124898E+03  d E =-.542138E-01
       N       E                     dE             d eps       ncg     rms          rms(c)
DAV:   1    -0.191358910687E+03   -0.11432E-01   -0.42773E-01  8160   0.143E+00    0.219E-01
DAV:   2    -0.191361080327E+03   -0.21696E-02   -0.19013E-02 13120   0.627E-01    0.422E-01
DAV:   3    -0.191359321843E+03    0.17585E-02   -0.61054E-03 11640   0.565E-01    0.204E-01
DAV:   4    -0.191359009827E+03    0.31202E-03   -0.19303E-03  9960   0.261E-01    0.168E-01
DAV:   5    -0.191358925524E+03    0.84302E-04   -0.13251E-03  9840   0.246E-01    0.168E-01
DAV:   6    -0.191358645474E+03    0.28005E-03   -0.65574E-04  8200   0.174E-01    0.498E-02
DAV:   7    -0.191358633788E+03    0.11686E-04   -0.16856E-04  5760   0.681E-02
  17 F= -.19135863E+03 E0= -.19126006E+03  d E =-.111964E-01
       N       E                     dE             d eps       ncg     rms          rms(c)
DAV:   1    -0.191383083285E+03   -0.24438E-01   -0.19796E+00  8160   0.301E+00    0.355E-01
DAV:   2    -0.191390361894E+03   -0.72786E-02   -0.63664E-02 13600   0.102E+00    0.645E-01
DAV:   3    -0.191386480464E+03    0.38814E-02   -0.17759E-02 12280   0.934E-01    0.382E-01
DAV:   4    -0.191385403617E+03    0.10768E-02   -0.52127E-03 11400   0.435E-01    0.259E-01
DAV:   5    -0.191385221071E+03    0.18255E-03   -0.32109E-03 11160   0.390E-01    0.265E-01
DAV:   6    -0.191384547058E+03    0.67401E-03   -0.15860E-03  9640   0.269E-01    0.753E-02
DAV:   7    -0.191384550187E+03   -0.31293E-05   -0.38165E-04  8520   0.953E-02
  18 F= -.19138455E+03 E0= -.19128600E+03  d E =-.259164E-01
       N       E                     dE             d eps       ncg     rms          rms(c)
DAV:   1    -0.191369495050E+03    0.15052E-01   -0.71523E-01  8160   0.182E+00    0.235E-01
DAV:   2    -0.191372869940E+03   -0.33749E-02   -0.25229E-02 12840   0.735E-01    0.506E-01
DAV:   3    -0.191370313172E+03    0.25568E-02   -0.77051E-03 12040   0.641E-01    0.228E-01
DAV:   4    -0.191370113319E+03    0.19985E-03   -0.23637E-03 10400   0.310E-01    0.210E-01
DAV:   5    -0.191369813986E+03    0.29933E-03   -0.15101E-03  9560   0.281E-01    0.145E-01
DAV:   6    -0.191369584706E+03    0.22928E-03   -0.61251E-04  9440   0.152E-01    0.532E-02
DAV:   7    -0.191369679751E+03   -0.95045E-04   -0.36914E-04  8320   0.130E-01
  19 F= -.19136968E+03 E0= -.19127086E+03  d E =0.148704E-01
       N       E                     dE             d eps       ncg     rms          rms(c)
DAV:   1    -0.191350193132E+03    0.19392E-01   -0.11401E+00  8160   0.229E+00    0.259E-01
DAV:   2    -0.191353710053E+03   -0.35169E-02   -0.34565E-02 13560   0.683E-01    0.433E-01
DAV:   3    -0.191352428133E+03    0.12819E-02   -0.93792E-03 12480   0.648E-01    0.341E-01
DAV:   4    -0.191351668052E+03    0.76008E-03   -0.37690E-03 11360   0.379E-01    0.205E-01
DAV:   5    -0.191351401123E+03    0.26693E-03   -0.15651E-03  9760   0.278E-01    0.166E-01
DAV:   6    -0.191351146085E+03    0.25504E-03   -0.81224E-04  9680   0.198E-01    0.709E-02
DAV:   7    -0.191351225468E+03   -0.79382E-04   -0.37605E-04  9240   0.130E-01
  20 F= -.19135123E+03 E0= -.19125242E+03  d E =0.184543E-01
       N       E                     dE             d eps       ncg     rms          rms(c)
DAV:   1    -0.191357368087E+03   -0.62220E-02   -0.41173E-01  8160   0.135E+00    0.159E-01
DAV:   2    -0.191359683723E+03   -0.23156E-02   -0.13270E-02 13560   0.559E-01    0.412E-01
DAV:   3    -0.191357966816E+03    0.17169E-02   -0.46745E-03 11720   0.502E-01    0.158E-01
DAV:   4    -0.191357808952E+03    0.15786E-03   -0.94629E-04  9600   0.200E-01    0.119E-01
DAV:   5    -0.191357715762E+03    0.93191E-04   -0.47432E-04  8280   0.161E-01
  21 F= -.19135772E+03 E0= -.19125829E+03  d E =-.649029E-02
       N       E                     dE             d eps       ncg     rms          rms(c)
DAV:   1    -0.191365770339E+03   -0.79614E-02   -0.17146E+00  8160   0.274E+00    0.253E-01
DAV:   2    -0.191369347633E+03   -0.35773E-02   -0.33849E-02 12240   0.650E-01    0.432E-01
DAV:   3    -0.191368216176E+03    0.11315E-02   -0.79523E-03 12720   0.635E-01    0.336E-01
DAV:   4    -0.191367426956E+03    0.78922E-03   -0.29423E-03 11040   0.349E-01    0.155E-01
DAV:   5    -0.191367047039E+03    0.37992E-03   -0.10245E-03 10240   0.153E-01    0.931E-02
DAV:   6    -0.191367370234E+03   -0.32319E-03   -0.11043E-03 10160   0.232E-01    0.197E-01
DAV:   7    -0.191366972901E+03    0.39733E-03   -0.61018E-04  8160   0.170E-01    0.184E-02
DAV:   8    -0.191366993587E+03   -0.20687E-04   -0.37030E-05  5560   0.378E-02
  22 F= -.19136699E+03 E0= -.19126857E+03  d E =-.927783E-02
       N       E                     dE             d eps       ncg     rms          rms(c)
DAV:   1    -0.191353643779E+03    0.13329E-01   -0.14397E+00  8160   0.253E+00    0.234E-01
DAV:   2    -0.191355540442E+03   -0.18967E-02   -0.27618E-02 12280   0.486E-01    0.259E-01
DAV:   3    -0.191356131165E+03   -0.59072E-03   -0.56847E-03 12800   0.504E-01    0.387E-01
DAV:   4    -0.191354928418E+03    0.12027E-02   -0.34569E-03 11000   0.390E-01    0.156E-01
DAV:   5    -0.191354688809E+03    0.23961E-03   -0.10782E-03  9840   0.183E-01    0.116E-01
DAV:   6    -0.191354781258E+03   -0.92449E-04   -0.84237E-04 10280   0.210E-01
  23 F= -.19135478E+03 E0= -.19125581E+03  d E =0.122123E-01
       N       E                     dE             d eps       ncg     rms          rms(c)
DAV:   1    -0.191381889938E+03   -0.27201E-01   -0.20064E+00  8160   0.308E+00    0.442E-01
DAV:   2    -0.191390234828E+03   -0.83449E-02   -0.78613E-02 13520   0.122E+00    0.811E-01
DAV:   3    -0.191384065121E+03    0.61697E-02   -0.26302E-02 12240   0.115E+00    0.446E-01
DAV:   4    -0.191382438810E+03    0.16263E-02   -0.86332E-03 11360   0.541E-01    0.335E-01
DAV:   5    -0.191382273197E+03    0.16561E-03   -0.59737E-03 11680   0.511E-01    0.362E-01
DAV:   6    -0.191380937061E+03    0.13361E-02   -0.30245E-03 11080   0.363E-01    0.877E-02
DAV:   7    -0.191380940098E+03   -0.30376E-05   -0.65404E-04  9880   0.122E-01
  24 F= -.19138094E+03 E0= -.19128131E+03  d E =-.261588E-01
       N       E                     dE             d eps       ncg     rms          rms(c)
DAV:   1    -0.191387766161E+03   -0.68291E-02   -0.57003E-01  8160   0.159E+00    0.200E-01
DAV:   2    -0.191392273389E+03   -0.45072E-02   -0.19801E-02 13520   0.710E-01    0.621E-01
DAV:   3    -0.191388355471E+03    0.39179E-02   -0.84297E-03 10960   0.675E-01    0.170E-01
DAV:   4    -0.191388137777E+03    0.21769E-03   -0.10173E-03  9600   0.161E-01    0.826E-02
DAV:   5    -0.191388018926E+03    0.11885E-03   -0.30502E-04  8240   0.728E-02    0.435E-02
DAV:   6    -0.191388127548E+03   -0.10862E-03   -0.36043E-04  9200   0.121E-01    0.110E-01
DAV:   7    -0.191388010709E+03    0.11684E-03   -0.27038E-04  6760   0.111E-01    0.310E-02
DAV:   8    -0.191388014200E+03   -0.34911E-05   -0.37563E-05  5560   0.430E-02
  25 F= -.19138801E+03 E0= -.19128797E+03  d E =-.707410E-02
       N       E                     dE             d eps       ncg     rms          rms(c)
DAV:   1    -0.191408837695E+03   -0.20827E-01   -0.12630E+00  8160   0.242E+00    0.279E-01
DAV:   2    -0.191413111919E+03   -0.42742E-02   -0.38679E-02 13520   0.735E-01    0.508E-01
DAV:   3    -0.191411261225E+03    0.18507E-02   -0.11996E-02 12360   0.739E-01    0.361E-01
DAV:   4    -0.191410349432E+03    0.91179E-03   -0.40317E-03 11280   0.393E-01    0.209E-01
DAV:   5    -0.191410077019E+03    0.27241E-03   -0.16845E-03  9600   0.295E-01    0.181E-01
DAV:   6    -0.191409786437E+03    0.29058E-03   -0.96973E-04 10000   0.216E-01    0.854E-02
DAV:   7    -0.191409944795E+03   -0.15836E-03   -0.62375E-04  8480   0.177E-01    0.146E-01
DAV:   8    -0.191409718543E+03    0.22625E-03   -0.38567E-04  8120   0.149E-01    0.272E-02
DAV:   9    -0.191409720748E+03   -0.22050E-05   -0.38072E-05  5520   0.322E-02
  26 F= -.19140972E+03 E0= -.19131049E+03  d E =-.217065E-01
       N       E                     dE             d eps       ncg     rms          rms(c)
DAV:   1    -0.191361702045E+03    0.48016E-01   -0.72121E+00  8160   0.578E+00    0.655E-01
DAV:   2    -0.191385993662E+03   -0.24292E-01   -0.21006E-01 13600   0.176E+00    0.128E+00
DAV:   3    -0.191374426119E+03    0.11568E-01   -0.67138E-02 12320   0.176E+00    0.842E-01
DAV:   4    -0.191369107621E+03    0.53185E-02   -0.20553E-02 12240   0.856E-01    0.422E-01
DAV:   5    -0.191367764277E+03    0.13433E-02   -0.86619E-03 11360   0.600E-01    0.418E-01
DAV:   6    -0.191366614183E+03    0.11501E-02   -0.58056E-03 11960   0.541E-01    0.254E-01
DAV:   7    -0.191366941848E+03   -0.32766E-03   -0.35765E-03 11680   0.395E-01    0.303E-01
DAV:   8    -0.191365952602E+03    0.98925E-03   -0.19256E-03  9720   0.304E-01    0.653E-02
DAV:   9    -0.191365920968E+03    0.31634E-04   -0.19584E-04  7440   0.734E-02
  27 F= -.19136592E+03 E0= -.19126509E+03  d E =0.437998E-01
       N       E                     dE             d eps       ncg     rms          rms(c)
DAV:   1    -0.191373863804E+03   -0.79112E-02   -0.13015E+00  8160   0.238E+00    0.244E-01
DAV:   2    -0.191377858915E+03   -0.39951E-02   -0.30884E-02 13600   0.805E-01    0.512E-01
DAV:   3    -0.191375161108E+03    0.26978E-02   -0.77616E-03 11960   0.635E-01    0.198E-01
DAV:   4    -0.191375068369E+03    0.92739E-04   -0.19285E-03 10760   0.253E-01    0.198E-01
DAV:   5    -0.191374850350E+03    0.21802E-03   -0.14806E-03  9760   0.271E-01    0.169E-01
DAV:   6    -0.191374662221E+03    0.18813E-03   -0.92842E-04  9840   0.196E-01    0.836E-02
DAV:   7    -0.191374621793E+03    0.40428E-04   -0.32105E-04  7120   0.101E-01
  28 F= -.19137462E+03 E0= -.19127286E+03  d E =-.870082E-02
       N       E                     dE             d eps       ncg     rms          rms(c)
DAV:   1    -0.191378647642E+03   -0.39854E-02   -0.87655E-02  8160   0.626E-01    0.656E-02
DAV:   2    -0.191378898374E+03   -0.25073E-03   -0.21570E-03 12520   0.163E-01    0.126E-01
DAV:   3    -0.191378775101E+03    0.12327E-03   -0.63642E-04  9000   0.171E-01    0.839E-02
DAV:   4    -0.191378739436E+03    0.35664E-04   -0.19341E-04  5960   0.915E-02
  29 F= -.19137874E+03 E0= -.19127683E+03  d E =-.411764E-02
       N       E                     dE             d eps       ncg     rms          rms(c)
DAV:   1    -0.191289803143E+03    0.88972E-01   -0.20287E+01  8160   0.969E+00    0.112E+00
DAV:   2    -0.191368139551E+03   -0.78336E-01   -0.63536E-01 13480   0.284E+00    0.205E+00
DAV:   3    -0.191328090821E+03    0.40049E-01   -0.17325E-01 12240   0.285E+00    0.144E+00
DAV:   4    -0.191315946557E+03    0.12144E-01   -0.70759E-02 12680   0.162E+00    0.901E-01
DAV:   5    -0.191310333999E+03    0.56126E-02   -0.30363E-02 11920   0.117E+00    0.707E-01
DAV:   6    -0.191305094782E+03    0.52392E-02   -0.13670E-02 12040   0.805E-01    0.283E-01
DAV:   7    -0.191306390145E+03   -0.12954E-02   -0.69808E-03 11960   0.532E-01    0.452E-01
DAV:   8    -0.191304405917E+03    0.19842E-02   -0.45590E-03 11320   0.489E-01    0.152E-01
DAV:   9    -0.191304133128E+03    0.27279E-03   -0.63331E-04  9040   0.147E-01    0.385E-02
DAV:  10    -0.191304128287E+03    0.48418E-05   -0.15428E-04  8080   0.467E-02
  30 F= -.19130413E+03 E0= -.19120445E+03  d E =0.746111E-01
       N       E                     dE             d eps       ncg     rms          rms(c)
DAV:   1    -0.191317951633E+03   -0.13819E-01   -0.11263E+00  8160   0.224E+00    0.263E-01
DAV:   2    -0.191323120880E+03   -0.51692E-02   -0.36770E-02 13520   0.721E-01    0.568E-01
DAV:   3    -0.191320289334E+03    0.28315E-02   -0.13128E-02 12360   0.783E-01    0.367E-01
DAV:   4    -0.191319078738E+03    0.12106E-02   -0.32527E-03 11080   0.357E-01    0.153E-01
DAV:   5    -0.191319032628E+03    0.46110E-04   -0.11578E-03  9960   0.239E-01    0.162E-01
DAV:   6    -0.191318798848E+03    0.23378E-03   -0.82367E-04  9520   0.201E-01    0.872E-02
DAV:   7    -0.191318935153E+03   -0.13630E-03   -0.62014E-04  8600   0.162E-01    0.140E-01
DAV:   8    -0.191318741356E+03    0.19380E-03   -0.39927E-04  7800   0.139E-01    0.294E-02
DAV:   9    -0.191318742168E+03   -0.81218E-06   -0.34681E-05  5720   0.312E-02
  31 F= -.19131874E+03 E0= -.19121775E+03  d E =-.146139E-01
       N       E                     dE             d eps       ncg     rms          rms(c)
DAV:   1    -0.191316100515E+03    0.26408E-02   -0.51434E-01  8160   0.155E+00    0.196E-01
DAV:   2    -0.191318069309E+03   -0.19688E-02   -0.15811E-02 12760   0.525E-01    0.409E-01
DAV:   3    -0.191316751954E+03    0.13174E-02   -0.55805E-03 12000   0.534E-01    0.239E-01
DAV:   4    -0.191316264868E+03    0.48709E-03   -0.15327E-03  9960   0.244E-01    0.110E-01
DAV:   5    -0.191316145739E+03    0.11913E-03   -0.65482E-04 10240   0.148E-01    0.109E-01
DAV:   6    -0.191316121150E+03    0.24588E-04   -0.65216E-04  8640   0.169E-01
  32 F= -.19131612E+03 E0= -.19121431E+03  d E =0.262102E-02
       N       E                     dE             d eps       ncg     rms          rms(c)
DAV:   1    -0.191327307870E+03   -0.11162E-01   -0.91806E-01  8160   0.204E+00    0.258E-01
DAV:   2    -0.191333926035E+03   -0.66182E-02   -0.36294E-02 13600   0.863E-01    0.688E-01
DAV:   3    -0.191329113074E+03    0.48130E-02   -0.14413E-02 11560   0.821E-01    0.284E-01
DAV:   4    -0.191328616755E+03    0.49632E-03   -0.29297E-03 11120   0.328E-01    0.201E-01
DAV:   5    -0.191328355450E+03    0.26131E-03   -0.13585E-03 10040   0.260E-01    0.139E-01
DAV:   6    -0.191328145585E+03    0.20987E-03   -0.55017E-04  8240   0.147E-01    0.665E-02
DAV:   7    -0.191328329623E+03   -0.18404E-03   -0.58603E-04  9200   0.164E-01    0.146E-01
DAV:   8    -0.191328118654E+03    0.21097E-03   -0.39113E-04  7680   0.139E-01    0.235E-02
DAV:   9    -0.191328124206E+03   -0.55522E-05   -0.36055E-05  5680   0.267E-02
  33 F= -.19132812E+03 E0= -.19122505E+03  d E =-.120031E-01
       N       E                     dE             d eps       ncg     rms          rms(c)
DAV:   1    -0.191339345921E+03   -0.11227E-01   -0.80909E-01  8160   0.193E+00    0.262E-01
DAV:   2    -0.191344900008E+03   -0.55541E-02   -0.35302E-02 13560   0.879E-01    0.639E-01
DAV:   3    -0.191340824682E+03    0.40753E-02   -0.12835E-02 11760   0.770E-01    0.269E-01
DAV:   4    -0.191340497414E+03    0.32727E-03   -0.34036E-03 11080   0.345E-01    0.238E-01
DAV:   5    -0.191340101707E+03    0.39571E-03   -0.18131E-03  9640   0.291E-01    0.152E-01
DAV:   6    -0.191339845905E+03    0.25580E-03   -0.69943E-04  8960   0.160E-01    0.653E-02
DAV:   7    -0.191340012229E+03   -0.16632E-03   -0.57684E-04  8880   0.163E-01    0.142E-01
DAV:   8    -0.191339807600E+03    0.20463E-03   -0.37246E-04  7720   0.140E-01    0.260E-02
DAV:   9    -0.191339810329E+03   -0.27297E-05   -0.38114E-05  5640   0.296E-02
  34 F= -.19133981E+03 E0= -.19123545E+03  d E =-.116861E-01
       N       E                     dE             d eps       ncg     rms          rms(c)
DAV:   1    -0.191354745195E+03   -0.14938E-01   -0.16119E+00  8160   0.270E+00    0.319E-01
DAV:   2    -0.191362598785E+03   -0.78536E-02   -0.56718E-02 13600   0.966E-01    0.700E-01
DAV:   3    -0.191358202823E+03    0.43960E-02   -0.18495E-02 11920   0.911E-01    0.394E-01
DAV:   4    -0.191357171496E+03    0.10313E-02   -0.52372E-03 11520   0.437E-01    0.257E-01
DAV:   5    -0.191356749105E+03    0.42239E-03   -0.23325E-03 10200   0.335E-01    0.191E-01
DAV:   6    -0.191356387405E+03    0.36170E-03   -0.11387E-03  9760   0.212E-01    0.917E-02
DAV:   7    -0.191356697643E+03   -0.31024E-03   -0.10442E-03  9920   0.214E-01    0.193E-01
DAV:   8    -0.191356321268E+03    0.37638E-03   -0.65145E-04  8400   0.179E-01    0.287E-02
DAV:   9    -0.191356326888E+03   -0.56202E-05   -0.45027E-05  5680   0.320E-02
  35 F= -.19135633E+03 E0= -.19125043E+03  d E =-.165166E-01
       N       E                     dE             d eps       ncg     rms          rms(c)
DAV:   1    -0.191345151517E+03    0.11170E-01   -0.68578E-01  8160   0.177E+00    0.228E-01
DAV:   2    -0.191349220585E+03   -0.40691E-02   -0.26905E-02 12960   0.756E-01    0.540E-01
DAV:   3    -0.191346305087E+03    0.29155E-02   -0.88049E-03 11480   0.650E-01    0.238E-01
DAV:   4    -0.191346040351E+03    0.26474E-03   -0.24578E-03 10800   0.302E-01    0.199E-01
DAV:   5    -0.191345764841E+03    0.27551E-03   -0.12913E-03  9720   0.252E-01    0.133E-01
DAV:   6    -0.191345573174E+03    0.19167E-03   -0.56362E-04  8480   0.146E-01    0.612E-02
DAV:   7    -0.191345709965E+03   -0.13679E-03   -0.50343E-04  8880   0.149E-01    0.129E-01
DAV:   8    -0.191345541875E+03    0.16809E-03   -0.30258E-04  7000   0.123E-01    0.194E-02
DAV:   9    -0.191345550771E+03   -0.88960E-05   -0.28582E-05  5640   0.236E-02
  36 F= -.19134555E+03 E0= -.19124082E+03  d E =0.107761E-01
       N       E                     dE             d eps       ncg     rms          rms(c)
DAV:   1    -0.191337157111E+03    0.83848E-02   -0.42078E-01  8160   0.138E+00    0.149E-01
DAV:   2    -0.191338513743E+03   -0.13566E-02   -0.12508E-02 12480   0.376E-01    0.253E-01
DAV:   3    -0.191338042700E+03    0.47104E-03   -0.33091E-03 11640   0.380E-01    0.208E-01
DAV:   4    -0.191337724548E+03    0.31815E-03   -0.12028E-03  9400   0.220E-01    0.110E-01
DAV:   5    -0.191337659961E+03    0.64588E-04   -0.47229E-04  8360   0.151E-01
  37 F= -.19133766E+03 E0= -.19123357E+03  d E =0.789081E-02
       N       E                     dE             d eps       ncg     rms          rms(c)
DAV:   1    -0.191342513101E+03   -0.47886E-02   -0.20659E-01  8160   0.973E-01    0.110E-01
DAV:   2    -0.191343328705E+03   -0.81560E-03   -0.78619E-03 12440   0.279E-01    0.178E-01
DAV:   3    -0.191343172580E+03    0.15613E-03   -0.21530E-03 11160   0.289E-01    0.186E-01
DAV:   4    -0.191342877824E+03    0.29476E-03   -0.78434E-04  8160   0.176E-01    0.573E-02
DAV:   5    -0.191342847501E+03    0.30324E-04   -0.12800E-04  5520   0.634E-02
  38 F= -.19134285E+03 E0= -.19123852E+03  d E =-.518754E-02
       N       E                     dE             d eps       ncg     rms          rms(c)
DAV:   1    -0.191346001366E+03   -0.31235E-02   -0.11640E-01  8160   0.721E-01    0.880E-02
DAV:   2    -0.191346694125E+03   -0.69276E-03   -0.33586E-03 12840   0.291E-01    0.243E-01
DAV:   3    -0.191346076476E+03    0.61765E-03   -0.12831E-03 10040   0.267E-01    0.756E-02
DAV:   4    -0.191346120710E+03   -0.44234E-04   -0.31923E-04  8040   0.120E-01
  39 F= -.19134612E+03 E0= -.19124160E+03  d E =-.327321E-02
       N       E                     dE             d eps       ncg     rms          rms(c)
DAV:   1    -0.191333222510E+03    0.12854E-01   -0.20403E+00  8160   0.299E+00    0.305E-01
DAV:   2    -0.191342517451E+03   -0.92949E-02   -0.50400E-02 12840   0.103E+00    0.835E-01
DAV:   3    -0.191335126692E+03    0.73908E-02   -0.16282E-02 11640   0.890E-01    0.262E-01
DAV:   4    -0.191335401926E+03   -0.27523E-03   -0.41620E-03 11080   0.397E-01    0.311E-01
DAV:   5    -0.191334541509E+03    0.86042E-03   -0.23977E-03  9960   0.349E-01    0.148E-01
DAV:   6    -0.191334350684E+03    0.19082E-03   -0.90527E-04 10240   0.178E-01    0.889E-02
DAV:   7    -0.191334559818E+03   -0.20913E-03   -0.84070E-04  9040   0.200E-01    0.170E-01
DAV:   8    -0.191334256162E+03    0.30366E-03   -0.46601E-04  8280   0.156E-01    0.181E-02
DAV:   9    -0.191334269976E+03   -0.13814E-04   -0.28476E-05  5600   0.221E-02
  40 F= -.19133427E+03 E0= -.19123079E+03  d E =0.118507E-01
       N       E                     dE             d eps       ncg     rms          rms(c)
DAV:   1    -0.191332302751E+03    0.19534E-02   -0.15951E-01  8160   0.832E-01    0.770E-02
DAV:   2    -0.191332549567E+03   -0.24682E-03   -0.33149E-03 12000   0.165E-01    0.777E-02
DAV:   3    -0.191332559373E+03   -0.98063E-05   -0.52456E-04 11360   0.143E-01
  41 F= -.19133256E+03 E0= -.19122928E+03  d E =0.171060E-02
       N       E                     dE             d eps       ncg     rms          rms(c)
DAV:   1    -0.191344895248E+03   -0.12346E-01   -0.16045E+00  8160   0.270E+00    0.334E-01
DAV:   2    -0.191353397321E+03   -0.85021E-02   -0.55848E-02 13560   0.111E+00    0.780E-01
DAV:   3    -0.191346846348E+03    0.65510E-02   -0.17923E-02 11600   0.950E-01    0.286E-01
DAV:   4    -0.191346372402E+03    0.47395E-03   -0.42697E-03 10920   0.364E-01    0.258E-01
DAV:   5    -0.191346059105E+03    0.31330E-03   -0.27792E-03  9840   0.351E-01    0.225E-01
DAV:   6    -0.191345547991E+03    0.51111E-03   -0.13682E-03  9520   0.235E-01    0.787E-02
DAV:   7    -0.191345652631E+03   -0.10464E-03   -0.64664E-04  9280   0.147E-01    0.127E-01
DAV:   8    -0.191345495697E+03    0.15693E-03   -0.38444E-04  7880   0.139E-01    0.432E-02
DAV:   9    -0.191345481649E+03    0.14049E-04   -0.48820E-05  6200   0.425E-02
  42 F= -.19134548E+03 E0= -.19124089E+03  d E =-.129223E-01
       N       E                     dE             d eps       ncg     rms          rms(c)
DAV:   1    -0.191351157007E+03   -0.56613E-02   -0.25248E-01  8160   0.108E+00    0.129E-01
DAV:   2    -0.191352154613E+03   -0.99761E-03   -0.91717E-03 12600   0.321E-01    0.224E-01
DAV:   3    -0.191351860234E+03    0.29438E-03   -0.27808E-03 11480   0.335E-01    0.200E-01
DAV:   4    -0.191351540740E+03    0.31949E-03   -0.10194E-03  8520   0.195E-01    0.848E-02
DAV:   5    -0.191351505830E+03    0.34910E-04   -0.29890E-04  6640   0.115E-01
  43 F= -.19135151E+03 E0= -.19124659E+03  d E =-.602418E-02
       N       E                     dE             d eps       ncg     rms          rms(c)
DAV:   1    -0.191356666921E+03   -0.51262E-02   -0.21471E-01  8160   0.991E-01    0.122E-01
DAV:   2    -0.191357781365E+03   -0.11144E-02   -0.69024E-03 13600   0.340E-01    0.282E-01
DAV:   3    -0.191356980910E+03    0.80046E-03   -0.23704E-03 10400   0.343E-01    0.126E-01
DAV:   4    -0.191356958225E+03    0.22685E-04   -0.62940E-04  8240   0.159E-01
  44 F= -.19135696E+03 E0= -.19125192E+03  d E =-.545240E-02
       N       E                     dE             d eps       ncg     rms          rms(c)
DAV:   1    -0.191359409738E+03   -0.24288E-02   -0.14409E-01  8160   0.888E-01    0.176E-01
DAV:   2    -0.191360096188E+03   -0.68645E-03   -0.73361E-03 12720   0.403E-01    0.345E-01
DAV:   3    -0.191359258775E+03    0.83741E-03   -0.44427E-03 10880   0.470E-01    0.230E-01
DAV:   4    -0.191358767252E+03    0.49152E-03   -0.14346E-03  9600   0.232E-01    0.905E-02
DAV:   5    -0.191358747597E+03    0.19655E-04   -0.73411E-04 10040   0.144E-01
  45 F= -.19135875E+03 E0= -.19125290E+03  d E =-.178937E-02
       N       E                     dE             d eps       ncg     rms          rms(c)
DAV:   1    -0.191369668784E+03   -0.10902E-01   -0.83419E-01  8160   0.197E+00    0.233E-01
DAV:   2    -0.191371943489E+03   -0.22747E-02   -0.27806E-02 13520   0.528E-01    0.309E-01
DAV:   3    -0.191371673572E+03    0.26992E-03   -0.64781E-03 12280   0.544E-01    0.324E-01
DAV:   4    -0.191370804504E+03    0.86907E-03   -0.29641E-03 11120   0.333E-01    0.174E-01
DAV:   5    -0.191370698807E+03    0.10570E-03   -0.15151E-03  9680   0.251E-01    0.174E-01
DAV:   6    -0.191370448748E+03    0.25006E-03   -0.76025E-04  8280   0.181E-01    0.602E-02
DAV:   7    -0.191370427761E+03    0.20987E-04   -0.18574E-04  6480   0.713E-02
  46 F= -.19137043E+03 E0= -.19126455E+03  d E =-.116802E-01
       N       E                     dE             d eps       ncg     rms          rms(c)
DAV:   1    -0.191359905201E+03    0.10544E-01   -0.58816E-01  8160   0.165E+00    0.190E-01
DAV:   2    -0.191361516897E+03   -0.16117E-02   -0.18403E-02 12280   0.412E-01    0.255E-01
DAV:   3    -0.191361248777E+03    0.26812E-03   -0.43334E-03 12080   0.428E-01    0.279E-01
DAV:   4    -0.191360630635E+03    0.61814E-03   -0.20685E-03 10240   0.302E-01    0.135E-01
DAV:   5    -0.191360493045E+03    0.13759E-03   -0.70078E-04  8480   0.172E-01    0.114E-01
DAV:   6    -0.191360405289E+03    0.87756E-04   -0.45878E-04  8560   0.155E-01
  47 F= -.19136041E+03 E0= -.19125462E+03  d E =0.100225E-01
       N       E                     dE             d eps       ncg     rms          rms(c)
DAV:   1    -0.191346703061E+03    0.13790E-01   -0.17738E+00  8160   0.288E+00    0.403E-01
DAV:   2    -0.191357029338E+03   -0.10326E-01   -0.70259E-02 12680   0.123E+00    0.898E-01
DAV:   3    -0.191348972506E+03    0.80568E-02   -0.22514E-02 12240   0.111E+00    0.403E-01
DAV:   4    -0.191348550345E+03    0.42216E-03   -0.67299E-03 11360   0.540E-01    0.372E-01
DAV:   5    -0.191347448690E+03    0.11017E-02   -0.45993E-03 10080   0.463E-01    0.238E-01
DAV:   6    -0.191346922238E+03    0.52645E-03   -0.18709E-03 11000   0.264E-01    0.114E-01
DAV:   7    -0.191347188241E+03   -0.26600E-03   -0.14849E-03 10120   0.236E-01    0.208E-01
DAV:   8    -0.191346781846E+03    0.40639E-03   -0.86750E-04  8520   0.186E-01    0.390E-02
DAV:   9    -0.191346780277E+03    0.15696E-05   -0.60853E-05  5680   0.387E-02
  48 F= -.19134678E+03 E0= -.19124131E+03  d E =0.136250E-01
       N       E                     dE             d eps       ncg     rms          rms(c)
DAV:   1    -0.191335822000E+03    0.10960E-01   -0.16298E+00  8160   0.274E+00    0.311E-01
DAV:   2    -0.191339900197E+03   -0.40782E-02   -0.46220E-02 12680   0.675E-01    0.430E-01
DAV:   3    -0.191339205612E+03    0.69459E-03   -0.11316E-02 12160   0.716E-01    0.462E-01
DAV:   4    -0.191337698258E+03    0.15074E-02   -0.51824E-03 12160   0.499E-01    0.230E-01
DAV:   5    -0.191337250512E+03    0.44775E-03   -0.20101E-03  9640   0.274E-01    0.189E-01
DAV:   6    -0.191337037315E+03    0.21320E-03   -0.15015E-03 10080   0.257E-01    0.127E-01
DAV:   7    -0.191337095023E+03   -0.57708E-04   -0.87586E-04  9360   0.186E-01
  49 F= -.19133710E+03 E0= -.19123182E+03  d E =0.968525E-02
       N       E                     dE             d eps       ncg     rms          rms(c)
DAV:   1    -0.191344655419E+03   -0.76181E-02   -0.52692E-01  8160   0.156E+00    0.192E-01
DAV:   2    -0.191347430288E+03   -0.27749E-02   -0.19932E-02 13600   0.571E-01    0.423E-01
DAV:   3    -0.191345738803E+03    0.16915E-02   -0.62850E-03 11040   0.549E-01    0.220E-01
DAV:   4    -0.191345429946E+03    0.30886E-03   -0.16976E-03  9680   0.257E-01    0.156E-01
DAV:   5    -0.191345276937E+03    0.15301E-03   -0.84634E-04  9600   0.204E-01    0.114E-01
DAV:   6    -0.191345142982E+03    0.13396E-03   -0.40198E-04  7440   0.126E-01    0.547E-02
DAV:   7    -0.191345243909E+03   -0.10093E-03   -0.39341E-04  7800   0.127E-01    0.112E-01
DAV:   8    -0.191345117387E+03    0.12652E-03   -0.23628E-04  6200   0.106E-01    0.203E-02
DAV:   9    -0.191345121805E+03   -0.44184E-05   -0.26192E-05  5520   0.233E-02
  50 F= -.19134512E+03 E0= -.19123875E+03  d E =-.802678E-02
       N       E                     dE             d eps       ncg     rms          rms(c)
DAV:   1    -0.191345092684E+03    0.24703E-04   -0.16627E-05  7080   0.149E-02    0.516E-03
DAV:   2    -0.191345093226E+03   -0.54182E-06   -0.69420E-06  6040   0.115E-02
  51 F= -.19134509E+03 E0= -.19123873E+03  d E =0.285795E-04
       N       E                     dE             d eps       ncg     rms          rms(c)
DAV:   1    -0.191353922158E+03   -0.88295E-02   -0.68056E-01  8160   0.175E+00    0.190E-01
DAV:   2    -0.191356438281E+03   -0.25161E-02   -0.23750E-02 12880   0.491E-01    0.328E-01
DAV:   3    -0.191355865540E+03    0.57274E-03   -0.55943E-03 12440   0.502E-01    0.285E-01
DAV:   4    -0.191355208062E+03    0.65748E-03   -0.18872E-03 10240   0.281E-01    0.114E-01
DAV:   5    -0.191355098988E+03    0.10907E-03   -0.56793E-04  8520   0.144E-01    0.103E-01
DAV:   6    -0.191355080550E+03    0.18438E-04   -0.53403E-04  8520   0.158E-01
  52 F= -.19135508E+03 E0= -.19124780E+03  d E =-.998732E-02
       N       E                     dE             d eps       ncg     rms          rms(c)
DAV:   1    -0.191347397620E+03    0.77014E-02   -0.34944E-01  8160   0.126E+00    0.149E-01
DAV:   2    -0.191350640412E+03   -0.32428E-02   -0.15796E-02 13600   0.558E-01    0.503E-01
DAV:   3    -0.191348139717E+03    0.25007E-02   -0.57563E-03 11440   0.516E-01    0.125E-01
DAV:   4    -0.191348148109E+03   -0.83919E-05   -0.84286E-04  9560   0.164E-01
  53 F= -.19134815E+03 E0= -.19124145E+03  d E =0.693244E-02
       N       E                     dE             d eps       ncg     rms          rms(c)
DAV:   1    -0.191340874446E+03    0.72653E-02   -0.66266E-01  8160   0.172E+00    0.207E-01
DAV:   2    -0.191342838838E+03   -0.19644E-02   -0.16892E-02 13280   0.495E-01    0.351E-01
DAV:   3    -0.191341583270E+03    0.12556E-02   -0.49468E-03 12040   0.488E-01    0.220E-01
DAV:   4    -0.191341273484E+03    0.30979E-03   -0.16731E-03 10280   0.257E-01    0.144E-01
DAV:   5    -0.191341229035E+03    0.44448E-04   -0.10197E-03  9720   0.225E-01    0.163E-01
DAV:   6    -0.191341000551E+03    0.22848E-03   -0.69851E-04  8280   0.196E-01    0.681E-02
DAV:   7    -0.191340968410E+03    0.32141E-04   -0.12571E-04  5840   0.699E-02
  54 F= -.19134097E+03 E0= -.19123514E+03  d E =0.717970E-02
       N       E                     dE             d eps       ncg     rms          rms(c)
DAV:   1    -0.191353423762E+03   -0.12423E-01   -0.15450E+00  8160   0.265E+00    0.313E-01
DAV:   2    -0.191359947603E+03   -0.65238E-02   -0.48968E-02 13600   0.960E-01    0.684E-01
DAV:   3    -0.191355701721E+03    0.42459E-02   -0.15324E-02 11360   0.850E-01    0.342E-01
DAV:   4    -0.191355092695E+03    0.60903E-03   -0.46938E-03 10960   0.428E-01    0.276E-01
DAV:   5    -0.191354584011E+03    0.50868E-03   -0.25950E-03 10200   0.354E-01    0.201E-01
DAV:   6    -0.191354202525E+03    0.38149E-03   -0.14348E-03  9520   0.237E-01    0.106E-01
DAV:   7    -0.191354418218E+03   -0.21569E-03   -0.11488E-03  9240   0.213E-01    0.182E-01
DAV:   8    -0.191354081905E+03    0.33631E-03   -0.61420E-04  8160   0.166E-01    0.271E-02
DAV:   9    -0.191354086789E+03   -0.48838E-05   -0.38088E-05  5760   0.284E-02
  55 F= -.19135409E+03 E0= -.19124685E+03  d E =-.131184E-01
       N       E                     dE             d eps       ncg     rms          rms(c)
DAV:   1    -0.191354451648E+03   -0.36974E-03   -0.35379E-02  8160   0.403E-01    0.469E-02
DAV:   2    -0.191354535039E+03   -0.83391E-04   -0.93197E-04 12200   0.112E-01
  56 F= -.19135454E+03 E0= -.19124700E+03  d E =-.448250E-03
       N       E                     dE             d eps       ncg     rms          rms(c)
DAV:   1    -0.191364076150E+03   -0.96245E-02   -0.67123E-01  8160   0.176E+00    0.229E-01
DAV:   2    -0.191367840021E+03   -0.37639E-02   -0.25349E-02 13520   0.686E-01    0.557E-01
DAV:   3    -0.191365066693E+03    0.27733E-02   -0.93714E-03 11360   0.638E-01    0.247E-01
DAV:   4    -0.191364948684E+03    0.11801E-03   -0.28725E-03 10920   0.320E-01    0.231E-01
DAV:   5    -0.191364493538E+03    0.45515E-03   -0.16619E-03  9560   0.278E-01    0.133E-01
DAV:   6    -0.191364349469E+03    0.14407E-03   -0.68063E-04  9120   0.156E-01    0.840E-02
DAV:   7    -0.191364430437E+03   -0.80968E-04   -0.54731E-04  8600   0.165E-01
  57 F= -.19136443E+03 E0= -.19125618E+03  d E =-.989540E-02
       N       E                     dE             d eps       ncg     rms          rms(c)
DAV:   1    -0.191358870456E+03    0.54790E-02   -0.23095E-01  8160   0.104E+00    0.127E-01
DAV:   2    -0.191359563015E+03   -0.69256E-03   -0.78471E-03 12520   0.304E-01    0.198E-01
DAV:   3    -0.191359338926E+03    0.22409E-03   -0.19298E-03 10880   0.321E-01    0.173E-01
DAV:   4    -0.191359080248E+03    0.25868E-03   -0.73442E-04  8560   0.189E-01    0.887E-02
DAV:   5    -0.191359043959E+03    0.36288E-04   -0.36030E-04  7600   0.129E-01
  58 F= -.19135904E+03 E0= -.19125134E+03  d E =0.538648E-02
       N       E                     dE             d eps       ncg     rms          rms(c)
DAV:   1    -0.191370796494E+03   -0.11716E-01   -0.10018E+00  8160   0.212E+00    0.234E-01
DAV:   2    -0.191373017688E+03   -0.22212E-02   -0.28896E-02 13200   0.569E-01    0.308E-01
DAV:   3    -0.191372643528E+03    0.37416E-03   -0.66603E-03 12240   0.515E-01    0.343E-01
DAV:   4    -0.191371812420E+03    0.83111E-03   -0.36821E-03 10960   0.387E-01    0.186E-01
DAV:   5    -0.191371584009E+03    0.22841E-03   -0.14395E-03  9720   0.221E-01    0.149E-01
DAV:   6    -0.191371441009E+03    0.14300E-03   -0.80686E-04  8640   0.195E-01    0.879E-02
DAV:   7    -0.191371436958E+03    0.40504E-05   -0.36910E-04  8040   0.125E-01
  59 F= -.19137144E+03 E0= -.19126312E+03  d E =-.123930E-01
       N       E                     dE             d eps       ncg     rms          rms(c)
DAV:   1    -0.191373939427E+03   -0.24984E-02   -0.34388E-02  8160   0.404E-01    0.717E-02
DAV:   2    -0.191374480303E+03   -0.54088E-03   -0.20205E-03 12040   0.258E-01    0.235E-01
DAV:   3    -0.191373904602E+03    0.57570E-03   -0.10527E-03  9480   0.231E-01    0.540E-02
DAV:   4    -0.191373922709E+03   -0.18107E-04   -0.14950E-04  5640   0.898E-02
  60 F= -.19137392E+03 E0= -.19126553E+03  d E =-.248575E-02
       N       E                     dE             d eps       ncg     rms          rms(c)
DAV:   1    -0.191394796265E+03   -0.20892E-01   -0.18010E+00  8160   0.284E+00    0.330E-01
DAV:   2    -0.191400107878E+03   -0.53116E-02   -0.47855E-02 13600   0.930E-01    0.659E-01
DAV:   3    -0.191396430794E+03    0.36771E-02   -0.14426E-02 11760   0.825E-01    0.335E-01
DAV:   4    -0.191396087852E+03    0.34294E-03   -0.51807E-03 11280   0.453E-01    0.326E-01
DAV:   5    -0.191395322598E+03    0.76525E-03   -0.34889E-03 10120   0.413E-01    0.213E-01
DAV:   6    -0.191394980594E+03    0.34200E-03   -0.18008E-03 10000   0.253E-01    0.130E-01
DAV:   7    -0.191395070397E+03   -0.89803E-04   -0.12944E-03  9280   0.225E-01    0.173E-01
DAV:   8    -0.191394770244E+03    0.30015E-03   -0.57870E-04  8160   0.157E-01    0.277E-02
DAV:   9    -0.191394771888E+03   -0.16442E-05   -0.39362E-05  6320   0.275E-02
  61 F= -.19139477E+03 E0= -.19128531E+03  d E =-.208492E-01
       N       E                     dE             d eps       ncg     rms          rms(c)
DAV:   1    -0.191394393110E+03    0.37713E-03   -0.30617E-03  8480   0.119E-01    0.175E-02
DAV:   2    -0.191394411224E+03   -0.18114E-04   -0.10755E-04  7240   0.476E-02
  62 F= -.19139441E+03 E0= -.19128499E+03  d E =0.360664E-03
       N       E                     dE             d eps       ncg     rms          rms(c)
DAV:   1    -0.191390282420E+03    0.41107E-02   -0.79291E-02  8160   0.592E-01    0.583E-02
DAV:   2    -0.191390402048E+03   -0.11963E-03   -0.18820E-03 12120   0.118E-01    0.499E-02
DAV:   3    -0.191390418496E+03   -0.16448E-04   -0.27458E-04  7320   0.998E-02
  63 F= -.19139042E+03 E0= -.19128088E+03  d E =0.399273E-02
       N       E                     dE             d eps       ncg     rms          rms(c)
DAV:   1    -0.191398346010E+03   -0.79440E-02   -0.43164E-01  8160   0.141E+00    0.170E-01
DAV:   2    -0.191400189692E+03   -0.18437E-02   -0.17766E-02 13160   0.487E-01    0.322E-01
DAV:   3    -0.191399614765E+03    0.57493E-03   -0.46027E-03 12280   0.463E-01    0.237E-01
DAV:   4    -0.191399108679E+03    0.50609E-03   -0.13637E-03  9560   0.230E-01    0.990E-02
DAV:   5    -0.191399054127E+03    0.54552E-04   -0.47986E-04  8120   0.128E-01
  64 F= -.19139905E+03 E0= -.19128883E+03  d E =-.863563E-02
       N       E                     dE             d eps       ncg     rms          rms(c)
DAV:   1    -0.191408778340E+03   -0.96697E-02   -0.94964E-01  8160   0.213E+00    0.319E-01
DAV:   2    -0.191416711533E+03   -0.79332E-02   -0.41201E-02 13480   0.985E-01    0.996E-01
DAV:   3    -0.191408568275E+03    0.81433E-02   -0.25331E-02 11440   0.968E-01    0.303E-01
DAV:   4    -0.191408046042E+03    0.52223E-03   -0.38026E-03 10440   0.343E-01    0.226E-01
DAV:   5    -0.191407968470E+03    0.77572E-04   -0.29623E-03 11360   0.385E-01    0.248E-01
DAV:   6    -0.191407417735E+03    0.55073E-03   -0.17722E-03  9520   0.276E-01    0.116E-01
DAV:   7    -0.191407368811E+03    0.48924E-04   -0.65688E-04  8520   0.163E-01
  65 F= -.19140737E+03 E0= -.19129795E+03  d E =-.831468E-02
       N       E                     dE             d eps       ncg     rms          rms(c)
DAV:   1    -0.191407735209E+03   -0.31747E-03   -0.12304E-02  8160   0.263E-01    0.445E-02
DAV:   2    -0.191407906650E+03   -0.17144E-03   -0.73276E-04 10480   0.139E-01    0.116E-01
DAV:   3    -0.191407754500E+03    0.15215E-03   -0.37754E-04  8600   0.140E-01    0.491E-02
DAV:   4    -0.191407741278E+03    0.13223E-04   -0.78356E-05  5560   0.558E-02
  66 F= -.19140774E+03 E0= -.19129846E+03  d E =-.372466E-03
       N       E                     dE             d eps       ncg     rms          rms(c)
DAV:   1    -0.191443083544E+03   -0.35329E-01   -0.31018E+00  8160   0.367E+00    0.363E-01
DAV:   2    -0.191454103707E+03   -0.11020E-01   -0.71638E-02 13040   0.121E+00    0.954E-01
DAV:   3    -0.191445930281E+03    0.81734E-02   -0.23982E-02 11920   0.103E+00    0.332E-01
DAV:   4    -0.191445856844E+03    0.73437E-04   -0.55932E-03 10920   0.452E-01    0.335E-01
DAV:   5    -0.191445034528E+03    0.82232E-03   -0.39787E-03 11240   0.439E-01    0.236E-01
DAV:   6    -0.191444776900E+03    0.25763E-03   -0.24979E-03  9880   0.293E-01    0.186E-01
DAV:   7    -0.191444788524E+03   -0.11624E-04   -0.17990E-03  9840   0.289E-01    0.179E-01
DAV:   8    -0.191444425386E+03    0.36314E-03   -0.59026E-04  8440   0.163E-01    0.278E-02
DAV:   9    -0.191444426164E+03   -0.77844E-06   -0.55052E-05  6640   0.285E-02
  67 F= -.19144443E+03 E0= -.19133513E+03  d E =-.366849E-01
       N       E                     dE             d eps       ncg     rms          rms(c)
DAV:   1    -0.191316563579E+03    0.12786E+00   -0.44569E+01  8160   0.140E+01    0.130E+00
DAV:   2    -0.191414712300E+03   -0.98149E-01   -0.96095E-01 12200   0.345E+00    0.222E+00
DAV:   3    -0.191377287842E+03    0.37424E-01   -0.19460E-01 12680   0.307E+00    0.156E+00
DAV:   4    -0.191364895841E+03    0.12392E-01   -0.81294E-02 12400   0.184E+00    0.115E+00
DAV:   5    -0.191355783653E+03    0.91122E-02   -0.46425E-02 11920   0.150E+00    0.809E-01
DAV:   6    -0.191351129842E+03    0.46538E-02   -0.24997E-02 12080   0.102E+00    0.506E-01
DAV:   7    -0.191353369715E+03   -0.22399E-02   -0.19511E-02 12560   0.900E-01    0.738E-01
DAV:   8    -0.191348003880E+03    0.53658E-02   -0.10243E-02 11560   0.684E-01    0.116E-01
DAV:   9    -0.191347858371E+03    0.14551E-03   -0.67150E-04 10200   0.988E-02    0.469E-02
DAV:  10    -0.191347837403E+03    0.20968E-04   -0.20427E-04  8840   0.454E-02
  68 F= -.19134784E+03 E0= -.19124176E+03  d E =0.965888E-01
       N       E                     dE             d eps       ncg     rms          rms(c)
DAV:   1    -0.191346948850E+03    0.90952E-03   -0.18638E+00  8160   0.283E+00    0.259E-01
DAV:   2    -0.191350358763E+03   -0.34099E-02   -0.33144E-02 11960   0.671E-01    0.424E-01
DAV:   3    -0.191348997896E+03    0.13609E-02   -0.77770E-03 11800   0.620E-01    0.315E-01
DAV:   4    -0.191348458559E+03    0.53934E-03   -0.30168E-03 11880   0.363E-01    0.221E-01
DAV:   5    -0.191348238013E+03    0.22055E-03   -0.21588E-03  9680   0.304E-01    0.196E-01
DAV:   6    -0.191347914303E+03    0.32371E-03   -0.11922E-03  9920   0.211E-01    0.816E-02
DAV:   7    -0.191348017843E+03   -0.10354E-03   -0.58790E-04  8800   0.156E-01    0.131E-01
DAV:   8    -0.191347848379E+03    0.16946E-03   -0.31996E-04  7600   0.128E-01    0.243E-02
DAV:   9    -0.191347851786E+03   -0.34068E-05   -0.25326E-05  5880   0.259E-02
  69 F= -.19134785E+03 E0= -.19124275E+03  d E =-.143822E-04
       N       E                     dE             d eps       ncg     rms          rms(c)
DAV:   1    -0.191359050629E+03   -0.11202E-01   -0.51299E+00  8160   0.482E+00    0.567E-01
DAV:   2    -0.191369284644E+03   -0.10234E-01   -0.13725E-01 13520   0.131E+00    0.774E-01
DAV:   3    -0.191365165851E+03    0.41188E-02   -0.32834E-02 12480   0.124E+00    0.642E-01
DAV:   4    -0.191361406548E+03    0.37593E-02   -0.13876E-02 12680   0.764E-01    0.377E-01
DAV:   5    -0.191360840513E+03    0.56603E-03   -0.81505E-03 11200   0.547E-01    0.420E-01
DAV:   6    -0.191359747755E+03    0.10928E-02   -0.62793E-03 11200   0.529E-01    0.241E-01
DAV:   7    -0.191359223744E+03    0.52401E-03   -0.18219E-03 10800   0.238E-01    0.107E-01
DAV:   8    -0.191359224280E+03   -0.53604E-06   -0.68771E-04  9520   0.176E-01
  70 F= -.19135922E+03 E0= -.19125136E+03  d E =-.113725E-01
       N       E                     dE             d eps       ncg     rms          rms(c)
DAV:   1    -0.191359639536E+03   -0.41579E-03   -0.69486E-01  8160   0.175E+00    0.182E-01
DAV:   2    -0.191360953545E+03   -0.13140E-02   -0.15594E-02 13600   0.516E-01    0.293E-01
DAV:   3    -0.191360268406E+03    0.68514E-03   -0.31898E-03 12360   0.412E-01    0.173E-01
DAV:   4    -0.191359993202E+03    0.27520E-03   -0.10904E-03  9720   0.210E-01    0.119E-01
DAV:   5    -0.191360127735E+03   -0.13453E-03   -0.11884E-03  9640   0.213E-01    0.180E-01
DAV:   6    -0.191359856430E+03    0.27131E-03   -0.79260E-04  8360   0.172E-01    0.516E-02
DAV:   7    -0.191359833152E+03    0.23278E-04   -0.10978E-04  5600   0.549E-02
  71 F= -.19135983E+03 E0= -.19125267E+03  d E =-.608872E-03
       N       E                     dE             d eps       ncg     rms          rms(c)
DAV:   1    -0.191365435343E+03   -0.55789E-02   -0.43668E-01  8160   0.142E+00    0.165E-01
DAV:   2    -0.191366497122E+03   -0.10618E-02   -0.12557E-02 12720   0.398E-01    0.248E-01
DAV:   3    -0.191366180102E+03    0.31702E-03   -0.32497E-03 11280   0.392E-01    0.221E-01
DAV:   4    -0.191365796019E+03    0.38408E-03   -0.13323E-03 10720   0.247E-01    0.122E-01
DAV:   5    -0.191365704494E+03    0.91526E-04   -0.58807E-04  8560   0.171E-01
  72 F= -.19136570E+03 E0= -.19125773E+03  d E =-.587134E-02
       N       E                     dE             d eps       ncg     rms          rms(c)
DAV:   1    -0.191354759428E+03    0.11037E-01   -0.29727E+00  8160   0.366E+00    0.382E-01
DAV:   2    -0.191360809228E+03   -0.60498E-02   -0.71728E-02 12240   0.888E-01    0.527E-01
DAV:   3    -0.191359477205E+03    0.13320E-02   -0.16799E-02 12080   0.861E-01    0.547E-01
DAV:   4    -0.191357270563E+03    0.22066E-02   -0.80836E-03 12120   0.627E-01    0.276E-01
DAV:   5    -0.191356390927E+03    0.87964E-03   -0.24433E-03 10960   0.292E-01    0.173E-01
DAV:   6    -0.191356415251E+03   -0.24324E-04   -0.19108E-03 10960   0.312E-01    0.178E-01
DAV:   7    -0.191356122334E+03    0.29292E-03   -0.86524E-04  9680   0.191E-01    0.802E-02
DAV:   8    -0.191356112267E+03    0.10067E-04   -0.34545E-04  7400   0.120E-01
  73 F= -.19135611E+03 E0= -.19124991E+03  d E =0.959223E-02
       N       E                     dE             d eps       ncg     rms          rms(c)
DAV:   1    -0.191368927108E+03   -0.12805E-01   -0.23617E+00  8160   0.335E+00    0.454E-01
DAV:   2    -0.191374313177E+03   -0.53861E-02   -0.75801E-02 13600   0.103E+00    0.672E-01
DAV:   3    -0.191371350315E+03    0.29629E-02   -0.22277E-02 12240   0.105E+00    0.540E-01
DAV:   4    -0.191369040117E+03    0.23102E-02   -0.97552E-03 12400   0.648E-01    0.361E-01
DAV:   5    -0.191368538139E+03    0.50198E-03   -0.60100E-03 10960   0.528E-01    0.355E-01
DAV:   6    -0.191367381557E+03    0.11566E-02   -0.37089E-03 11280   0.410E-01    0.139E-01
DAV:   7    -0.191367335379E+03    0.46178E-04   -0.11869E-03  9600   0.192E-01    0.141E-01
DAV:   8    -0.191367170518E+03    0.16486E-03   -0.62333E-04  8320   0.162E-01    0.659E-02
DAV:   9    -0.191367124584E+03    0.45934E-04   -0.92850E-05  6120   0.607E-02
  74 F= -.19136712E+03 E0= -.19125937E+03  d E =-.110123E-01
       N       E                     dE             d eps       ncg     rms          rms(c)
DAV:   1    -0.191368517570E+03   -0.13471E-02   -0.29459E-01  8160   0.115E+00    0.153E-01
DAV:   2    -0.191369168466E+03   -0.65090E-03   -0.78254E-03 13040   0.404E-01    0.279E-01
DAV:   3    -0.191368502000E+03    0.66647E-03   -0.23485E-03 11440   0.354E-01    0.138E-01
DAV:   4    -0.191368475004E+03    0.26996E-04   -0.10459E-03  8840   0.207E-01    0.160E-01
DAV:   5    -0.191368314272E+03    0.16073E-03   -0.84720E-04  8920   0.205E-01    0.102E-01
DAV:   6    -0.191368225119E+03    0.89153E-04   -0.32848E-04  6760   0.110E-01
  75 F= -.19136823E+03 E0= -.19126123E+03  d E =-.110054E-02
       N       E                     dE             d eps       ncg     rms          rms(c)
DAV:   1    -0.191374439856E+03   -0.61256E-02   -0.40204E-01  8160   0.137E+00    0.161E-01
DAV:   2    -0.191375672558E+03   -0.12327E-02   -0.12018E-02 12680   0.372E-01    0.299E-01
DAV:   3    -0.191375149711E+03    0.52285E-03   -0.41830E-03 12200   0.418E-01    0.221E-01
DAV:   4    -0.191374779968E+03    0.36974E-03   -0.12566E-03  9520   0.209E-01    0.928E-02
DAV:   5    -0.191374731157E+03    0.48810E-04   -0.49461E-04  8840   0.135E-01
  76 F= -.19137473E+03 E0= -.19126723E+03  d E =-.650604E-02
       N       E                     dE             d eps       ncg     rms          rms(c)
DAV:   1    -0.191366355717E+03    0.84243E-02   -0.80363E-01  8160   0.194E+00    0.247E-01
DAV:   2    -0.191372279963E+03   -0.59242E-02   -0.30987E-02 13360   0.818E-01    0.727E-01
DAV:   3    -0.191367341854E+03    0.49381E-02   -0.13103E-02 11400   0.781E-01    0.242E-01
DAV:   4    -0.191367124450E+03    0.21740E-03   -0.24234E-03  9640   0.279E-01    0.194E-01
DAV:   5    -0.191366872027E+03    0.25242E-03   -0.15841E-03  9520   0.270E-01    0.157E-01
DAV:   6    -0.191366661780E+03    0.21025E-03   -0.82572E-04  8200   0.183E-01    0.872E-02
DAV:   7    -0.191366713802E+03   -0.52022E-04   -0.48968E-04  9160   0.154E-01
  77 F= -.19136671E+03 E0= -.19126000E+03  d E =0.801735E-02
       N       E                     dE             d eps       ncg     rms          rms(c)
DAV:   1    -0.191359574865E+03    0.70869E-02   -0.79587E-01  8160   0.192E+00    0.217E-01
DAV:   2    -0.191362623534E+03   -0.30487E-02   -0.23183E-02 13480   0.611E-01    0.484E-01
DAV:   3    -0.191360730932E+03    0.18926E-02   -0.73873E-03 12400   0.593E-01    0.247E-01
DAV:   4    -0.191360457027E+03    0.27391E-03   -0.19965E-03  9680   0.264E-01    0.175E-01
DAV:   5    -0.191360218604E+03    0.23842E-03   -0.11917E-03 10000   0.233E-01    0.133E-01
DAV:   6    -0.191360117810E+03    0.10079E-03   -0.72105E-04  8480   0.172E-01    0.907E-02
DAV:   7    -0.191360162669E+03   -0.44859E-04   -0.47737E-04  8520   0.152E-01
  78 F= -.19136016E+03 E0= -.19125407E+03  d E =0.655113E-02
       N       E                     dE             d eps       ncg     rms          rms(c)
DAV:   1    -0.191359363261E+03    0.75455E-03   -0.29404E-02  8160   0.381E-01    0.401E-02
DAV:   2    -0.191359463044E+03   -0.99783E-04   -0.79212E-04 11520   0.107E-01
  79 F= -.19135946E+03 E0= -.19125352E+03  d E =0.699625E-03
       N       E                     dE             d eps       ncg     rms          rms(c)
DAV:   1    -0.191365753500E+03   -0.63902E-02   -0.53769E-01  8160   0.157E+00    0.173E-01
DAV:   2    -0.191367567951E+03   -0.18145E-02   -0.18003E-02 13520   0.486E-01    0.336E-01
DAV:   3    -0.191366877597E+03    0.69035E-03   -0.45760E-03 12280   0.435E-01    0.211E-01
DAV:   4    -0.191366596691E+03    0.28091E-03   -0.14737E-03  9640   0.230E-01    0.134E-01
DAV:   5    -0.191366466157E+03    0.13053E-03   -0.59910E-04  8280   0.176E-01    0.921E-02
DAV:   6    -0.191366416011E+03    0.50146E-04   -0.35430E-04  8480   0.116E-01
  80 F= -.19136642E+03 E0= -.19126066E+03  d E =-.695297E-02
       N       E                     dE             d eps       ncg     rms          rms(c)
DAV:   1    -0.191363358195E+03    0.31080E-02   -0.10716E-01  8160   0.693E-01    0.651E-02
DAV:   2    -0.191363493045E+03   -0.13485E-03   -0.22862E-03 12280   0.136E-01    0.665E-02
DAV:   3    -0.191363562529E+03   -0.69484E-04   -0.42767E-04  9440   0.144E-01
  81 F= -.19136356E+03 E0= -.19125777E+03  d E =0.285348E-02
       N       E                     dE             d eps       ncg     rms          rms(c)
DAV:   1    -0.191363833343E+03   -0.34030E-03   -0.22447E-01  8160   0.101E+00    0.173E-01
DAV:   2    -0.191369739986E+03   -0.59066E-02   -0.15269E-02 13360   0.841E-01    0.757E-01
DAV:   3    -0.191363885792E+03    0.58542E-02   -0.88007E-03 11480   0.698E-01    0.103E-01
DAV:   4    -0.191363883465E+03    0.23276E-05   -0.73628E-04  9200   0.140E-01
  82 F= -.19136388E+03 E0= -.19125760E+03  d E =-.320936E-03
       N       E                     dE             d eps       ncg     rms          rms(c)
DAV:   1    -0.191370427387E+03   -0.65416E-02   -0.57542E-01  8160   0.162E+00    0.226E-01
DAV:   2    -0.191377405073E+03   -0.69777E-02   -0.25195E-02 13560   0.948E-01    0.814E-01
DAV:   3    -0.191370624641E+03    0.67804E-02   -0.12033E-02 11440   0.811E-01    0.133E-01
DAV:   4    -0.191370743282E+03   -0.11864E-03   -0.11113E-03 10080   0.220E-01    0.166E-01
DAV:   5    -0.191370500048E+03    0.24323E-03   -0.88214E-04 10000   0.219E-01    0.948E-02
DAV:   6    -0.191370480001E+03    0.20047E-04   -0.42453E-04  7960   0.126E-01
  83 F= -.19137048E+03 E0= -.19126449E+03  d E =-.659654E-02
       N       E                     dE             d eps       ncg     rms          rms(c)
DAV:   1    -0.191372421451E+03   -0.19214E-02   -0.39058E-02  8160   0.436E-01    0.690E-02
DAV:   2    -0.191373169909E+03   -0.74846E-03   -0.23975E-03 13160   0.267E-01    0.278E-01
DAV:   3    -0.191372411854E+03    0.75806E-03   -0.15242E-03  9680   0.248E-01    0.497E-02
DAV:   4    -0.191372449617E+03   -0.37764E-04   -0.12759E-04  5520   0.779E-02
  84 F= -.19137245E+03 E0= -.19126690E+03  d E =-.196962E-02
       N       E                     dE             d eps       ncg     rms          rms(c)
DAV:   1    -0.191379225627E+03   -0.68138E-02   -0.38062E-01  8160   0.133E+00    0.151E-01
DAV:   2    -0.191379963567E+03   -0.73794E-03   -0.96306E-03 13440   0.323E-01    0.228E-01
DAV:   3    -0.191379822992E+03    0.14058E-03   -0.24406E-03 11680   0.348E-01    0.202E-01
DAV:   4    -0.191379435306E+03    0.38769E-03   -0.86060E-04  8560   0.194E-01    0.803E-02
DAV:   5    -0.191379519633E+03   -0.84327E-04   -0.53300E-04  9000   0.160E-01
  85 F= -.19137952E+03 E0= -.19127437E+03  d E =-.707002E-02
       N       E                     dE             d eps       ncg     rms          rms(c)
DAV:   1    -0.191360649286E+03    0.18786E-01   -0.31230E+00  8160   0.379E+00    0.439E-01
DAV:   2    -0.191369632122E+03   -0.89828E-02   -0.88819E-02 13600   0.118E+00    0.908E-01
DAV:   3    -0.191364621641E+03    0.50105E-02   -0.31790E-02 12280   0.110E+00    0.524E-01
DAV:   4    -0.191362040809E+03    0.25808E-02   -0.70787E-03 10120   0.494E-01    0.228E-01
DAV:   5    -0.191362496129E+03   -0.45532E-03   -0.39483E-03 10560   0.460E-01    0.338E-01
DAV:   6    -0.191361474362E+03    0.10218E-02   -0.28990E-03 11640   0.374E-01    0.140E-01
DAV:   7    -0.191361511033E+03   -0.36671E-04   -0.10836E-03 10080   0.237E-01    0.150E-01
DAV:   8    -0.191361260425E+03    0.25061E-03   -0.43579E-04  8760   0.153E-01    0.303E-02
DAV:   9    -0.191361257057E+03    0.33687E-05   -0.48750E-05  5960   0.328E-02
  86 F= -.19136126E+03 E0= -.19125515E+03  d E =0.182626E-01
       N       E                     dE             d eps       ncg     rms          rms(c)
DAV:   1    -0.191354720650E+03    0.65398E-02   -0.85698E-01  8160   0.197E+00    0.189E-01
DAV:   2    -0.191356117500E+03   -0.13969E-02   -0.18291E-02 13280   0.444E-01    0.275E-01
DAV:   3    -0.191356099266E+03    0.18234E-04   -0.43395E-03 11640   0.420E-01    0.273E-01
DAV:   4    -0.191355471513E+03    0.62775E-03   -0.17428E-03  9760   0.259E-01    0.119E-01
DAV:   5    -0.191355490089E+03   -0.18576E-04   -0.83822E-04  9000   0.205E-01
  87 F= -.19135549E+03 E0= -.19124890E+03  d E =0.576697E-02
       N       E                     dE             d eps       ncg     rms          rms(c)
DAV:   1    -0.191358038332E+03   -0.25668E-02   -0.11592E-01  8160   0.746E-01    0.143E-01
DAV:   2    -0.191359907099E+03   -0.18688E-02   -0.82007E-03 12760   0.444E-01    0.423E-01
DAV:   3    -0.191358129466E+03    0.17776E-02   -0.47377E-03 11200   0.478E-01    0.162E-01
DAV:   4    -0.191357881128E+03    0.24834E-03   -0.89246E-04  9600   0.164E-01    0.688E-02
DAV:   5    -0.191357924114E+03   -0.42987E-04   -0.45025E-04  8920   0.129E-01
  88 F= -.19135792E+03 E0= -.19125072E+03  d E =-.243403E-02
       N       E                     dE             d eps       ncg     rms          rms(c)
DAV:   1    -0.191361265514E+03   -0.33844E-02   -0.59680E-01  8160   0.165E+00    0.207E-01
DAV:   2    -0.191362221116E+03   -0.95560E-03   -0.17078E-02 13560   0.461E-01    0.256E-01
DAV:   3    -0.191361976141E+03    0.24498E-03   -0.40646E-03 11480   0.452E-01    0.251E-01
DAV:   4    -0.191361372986E+03    0.60315E-03   -0.19409E-03 11000   0.292E-01    0.138E-01
DAV:   5    -0.191361352407E+03    0.20579E-04   -0.10351E-03  9560   0.214E-01    0.157E-01
DAV:   6    -0.191361149594E+03    0.20281E-03   -0.74005E-04  8160   0.196E-01    0.730E-02
DAV:   7    -0.191361101828E+03    0.47767E-04   -0.17476E-04  5480   0.788E-02
  89 F= -.19136110E+03 E0= -.19125316E+03  d E =-.317771E-02
       N       E                     dE             d eps       ncg     rms          rms(c)
DAV:   1    -0.191364036321E+03   -0.28867E-02   -0.18078E-01  8160   0.919E-01    0.119E-01
DAV:   2    -0.191365137505E+03   -0.11012E-02   -0.71404E-03 12720   0.373E-01    0.312E-01
DAV:   3    -0.191364310902E+03    0.82660E-03   -0.29445E-03 10280   0.348E-01    0.136E-01
DAV:   4    -0.191364218061E+03    0.92841E-04   -0.63641E-04  8280   0.142E-01
  90 F= -.19136422E+03 E0= -.19125625E+03  d E =-.311623E-02
       N       E                     dE             d eps       ncg     rms          rms(c)
DAV:   1    -0.191367182788E+03   -0.28719E-02   -0.15261E-01  8160   0.845E-01    0.132E-01
DAV:   2    -0.191368865053E+03   -0.16823E-02   -0.70499E-03 13560   0.414E-01    0.371E-01
DAV:   3    -0.191367381707E+03    0.14833E-02   -0.37885E-03 11440   0.429E-01    0.143E-01
DAV:   4    -0.191367298402E+03    0.83305E-04   -0.78541E-04  8320   0.162E-01
  91 F= -.19136730E+03 E0= -.19125917E+03  d E =-.308034E-02
       N       E                     dE             d eps       ncg     rms          rms(c)
DAV:   1    -0.191365722103E+03    0.16596E-02   -0.35259E-02  8160   0.425E-01    0.771E-02
DAV:   2    -0.191367167963E+03   -0.14459E-02   -0.39170E-03 12640   0.386E-01    0.374E-01
DAV:   3    -0.191365749919E+03    0.14180E-02   -0.25097E-03 10120   0.336E-01    0.599E-02
DAV:   4    -0.191365769630E+03   -0.19711E-04   -0.15523E-04  6240   0.800E-02
  92 F= -.19136577E+03 E0= -.19125764E+03  d E =0.152877E-02
       N       E                     dE             d eps       ncg     rms          rms(c)
DAV:   1    -0.191367593234E+03   -0.18433E-02   -0.66679E-02  8160   0.565E-01    0.899E-02
DAV:   2    -0.191367740959E+03   -0.14772E-03   -0.26409E-03 12720   0.206E-01    0.131E-01
DAV:   3    -0.191367638261E+03    0.10270E-03   -0.83293E-04  9160   0.206E-01    0.107E-01
DAV:   4    -0.191367550172E+03    0.88089E-04   -0.45477E-04  7520   0.130E-01
  93 F= -.19136755E+03 E0= -.19125928E+03  d E =-.178054E-02
       N       E                     dE             d eps       ncg     rms          rms(c)
DAV:   1    -0.191370379808E+03   -0.27415E-02   -0.14829E-01  8160   0.830E-01    0.114E-01
DAV:   2    -0.191371662639E+03   -0.12828E-02   -0.64849E-03 13040   0.353E-01    0.349E-01
DAV:   3    -0.191370575623E+03    0.10870E-02   -0.33887E-03 11040   0.366E-01    0.122E-01
DAV:   4    -0.191370496384E+03    0.79239E-04   -0.54989E-04  8200   0.121E-01
  94 F= -.19137050E+03 E0= -.19126193E+03  d E =-.294621E-02
       N       E                     dE             d eps       ncg     rms          rms(c)
DAV:   1    -0.191369178084E+03    0.13975E-02   -0.33987E-02  8160   0.405E-01    0.615E-02
DAV:   2    -0.191369911912E+03   -0.73383E-03   -0.20565E-03 11920   0.290E-01    0.247E-01
DAV:   3    -0.191369179700E+03    0.73221E-03   -0.10394E-03  9040   0.241E-01    0.237E-02
DAV:   4    -0.191369223857E+03   -0.44157E-04   -0.91046E-05  5480   0.590E-02
  95 F= -.19136922E+03 E0= -.19126078E+03  d E =0.127253E-02
       N       E                     dE             d eps       ncg     rms          rms(c)
DAV:   1    -0.191374092777E+03   -0.49131E-02   -0.35105E-01  8160   0.127E+00    0.146E-01
DAV:   2    -0.191375160076E+03   -0.10673E-02   -0.11390E-02 12120   0.403E-01    0.241E-01
DAV:   3    -0.191374777702E+03    0.38237E-03   -0.25166E-03 12040   0.352E-01    0.183E-01
DAV:   4    -0.191374536874E+03    0.24083E-03   -0.10145E-03  9480   0.216E-01    0.107E-01
DAV:   5    -0.191374462785E+03    0.74088E-04   -0.47795E-04  8440   0.153E-01
  96 F= -.19137446E+03 E0= -.19126613E+03  d E =-.523893E-02
       N       E                     dE             d eps       ncg     rms          rms(c)
DAV:   1    -0.191371293218E+03    0.32437E-02   -0.11942E-01  8160   0.756E-01    0.948E-02
DAV:   2    -0.191372368267E+03   -0.10750E-02   -0.52100E-03 13280   0.341E-01    0.285E-01
DAV:   3    -0.191371512550E+03    0.85572E-03   -0.19899E-03 10000   0.323E-01    0.985E-02
DAV:   4    -0.191371446719E+03    0.65830E-04   -0.32983E-04  7880   0.107E-01
  97 F= -.19137145E+03 E0= -.19126285E+03  d E =0.301607E-02
       N       E                     dE             d eps       ncg     rms          rms(c)
DAV:   1    -0.191376354480E+03   -0.48419E-02   -0.33867E-01  8160   0.125E+00    0.162E-01
DAV:   2    -0.191378243938E+03   -0.18895E-02   -0.13534E-02 13600   0.531E-01    0.381E-01
DAV:   3    -0.191376847990E+03    0.13959E-02   -0.43683E-03 11400   0.468E-01    0.157E-01
DAV:   4    -0.191376848927E+03   -0.93707E-06   -0.13126E-03  9000   0.225E-01    0.173E-01
DAV:   5    -0.191376572867E+03    0.27606E-03   -0.77231E-04  8200   0.190E-01    0.710E-02
DAV:   6    -0.191376544976E+03    0.27891E-04   -0.20874E-04  5760   0.853E-02
  98 F= -.19137654E+03 E0= -.19126768E+03  d E =-.509826E-02
       N       E                     dE             d eps       ncg     rms          rms(c)
DAV:   1    -0.191377172290E+03   -0.59942E-03   -0.44433E-03  9520   0.174E-01    0.676E-02
DAV:   2    -0.191378450802E+03   -0.12785E-02   -0.24978E-03 11080   0.364E-01    0.361E-01
DAV:   3    -0.191377078887E+03    0.13719E-02   -0.18150E-03 10080   0.313E-01    0.199E-02
DAV:   4    -0.191377133782E+03   -0.54895E-04   -0.46856E-05  5920   0.426E-02
  99 F= -.19137713E+03 E0= -.19126831E+03  d E =-.588806E-03
       N       E                     dE             d eps       ncg     rms          rms(c)
DAV:   1    -0.191382087525E+03   -0.50086E-02   -0.28230E-01  8160   0.114E+00    0.132E-01
DAV:   2    -0.191383178150E+03   -0.10906E-02   -0.91710E-03 12640   0.385E-01    0.275E-01
DAV:   3    -0.191382584030E+03    0.59412E-03   -0.24541E-03 11440   0.359E-01    0.151E-01
DAV:   4    -0.191382375677E+03    0.20835E-03   -0.53347E-04  8280   0.145E-01    0.579E-02
DAV:   5    -0.191382328647E+03    0.47030E-04   -0.16525E-04  6320   0.648E-02
 100 F= -.19138233E+03 E0= -.19127345E+03  d E =-.519487E-02
