<?xml version="1.0" encoding="ISO-8859-1"?>
<modeling>
 <generator>
  <i name="program" type="string">vasp </i>
  <i name="version" type="string">5.4.1  </i>
  <i name="subversion" type="string">05Feb16 (build Jul 05 2020 17:13:04) complex                          parallel </i>
  <i name="platform" type="string">IFC91_ompi </i>
  <i name="date" type="string">2024 04 26 </i>
  <i name="time" type="string">04:11:07 </i>
 </generator>
 <incar>
  <i type="int" name="ISTART">     0</i>
  <i type="string" name="PREC">normal</i>
  <i type="string" name="ALGO"> Normal</i>
  <i type="int" name="ISPIN">     1</i>
  <i type="int" name="ICHARG">     2</i>
  <i type="int" name="IBRION">     1</i>
  <i type="int" name="NSW">   100</i>
  <i type="int" name="ISIF">     3</i>
  <i type="int" name="ISYM">     0</i>
  <i name="SYMPREC">      0.00000001</i>
  <i name="POTIM">      0.50000000</i>
  <i type="logical" name="LREAL"> F  </i>
  <i type="logical" name="LPLANE"> F  </i>
  <i type="int" name="ISMEAR">     0</i>
  <i type="logical" name="LWAVE"> F  </i>
  <i type="logical" name="LCHARG"> F  </i>
  <v type="int" name="KPOINT_BSE">    -1     0     0     0</v>
 </incar>
 <kpoints>
  <generation param="Gamma">
   <v type="int" name="divisions">       8        8        1 </v>
   <v name="usershift">      0.00000000       0.00000000       0.00000000 </v>
   <v name="genvec1">      0.12500000       0.00000000       0.00000000 </v>
   <v name="genvec2">     -0.00000000       0.12500000       0.00000000 </v>
   <v name="genvec3">      0.00000000       0.00000000       1.00000000 </v>
   <v name="shift">      0.00000000       0.00000000       0.00000000 </v>
  </generation>
  <varray name="kpointlist" >
   <v>       0.00000000       0.00000000       0.00000000 </v>
   <v>       0.12500000       0.00000000       0.00000000 </v>
   <v>       0.25000000       0.00000000       0.00000000 </v>
   <v>       0.37500000       0.00000000       0.00000000 </v>
   <v>       0.50000000       0.00000000       0.00000000 </v>
   <v>       0.00000000       0.12500000       0.00000000 </v>
   <v>       0.12500000       0.12500000       0.00000000 </v>
   <v>       0.25000000       0.12500000       0.00000000 </v>
   <v>       0.37500000       0.12500000       0.00000000 </v>
   <v>       0.50000000       0.12500000       0.00000000 </v>
   <v>      -0.37500000       0.12500000       0.00000000 </v>
   <v>      -0.25000000       0.12500000       0.00000000 </v>
   <v>      -0.12500000       0.12500000       0.00000000 </v>
   <v>       0.00000000       0.25000000       0.00000000 </v>
   <v>       0.12500000       0.25000000       0.00000000 </v>
   <v>       0.25000000       0.25000000       0.00000000 </v>
   <v>       0.37500000       0.25000000       0.00000000 </v>
   <v>       0.50000000       0.25000000       0.00000000 </v>
   <v>      -0.37500000       0.25000000       0.00000000 </v>
   <v>      -0.25000000       0.25000000       0.00000000 </v>
   <v>      -0.12500000       0.25000000       0.00000000 </v>
   <v>      -0.00000000       0.37500000       0.00000000 </v>
   <v>       0.12500000       0.37500000       0.00000000 </v>
   <v>       0.25000000       0.37500000       0.00000000 </v>
   <v>       0.37500000       0.37500000       0.00000000 </v>
   <v>       0.50000000       0.37500000       0.00000000 </v>
   <v>      -0.37500000       0.37500000       0.00000000 </v>
   <v>      -0.25000000       0.37500000       0.00000000 </v>
   <v>      -0.12500000       0.37500000       0.00000000 </v>
   <v>       0.00000000       0.50000000       0.00000000 </v>
   <v>       0.12500000       0.50000000       0.00000000 </v>
   <v>       0.25000000       0.50000000       0.00000000 </v>
   <v>       0.37500000       0.50000000       0.00000000 </v>
   <v>       0.50000000       0.50000000       0.00000000 </v>
  </varray>
  <varray name="weights" >
   <v>       0.01562500 </v>
   <v>       0.03125000 </v>
   <v>       0.03125000 </v>
   <v>       0.03125000 </v>
   <v>       0.01562500 </v>
   <v>       0.03125000 </v>
   <v>       0.03125000 </v>
   <v>       0.03125000 </v>
   <v>       0.03125000 </v>
   <v>       0.03125000 </v>
   <v>       0.03125000 </v>
   <v>       0.03125000 </v>
   <v>       0.03125000 </v>
   <v>       0.03125000 </v>
   <v>       0.03125000 </v>
   <v>       0.03125000 </v>
   <v>       0.03125000 </v>
   <v>       0.03125000 </v>
   <v>       0.03125000 </v>
   <v>       0.03125000 </v>
   <v>       0.03125000 </v>
   <v>       0.03125000 </v>
   <v>       0.03125000 </v>
   <v>       0.03125000 </v>
   <v>       0.03125000 </v>
   <v>       0.03125000 </v>
   <v>       0.03125000 </v>
   <v>       0.03125000 </v>
   <v>       0.03125000 </v>
   <v>       0.01562500 </v>
   <v>       0.03125000 </v>
   <v>       0.03125000 </v>
   <v>       0.03125000 </v>
   <v>       0.01562500 </v>
  </varray>
 </kpoints>
 <parameters>
  <separator name="general" >
   <i type="string" name="SYSTEM">unknown system</i>
   <i type="logical" name="LCOMPAT"> F  </i>
  </separator>
  <separator name="electronic" >
   <i type="string" name="PREC">normal</i>
   <i name="ENMAX">    280.00000000</i>
   <i name="ENAUG">    373.43800000</i>
   <i name="EDIFF">      0.00010000</i>
   <i type="int" name="IALGO">    38</i>
   <i type="int" name="IWAVPR">    11</i>
   <i type="int" name="NBANDS">   120</i>
   <i name="NELECT">    159.00000000</i>
   <i type="int" name="TURBO">     0</i>
   <i type="int" name="IRESTART">     0</i>
   <i type="int" name="NREBOOT">     0</i>
   <i type="int" name="NMIN">     0</i>
   <i name="EREF">      0.00000000</i>
   <separator name="electronic smearing" >
    <i type="int" name="ISMEAR">     0</i>
    <i name="SIGMA">      0.20000000</i>
    <i name="KSPACING">      0.50000000</i>
    <i type="logical" name="KGAMMA"> T  </i>
   </separator>
   <separator name="electronic projectors" >
    <i type="logical" name="LREAL"> F  </i>
    <v name="ROPT">      0.00000000      0.00000000      0.00000000      0.00000000</v>
    <i type="int" name="LMAXPAW">  -100</i>
    <i type="int" name="LMAXMIX">     2</i>
    <i type="logical" name="NLSPLINE"> F  </i>
   </separator>
   <separator name="electronic startup" >
    <i type="int" name="ISTART">     0</i>
    <i type="int" name="ICHARG">     2</i>
    <i type="int" name="INIWAV">     1</i>
   </separator>
   <separator name="electronic spin" >
    <i type="int" name="ISPIN">     1</i>
    <i type="logical" name="LNONCOLLINEAR"> F  </i>
    <v name="MAGMOM">      1.00000000      1.00000000      1.00000000      1.00000000      1.00000000      1.00000000      1.00000000      1.00000000      1.00000000      1.00000000      1.00000000      1.00000000      1.00000000      1.00000000      1.00000000      1.00000000      1.00000000      1.00000000      1.00000000      1.00000000
      1.00000000      1.00000000      1.00000000      1.00000000      1.00000000      1.00000000      1.00000000</v>
    <i name="NUPDOWN">     -1.00000000</i>
    <i type="logical" name="LSORBIT"> F  </i>
    <v name="SAXIS">      0.00000000      0.00000000      1.00000000</v>
    <i type="logical" name="LSPIRAL"> F  </i>
    <v name="QSPIRAL">      0.00000000      0.00000000      0.00000000</v>
    <i type="logical" name="LZEROZ"> F  </i>
   </separator>
   <separator name="electronic exchange-correlation" >
    <i type="logical" name="LASPH"> F  </i>
    <i type="logical" name="LMETAGGA"> F  </i>
   </separator>
   <separator name="electronic convergence" >
    <i type="int" name="NELM">    60</i>
    <i type="int" name="NELMDL">    -5</i>
    <i type="int" name="NELMIN">     2</i>
    <i name="ENINI">    280.00000000</i>
    <separator name="electronic convergence detail" >
     <i type="logical" name="LDIAG"> T  </i>
     <i type="logical" name="LSUBROT"> F  </i>
     <i name="WEIMIN">      0.00100000</i>
     <i name="EBREAK">      0.00000021</i>
     <i name="DEPER">      0.30000000</i>
     <i type="int" name="NRMM">     4</i>
     <i name="TIME">      0.40000000</i>
    </separator>
   </separator>
   <separator name="electronic mixer" >
    <i name="AMIX">      0.40000000</i>
    <i name="BMIX">      1.00000000</i>
    <i name="AMIN">      0.10000000</i>
    <i name="AMIX_MAG">      1.60000000</i>
    <i name="BMIX_MAG">      1.00000000</i>
    <separator name="electronic mixer details" >
     <i type="int" name="IMIX">     4</i>
     <i type="logical" name="MIXFIRST"> F  </i>
     <i type="int" name="MAXMIX">   -45</i>
     <i name="WC">    100.00000000</i>
     <i type="int" name="INIMIX">     1</i>
     <i type="int" name="MIXPRE">     1</i>
     <i type="int" name="MREMOVE">     5</i>
    </separator>
   </separator>
   <separator name="electronic dipolcorrection" >
    <i type="logical" name="LDIPOL"> F  </i>
    <i type="logical" name="LMONO"> F  </i>
    <i type="int" name="IDIPOL">     0</i>
    <i name="EPSILON">      1.00000000</i>
    <v name="DIPOL">   -100.00000000   -100.00000000   -100.00000000</v>
    <i name="EFIELD">      0.00000000</i>
   </separator>
  </separator>
  <separator name="grids" >
   <i type="int" name="NGX">    42</i>
   <i type="int" name="NGY">    42</i>
   <i type="int" name="NGZ">   126</i>
   <i type="int" name="NGXF">    84</i>
   <i type="int" name="NGYF">    84</i>
   <i type="int" name="NGZF">   252</i>
   <i type="logical" name="ADDGRID"> F  </i>
  </separator>
  <separator name="ionic" >
   <i type="int" name="NSW">   100</i>
   <i type="int" name="IBRION">     1</i>
   <i type="int" name="ISIF">     3</i>
   <i name="PSTRESS">      0.00000000</i>
   <i name="EDIFFG">      0.00100000</i>
   <i type="int" name="NFREE">     0</i>
   <i name="POTIM">      0.50000000</i>
   <i name="SMASS">     -3.00000000</i>
   <i name="SCALEE">      1.00000000</i>
  </separator>
  <separator name="ionic md" >
   <i name="TEBEG">      0.00010000</i>
   <i name="TEEND">      0.00010000</i>
   <i type="int" name="NBLOCK">     1</i>
   <i type="int" name="KBLOCK">   100</i>
   <i type="int" name="NPACO">   256</i>
   <i name="APACO">     16.00000000</i>
  </separator>
  <separator name="symmetry" >
   <i type="int" name="ISYM">     0</i>
   <i name="SYMPREC">      0.00000001</i>
  </separator>
  <separator name="dos" >
   <i type="logical" name="LORBIT"> F  </i>
   <v name="RWIGS">     -1.00000000     -1.00000000     -1.00000000     -1.00000000</v>
   <i type="int" name="NEDOS">   301</i>
   <i name="EMIN">     10.00000000</i>
   <i name="EMAX">    -10.00000000</i>
   <i name="EFERMI">      0.00000000</i>
  </separator>
  <separator name="writing" >
   <i type="int" name="NWRITE">     2</i>
   <i type="logical" name="LWAVE"> F  </i>
   <i type="logical" name="LCHARG"> F  </i>
   <i type="logical" name="LPARD"> F  </i>
   <i type="logical" name="LVTOT"> F  </i>
   <i type="logical" name="LVHAR"> F  </i>
   <i type="logical" name="LELF"> F  </i>
   <i type="logical" name="LOPTICS"> F  </i>
   <v name="STM">      0.00000000      0.00000000      0.00000000      0.00000000      0.00000000      0.00000000      0.00000000</v>
  </separator>
  <separator name="performance" >
   <i type="int" name="NPAR">    40</i>
   <i type="int" name="NSIM">     4</i>
   <i type="int" name="NBLK">    -1</i>
   <i type="logical" name="LPLANE"> F  </i>
   <i type="logical" name="LSCALAPACK"> T  </i>
   <i type="logical" name="LSCAAWARE"> F  </i>
   <i type="logical" name="LSCALU"> F  </i>
   <i type="logical" name="LASYNC"> F  </i>
   <i type="logical" name="LORBITALREAL"> F  </i>
  </separator>
  <separator name="miscellaneous" >
   <i type="int" name="IDIOT">     3</i>
   <i type="logical" name="LMUSIC"> F  </i>
   <v name="POMASS">     50.94100000     95.94000000    183.85000000     32.06600000</v>
   <v name="DARWINR">      0.00000000      0.00000000      0.00000000      0.00000000</v>
   <v name="DARWINV">      1.00000000      1.00000000      1.00000000      1.00000000</v>
   <i type="logical" name="LCORR"> T  </i>
  </separator>
  <i type="logical" name="GGA_COMPAT"> T  </i>
  <i type="logical" name="LBERRY"> F  </i>
  <i type="int" name="ICORELEVEL">     0</i>
  <i type="logical" name="LDAU"> F  </i>
  <i type="int" name="I_CONSTRAINED_M">     0</i>
  <separator name="electronic exchange-correlation" >
   <i type="string" name="GGA">--</i>
   <i type="int" name="VOSKOWN">     0</i>
   <i type="logical" name="LHFCALC"> F  </i>
   <i type="string" name="PRECFOCK"></i>
   <i type="logical" name="LSYMGRAD"> F  </i>
   <i type="logical" name="LHFONE"> F  </i>
   <i type="logical" name="LRHFCALC"> F  </i>
   <i type="logical" name="LTHOMAS"> F  </i>
   <i type="logical" name="LMODELHF"> F  </i>
   <i name="ENCUT4O">     -1.00000000</i>
   <i type="int" name="EXXOEP">     0</i>
   <i type="int" name="FOURORBIT">     0</i>
   <i name="AEXX">      0.00000000</i>
   <i name="HFALPHA">      0.00000000</i>
   <i name="MCALPHA">      0.00000000</i>
   <i name="ALDAX">      1.00000000</i>
   <i name="AGGAX">      1.00000000</i>
   <i name="ALDAC">      1.00000000</i>
   <i name="AGGAC">      1.00000000</i>
   <i type="int" name="NKREDX">     1</i>
   <i type="int" name="NKREDY">     1</i>
   <i type="int" name="NKREDZ">     1</i>
   <i type="logical" name="SHIFTRED"> F  </i>
   <i type="logical" name="ODDONLY"> F  </i>
   <i type="logical" name="EVENONLY"> F  </i>
   <i type="int" name="LMAXFOCK">     0</i>
   <i type="int" name="NMAXFOCKAE">     0</i>
   <i type="logical" name="LFOCKAEDFT"> F  </i>
   <i name="HFSCREEN">      0.00000000</i>
   <i name="HFSCREENC">      0.00000000</i>
   <i type="int" name="NBANDSGWLOW">     0</i>
  </separator>
  <separator name="vdW DFT" >
   <i type="logical" name="LUSE_VDW"> F  </i>
   <i name="Zab_VDW">     -0.84910000</i>
   <i name="PARAM1">      0.12340000</i>
   <i name="PARAM2">      1.00000000</i>
   <i name="PARAM3">      0.00000000</i>
  </separator>
  <separator name="model GW" >
   <i type="int" name="MODEL_GW">     0</i>
   <i name="MODEL_EPS0">     58.26239943</i>
   <i name="MODEL_ALPHA">      1.00000000</i>
  </separator>
  <separator name="linear response parameters" >
   <i type="logical" name="LEPSILON"> F  </i>
   <i type="logical" name="LRPA"> F  </i>
   <i type="logical" name="LNABLA"> F  </i>
   <i type="logical" name="LVEL"> F  </i>
   <i type="int" name="KINTER">     0</i>
   <i name="CSHIFT">      0.10000000</i>
   <i name="OMEGAMAX">     -1.00000000</i>
   <i name="DEG_THRESHOLD">      0.00200000</i>
  </separator>
  <separator name="orbital magnetization" >
   <i type="logical" name="NUCIND"> F  </i>
   <v name="MAGPOS">      0.00000000      0.00000000      0.00000000</v>
   <i type="logical" name="LNICSALL"> T  </i>
   <i type="logical" name="ORBITALMAG"> F  </i>
   <i type="logical" name="LMAGBLOCH"> F  </i>
   <i type="logical" name="LCHIMAG"> F  </i>
   <i type="logical" name="LGAUGE"> T  </i>
   <i type="int" name="MAGATOM">     0</i>
   <v name="MAGDIPOL">      0.00000000      0.00000000      0.00000000</v>
   <v name="AVECCONST">      0.00000000      0.00000000      0.00000000</v>
  </separator>
  <separator name="response functions" >
   <i type="logical" name="LADDER"> F  </i>
   <i type="logical" name="LFXC"> F  </i>
   <i type="logical" name="LHARTREE"> T  </i>
   <i type="int" name="IBSE">     0</i>
   <v type="int" name="KPOINT">    -1     0     0     0</v>
   <i type="logical" name="LTCTE"> F  </i>
   <i type="logical" name="LTETE"> F  </i>
   <i type="logical" name="LTRIPLET"> F  </i>
   <i type="logical" name="LFXCEPS"> F  </i>
   <i type="logical" name="LFXHEG"> F  </i>
   <i type="int" name="NATURALO">     0</i>
   <i type="logical" name="L2ORDER"> F  </i>
   <i type="logical" name="LUSEW"> F  </i>
   <i name="ENCUTGW">     -2.00000000</i>
   <i name="ENCUTGWSOFT">     -2.00000000</i>
   <i name="ENCUTLF">     -1.00000000</i>
   <i type="int" name="LMAXMP2">    -1</i>
   <i name="SCISSOR">      0.00000000</i>
   <i type="int" name="NOMEGA">     0</i>
   <i type="int" name="NOMEGAR">     0</i>
   <i type="int" name="NBANDSGW">    -1</i>
   <i type="int" name="NBANDSO">    -1</i>
   <i type="int" name="NBANDSV">    -1</i>
   <i type="int" name="NELM">     1</i>
   <i type="int" name="NELMHF">     1</i>
   <i type="int" name="DIM">     3</i>
   <i type="int" name="ANTIRES">     0</i>
   <i name="OMEGAMAX">    -30.00000000</i>
   <i name="OMEGAMIN">    -30.00000000</i>
   <i name="OMEGATL">   -200.00000000</i>
   <i type="int" name="OMEGAGRID">     0</i>
   <i name="CSHIFT">     -0.10000000</i>
   <i type="logical" name="SELFENERGY"> F  </i>
   <i type="logical" name="LSPECTRAL"> F  </i>
   <i type="logical" name="LSPECTRALGW"> F  </i>
   <i type="logical" name="LSINGLES"> F  </i>
   <i type="logical" name="LFERMIGW"> F  </i>
   <i type="logical" name="ODDONLYGW"> F  </i>
   <i type="logical" name="EVENONLYGW"> F  </i>
   <i type="int" name="NKREDLFX">     1</i>
   <i type="int" name="NKREDLFY">     1</i>
   <i type="int" name="NKREDLFZ">     1</i>
   <i type="int" name="MAXMEM">  1800</i>
   <i type="int" name="TELESCOPE">     0</i>
   <i type="int" name="TAUPAR">     1</i>
   <i type="int" name="OMEGAPAR">    -1</i>
   <i name="LAMBDA">      1.00000000</i>
  </separator>
  <separator name="External order field" >
   <i name="OFIELD_KAPPA">      0.00000000</i>
   <v name="OFIELD_K">      0.00000000      0.00000000      0.00000000</v>
   <i name="OFIELD_Q6_NEAR">      0.00000000</i>
   <i name="OFIELD_Q6_FAR">      0.00000000</i>
   <i name="OFIELD_A">      0.00000000</i>
  </separator>
 </parameters>
 <atominfo>
  <atoms>      27 </atoms>
  <types>       4 </types>
  <array name="atoms" >
   <dimension dim="1">ion</dimension>
   <field type="string">element</field>
   <field type="int">atomtype</field>
   <set>
    <rc><c>V </c><c>   1</c></rc>
    <rc><c>V </c><c>   1</c></rc>
    <rc><c>V </c><c>   1</c></rc>
    <rc><c>Mo</c><c>   2</c></rc>
    <rc><c>Mo</c><c>   2</c></rc>
    <rc><c>Mo</c><c>   2</c></rc>
    <rc><c>W </c><c>   3</c></rc>
    <rc><c>W </c><c>   3</c></rc>
    <rc><c>W </c><c>   3</c></rc>
    <rc><c>S </c><c>   4</c></rc>
    <rc><c>S </c><c>   4</c></rc>
    <rc><c>S </c><c>   4</c></rc>
    <rc><c>S </c><c>   4</c></rc>
    <rc><c>S </c><c>   4</c></rc>
    <rc><c>S </c><c>   4</c></rc>
    <rc><c>S </c><c>   4</c></rc>
    <rc><c>S </c><c>   4</c></rc>
    <rc><c>S </c><c>   4</c></rc>
    <rc><c>S </c><c>   4</c></rc>
    <rc><c>S </c><c>   4</c></rc>
    <rc><c>S </c><c>   4</c></rc>
    <rc><c>S </c><c>   4</c></rc>
    <rc><c>S </c><c>   4</c></rc>
    <rc><c>S </c><c>   4</c></rc>
    <rc><c>S </c><c>   4</c></rc>
    <rc><c>S </c><c>   4</c></rc>
    <rc><c>S </c><c>   4</c></rc>
   </set>
  </array>
  <array name="atomtypes" >
   <dimension dim="1">type</dimension>
   <field type="int">atomspertype</field>
   <field type="string">element</field>
   <field>mass</field>
   <field>valence</field>
   <field type="string">pseudopotential</field>
   <set>
    <rc><c>   3</c><c>V </c><c>     50.94100000</c><c>      5.00000000</c><c> PAW_PBE V 08Apr2002                    </c></rc>
    <rc><c>   3</c><c>Mo</c><c>     95.94000000</c><c>      6.00000000</c><c> PAW_PBE Mo 08Apr2002                   </c></rc>
    <rc><c>   3</c><c>W </c><c>    183.85000000</c><c>      6.00000000</c><c> PAW_PBE W 08Apr2002                    </c></rc>
    <rc><c>  18</c><c>S </c><c>     32.06600000</c><c>      6.00000000</c><c>  PAW_PBE S 17Jan2003                   </c></rc>
   </set>
  </array>
 </atominfo>
 <structure name="initialpos" >
  <crystal>
   <varray name="basis" >
    <v>       8.66999996       5.03999989       0.00000000 </v>
    <v>      -8.66999982       5.04000013       0.00000000 </v>
    <v>       0.00000000       0.00000000      30.00000000 </v>
   </varray>
   <i name="volume">   2621.80797419 </i>
   <varray name="rec_basis" >
    <v>       0.05767013       0.09920635       0.00000000 </v>
    <v>      -0.05767013       0.09920635       0.00000000 </v>
    <v>       0.00000000       0.00000000       0.03333333 </v>
   </varray>
  </crystal>
  <varray name="positions" >
   <v>       0.33333334       0.66666669       0.00000000 </v>
   <v>       0.66666669       0.00000000       0.00000000 </v>
   <v>       0.33333334       0.00000000       0.00000000 </v>
   <v>       0.00000000       0.66666669       0.00000000 </v>
   <v>       0.00000000       0.00000000       0.00000000 </v>
   <v>       0.66666669       0.33333334       0.00000000 </v>
   <v>       1.00000000       0.33333334       0.00000000 </v>
   <v>       0.33333334       0.33333334       0.00000000 </v>
   <v>       0.66666669       0.66666669       0.00000000 </v>
   <v>       0.11068511       0.22244981       0.95539999 </v>
   <v>       0.22244981       0.11068511       0.04460000 </v>
   <v>       0.11068511       0.55578315       0.95539999 </v>
   <v>       0.22244981       0.44401845       0.04460000 </v>
   <v>       0.11068511       0.88911647       0.95539999 </v>
   <v>       0.22244981       0.77735180       0.04460000 </v>
   <v>       0.44401845       0.22244981       0.95539999 </v>
   <v>       0.55578315       0.11068511       0.04460000 </v>
   <v>       0.44401845       0.55578315       0.95539999 </v>
   <v>       0.55578315       0.44401845       0.04460000 </v>
   <v>       0.44401845       0.88911647       0.95539999 </v>
   <v>       0.55578315       0.77735180       0.04460000 </v>
   <v>       0.77735180       0.22244981       0.95539999 </v>
   <v>       0.88911647       0.11068511       0.04460000 </v>
   <v>       0.77735180       0.55578315       0.95539999 </v>
   <v>       0.88911647       0.44401845       0.04460000 </v>
   <v>       0.77735180       0.88911647       0.95539999 </v>
   <v>       0.88911647       0.77735180       0.04460000 </v>
  </varray>
 </structure>
 <calculation>
  <scstep>
   <time name="dav">   21.77   21.82</time>
   <time name="total">   21.82   21.87</time>
   <energy>
    <i name="alphaZ">     81.65567618 </i>
    <i name="ewald">  41891.17178115 </i>
    <i name="hartreedc"> -47723.81657175 </i>
    <i name="XCdc">   -242.92509165 </i>
    <i name="pawpsdc">   3467.42045192 </i>
    <i name="pawaedc">  -2871.19716117 </i>
    <i name="eentropy">     -0.54463616 </i>
    <i name="bandstr">   -238.61719003 </i>
    <i name="atom">   6761.44252427 </i>
    <i name="e_fr_energy">   1124.58978276 </i>
    <i name="e_wo_entrp">   1125.13441891 </i>
    <i name="e_0_energy">   1124.86210083 </i>
   </energy>
  </scstep>
  <scstep>
   <time name="dav">   28.01   28.08</time>
   <time name="total">   28.01   28.09</time>
   <energy>
    <i name="e_fr_energy">     -0.51693118 </i>
    <i name="e_wo_entrp">     -0.32240208 </i>
    <i name="e_0_energy">     -0.41966663 </i>
   </energy>
  </scstep>
  <scstep>
   <time name="dav">   27.61   27.68</time>
   <time name="total">   27.61   27.68</time>
   <energy>
    <i name="e_fr_energy">   -199.68545460 </i>
    <i name="e_wo_entrp">   -199.41516743 </i>
    <i name="e_0_energy">   -199.55031102 </i>
   </energy>
  </scstep>
  <scstep>
   <time name="dav">   30.20   30.27</time>
   <time name="total">   30.20   30.28</time>
   <energy>
    <i name="e_fr_energy">   -208.97784410 </i>
    <i name="e_wo_entrp">   -208.68474883 </i>
    <i name="e_0_energy">   -208.83129647 </i>
   </energy>
  </scstep>
  <scstep>
   <time name="dav">   28.10   28.17</time>
   <time name="total">   28.56   28.64</time>
   <energy>
    <i name="e_fr_energy">   -209.30001749 </i>
    <i name="e_wo_entrp">   -209.00987004 </i>
    <i name="e_0_energy">   -209.15494376 </i>
   </energy>
  </scstep>
  <scstep>
   <time name="dav">   30.19   30.27</time>
   <time name="total">   30.69   30.77</time>
   <energy>
    <i name="e_fr_energy">   -237.72989992 </i>
    <i name="e_wo_entrp">   -237.46924040 </i>
    <i name="e_0_energy">   -237.59957016 </i>
   </energy>
  </scstep>
  <scstep>
   <time name="dav">   32.85   32.93</time>
   <time name="total">   33.35   33.44</time>
   <energy>
    <i name="e_fr_energy">   -196.62811156 </i>
    <i name="e_wo_entrp">   -196.30427064 </i>
    <i name="e_0_energy">   -196.46619110 </i>
   </energy>
  </scstep>
  <scstep>
   <time name="dav">   29.46   29.53</time>
   <time name="total">   29.97   30.05</time>
   <energy>
    <i name="e_fr_energy">   -189.65622095 </i>
    <i name="e_wo_entrp">   -189.34920701 </i>
    <i name="e_0_energy">   -189.50271398 </i>
   </energy>
  </scstep>
  <scstep>
   <time name="dav">   31.69   31.77</time>
   <time name="total">   32.21   32.30</time>
   <energy>
    <i name="e_fr_energy">   -188.22214402 </i>
    <i name="e_wo_entrp">   -187.89270629 </i>
    <i name="e_0_energy">   -188.05742516 </i>
   </energy>
  </scstep>
  <scstep>
   <time name="dav">   32.41   32.49</time>
   <time name="total">   32.94   33.03</time>
   <energy>
    <i name="e_fr_energy">   -186.95516199 </i>
    <i name="e_wo_entrp">   -186.60256623 </i>
    <i name="e_0_energy">   -186.77886411 </i>
   </energy>
  </scstep>
  <scstep>
   <time name="dav">   32.60   32.68</time>
   <time name="total">   33.13   33.22</time>
   <energy>
    <i name="e_fr_energy">   -187.02427390 </i>
    <i name="e_wo_entrp">   -186.68249284 </i>
    <i name="e_0_energy">   -186.85338337 </i>
   </energy>
  </scstep>
  <scstep>
   <time name="dav">   31.44   31.52</time>
   <time name="total">   31.98   32.06</time>
   <energy>
    <i name="e_fr_energy">   -186.94118040 </i>
    <i name="e_wo_entrp">   -186.60447411 </i>
    <i name="e_0_energy">   -186.77282726 </i>
   </energy>
  </scstep>
  <scstep>
   <time name="dav">   31.21   31.28</time>
   <time name="total">   31.74   31.82</time>
   <energy>
    <i name="e_fr_energy">   -186.88516652 </i>
    <i name="e_wo_entrp">   -186.54837717 </i>
    <i name="e_0_energy">   -186.71677185 </i>
   </energy>
  </scstep>
  <scstep>
   <time name="dav">   31.07   31.14</time>
   <time name="total">   31.60   31.68</time>
   <energy>
    <i name="e_fr_energy">   -186.84535766 </i>
    <i name="e_wo_entrp">   -186.50015916 </i>
    <i name="e_0_energy">   -186.67275841 </i>
   </energy>
  </scstep>
  <scstep>
   <time name="dav">   30.23   30.31</time>
   <time name="total">   30.76   30.85</time>
   <energy>
    <i name="e_fr_energy">   -186.84151828 </i>
    <i name="e_wo_entrp">   -186.49640048 </i>
    <i name="e_0_energy">   -186.66895938 </i>
   </energy>
  </scstep>
  <scstep>
   <time name="dav">   32.84   32.92</time>
   <time name="total">   33.37   33.46</time>
   <energy>
    <i name="e_fr_energy">   -186.84039553 </i>
    <i name="e_wo_entrp">   -186.49593753 </i>
    <i name="e_0_energy">   -186.66816653 </i>
   </energy>
  </scstep>
  <scstep>
   <time name="dav">   30.68   30.75</time>
   <time name="total">   31.21   31.29</time>
   <energy>
    <i name="e_fr_energy">   -186.83796901 </i>
    <i name="e_wo_entrp">   -186.49487342 </i>
    <i name="e_0_energy">   -186.66642121 </i>
   </energy>
  </scstep>
  <scstep>
   <time name="dav">   30.03   30.10</time>
   <time name="total">   30.56   30.65</time>
   <energy>
    <i name="e_fr_energy">   -186.83768116 </i>
    <i name="e_wo_entrp">   -186.49400314 </i>
    <i name="e_0_energy">   -186.66584215 </i>
   </energy>
  </scstep>
  <scstep>
   <time name="dav">   24.87   24.93</time>
   <time name="total">   24.90   24.97</time>
   <energy>
    <i name="alphaZ">     81.65567618 </i>
    <i name="ewald">  41891.17178115 </i>
    <i name="hartreedc"> -47818.58096081 </i>
    <i name="XCdc">   -231.69456328 </i>
    <i name="pawpsdc">   4194.33856141 </i>
    <i name="pawaedc">  -3612.35770224 </i>
    <i name="eentropy">     -0.34368040 </i>
    <i name="bandstr">  -1452.46926204 </i>
    <i name="atom">   6761.44252427 </i>
    <i name="e_fr_energy">   -186.83762576 </i>
    <i name="e_wo_entrp">   -186.49394536 </i>
    <i name="e_0_energy">   -186.66578556 </i>
   </energy>
  </scstep>
  <structure>
   <crystal>
    <varray name="basis" >
     <v>       8.66999996       5.03999989       0.00000000 </v>
     <v>      -8.66999982       5.04000013       0.00000000 </v>
     <v>       0.00000000       0.00000000      30.00000000 </v>
    </varray>
    <i name="volume">   2621.80797419 </i>
    <varray name="rec_basis" >
     <v>       0.05767013       0.09920635       0.00000000 </v>
     <v>      -0.05767013       0.09920635       0.00000000 </v>
     <v>       0.00000000       0.00000000       0.03333333 </v>
    </varray>
   </crystal>
   <varray name="positions" >
    <v>       0.33333334       0.66666669       0.00000000 </v>
    <v>       0.66666669       0.00000000       0.00000000 </v>
    <v>       0.33333334       0.00000000       0.00000000 </v>
    <v>       0.00000000       0.66666669       0.00000000 </v>
    <v>       0.00000000       0.00000000       0.00000000 </v>
    <v>       0.66666669       0.33333334       0.00000000 </v>
    <v>       1.00000000       0.33333334       0.00000000 </v>
    <v>       0.33333334       0.33333334       0.00000000 </v>
    <v>       0.66666669       0.66666669       0.00000000 </v>
    <v>       0.11068511       0.22244981       0.95539999 </v>
    <v>       0.22244981       0.11068511       0.04460000 </v>
    <v>       0.11068511       0.55578315       0.95539999 </v>
    <v>       0.22244981       0.44401845       0.04460000 </v>
    <v>       0.11068511       0.88911647       0.95539999 </v>
    <v>       0.22244981       0.77735180       0.04460000 </v>
    <v>       0.44401845       0.22244981       0.95539999 </v>
    <v>       0.55578315       0.11068511       0.04460000 </v>
    <v>       0.44401845       0.55578315       0.95539999 </v>
    <v>       0.55578315       0.44401845       0.04460000 </v>
    <v>       0.44401845       0.88911647       0.95539999 </v>
    <v>       0.55578315       0.77735180       0.04460000 </v>
    <v>       0.77735180       0.22244981       0.95539999 </v>
    <v>       0.88911647       0.11068511       0.04460000 </v>
    <v>       0.77735180       0.55578315       0.95539999 </v>
    <v>       0.88911647       0.44401845       0.04460000 </v>
    <v>       0.77735180       0.88911647       0.95539999 </v>
    <v>       0.88911647       0.77735180       0.04460000 </v>
   </varray>
  </structure>
  <varray name="forces" >
   <v>      -0.29873659       0.01188343      -0.00993229 </v>
   <v>      -0.11083412       0.10969254       0.01543147 </v>
   <v>      -0.02865455      -0.11289094       0.00025895 </v>
   <v>      -0.24710855      -0.08742545      -0.10319152 </v>
   <v>       0.28059227      -0.15139907       0.05813040 </v>
   <v>       0.01845681       0.22701003      -0.03747613 </v>
   <v>      -0.30429218      -0.18624006       0.10911164 </v>
   <v>       0.32577910      -0.15959000       0.09343588 </v>
   <v>       0.44095275       0.33094951      -0.09670334 </v>
   <v>       0.05409519       0.13516317      -2.83996717 </v>
   <v>       0.63978937       0.15867955       2.14925263 </v>
   <v>       0.59338447       0.55469052      -2.14144089 </v>
   <v>      -0.45265784       0.54706407       2.16690355 </v>
   <v>       0.53869084       0.68458812      -2.14814580 </v>
   <v>       0.32723625       0.68142484       1.40643371 </v>
   <v>       0.37489906      -0.68275225      -2.16270775 </v>
   <v>       0.32578220      -0.66939511       1.38636919 </v>
   <v>      -0.59634709       0.01776778      -2.07993358 </v>
   <v>      -0.30226442      -0.03050629       2.87268670 </v>
   <v>       0.06628520      -0.00657054      -0.77775789 </v>
   <v>      -0.76150029      -0.00277776       1.42653792 </v>
   <v>       0.59765306      -0.55515029      -2.17210867 </v>
   <v>      -0.60653247      -0.52272435       2.15028783 </v>
   <v>      -0.05923711      -0.00358229      -2.97239825 </v>
   <v>       0.07948613       0.00625517       2.88050998 </v>
   <v>      -0.66432094      -0.17437376      -2.09721865 </v>
   <v>      -0.23059654      -0.11979058       2.92363207 </v>
  </varray>
  <varray name="stress" >
   <v>       7.45215562       0.08624106      -1.53916203 </v>
   <v>       0.08624133       4.54013898       0.06467113 </v>
   <v>      -1.53916218       0.06467102      31.15749485 </v>
  </varray>
  <energy>
   <i name="e_fr_energy">   -186.83762576 </i>
   <i name="e_wo_entrp">   -186.66578556 </i>
   <i name="e_0_energy">     -0.34368040 </i>
  </energy>
  <time name="totalsc">  617.28  618.95</time>
 </calculation>
 <calculation>
  <scstep>
   <time name="dav">   21.71   21.77</time>
   <time name="total">   22.26   22.32</time>
   <energy>
    <i name="alphaZ">     78.86746947 </i>
    <i name="ewald">  39350.17677595 </i>
    <i name="hartreedc"> -45297.55170788 </i>
    <i name="XCdc">   -239.18003423 </i>
    <i name="pawpsdc">   4193.12131673 </i>
    <i name="pawaedc">  -3611.12311484 </i>
    <i name="eentropy">     -0.28167414 </i>
    <i name="bandstr">  -1422.96357579 </i>
    <i name="atom">   6761.44252427 </i>
    <i name="e_fr_energy">   -187.49202045 </i>
    <i name="e_wo_entrp">   -187.21034632 </i>
    <i name="e_0_energy">   -187.35118338 </i>
   </energy>
  </scstep>
  <scstep>
   <time name="dav">   29.35   29.42</time>
   <time name="total">   29.88   29.96</time>
   <energy>
    <i name="e_fr_energy">   -189.51337821 </i>
    <i name="e_wo_entrp">   -189.17704292 </i>
    <i name="e_0_energy">   -189.34521056 </i>
   </energy>
  </scstep>
  <scstep>
   <time name="dav">   29.96   30.03</time>
   <time name="total">   30.51   30.59</time>
   <energy>
    <i name="e_fr_energy">   -189.32877740 </i>
    <i name="e_wo_entrp">   -189.06727726 </i>
    <i name="e_0_energy">   -189.19802733 </i>
   </energy>
  </scstep>
  <scstep>
   <time name="dav">   29.81   29.89</time>
   <time name="total">   30.36   30.44</time>
   <energy>
    <i name="e_fr_energy">   -188.78445503 </i>
    <i name="e_wo_entrp">   -188.50114057 </i>
    <i name="e_0_energy">   -188.64279780 </i>
   </energy>
  </scstep>
  <scstep>
   <time name="dav">   27.27   27.34</time>
   <time name="total">   27.82   27.89</time>
   <energy>
    <i name="e_fr_energy">   -188.82936523 </i>
    <i name="e_wo_entrp">   -188.54206055 </i>
    <i name="e_0_energy">   -188.68571289 </i>
   </energy>
  </scstep>
  <scstep>
   <time name="dav">   30.11   30.18</time>
   <time name="total">   30.66   30.74</time>
   <energy>
    <i name="e_fr_energy">   -188.71314816 </i>
    <i name="e_wo_entrp">   -188.42953859 </i>
    <i name="e_0_energy">   -188.57134338 </i>
   </energy>
  </scstep>
  <scstep>
   <time name="dav">   29.53   29.60</time>
   <time name="total">   30.08   30.16</time>
   <energy>
    <i name="e_fr_energy">   -188.70187402 </i>
    <i name="e_wo_entrp">   -188.41647015 </i>
    <i name="e_0_energy">   -188.55917209 </i>
   </energy>
  </scstep>
  <scstep>
   <time name="dav">   28.99   29.06</time>
   <time name="total">   29.54   29.62</time>
   <energy>
    <i name="e_fr_energy">   -188.66964431 </i>
    <i name="e_wo_entrp">   -188.38586234 </i>
    <i name="e_0_energy">   -188.52775332 </i>
   </energy>
  </scstep>
  <scstep>
   <time name="dav">   28.86   28.93</time>
   <time name="total">   29.41   29.49</time>
   <energy>
    <i name="e_fr_energy">   -188.64669539 </i>
    <i name="e_wo_entrp">   -188.36446745 </i>
    <i name="e_0_energy">   -188.50558142 </i>
   </energy>
  </scstep>
  <scstep>
   <time name="dav">   26.73   26.80</time>
   <time name="total">   27.28   27.36</time>
   <energy>
    <i name="e_fr_energy">   -188.64377186 </i>
    <i name="e_wo_entrp">   -188.36239497 </i>
    <i name="e_0_energy">   -188.50308341 </i>
   </energy>
  </scstep>
  <scstep>
   <time name="dav">   31.58   31.65</time>
   <time name="total">   32.12   32.21</time>
   <energy>
    <i name="e_fr_energy">   -188.64327069 </i>
    <i name="e_wo_entrp">   -188.36312779 </i>
    <i name="e_0_energy">   -188.50319924 </i>
   </energy>
  </scstep>
  <scstep>
   <time name="dav">   27.51   27.57</time>
   <time name="total">   28.05   28.13</time>
   <energy>
    <i name="e_fr_energy">   -188.64328483 </i>
    <i name="e_wo_entrp">   -188.36318489 </i>
    <i name="e_0_energy">   -188.50323486 </i>
   </energy>
  </scstep>
  <scstep>
   <time name="dav">   19.03   19.08</time>
   <time name="total">   19.58   19.63</time>
   <energy>
    <i name="e_fr_energy">   -188.64342102 </i>
    <i name="e_wo_entrp">   -188.36304966 </i>
    <i name="e_0_energy">   -188.50323534 </i>
   </energy>
  </scstep>
  <scstep>
   <time name="dav">   19.14   19.19</time>
   <time name="total">   19.69   19.75</time>
   <energy>
    <i name="e_fr_energy">   -188.64365662 </i>
    <i name="e_wo_entrp">   -188.36330623 </i>
    <i name="e_0_energy">   -188.50348143 </i>
   </energy>
  </scstep>
  <scstep>
   <time name="dav">   21.88   21.93</time>
   <time name="total">   21.91   21.97</time>
   <energy>
    <i name="alphaZ">     78.86746947 </i>
    <i name="ewald">  39350.17677595 </i>
    <i name="hartreedc"> -45315.51827211 </i>
    <i name="XCdc">   -238.03184956 </i>
    <i name="pawpsdc">   3948.18272329 </i>
    <i name="pawaedc">  -3362.66073255 </i>
    <i name="eentropy">     -0.28039251 </i>
    <i name="bandstr">  -1410.82196679 </i>
    <i name="atom">   6761.44252427 </i>
    <i name="e_fr_energy">   -188.64372052 </i>
    <i name="e_wo_entrp">   -188.36332801 </i>
    <i name="e_0_energy">   -188.50352427 </i>
   </energy>
  </scstep>
  <structure>
   <crystal>
    <varray name="basis" >
     <v>       8.86018248       5.10909092       0.00000000 </v>
     <v>      -8.85764058       5.10471875       0.00000000 </v>
     <v>       0.00000000       0.00000000      30.00000000 </v>
    </varray>
    <i name="volume">   2714.49691980 </i>
    <varray name="rec_basis" >
     <v>       0.05641619       0.09789262       0.00000000 </v>
     <v>      -0.05646451       0.09792071       0.00000000 </v>
     <v>       0.00000000       0.00000000       0.03333333 </v>
    </varray>
   </crystal>
   <varray name="positions" >
    <v>       0.33255908       0.66755469      -0.00001597 </v>
    <v>       0.66688331       0.00083334       0.00002482 </v>
    <v>       0.33271333      -0.00046057       0.00000042 </v>
    <v>      -0.00110591       0.66693577      -0.00016594 </v>
    <v>       0.00005606      -0.00150525       0.00009348 </v>
    <v>       0.66780450       0.33436846      -0.00006026 </v>
    <v>       0.99826207       0.33328859       0.00017546 </v>
    <v>       0.33347592       0.33166318       0.00015025 </v>
    <v>       0.66947740       0.66702380      -0.00015551 </v>
    <v>       0.11148250       0.22294620       0.95083307 </v>
    <v>       0.22498924       0.10966455       0.04805619 </v>
    <v>       0.11499074       0.55678700       0.95195636 </v>
    <v>       0.22380868       0.44789606       0.04808457 </v>
    <v>       0.11546026       0.89089417       0.95194558 </v>
    <v>       0.22662152       0.77970266       0.04686167 </v>
    <v>       0.44179385       0.21813914       0.95192216 </v>
    <v>       0.55348582       0.10657502       0.04682940 </v>
    <v>       0.44244436       0.55752732       0.95205527 </v>
    <v>       0.55479620       0.44471340       0.04921953 </v>
    <v>       0.44417142       0.88890060       0.95414929 </v>
    <v>       0.55365124       0.77945712       0.04689400 </v>
    <v>       0.77635763       0.21813011       0.95190705 </v>
    <v>       0.88492725       0.10987083       0.04805785 </v>
    <v>       0.77716984       0.55593081       0.95062011 </v>
    <v>       0.88936755       0.44382725       0.04923211 </v>
    <v>       0.77466900       0.89013016       0.95202748 </v>
    <v>       0.88790159       0.77742004       0.04930146 </v>
   </varray>
  </structure>
  <varray name="forces" >
   <v>      -0.18385949      -0.06066271       0.01531407 </v>
   <v>      -0.05910303       0.15215566       0.09992927 </v>
   <v>      -0.12513803      -0.08403689       0.01154453 </v>
   <v>      -0.40746444      -0.37330089      -0.03945870 </v>
   <v>       0.24647680      -0.12372234      -0.06492654 </v>
   <v>      -0.12329642       0.47000920       0.05196782 </v>
   <v>      -0.23431139      -0.13085708       0.03635877 </v>
   <v>       0.22282967      -0.18581381      -0.06889123 </v>
   <v>       0.62340082       0.31023196      -0.05263291 </v>
   <v>      -0.07679684       0.10886162       0.15953136 </v>
   <v>       0.00065017       0.10078265       0.10847474 </v>
   <v>       0.06261371      -0.05645960       0.04823941 </v>
   <v>       0.05695217      -0.07706894      -0.13654836 </v>
   <v>       0.04375117       0.06973229      -0.07378544 </v>
   <v>      -0.00212226       0.05410229      -0.08672122 </v>
   <v>      -0.09678040      -0.05014474       0.04023107 </v>
   <v>       0.01415544      -0.05128542      -0.15125319 </v>
   <v>       0.10709401       0.00801326       0.24012225 </v>
   <v>      -0.12499256       0.00298616      -0.00275721 </v>
   <v>       0.00353053       0.00231259       0.13738120 </v>
   <v>       0.09654561       0.00610804      -0.27488623 </v>
   <v>       0.07017497       0.04374583      -0.04734152 </v>
   <v>      -0.07982296       0.05405112      -0.02174474 </v>
   <v>      -0.14067903       0.01210099      -0.30330873 </v>
   <v>       0.13434717       0.01661088       0.12880921 </v>
   <v>       0.02310052      -0.11904944       0.02567229 </v>
   <v>      -0.05125591      -0.09940269       0.22068002 </v>
  </varray>
  <varray name="stress" >
   <v>     -19.98601965      -0.00515833       0.04156712 </v>
   <v>      -0.00515826     -19.57612189      -0.01759429 </v>
   <v>       0.04156720      -0.01759424      -1.69435116 </v>
  </varray>
  <energy>
   <i name="e_fr_energy">   -188.64372052 </i>
   <i name="e_wo_entrp">   -188.50352427 </i>
   <i name="e_0_energy">     -0.28039251 </i>
  </energy>
  <time name="totalsc">  451.05  452.25</time>
 </calculation>
 <calculation>
  <scstep>
   <time name="dav">   23.86   23.91</time>
   <time name="total">   24.39   24.45</time>
   <energy>
    <i name="alphaZ">     82.31576112 </i>
    <i name="ewald">  41287.62403578 </i>
    <i name="hartreedc"> -47283.99088250 </i>
    <i name="XCdc">   -233.87278424 </i>
    <i name="pawpsdc">   3948.10756120 </i>
    <i name="pawaedc">  -3362.58570717 </i>
    <i name="eentropy">     -0.23478931 </i>
    <i name="bandstr">  -1389.40103833 </i>
    <i name="atom">   6761.44252427 </i>
    <i name="e_fr_energy">   -190.59531918 </i>
    <i name="e_wo_entrp">   -190.36052987 </i>
    <i name="e_0_energy">   -190.47792452 </i>
   </energy>
  </scstep>
  <scstep>
   <time name="dav">   29.67   29.75</time>
   <time name="total">   30.20   30.28</time>
   <energy>
    <i name="e_fr_energy">   -190.53296123 </i>
    <i name="e_wo_entrp">   -190.30946821 </i>
    <i name="e_0_energy">   -190.42121472 </i>
   </energy>
  </scstep>
  <scstep>
   <time name="dav">   30.25   30.32</time>
   <time name="total">   30.78   30.86</time>
   <energy>
    <i name="e_fr_energy">   -190.07244891 </i>
    <i name="e_wo_entrp">   -189.82092616 </i>
    <i name="e_0_energy">   -189.94668754 </i>
   </energy>
  </scstep>
  <scstep>
   <time name="dav">   31.94   32.02</time>
   <time name="total">   32.48   32.57</time>
   <energy>
    <i name="e_fr_energy">   -189.85663945 </i>
    <i name="e_wo_entrp">   -189.62926470 </i>
    <i name="e_0_energy">   -189.74295207 </i>
   </energy>
  </scstep>
  <scstep>
   <time name="dav">   29.99   30.07</time>
   <time name="total">   30.52   30.60</time>
   <energy>
    <i name="e_fr_energy">   -189.80779868 </i>
    <i name="e_wo_entrp">   -189.56570088 </i>
    <i name="e_0_energy">   -189.68674978 </i>
   </energy>
  </scstep>
  <scstep>
   <time name="dav">   30.61   30.68</time>
   <time name="total">   31.14   31.22</time>
   <energy>
    <i name="e_fr_energy">   -189.75581416 </i>
    <i name="e_wo_entrp">   -189.52180050 </i>
    <i name="e_0_energy">   -189.63880733 </i>
   </energy>
  </scstep>
  <scstep>
   <time name="dav">   29.44   29.51</time>
   <time name="total">   29.98   30.05</time>
   <energy>
    <i name="e_fr_energy">   -189.75026902 </i>
    <i name="e_wo_entrp">   -189.51387378 </i>
    <i name="e_0_energy">   -189.63207140 </i>
   </energy>
  </scstep>
  <scstep>
   <time name="dav">   28.91   28.98</time>
   <time name="total">   29.44   29.51</time>
   <energy>
    <i name="e_fr_energy">   -189.75118023 </i>
    <i name="e_wo_entrp">   -189.51563151 </i>
    <i name="e_0_energy">   -189.63340587 </i>
   </energy>
  </scstep>
  <scstep>
   <time name="dav">   28.67   28.74</time>
   <time name="total">   29.20   29.28</time>
   <energy>
    <i name="e_fr_energy">   -189.74987346 </i>
    <i name="e_wo_entrp">   -189.51391976 </i>
    <i name="e_0_energy">   -189.63189661 </i>
   </energy>
  </scstep>
  <scstep>
   <time name="dav">   25.91   25.97</time>
   <time name="total">   26.44   26.51</time>
   <energy>
    <i name="e_fr_energy">   -189.75026408 </i>
    <i name="e_wo_entrp">   -189.51434089 </i>
    <i name="e_0_energy">   -189.63230249 </i>
   </energy>
  </scstep>
  <scstep>
   <time name="dav">   26.49   26.56</time>
   <time name="total">   27.02   27.10</time>
   <energy>
    <i name="e_fr_energy">   -189.74998875 </i>
    <i name="e_wo_entrp">   -189.51388753 </i>
    <i name="e_0_energy">   -189.63193814 </i>
   </energy>
  </scstep>
  <scstep>
   <time name="dav">   18.97   19.02</time>
   <time name="total">   19.01   19.06</time>
   <energy>
    <i name="alphaZ">     82.31576112 </i>
    <i name="ewald">  41287.62403578 </i>
    <i name="hartreedc"> -47258.91957935 </i>
    <i name="XCdc">   -235.26750183 </i>
    <i name="pawpsdc">   4038.30312556 </i>
    <i name="pawaedc">  -3453.99683677 </i>
    <i name="eentropy">     -0.23609788 </i>
    <i name="bandstr">  -1411.01546685 </i>
    <i name="atom">   6761.44252427 </i>
    <i name="e_fr_energy">   -189.75003594 </i>
    <i name="e_wo_entrp">   -189.51393806 </i>
    <i name="e_0_energy">   -189.63198700 </i>
   </energy>
  </scstep>
  <structure>
   <crystal>
    <varray name="basis" >
     <v>       8.67064473       5.00200538       0.00000000 </v>
     <v>      -8.66821358       4.99782262       0.00000000 </v>
     <v>       0.00000000       0.00000000      30.00000000 </v>
    </varray>
    <i name="volume">   2600.78385992 </i>
    <varray name="rec_basis" >
     <v>       0.05764980       0.09998770       0.00000000 </v>
     <v>      -0.05769805       0.10001575       0.00000000 </v>
     <v>       0.00000000       0.00000000       0.03333333 </v>
    </varray>
   </crystal>
   <varray name="positions" >
    <v>       0.33228090       0.66763044      -0.00000727 </v>
    <v>       0.66708048       0.00114436       0.00008162 </v>
    <v>       0.33245262      -0.00048041       0.00000698 </v>
    <v>      -0.00212120       0.66670473      -0.00018837 </v>
    <v>       0.00008665      -0.00194922       0.00005657 </v>
    <v>       0.66847057       0.33527212      -0.00003072 </v>
    <v>       0.99781815       0.33329570       0.00019613 </v>
    <v>       0.33338009       0.33113828       0.00011109 </v>
    <v>       0.67059517       0.66694157      -0.00018543 </v>
    <v>       0.11159036       0.22320195       0.95092376 </v>
    <v>       0.22515813       0.10983223       0.04811785 </v>
    <v>       0.11495672       0.55663241       0.95198379 </v>
    <v>       0.22373481       0.44771251       0.04800694 </v>
    <v>       0.11561877       0.89096849       0.95190363 </v>
    <v>       0.22670980       0.77979505       0.04681237 </v>
    <v>       0.44161701       0.21814860       0.95194504 </v>
    <v>       0.55341382       0.10647574       0.04674342 </v>
    <v>       0.44256078       0.55743757       0.95219178 </v>
    <v>       0.55468092       0.44483875       0.04921797 </v>
    <v>       0.44417868       0.88890107       0.95422739 </v>
    <v>       0.55375433       0.77937435       0.04673773 </v>
    <v>       0.77649818       0.21813558       0.95188013 </v>
    <v>       0.88494069       0.11003797       0.04804549 </v>
    <v>       0.77705469       0.55608650       0.95044768 </v>
    <v>       0.88952454       0.44372561       0.04930534 </v>
    <v>       0.77449247       0.88990910       0.95204207 </v>
    <v>       0.88768632       0.77730339       0.04942691 </v>
   </varray>
  </structure>
  <varray name="forces" >
   <v>      -0.13409999      -0.11605658       0.02104708 </v>
   <v>      -0.02768444       0.19871104       0.09923920 </v>
   <v>      -0.19902854      -0.07400794       0.01678363 </v>
   <v>      -0.45111390      -0.47083918      -0.01396638 </v>
   <v>       0.23743578      -0.10887868      -0.06729302 </v>
   <v>      -0.16548080       0.54853962       0.05186348 </v>
   <v>      -0.20408122      -0.11030631       0.00129120 </v>
   <v>       0.18642794      -0.19293351      -0.08793783 </v>
   <v>       0.68606018       0.28573664      -0.01949037 </v>
   <v>      -0.05197124       0.03807335      -0.37711170 </v>
   <v>       0.12641858       0.01709107       0.62771192 </v>
   <v>       0.04714175       0.06822419      -0.44261666 </v>
   <v>      -0.01475222       0.04682116       0.36859361 </v>
   <v>       0.09734756       0.13185960      -0.56927611 </v>
   <v>       0.01668146       0.09986580       0.35102548 </v>
   <v>       0.04800751      -0.10495443      -0.45597720 </v>
   <v>       0.03832109      -0.10650755       0.28209549 </v>
   <v>      -0.02987231       0.02192104      -0.23976588 </v>
   <v>      -0.06028097       0.01557900       0.54793297 </v>
   <v>       0.00032433       0.01109307      -0.28139608 </v>
   <v>      -0.03081270       0.00685102       0.16039574 </v>
   <v>       0.05788224      -0.09261726      -0.54960568 </v>
   <v>      -0.06419315      -0.08098522       0.47580800 </v>
   <v>      -0.04638816       0.01178895      -0.90798354 </v>
   <v>       0.03973606       0.03224147       0.69433506 </v>
   <v>      -0.09542489      -0.04993862      -0.47478333 </v>
   <v>      -0.00659998      -0.02637175       0.78908090 </v>
  </varray>
  <varray name="stress" >
   <v>     -10.22753980      -0.01778777       0.01598671 </v>
   <v>      -0.01778773      -9.92507727      -0.02969034 </v>
   <v>       0.01598656      -0.02969054       6.47647814 </v>
  </varray>
  <energy>
   <i name="e_fr_energy">   -189.75003594 </i>
   <i name="e_wo_entrp">   -189.63198700 </i>
   <i name="e_0_energy">     -0.23609788 </i>
  </energy>
  <time name="totalsc">  382.98  383.99</time>
 </calculation>
 <calculation>
  <scstep>
   <time name="dav">   21.80   21.85</time>
   <time name="total">   22.33   22.38</time>
   <energy>
    <i name="alphaZ">     85.84290393 </i>
    <i name="ewald">  42846.27135886 </i>
    <i name="hartreedc"> -48862.49590484 </i>
    <i name="XCdc">   -232.92647505 </i>
    <i name="pawpsdc">   4038.31739195 </i>
    <i name="pawaedc">  -3454.00839036 </i>
    <i name="eentropy">     -0.19685637 </i>
    <i name="bandstr">  -1373.60470365 </i>
    <i name="atom">   6761.44252427 </i>
    <i name="e_fr_energy">   -191.35815125 </i>
    <i name="e_wo_entrp">   -191.16129487 </i>
    <i name="e_0_energy">   -191.25972306 </i>
   </energy>
  </scstep>
  <scstep>
   <time name="dav">   31.71   31.79</time>
   <time name="total">   32.22   32.31</time>
   <energy>
    <i name="e_fr_energy">   -191.17570764 </i>
    <i name="e_wo_entrp">   -190.98106818 </i>
    <i name="e_0_energy">   -191.07838791 </i>
   </energy>
  </scstep>
  <scstep>
   <time name="dav">   29.93   30.00</time>
   <time name="total">   30.44   30.52</time>
   <energy>
    <i name="e_fr_energy">   -191.32499284 </i>
    <i name="e_wo_entrp">   -191.10748885 </i>
    <i name="e_0_energy">   -191.21624084 </i>
   </energy>
  </scstep>
  <scstep>
   <time name="dav">   29.95   30.03</time>
   <time name="total">   30.47   30.55</time>
   <energy>
    <i name="e_fr_energy">   -190.95273100 </i>
    <i name="e_wo_entrp">   -190.74202335 </i>
    <i name="e_0_energy">   -190.84737717 </i>
   </energy>
  </scstep>
  <scstep>
   <time name="dav">   27.92   27.99</time>
   <time name="total">   28.43   28.51</time>
   <energy>
    <i name="e_fr_energy">   -190.93261048 </i>
    <i name="e_wo_entrp">   -190.74469841 </i>
    <i name="e_0_energy">   -190.83865444 </i>
   </energy>
  </scstep>
  <scstep>
   <time name="dav">   28.24   28.30</time>
   <time name="total">   28.75   28.83</time>
   <energy>
    <i name="e_fr_energy">   -190.75749627 </i>
    <i name="e_wo_entrp">   -190.55582999 </i>
    <i name="e_0_energy">   -190.65666313 </i>
   </energy>
  </scstep>
  <scstep>
   <time name="dav">   30.71   30.78</time>
   <time name="total">   31.23   31.31</time>
   <energy>
    <i name="e_fr_energy">   -190.75566235 </i>
    <i name="e_wo_entrp">   -190.55337368 </i>
    <i name="e_0_energy">   -190.65451802 </i>
   </energy>
  </scstep>
  <scstep>
   <time name="dav">   29.68   29.75</time>
   <time name="total">   30.19   30.27</time>
   <energy>
    <i name="e_fr_energy">   -190.75413482 </i>
    <i name="e_wo_entrp">   -190.55192370 </i>
    <i name="e_0_energy">   -190.65302926 </i>
   </energy>
  </scstep>
  <scstep>
   <time name="dav">   27.70   27.76</time>
   <time name="total">   28.21   28.29</time>
   <energy>
    <i name="e_fr_energy">   -190.74913659 </i>
    <i name="e_wo_entrp">   -190.54713641 </i>
    <i name="e_0_energy">   -190.64813650 </i>
   </energy>
  </scstep>
  <scstep>
   <time name="dav">   26.83   26.89</time>
   <time name="total">   27.34   27.42</time>
   <energy>
    <i name="e_fr_energy">   -190.74949723 </i>
    <i name="e_wo_entrp">   -190.54749055 </i>
    <i name="e_0_energy">   -190.64849389 </i>
   </energy>
  </scstep>
  <scstep>
   <time name="dav">   27.06   27.13</time>
   <time name="total">   27.58   27.65</time>
   <energy>
    <i name="e_fr_energy">   -190.74928535 </i>
    <i name="e_wo_entrp">   -190.54717872 </i>
    <i name="e_0_energy">   -190.64823204 </i>
   </energy>
  </scstep>
  <scstep>
   <time name="dav">   18.65   18.69</time>
   <time name="total">   18.68   18.74</time>
   <energy>
    <i name="alphaZ">     85.84290393 </i>
    <i name="ewald">  42846.27135886 </i>
    <i name="hartreedc"> -48834.01608899 </i>
    <i name="XCdc">   -234.27512583 </i>
    <i name="pawpsdc">   4064.41485985 </i>
    <i name="pawaedc">  -3480.30445290 </i>
    <i name="eentropy">     -0.20222669 </i>
    <i name="bandstr">  -1399.92306120 </i>
    <i name="atom">   6761.44252427 </i>
    <i name="e_fr_energy">   -190.74930869 </i>
    <i name="e_wo_entrp">   -190.54708200 </i>
    <i name="e_0_energy">   -190.64819535 </i>
   </energy>
  </scstep>
  <structure>
   <crystal>
    <varray name="basis" >
     <v>       8.48627416       4.89970288       0.00000000 </v>
     <v>      -8.48474716       4.89708333       0.00000000 </v>
     <v>       0.00000000       0.00000000      30.00000000 </v>
    </varray>
    <i name="volume">   2493.92195664 </i>
    <varray name="rec_basis" >
     <v>       0.05890822       0.10206511       0.00000000 </v>
     <v>      -0.05893973       0.10208348       0.00000000 </v>
     <v>       0.00000000       0.00000000       0.03333333 </v>
    </varray>
   </crystal>
   <varray name="positions" >
    <v>       0.33100038       0.66717704       0.00004128 </v>
    <v>       0.66838920       0.00256323       0.00028688 </v>
    <v>       0.33118640      -0.00009229       0.00004626 </v>
    <v>      -0.00701574       0.66520180      -0.00019561 </v>
    <v>       0.00028676      -0.00344245      -0.00008503 </v>
    <v>       0.67144986       0.33957243       0.00007677 </v>
    <v>       0.99648242       0.33335025       0.00016891 </v>
    <v>       0.33277365       0.32928667      -0.00008755 </v>
    <v>       0.67490025       0.66609852      -0.00019760 </v>
    <v>       0.11149980       0.22341607       0.94968406 </v>
    <v>       0.22569483       0.10909043       0.04986253 </v>
    <v>       0.11584530       0.55722452       0.95064724 </v>
    <v>       0.22418196       0.44847365       0.04920213 </v>
    <v>       0.11703144       0.89152181       0.95030041 </v>
    <v>       0.22753859       0.78044898       0.04791366 </v>
    <v>       0.44120378       0.21696954       0.95057621 </v>
    <v>       0.55278072       0.10549517       0.04769798 </v>
    <v>       0.44242744       0.55791599       0.95128535 </v>
    <v>       0.55468543       0.44509297       0.05082398 </v>
    <v>       0.44426683       0.88899614       0.95328670 </v>
    <v>       0.55350392       0.77971473       0.04744150 </v>
    <v>       0.77576730       0.21702081       0.95031194 </v>
    <v>       0.88388462       0.10940136       0.04945660 </v>
    <v>       0.77709606       0.55619157       0.94804881 </v>
    <v>       0.88977331       0.44395985       0.05122768 </v>
    <v>       0.77383575       0.89028548       0.95063062 </v>
    <v>       0.88774420       0.77728016       0.05154823 </v>
   </varray>
  </structure>
  <varray name="forces" >
   <v>      -0.11492356      -0.13958786       0.03122423 </v>
   <v>      -0.01978250       0.18666910       0.06502958 </v>
   <v>      -0.23097582      -0.07524228       0.02267909 </v>
   <v>      -0.42610705      -0.53230251       0.02382069 </v>
   <v>       0.22637673      -0.06539905      -0.04370003 </v>
   <v>      -0.17304496       0.62377540       0.01468303 </v>
   <v>      -0.19358264      -0.07129345      -0.04480132 </v>
   <v>       0.13143958      -0.23443929      -0.06769524 </v>
   <v>       0.67918463       0.25453114       0.02854597 </v>
   <v>      -0.02421617      -0.04388760      -0.23354363 </v>
   <v>       0.07251088      -0.02942732       0.45503724 </v>
   <v>      -0.06411195       0.00576030      -0.28995325 </v>
   <v>      -0.00645718      -0.00611997       0.26009980 </v>
   <v>       0.08329707      -0.00248800      -0.40598902 </v>
   <v>      -0.06941792      -0.03104418       0.24402215 </v>
   <v>       0.10496399      -0.00069959      -0.27936509 </v>
   <v>      -0.04901672       0.03363019       0.18533415 </v>
   <v>       0.04405168       0.06231094      -0.09815364 </v>
   <v>      -0.01924087       0.03403696       0.34283848 </v>
   <v>      -0.01596325       0.01647672      -0.26278087 </v>
   <v>       0.07209140       0.01985919       0.07568346 </v>
   <v>      -0.03257369      -0.04127820      -0.35293891 </v>
   <v>       0.00568054      -0.02233268       0.32922669 </v>
   <v>       0.02889946       0.01105531      -0.80000199 </v>
   <v>      -0.02948369       0.05005433       0.52035870 </v>
   <v>       0.00649440      -0.03140382      -0.30437269 </v>
   <v>       0.01390761       0.02878622       0.58471242 </v>
  </varray>
  <varray name="stress" >
   <v>      -5.66981522       0.09645019      -0.13902935 </v>
   <v>       0.09645005      -5.73262830       0.10332761 </v>
   <v>      -0.13902953       0.10332756       4.62610795 </v>
  </varray>
  <energy>
   <i name="e_fr_energy">   -190.74930869 </i>
   <i name="e_wo_entrp">   -190.64819535 </i>
   <i name="e_0_energy">     -0.20222669 </i>
  </energy>
  <time name="totalsc">  378.31  379.31</time>
 </calculation>
 <calculation>
  <scstep>
   <time name="dav">   21.71   21.76</time>
   <time name="total">   22.22   22.27</time>
   <energy>
    <i name="alphaZ">     90.09073482 </i>
    <i name="ewald">  44630.62420958 </i>
    <i name="hartreedc"> -50672.42759144 </i>
    <i name="XCdc">   -231.89418088 </i>
    <i name="pawpsdc">   4064.41138843 </i>
    <i name="pawaedc">  -3480.29704272 </i>
    <i name="eentropy">     -0.18676705 </i>
    <i name="bandstr">  -1353.83771125 </i>
    <i name="atom">   6761.44252427 </i>
    <i name="e_fr_energy">   -192.07443624 </i>
    <i name="e_wo_entrp">   -191.88766920 </i>
    <i name="e_0_energy">   -191.98105272 </i>
   </energy>
  </scstep>
  <scstep>
   <time name="dav">   28.62   28.69</time>
   <time name="total">   29.13   29.21</time>
   <energy>
    <i name="e_fr_energy">   -191.85872176 </i>
    <i name="e_wo_entrp">   -191.65847075 </i>
    <i name="e_0_energy">   -191.75859626 </i>
   </energy>
  </scstep>
  <scstep>
   <time name="dav">   29.51   29.58</time>
   <time name="total">   30.01   30.09</time>
   <energy>
    <i name="e_fr_energy">   -192.34449616 </i>
    <i name="e_wo_entrp">   -192.15909901 </i>
    <i name="e_0_energy">   -192.25179758 </i>
   </energy>
  </scstep>
  <scstep>
   <time name="dav">   29.11   29.18</time>
   <time name="total">   29.62   29.70</time>
   <energy>
    <i name="e_fr_energy">   -191.63876437 </i>
    <i name="e_wo_entrp">   -191.44483124 </i>
    <i name="e_0_energy">   -191.54179781 </i>
   </energy>
  </scstep>
  <scstep>
   <time name="dav">   29.69   29.76</time>
   <time name="total">   30.19   30.28</time>
   <energy>
    <i name="e_fr_energy">   -191.59111681 </i>
    <i name="e_wo_entrp">   -191.38869097 </i>
    <i name="e_0_energy">   -191.48990389 </i>
   </energy>
  </scstep>
  <scstep>
   <time name="dav">   30.61   30.68</time>
   <time name="total">   31.12   31.20</time>
   <energy>
    <i name="e_fr_energy">   -191.42374664 </i>
    <i name="e_wo_entrp">   -191.23389160 </i>
    <i name="e_0_energy">   -191.32881912 </i>
   </energy>
  </scstep>
  <scstep>
   <time name="dav">   30.48   30.55</time>
   <time name="total">   30.99   31.07</time>
   <energy>
    <i name="e_fr_energy">   -191.40992360 </i>
    <i name="e_wo_entrp">   -191.20705652 </i>
    <i name="e_0_energy">   -191.30849006 </i>
   </energy>
  </scstep>
  <scstep>
   <time name="dav">   28.54   28.60</time>
   <time name="total">   29.04   29.12</time>
   <energy>
    <i name="e_fr_energy">   -191.39777509 </i>
    <i name="e_wo_entrp">   -191.20367494 </i>
    <i name="e_0_energy">   -191.30072502 </i>
   </energy>
  </scstep>
  <scstep>
   <time name="dav">   29.10   29.17</time>
   <time name="total">   29.61   29.69</time>
   <energy>
    <i name="e_fr_energy">   -191.39210066 </i>
    <i name="e_wo_entrp">   -191.19663323 </i>
    <i name="e_0_energy">   -191.29436695 </i>
   </energy>
  </scstep>
  <scstep>
   <time name="dav">   29.60   29.67</time>
   <time name="total">   30.11   30.19</time>
   <energy>
    <i name="e_fr_energy">   -191.39208940 </i>
    <i name="e_wo_entrp">   -191.19586530 </i>
    <i name="e_0_energy">   -191.29397735 </i>
   </energy>
  </scstep>
  <scstep>
   <time name="dav">   27.47   27.53</time>
   <time name="total">   27.50   27.58</time>
   <energy>
    <i name="alphaZ">     90.09073482 </i>
    <i name="ewald">  44630.62420958 </i>
    <i name="hartreedc"> -50639.33305923 </i>
    <i name="XCdc">   -233.38350543 </i>
    <i name="pawpsdc">   4085.27691314 </i>
    <i name="pawaedc">  -3501.25848928 </i>
    <i name="eentropy">     -0.19630979 </i>
    <i name="bandstr">  -1384.65517056 </i>
    <i name="atom">   6761.44252427 </i>
    <i name="e_fr_energy">   -191.39215249 </i>
    <i name="e_wo_entrp">   -191.19584270 </i>
    <i name="e_0_energy">   -191.29399759 </i>
   </energy>
  </scstep>
  <structure>
   <crystal>
    <varray name="basis" >
     <v>       8.28782787       4.78644945       0.00000000 </v>
     <v>      -8.28115779       4.77492133       0.00000000 </v>
     <v>       0.00000000       0.00000000      30.00000000 </v>
    </varray>
    <i name="volume">   2376.33207649 </i>
    <varray name="rec_basis" >
     <v>       0.06028099       0.10454546       0.00000000 </v>
     <v>      -0.06042652       0.10462967       0.00000000 </v>
     <v>       0.00000000       0.00000000       0.03333333 </v>
    </varray>
   </crystal>
   <varray name="positions" >
    <v>       0.32847522       0.66612010       0.00016353 </v>
    <v>       0.67068398       0.00504662       0.00055821 </v>
    <v>       0.32862501       0.00072379       0.00013685 </v>
    <v>      -0.01661974       0.66168688      -0.00009790 </v>
    <v>       0.00103680      -0.00582077      -0.00027036 </v>
    <v>       0.67777324       0.34841602       0.00015332 </v>
    <v>       0.99431904       0.33379160      -0.00001560 </v>
    <v>       0.33091061       0.32561625      -0.00038075 </v>
    <v>       0.68274754       0.66432231      -0.00007948 </v>
    <v>       0.11075476       0.22297852       0.94818883 </v>
    <v>       0.22593783       0.10782538       0.05222245 </v>
    <v>       0.11599617       0.55810643       0.94897005 </v>
    <v>       0.22437081       0.44899726       0.05075325 </v>
    <v>       0.11806650       0.89120497       0.94815961 </v>
    <v>       0.22713356       0.78078537       0.04933737 </v>
    <v>       0.44178094       0.21573434       0.94892297 </v>
    <v>       0.55258545       0.10573912       0.04888275 </v>
    <v>       0.44316577       0.55862047       0.95037423 </v>
    <v>       0.55503133       0.44557456       0.05279170 </v>
    <v>       0.44437972       0.88931024       0.95185331 </v>
    <v>       0.55392301       0.77973448       0.04819311 </v>
    <v>       0.77464915       0.21622486       0.94835490 </v>
    <v>       0.88314630       0.10866406       0.05129054 </v>
    <v>       0.77751018       0.55604326       0.94429264 </v>
    <v>       0.89009736       0.44486689       0.05388748 </v>
    <v>       0.77338147       0.89031056       0.94887878 </v>
    <v>       0.88835245       0.77759087       0.05447811 </v>
   </varray>
  </structure>
  <varray name="forces" >
   <v>      -0.15093296      -0.07761545       0.00840196 </v>
   <v>      -0.03060977       0.07716757       0.01860160 </v>
   <v>      -0.15212638      -0.11198743      -0.02374597 </v>
   <v>      -0.01405865      -0.12510275       0.01655014 </v>
   <v>       0.13558512       0.08019729       0.01281195 </v>
   <v>       0.00473317       0.27087138      -0.07122677 </v>
   <v>      -0.14756727       0.01798805       0.02336193 </v>
   <v>       0.01774663      -0.28406411      -0.02148728 </v>
   <v>       0.20727151       0.09897683      -0.04463076 </v>
   <v>      -0.01842791      -0.11348701      -0.03378491 </v>
   <v>      -0.01163468      -0.04035383       0.14681183 </v>
   <v>      -0.17611360      -0.07307593      -0.02117513 </v>
   <v>       0.03765831      -0.09607934       0.00112635 </v>
   <v>       0.06166499      -0.17313143      -0.05928573 </v>
   <v>      -0.14933860      -0.18126987       0.00674689 </v>
   <v>       0.08804689       0.12034593       0.05360008 </v>
   <v>      -0.15584770       0.21438688      -0.07516640 </v>
   <v>       0.15689098       0.10010285       0.18831334 </v>
   <v>       0.00912255       0.04335197       0.01506758 </v>
   <v>      -0.03444273       0.01214755      -0.01212213 </v>
   <v>       0.24802045       0.02188171      -0.14180310 </v>
   <v>      -0.11032944       0.03741267      -0.05752671 </v>
   <v>       0.05567091       0.08015366       0.00802103 </v>
   <v>       0.02511677       0.00026672      -0.35981496 </v>
   <v>      -0.05008042       0.07139643       0.17044044 </v>
   <v>       0.13218008      -0.04242531       0.01285353 </v>
   <v>       0.02180172       0.07194496       0.23906121 </v>
  </varray>
  <varray name="stress" >
   <v>      -0.11291466       0.19290496      -0.13154107 </v>
   <v>       0.19290489       0.02578918       0.34655786 </v>
   <v>      -0.13154113       0.34655771      -0.36767233 </v>
  </varray>
  <energy>
   <i name="e_fr_energy">   -191.39215249 </i>
   <i name="e_wo_entrp">   -191.29399759 </i>
   <i name="e_0_energy">     -0.19630979 </i>
  </energy>
  <time name="totalsc">  361.92  362.88</time>
 </calculation>
 <calculation>
  <scstep>
   <time name="dav">   21.69   21.74</time>
   <time name="total">   22.20   22.25</time>
   <energy>
    <i name="alphaZ">     90.14292379 </i>
    <i name="ewald">  44630.93782866 </i>
    <i name="hartreedc"> -50641.25509055 </i>
    <i name="XCdc">   -233.44212887 </i>
    <i name="pawpsdc">   4085.62423086 </i>
    <i name="pawaedc">  -3501.60312845 </i>
    <i name="eentropy">     -0.19928256 </i>
    <i name="bandstr">  -1383.07930093 </i>
    <i name="atom">   6761.44252427 </i>
    <i name="e_fr_energy">   -191.43142378 </i>
    <i name="e_wo_entrp">   -191.23214122 </i>
    <i name="e_0_energy">   -191.33178250 </i>
   </energy>
  </scstep>
  <scstep>
   <time name="dav">   31.41   31.48</time>
   <time name="total">   31.91   31.99</time>
   <energy>
    <i name="e_fr_energy">   -191.47186362 </i>
    <i name="e_wo_entrp">   -191.26326626 </i>
    <i name="e_0_energy">   -191.36756494 </i>
   </energy>
  </scstep>
  <scstep>
   <time name="dav">   30.53   30.61</time>
   <time name="total">   31.04   31.12</time>
   <energy>
    <i name="e_fr_energy">   -191.44313673 </i>
    <i name="e_wo_entrp">   -191.24397851 </i>
    <i name="e_0_energy">   -191.34355762 </i>
   </energy>
  </scstep>
  <scstep>
   <time name="dav">   27.56   27.63</time>
   <time name="total">   28.07   28.14</time>
   <energy>
    <i name="e_fr_energy">   -191.44305748 </i>
    <i name="e_wo_entrp">   -191.24271970 </i>
    <i name="e_0_energy">   -191.34288859 </i>
   </energy>
  </scstep>
  <scstep>
   <time name="dav">   27.55   27.61</time>
   <time name="total">   28.05   28.13</time>
   <energy>
    <i name="e_fr_energy">   -191.44111889 </i>
    <i name="e_wo_entrp">   -191.24018472 </i>
    <i name="e_0_energy">   -191.34065181 </i>
   </energy>
  </scstep>
  <scstep>
   <time name="dav">   28.47   28.54</time>
   <time name="total">   28.98   29.06</time>
   <energy>
    <i name="e_fr_energy">   -191.44106838 </i>
    <i name="e_wo_entrp">   -191.24000446 </i>
    <i name="e_0_energy">   -191.34053642 </i>
   </energy>
  </scstep>
  <scstep>
   <time name="dav">   26.39   26.46</time>
   <time name="total">   26.90   26.97</time>
   <energy>
    <i name="e_fr_energy">   -191.44145398 </i>
    <i name="e_wo_entrp">   -191.24164362 </i>
    <i name="e_0_energy">   -191.34154880 </i>
   </energy>
  </scstep>
  <scstep>
   <time name="dav">   23.37   23.43</time>
   <time name="total">   23.88   23.94</time>
   <energy>
    <i name="e_fr_energy">   -191.44074471 </i>
    <i name="e_wo_entrp">   -191.23997854 </i>
    <i name="e_0_energy">   -191.34036163 </i>
   </energy>
  </scstep>
  <scstep>
   <time name="dav">   16.68   16.72</time>
   <time name="total">   16.72   16.76</time>
   <energy>
    <i name="alphaZ">     90.14292379 </i>
    <i name="ewald">  44630.93782866 </i>
    <i name="hartreedc"> -50641.91045465 </i>
    <i name="XCdc">   -233.44270652 </i>
    <i name="pawpsdc">   4082.40127959 </i>
    <i name="pawaedc">  -3498.33076124 </i>
    <i name="eentropy">     -0.20071902 </i>
    <i name="bandstr">  -1382.48070158 </i>
    <i name="atom">   6761.44252427 </i>
    <i name="e_fr_energy">   -191.44078669 </i>
    <i name="e_wo_entrp">   -191.24006768 </i>
    <i name="e_0_energy">   -191.34042719 </i>
   </energy>
  </scstep>
  <structure>
   <crystal>
    <varray name="basis" >
     <v>       8.28641480       4.79032642       0.00000000 </v>
     <v>      -8.27470345       4.77005795       0.00000000 </v>
     <v>       0.00000000       0.00000000      30.00000000 </v>
    </varray>
    <i name="volume">   2374.95627980 </i>
    <varray name="rec_basis" >
     <v>       0.06025447       0.10452449       0.00000000 </v>
     <v>      -0.06051050       0.10467243       0.00000000 </v>
     <v>       0.00000000       0.00000000       0.03333333 </v>
    </varray>
   </crystal>
   <varray name="positions" >
    <v>       0.32759585       0.66615476       0.00017883 </v>
    <v>       0.67102040       0.00556691       0.00059224 </v>
    <v>       0.32756463       0.00061052       0.00009899 </v>
    <v>      -0.01742637       0.66104001      -0.00006948 </v>
    <v>       0.00186125      -0.00584056      -0.00025173 </v>
    <v>       0.67926033       0.34990822       0.00003749 </v>
    <v>       0.99394714       0.33432853       0.00002040 </v>
    <v>       0.32947800       0.32405479      -0.00041988 </v>
    <v>       0.68397011       0.66419252      -0.00015124 </v>
    <v>       0.11010607       0.22244247       0.94810994 </v>
    <v>       0.22569930       0.10763294       0.05249753 </v>
    <v>       0.11510340       0.55826803       0.94890996 </v>
    <v>       0.22399287       0.44840126       0.05077879 </v>
    <v>       0.11737507       0.89012786       0.94803116 </v>
    <v>       0.22575567       0.78030180       0.04937002 </v>
    <v>       0.44266792       0.21607294       0.94898578 </v>
    <v>       0.55322200       0.10730644       0.04877790 </v>
    <v>       0.44415341       0.55868033       0.95066764 </v>
    <v>       0.55528651       0.44577624       0.05284606 </v>
    <v>       0.44434163       0.88947926       0.95181226 </v>
    <v>       0.55477447       0.77911176       0.04797348 </v>
    <v>       0.77449703       0.21673167       0.94823139 </v>
    <v>       0.88371082       0.10889865       0.05133100 </v>
    <v>       0.77759193       0.55596736       0.94365026 </v>
    <v>       0.89031967       0.44539592       0.05420543 </v>
    <v>       0.77354880       0.88970270       0.94887347 </v>
    <v>       0.88879655       0.77790110       0.05491220 </v>
   </varray>
  </structure>
  <varray name="forces" >
   <v>      -0.18590003      -0.04889268       0.00334885 </v>
   <v>      -0.04191178       0.06479734       0.04107247 </v>
   <v>      -0.13948043      -0.13194501      -0.02535172 </v>
   <v>      -0.05092579      -0.14680190       0.00876282 </v>
   <v>       0.15524136       0.08254816       0.03577195 </v>
   <v>       0.04473445       0.27797606      -0.01877252 </v>
   <v>      -0.17496622       0.00916850       0.03240876 </v>
   <v>       0.01836366      -0.31974865      -0.01825857 </v>
   <v>       0.25014661       0.17197856       0.00667690 </v>
   <v>      -0.02918802      -0.07922349      -0.01588690 </v>
   <v>       0.00356175      -0.03190328       0.12461756 </v>
   <v>      -0.08936590      -0.04519779      -0.02771201 </v>
   <v>       0.02519005      -0.06887771      -0.02045235 </v>
   <v>       0.04289485      -0.09599276      -0.04061755 </v>
   <v>      -0.08792698      -0.09988815       0.01826342 </v>
   <v>       0.05469159       0.06733788       0.07596260 </v>
   <v>      -0.10811657       0.13503738      -0.11459186 </v>
   <v>       0.10444232       0.03986029       0.19615066 </v>
   <v>       0.00818788       0.00875768      -0.08150159 </v>
   <v>      -0.02376637       0.00407707       0.03303855 </v>
   <v>       0.14874323       0.00712460      -0.15292511 </v>
   <v>      -0.05121661       0.03630462      -0.04080318 </v>
   <v>       0.03316675       0.05871789      -0.03705000 </v>
   <v>       0.02080243       0.02742469      -0.20278348 </v>
   <v>      -0.02312587       0.03572936       0.10705155 </v>
   <v>       0.08383758       0.00430991       0.02275988 </v>
   <v>       0.01188606       0.03732142       0.09082087 </v>
  </varray>
  <varray name="stress" >
   <v>      -0.11133227      -0.02344767      -0.10792439 </v>
   <v>      -0.02344778      -0.05601872       0.12851839 </v>
   <v>      -0.10792430       0.12851837      -1.24240243 </v>
  </varray>
  <energy>
   <i name="e_fr_energy">   -191.44078669 </i>
   <i name="e_wo_entrp">   -191.34042719 </i>
   <i name="e_0_energy">     -0.20071902 </i>
  </energy>
  <time name="totalsc">  279.81  280.56</time>
 </calculation>
 <calculation>
  <scstep>
   <time name="dav">   21.72   21.77</time>
   <time name="total">   22.22   22.28</time>
   <energy>
    <i name="alphaZ">     90.24055203 </i>
    <i name="ewald">  44674.27478922 </i>
    <i name="hartreedc"> -50686.33281248 </i>
    <i name="XCdc">   -233.38168890 </i>
    <i name="pawpsdc">   4082.38663146 </i>
    <i name="pawaedc">  -3498.31584755 </i>
    <i name="eentropy">     -0.20346847 </i>
    <i name="bandstr">  -1381.59483530 </i>
    <i name="atom">   6761.44252427 </i>
    <i name="e_fr_energy">   -191.48415571 </i>
    <i name="e_wo_entrp">   -191.28068724 </i>
    <i name="e_0_energy">   -191.38242147 </i>
   </energy>
  </scstep>
  <scstep>
   <time name="dav">   32.56   32.64</time>
   <time name="total">   33.06   33.15</time>
   <energy>
    <i name="e_fr_energy">   -191.53637039 </i>
    <i name="e_wo_entrp">   -191.31901761 </i>
    <i name="e_0_energy">   -191.42769400 </i>
   </energy>
  </scstep>
  <scstep>
   <time name="dav">   30.54   30.62</time>
   <time name="total">   31.08   31.17</time>
   <energy>
    <i name="e_fr_energy">   -191.49423947 </i>
    <i name="e_wo_entrp">   -191.29072396 </i>
    <i name="e_0_energy">   -191.39248171 </i>
   </energy>
  </scstep>
  <scstep>
   <time name="dav">   27.39   27.45</time>
   <time name="total">   27.89   27.97</time>
   <energy>
    <i name="e_fr_energy">   -191.49340295 </i>
    <i name="e_wo_entrp">   -191.28852696 </i>
    <i name="e_0_energy">   -191.39096496 </i>
   </energy>
  </scstep>
  <scstep>
   <time name="dav">   28.04   28.11</time>
   <time name="total">   28.55   28.62</time>
   <energy>
    <i name="e_fr_energy">   -191.49138706 </i>
    <i name="e_wo_entrp">   -191.28560483 </i>
    <i name="e_0_energy">   -191.38849595 </i>
   </energy>
  </scstep>
  <scstep>
   <time name="dav">   28.29   28.36</time>
   <time name="total">   28.80   28.87</time>
   <energy>
    <i name="e_fr_energy">   -191.49097611 </i>
    <i name="e_wo_entrp">   -191.28480605 </i>
    <i name="e_0_energy">   -191.38789108 </i>
   </energy>
  </scstep>
  <scstep>
   <time name="dav">   27.98   28.05</time>
   <time name="total">   28.49   28.57</time>
   <energy>
    <i name="e_fr_energy">   -191.49148093 </i>
    <i name="e_wo_entrp">   -191.28715201 </i>
    <i name="e_0_energy">   -191.38931647 </i>
   </energy>
  </scstep>
  <scstep>
   <time name="dav">   24.55   24.61</time>
   <time name="total">   25.06   25.13</time>
   <energy>
    <i name="e_fr_energy">   -191.49046428 </i>
    <i name="e_wo_entrp">   -191.28471545 </i>
    <i name="e_0_energy">   -191.38758986 </i>
   </energy>
  </scstep>
  <scstep>
   <time name="dav">   16.55   16.59</time>
   <time name="total">   16.60   16.64</time>
   <energy>
    <i name="alphaZ">     90.24055203 </i>
    <i name="ewald">  44674.27478922 </i>
    <i name="hartreedc"> -50686.29889807 </i>
    <i name="XCdc">   -233.38970044 </i>
    <i name="pawpsdc">   4084.79231142 </i>
    <i name="pawaedc">  -3500.75562907 </i>
    <i name="eentropy">     -0.20563299 </i>
    <i name="bandstr">  -1381.59081240 </i>
    <i name="atom">   6761.44252427 </i>
    <i name="e_fr_energy">   -191.49049603 </i>
    <i name="e_wo_entrp">   -191.28486304 </i>
    <i name="e_0_energy">   -191.38767954 </i>
   </energy>
  </scstep>
  <structure>
   <crystal>
    <varray name="basis" >
     <v>       8.28079750       4.78771753       0.00000000 </v>
     <v>      -8.26967515       4.76846517       0.00000000 </v>
     <v>       0.00000000       0.00000000      30.00000000 </v>
    </varray>
    <i name="volume">   2372.38689383 </i>
    <varray name="rec_basis" >
     <v>       0.06029959       0.10457411       0.00000000 </v>
     <v>      -0.06054304       0.10471476       0.00000000 </v>
     <v>       0.00000000       0.00000000       0.03333333 </v>
    </varray>
   </crystal>
   <varray name="positions" >
    <v>       0.32646654       0.66653473       0.00018859 </v>
    <v>       0.67134715       0.00623096       0.00068703 </v>
    <v>       0.32604673       0.00027302       0.00004449 </v>
    <v>      -0.01881183       0.66016238      -0.00004798 </v>
    <v>       0.00306678      -0.00593042      -0.00017691 </v>
    <v>       0.68147499       0.35181808      -0.00000501 </v>
    <v>       0.99327706       0.33510190       0.00008849 </v>
[...]
      <set comment="kpoint 31">
       <r>  -17.4923    1.0000 </r>
       <r>  -17.2707    1.0000 </r>
       <r>  -16.9203    1.0000 </r>
       <r>  -16.6077    1.0000 </r>
       <r>  -16.5149    1.0000 </r>
       <r>  -16.4459    1.0000 </r>
       <r>  -16.2857    1.0000 </r>
       <r>  -16.2258    1.0000 </r>
       <r>  -16.1019    1.0000 </r>
       <r>  -15.9969    1.0000 </r>
       <r>  -15.9429    1.0000 </r>
       <r>  -15.8507    1.0000 </r>
       <r>  -15.7577    1.0000 </r>
       <r>  -15.6891    1.0000 </r>
       <r>  -15.6352    1.0000 </r>
       <r>  -15.5029    1.0000 </r>
       <r>  -15.4660    1.0000 </r>
       <r>  -15.3351    1.0000 </r>
       <r>   -9.7457    1.0000 </r>
       <r>   -9.4644    1.0000 </r>
       <r>   -9.2823    1.0000 </r>
       <r>   -8.9419    1.0000 </r>
       <r>   -8.8322    1.0000 </r>
       <r>   -8.7040    1.0000 </r>
       <r>   -8.6333    1.0000 </r>
       <r>   -8.5549    1.0000 </r>
       <r>   -8.3653    1.0000 </r>
       <r>   -8.3272    1.0000 </r>
       <r>   -8.2676    1.0000 </r>
       <r>   -8.1999    1.0000 </r>
       <r>   -8.0852    1.0000 </r>
       <r>   -8.0379    1.0000 </r>
       <r>   -7.9812    1.0000 </r>
       <r>   -7.8870    1.0000 </r>
       <r>   -7.7979    1.0000 </r>
       <r>   -7.7545    1.0000 </r>
       <r>   -7.5837    1.0000 </r>
       <r>   -7.4897    1.0000 </r>
       <r>   -7.4041    1.0000 </r>
       <r>   -7.2310    1.0000 </r>
       <r>   -7.1419    1.0000 </r>
       <r>   -7.0411    1.0000 </r>
       <r>   -6.9937    1.0000 </r>
       <r>   -6.9132    1.0000 </r>
       <r>   -6.8387    1.0000 </r>
       <r>   -6.8223    1.0000 </r>
       <r>   -6.7442    1.0000 </r>
       <r>   -6.6097    1.0000 </r>
       <r>   -6.5636    1.0000 </r>
       <r>   -6.4723    1.0000 </r>
       <r>   -6.4305    1.0000 </r>
       <r>   -6.3532    1.0000 </r>
       <r>   -6.2954    1.0000 </r>
       <r>   -6.1501    1.0000 </r>
       <r>   -6.0973    1.0000 </r>
       <r>   -6.0523    1.0000 </r>
       <r>   -5.9896    1.0000 </r>
       <r>   -5.9449    1.0000 </r>
       <r>   -5.8203    1.0000 </r>
       <r>   -5.7592    1.0000 </r>
       <r>   -5.6926    1.0000 </r>
       <r>   -5.5870    1.0000 </r>
       <r>   -5.5437    1.0000 </r>
       <r>   -5.4325    1.0000 </r>
       <r>   -5.3563    1.0000 </r>
       <r>   -5.2096    1.0000 </r>
       <r>   -5.0957    1.0000 </r>
       <r>   -4.8686    1.0000 </r>
       <r>   -4.7821    1.0000 </r>
       <r>   -4.7037    1.0000 </r>
       <r>   -4.6173    1.0000 </r>
       <r>   -4.4963    1.0000 </r>
       <r>   -4.3575    1.0000 </r>
       <r>   -4.2681    1.0000 </r>
       <r>   -4.1921    1.0000 </r>
       <r>   -3.9972    1.0000 </r>
       <r>   -3.8483    0.9999 </r>
       <r>   -3.7206    0.9969 </r>
       <r>   -3.3735    0.6128 </r>
       <r>   -3.2514    0.2822 </r>
       <r>   -3.1276    0.0733 </r>
       <r>   -2.9219    0.0018 </r>
       <r>   -2.7745    0.0000 </r>
       <r>   -2.5629    0.0000 </r>
       <r>   -2.4990    0.0000 </r>
       <r>   -2.4448    0.0000 </r>
       <r>   -2.1512    0.0000 </r>
       <r>   -2.0749    0.0000 </r>
       <r>   -1.9875    0.0000 </r>
       <r>   -1.8993    0.0000 </r>
       <r>   -1.8398    0.0000 </r>
       <r>   -1.6465    0.0000 </r>
       <r>   -1.5491    0.0000 </r>
       <r>   -1.3651    0.0000 </r>
       <r>   -1.2559    0.0000 </r>
       <r>   -1.1856    0.0000 </r>
       <r>   -1.1276    0.0000 </r>
       <r>   -1.0978    0.0000 </r>
       <r>   -0.9699    0.0000 </r>
       <r>   -0.8930    0.0000 </r>
       <r>   -0.7637    0.0000 </r>
       <r>   -0.7278    0.0000 </r>
       <r>   -0.6213    0.0000 </r>
       <r>   -0.6073    0.0000 </r>
       <r>   -0.5454    0.0000 </r>
       <r>   -0.3921    0.0000 </r>
       <r>   -0.3250    0.0000 </r>
       <r>   -0.2171    0.0000 </r>
       <r>   -0.0277    0.0000 </r>
       <r>    0.1879    0.0000 </r>
       <r>    0.3403    0.0000 </r>
       <r>    0.6305    0.0000 </r>
       <r>    0.8443    0.0000 </r>
       <r>    0.9479    0.0000 </r>
       <r>    1.1661    0.0000 </r>
       <r>    1.2042    0.0000 </r>
       <r>    1.3311    0.0000 </r>
       <r>    2.1321    0.0000 </r>
       <r>    2.2810    0.0000 </r>
       <r>    2.3912    0.0000 </r>
      </set>
      <set comment="kpoint 32">
       <r>  -17.5042    1.0000 </r>
       <r>  -17.2132    1.0000 </r>
       <r>  -17.0176    1.0000 </r>
       <r>  -16.6133    1.0000 </r>
       <r>  -16.4620    1.0000 </r>
       <r>  -16.3338    1.0000 </r>
       <r>  -16.3072    1.0000 </r>
       <r>  -16.2413    1.0000 </r>
       <r>  -16.1276    1.0000 </r>
       <r>  -16.0392    1.0000 </r>
       <r>  -15.9758    1.0000 </r>
       <r>  -15.8471    1.0000 </r>
       <r>  -15.7517    1.0000 </r>
       <r>  -15.6810    1.0000 </r>
       <r>  -15.6303    1.0000 </r>
       <r>  -15.5046    1.0000 </r>
       <r>  -15.4673    1.0000 </r>
       <r>  -15.3257    1.0000 </r>
       <r>   -9.6704    1.0000 </r>
       <r>   -9.5685    1.0000 </r>
       <r>   -9.3371    1.0000 </r>
       <r>   -8.8797    1.0000 </r>
       <r>   -8.7512    1.0000 </r>
       <r>   -8.6440    1.0000 </r>
       <r>   -8.6285    1.0000 </r>
       <r>   -8.4854    1.0000 </r>
       <r>   -8.4278    1.0000 </r>
       <r>   -8.3236    1.0000 </r>
       <r>   -8.2991    1.0000 </r>
       <r>   -8.2403    1.0000 </r>
       <r>   -8.1494    1.0000 </r>
       <r>   -8.0668    1.0000 </r>
       <r>   -8.0027    1.0000 </r>
       <r>   -7.9074    1.0000 </r>
       <r>   -7.8285    1.0000 </r>
       <r>   -7.7234    1.0000 </r>
       <r>   -7.5806    1.0000 </r>
       <r>   -7.4231    1.0000 </r>
       <r>   -7.3106    1.0000 </r>
       <r>   -7.2754    1.0000 </r>
       <r>   -7.1666    1.0000 </r>
       <r>   -7.1186    1.0000 </r>
       <r>   -6.9698    1.0000 </r>
       <r>   -6.9267    1.0000 </r>
       <r>   -6.8685    1.0000 </r>
       <r>   -6.7752    1.0000 </r>
       <r>   -6.6785    1.0000 </r>
       <r>   -6.6294    1.0000 </r>
       <r>   -6.5466    1.0000 </r>
       <r>   -6.4977    1.0000 </r>
       <r>   -6.4045    1.0000 </r>
       <r>   -6.3805    1.0000 </r>
       <r>   -6.2839    1.0000 </r>
       <r>   -6.2161    1.0000 </r>
       <r>   -6.1085    1.0000 </r>
       <r>   -6.0832    1.0000 </r>
       <r>   -5.9642    1.0000 </r>
       <r>   -5.9188    1.0000 </r>
       <r>   -5.8462    1.0000 </r>
       <r>   -5.7485    1.0000 </r>
       <r>   -5.6785    1.0000 </r>
       <r>   -5.5848    1.0000 </r>
       <r>   -5.4842    1.0000 </r>
       <r>   -5.3954    1.0000 </r>
       <r>   -5.3040    1.0000 </r>
       <r>   -5.2223    1.0000 </r>
       <r>   -5.0443    1.0000 </r>
       <r>   -5.0004    1.0000 </r>
       <r>   -4.8659    1.0000 </r>
       <r>   -4.6735    1.0000 </r>
       <r>   -4.6199    1.0000 </r>
       <r>   -4.5011    1.0000 </r>
       <r>   -4.3814    1.0000 </r>
       <r>   -4.2841    1.0000 </r>
       <r>   -4.1649    1.0000 </r>
       <r>   -3.9622    1.0000 </r>
       <r>   -3.8593    0.9999 </r>
       <r>   -3.6631    0.9902 </r>
       <r>   -3.4682    0.8307 </r>
       <r>   -3.3146    0.4485 </r>
       <r>   -3.0748    0.0340 </r>
       <r>   -2.8797    0.0007 </r>
       <r>   -2.7335    0.0000 </r>
       <r>   -2.5608    0.0000 </r>
       <r>   -2.4608    0.0000 </r>
       <r>   -2.4203    0.0000 </r>
       <r>   -2.1570    0.0000 </r>
       <r>   -2.0754    0.0000 </r>
       <r>   -2.0007    0.0000 </r>
       <r>   -1.9008    0.0000 </r>
       <r>   -1.8518    0.0000 </r>
       <r>   -1.6777    0.0000 </r>
       <r>   -1.5598    0.0000 </r>
       <r>   -1.3610    0.0000 </r>
       <r>   -1.2543    0.0000 </r>
       <r>   -1.1945    0.0000 </r>
       <r>   -1.1368    0.0000 </r>
       <r>   -1.1116    0.0000 </r>
       <r>   -1.0068    0.0000 </r>
       <r>   -0.8932    0.0000 </r>
       <r>   -0.7973    0.0000 </r>
       <r>   -0.7110    0.0000 </r>
       <r>   -0.5847    0.0000 </r>
       <r>   -0.5376    0.0000 </r>
       <r>   -0.4530    0.0000 </r>
       <r>   -0.4104    0.0000 </r>
       <r>   -0.2943    0.0000 </r>
       <r>   -0.2006    0.0000 </r>
       <r>   -0.0076    0.0000 </r>
       <r>    0.1259    0.0000 </r>
       <r>    0.3356    0.0000 </r>
       <r>    0.5744    0.0000 </r>
       <r>    0.7753    0.0000 </r>
       <r>    0.9121    0.0000 </r>
       <r>    1.1356    0.0000 </r>
       <r>    1.2010    0.0000 </r>
       <r>    1.3883    0.0000 </r>
       <r>    2.0975    0.0000 </r>
       <r>    2.2491    0.0000 </r>
       <r>    2.5592    0.0000 </r>
      </set>
      <set comment="kpoint 33">
       <r>  -17.4783    1.0000 </r>
       <r>  -17.3063    1.0000 </r>
       <r>  -16.8967    1.0000 </r>
       <r>  -16.6201    1.0000 </r>
       <r>  -16.5076    1.0000 </r>
       <r>  -16.4033    1.0000 </r>
       <r>  -16.2854    1.0000 </r>
       <r>  -16.2335    1.0000 </r>
       <r>  -16.1107    1.0000 </r>
       <r>  -16.0508    1.0000 </r>
       <r>  -15.9155    1.0000 </r>
       <r>  -15.8401    1.0000 </r>
       <r>  -15.7540    1.0000 </r>
       <r>  -15.6906    1.0000 </r>
       <r>  -15.6369    1.0000 </r>
       <r>  -15.5266    1.0000 </r>
       <r>  -15.4677    1.0000 </r>
       <r>  -15.3205    1.0000 </r>
       <r>   -9.7250    1.0000 </r>
       <r>   -9.4673    1.0000 </r>
       <r>   -9.2739    1.0000 </r>
       <r>   -8.8922    1.0000 </r>
       <r>   -8.8378    1.0000 </r>
       <r>   -8.7279    1.0000 </r>
       <r>   -8.6173    1.0000 </r>
       <r>   -8.5751    1.0000 </r>
       <r>   -8.4412    1.0000 </r>
       <r>   -8.3476    1.0000 </r>
       <r>   -8.2609    1.0000 </r>
       <r>   -8.2034    1.0000 </r>
       <r>   -8.0959    1.0000 </r>
       <r>   -8.0449    1.0000 </r>
       <r>   -7.9798    1.0000 </r>
       <r>   -7.8924    1.0000 </r>
       <r>   -7.7888    1.0000 </r>
       <r>   -7.7252    1.0000 </r>
       <r>   -7.5784    1.0000 </r>
       <r>   -7.4523    1.0000 </r>
       <r>   -7.3409    1.0000 </r>
       <r>   -7.2470    1.0000 </r>
       <r>   -7.1236    1.0000 </r>
       <r>   -7.0609    1.0000 </r>
       <r>   -6.9950    1.0000 </r>
       <r>   -6.9410    1.0000 </r>
       <r>   -6.8489    1.0000 </r>
       <r>   -6.7579    1.0000 </r>
       <r>   -6.6634    1.0000 </r>
       <r>   -6.6203    1.0000 </r>
       <r>   -6.5773    1.0000 </r>
       <r>   -6.4725    1.0000 </r>
       <r>   -6.4474    1.0000 </r>
       <r>   -6.3844    1.0000 </r>
       <r>   -6.2855    1.0000 </r>
       <r>   -6.2313    1.0000 </r>
       <r>   -6.1437    1.0000 </r>
       <r>   -6.0733    1.0000 </r>
       <r>   -5.9729    1.0000 </r>
       <r>   -5.9394    1.0000 </r>
       <r>   -5.8934    1.0000 </r>
       <r>   -5.7884    1.0000 </r>
       <r>   -5.7362    1.0000 </r>
       <r>   -5.6728    1.0000 </r>
       <r>   -5.4568    1.0000 </r>
       <r>   -5.3496    1.0000 </r>
       <r>   -5.2469    1.0000 </r>
       <r>   -5.1682    1.0000 </r>
       <r>   -5.0762    1.0000 </r>
       <r>   -4.9160    1.0000 </r>
       <r>   -4.8864    1.0000 </r>
       <r>   -4.6643    1.0000 </r>
       <r>   -4.6015    1.0000 </r>
       <r>   -4.5108    1.0000 </r>
       <r>   -4.3499    1.0000 </r>
       <r>   -4.2917    1.0000 </r>
       <r>   -4.1485    1.0000 </r>
       <r>   -3.9494    1.0000 </r>
       <r>   -3.8939    1.0000 </r>
       <r>   -3.6215    0.9794 </r>
       <r>   -3.5669    0.9510 </r>
       <r>   -3.4093    0.7056 </r>
       <r>   -3.0082    0.0108 </r>
       <r>   -2.8498    0.0003 </r>
       <r>   -2.6876    0.0000 </r>
       <r>   -2.5818    0.0000 </r>
       <r>   -2.4336    0.0000 </r>
       <r>   -2.3880    0.0000 </r>
       <r>   -2.1581    0.0000 </r>
       <r>   -2.1134    0.0000 </r>
       <r>   -1.9751    0.0000 </r>
       <r>   -1.9218    0.0000 </r>
       <r>   -1.8138    0.0000 </r>
       <r>   -1.6808    0.0000 </r>
       <r>   -1.5575    0.0000 </r>
       <r>   -1.3460    0.0000 </r>
       <r>   -1.2710    0.0000 </r>
       <r>   -1.2282    0.0000 </r>
       <r>   -1.1666    0.0000 </r>
       <r>   -1.1205    0.0000 </r>
       <r>   -1.0452    0.0000 </r>
       <r>   -0.8638    0.0000 </r>
       <r>   -0.7912    0.0000 </r>
       <r>   -0.7105    0.0000 </r>
       <r>   -0.5730    0.0000 </r>
       <r>   -0.5412    0.0000 </r>
       <r>   -0.4194    0.0000 </r>
       <r>   -0.3741    0.0000 </r>
       <r>   -0.3217    0.0000 </r>
       <r>   -0.1119    0.0000 </r>
       <r>   -0.0195    0.0000 </r>
       <r>    0.1413    0.0000 </r>
       <r>    0.3054    0.0000 </r>
       <r>    0.4688    0.0000 </r>
       <r>    0.7385    0.0000 </r>
       <r>    0.8893    0.0000 </r>
       <r>    1.1322    0.0000 </r>
       <r>    1.2109    0.0000 </r>
       <r>    1.4599    0.0000 </r>
       <r>    2.1223    0.0000 </r>
       <r>    2.2825    0.0000 </r>
       <r>    2.3813    0.0000 </r>
      </set>
      <set comment="kpoint 34">
       <r>  -17.4200    1.0000 </r>
       <r>  -17.4001    1.0000 </r>
       <r>  -16.7376    1.0000 </r>
       <r>  -16.6730    1.0000 </r>
       <r>  -16.6088    1.0000 </r>
       <r>  -16.4172    1.0000 </r>
       <r>  -16.2750    1.0000 </r>
       <r>  -16.2344    1.0000 </r>
       <r>  -16.1113    1.0000 </r>
       <r>  -16.0415    1.0000 </r>
       <r>  -15.8500    1.0000 </r>
       <r>  -15.8291    1.0000 </r>
       <r>  -15.7520    1.0000 </r>
       <r>  -15.7250    1.0000 </r>
       <r>  -15.6443    1.0000 </r>
       <r>  -15.5383    1.0000 </r>
       <r>  -15.4682    1.0000 </r>
       <r>  -15.3197    1.0000 </r>
       <r>   -9.7596    1.0000 </r>
       <r>   -9.3563    1.0000 </r>
       <r>   -9.2193    1.0000 </r>
       <r>   -8.9813    1.0000 </r>
       <r>   -8.8703    1.0000 </r>
       <r>   -8.7963    1.0000 </r>
       <r>   -8.6709    1.0000 </r>
       <r>   -8.5684    1.0000 </r>
       <r>   -8.4731    1.0000 </r>
       <r>   -8.3376    1.0000 </r>
       <r>   -8.2383    1.0000 </r>
       <r>   -8.1915    1.0000 </r>
       <r>   -8.0726    1.0000 </r>
       <r>   -8.0001    1.0000 </r>
       <r>   -7.9221    1.0000 </r>
       <r>   -7.8823    1.0000 </r>
       <r>   -7.8140    1.0000 </r>
       <r>   -7.6973    1.0000 </r>
       <r>   -7.5968    1.0000 </r>
       <r>   -7.4280    1.0000 </r>
       <r>   -7.3884    1.0000 </r>
       <r>   -7.2615    1.0000 </r>
       <r>   -7.0734    1.0000 </r>
       <r>   -7.0263    1.0000 </r>
       <r>   -6.9816    1.0000 </r>
       <r>   -6.9627    1.0000 </r>
       <r>   -6.8268    1.0000 </r>
       <r>   -6.7124    1.0000 </r>
       <r>   -6.6842    1.0000 </r>
       <r>   -6.6393    1.0000 </r>
       <r>   -6.6007    1.0000 </r>
       <r>   -6.5170    1.0000 </r>
       <r>   -6.4238    1.0000 </r>
       <r>   -6.4009    1.0000 </r>
       <r>   -6.2965    1.0000 </r>
       <r>   -6.2015    1.0000 </r>
       <r>   -6.1267    1.0000 </r>
       <r>   -6.0703    1.0000 </r>
       <r>   -6.0277    1.0000 </r>
       <r>   -5.9733    1.0000 </r>
       <r>   -5.8927    1.0000 </r>
       <r>   -5.8184    1.0000 </r>
       <r>   -5.7777    1.0000 </r>
       <r>   -5.6699    1.0000 </r>
       <r>   -5.4765    1.0000 </r>
       <r>   -5.3877    1.0000 </r>
       <r>   -5.2697    1.0000 </r>
       <r>   -5.1332    1.0000 </r>
       <r>   -4.9669    1.0000 </r>
       <r>   -4.8690    1.0000 </r>
       <r>   -4.8487    1.0000 </r>
       <r>   -4.7190    1.0000 </r>
       <r>   -4.6155    1.0000 </r>
       <r>   -4.5171    1.0000 </r>
       <r>   -4.3309    1.0000 </r>
       <r>   -4.2587    1.0000 </r>
       <r>   -4.1087    1.0000 </r>
       <r>   -3.9520    1.0000 </r>
       <r>   -3.9318    1.0000 </r>
       <r>   -3.6722    0.9918 </r>
       <r>   -3.5582    0.9444 </r>
       <r>   -3.4545    0.8050 </r>
       <r>   -2.9815    0.0065 </r>
       <r>   -2.8398    0.0002 </r>
       <r>   -2.6606    0.0000 </r>
       <r>   -2.5994    0.0000 </r>
       <r>   -2.4383    0.0000 </r>
       <r>   -2.3638    0.0000 </r>
       <r>   -2.1613    0.0000 </r>
       <r>   -2.1243    0.0000 </r>
       <r>   -1.9730    0.0000 </r>
       <r>   -1.9150    0.0000 </r>
       <r>   -1.7957    0.0000 </r>
       <r>   -1.6765    0.0000 </r>
       <r>   -1.5490    0.0000 </r>
       <r>   -1.3408    0.0000 </r>
       <r>   -1.2810    0.0000 </r>
       <r>   -1.2545    0.0000 </r>
       <r>   -1.1758    0.0000 </r>
       <r>   -1.1182    0.0000 </r>
       <r>   -1.0650    0.0000 </r>
       <r>   -0.8397    0.0000 </r>
       <r>   -0.7912    0.0000 </r>
       <r>   -0.7184    0.0000 </r>
       <r>   -0.5841    0.0000 </r>
       <r>   -0.5351    0.0000 </r>
       <r>   -0.4162    0.0000 </r>
       <r>   -0.3608    0.0000 </r>
       <r>   -0.3431    0.0000 </r>
       <r>   -0.1040    0.0000 </r>
       <r>    0.0656    0.0000 </r>
       <r>    0.1162    0.0000 </r>
       <r>    0.2769    0.0000 </r>
       <r>    0.4227    0.0000 </r>
       <r>    0.7309    0.0000 </r>
       <r>    0.8790    0.0000 </r>
       <r>    1.1365    0.0000 </r>
       <r>    1.2235    0.0000 </r>
       <r>    1.4928    0.0000 </r>
       <r>    2.1829    0.0000 </r>
       <r>    2.2552    0.0000 </r>
       <r>    2.3634    0.0000 </r>
      </set>
     </set>
    </set>
   </array>
  </eigenvalues>
  <separator name="orbital magnetization" >
   <v name="MAGDIPOLOUT">      0.00000000      0.00000000      0.00000000</v>
  </separator>
 </calculation>
 <structure name="finalpos" >
  <crystal>
   <varray name="basis" >
    <v>       8.39078997       4.84740507       0.00000000 </v>
    <v>      -8.36920288       4.81035516       0.00000000 </v>
    <v>       0.00000000       0.00000000      30.00000000 </v>
   </varray>
   <i name="volume">   2427.94788968 </i>
   <varray name="rec_basis" >
    <v>       0.05943729       0.10341082       0.00000000 </v>
    <v>      -0.05989509       0.10367755       0.00000000 </v>
    <v>       0.00000000       0.00000000       0.03333333 </v>
   </varray>
  </crystal>
  <varray name="positions" >
   <v>       0.31680654       0.67806024      -0.00018151 </v>
   <v>       0.64680956       0.01554854       0.00036511 </v>
   <v>       0.31223803      -0.00832134       0.00055831 </v>
   <v>      -0.00731281       0.66038158       0.00018566 </v>
   <v>       0.01875241      -0.01627741      -0.00009651 </v>
   <v>       0.70453935       0.35394280      -0.00069131 </v>
   <v>       0.99130627       0.34799104       0.00035923 </v>
   <v>       0.29378934       0.30165972       0.00168344 </v>
   <v>       0.70555299       0.67152136      -0.00157985 </v>
   <v>       0.09756202       0.21134156       0.94811365 </v>
   <v>       0.22217185       0.10236296       0.05623311 </v>
   <v>       0.11658948       0.55585242       0.94676342 </v>
   <v>       0.22134423       0.44969722       0.05090856 </v>
   <v>       0.11955849       0.88360718       0.94565356 </v>
   <v>       0.22857764       0.78328050       0.05220461 </v>
   <v>       0.44672356       0.22414055       0.95589885 </v>
   <v>       0.55274875       0.11848665       0.04940318 </v>
   <v>       0.44431141       0.55438010       0.95826303 </v>
   <v>       0.55307621       0.44323399       0.04638792 </v>
   <v>       0.43902853       0.89249920       0.95039569 </v>
   <v>       0.55785442       0.77961268       0.04251378 </v>
   <v>       0.77726215       0.21815807       0.94639852 </v>
   <v>       0.88311009       0.10421254       0.04349399 </v>
   <v>       0.78698709       0.55548567       0.94252847 </v>
   <v>       0.89720012       0.45088589       0.05684293 </v>
   <v>       0.77690697       0.89042178       0.95140957 </v>
   <v>       0.89471973       0.77604894       0.05598451 </v>
  </varray>
 </structure>
</modeling>
