       N       E                     dE             d eps       ncg     rms          rms(c)
DAV:   1     0.112444491928E+04    0.11244E+04   -0.35858E+04  8160   0.577E+02
DAV:   2    -0.338479979024E+01   -0.11278E+04   -0.10858E+04 11280   0.173E+02
DAV:   3    -0.199873931072E+03   -0.19649E+03   -0.18903E+03 10880   0.820E+01
DAV:   4    -0.208970996286E+03   -0.90971E+01   -0.88285E+01 12200   0.261E+01
DAV:   5    -0.209292009510E+03   -0.32101E+00   -0.32013E+00 11360   0.354E+00    0.275E+01
DAV:   6    -0.236999153183E+03   -0.27707E+02   -0.11089E+02 12640   0.603E+01    0.595E+01
DAV:   7    -0.196523875308E+03    0.40475E+02   -0.17626E+02 13400   0.152E+02    0.201E+01
DAV:   8    -0.189545207219E+03    0.69787E+01   -0.17404E+01 11960   0.128E+01    0.127E+01
DAV:   9    -0.188239762422E+03    0.13054E+01   -0.36040E+00 12600   0.611E+00    0.930E+00
DAV:  10    -0.187049015907E+03    0.11907E+01   -0.18819E+00 13480   0.761E+00    0.289E+00
DAV:  11    -0.187022734074E+03    0.26282E-01   -0.65318E-01 13600   0.282E+00    0.323E+00
DAV:  12    -0.187177909478E+03   -0.15518E+00   -0.11014E+00 12360   0.545E+00    0.493E+00
DAV:  13    -0.186927609335E+03    0.25030E+00   -0.48457E-01 12880   0.388E+00    0.214E+00
DAV:  14    -0.186878926921E+03    0.48682E-01   -0.10441E-01 13120   0.144E+00    0.823E-01
DAV:  15    -0.186880056938E+03   -0.11300E-02   -0.44885E-02 11760   0.126E+00    0.118E+00
DAV:  16    -0.186870926440E+03    0.91305E-02   -0.21352E-02 12640   0.835E-01    0.547E-01
DAV:  17    -0.186867661378E+03    0.32651E-02   -0.98256E-03 12480   0.519E-01    0.223E-01
DAV:  18    -0.186867112985E+03    0.54839E-03   -0.15490E-03 12560   0.173E-01    0.520E-02
DAV:  19    -0.186867669286E+03   -0.55630E-03   -0.77246E-04 10640   0.691E-02    0.841E-02
DAV:  20    -0.186868007591E+03   -0.33830E-03   -0.40223E-04  8080   0.562E-02    0.553E-02
DAV:  21    -0.186868841471E+03   -0.83388E-03   -0.24115E-04  7520   0.508E-02    0.322E-02
DAV:  22    -0.186869625783E+03   -0.78431E-03   -0.12350E-04  7440   0.352E-02    0.288E-02
DAV:  23    -0.186870868316E+03   -0.12425E-02   -0.13970E-04  7480   0.328E-02    0.746E-03
DAV:  24    -0.186871443171E+03   -0.57485E-03   -0.22456E-05  6760   0.124E-02    0.844E-03
DAV:  25    -0.186871874139E+03   -0.43097E-03   -0.17236E-05  5480   0.151E-02    0.544E-03
DAV:  26    -0.186872069002E+03   -0.19486E-03   -0.82514E-06  6840   0.780E-03    0.164E-03
DAV:  27    -0.186872153392E+03   -0.84390E-04   -0.36341E-06  7080   0.456E-03
   1 F= -.18687215E+03 E0= -.18670001E+03  d E =-.186872E+03
       N       E                     dE             d eps       ncg     rms          rms(c)
DAV:   1    -0.187510807606E+03   -0.63874E+00   -0.27178E+02  8160   0.350E+01    0.468E+00
DAV:   2    -0.189611360461E+03   -0.21006E+01   -0.20492E+01 12240   0.159E+01    0.106E+01
DAV:   3    -0.189328270141E+03    0.28309E+00   -0.54531E+00 12320   0.130E+01    0.606E+00
DAV:   4    -0.188796109897E+03    0.53216E+00   -0.56458E-01 11600   0.433E+00    0.240E+00
DAV:   5    -0.188888789475E+03   -0.92680E-01   -0.48192E-01 12440   0.397E+00    0.491E+00
DAV:   6    -0.188758310532E+03    0.13048E+00   -0.62091E-01 12680   0.389E+00    0.226E+00
DAV:   7    -0.188718620134E+03    0.39690E-01   -0.21316E-01 11440   0.189E+00    0.174E+00
DAV:   8    -0.188711297041E+03    0.73231E-02   -0.11265E-01 12920   0.203E+00    0.185E+00
DAV:   9    -0.188683940472E+03    0.27357E-01   -0.49698E-02 11520   0.124E+00    0.499E-01
DAV:  10    -0.188682115104E+03    0.18254E-02   -0.52308E-03 10920   0.276E-01    0.238E-01
DAV:  11    -0.188681620020E+03    0.49508E-03   -0.26077E-03 12680   0.214E-01    0.134E-01
DAV:  12    -0.188681661452E+03   -0.41432E-04   -0.94335E-04 11160   0.978E-02
   2 F= -.18868166E+03 E0= -.18854149E+03  d E =-.180951E+01
       N       E                     dE             d eps       ncg     rms          rms(c)
DAV:   1    -0.190608993931E+03   -0.19274E+01   -0.31294E+01  9280   0.142E+01    0.445E+00
DAV:   2    -0.190561175489E+03    0.47818E-01   -0.27969E+00 11280   0.950E+00    0.723E+00
DAV:   3    -0.190088096967E+03    0.47308E+00   -0.13282E+00 12280   0.863E+00    0.422E+00
DAV:   4    -0.189877312775E+03    0.21078E+00   -0.72733E-01 12800   0.425E+00    0.247E+00
DAV:   5    -0.189787704591E+03    0.89608E-01   -0.28549E-01 11880   0.191E+00    0.820E-01
DAV:   6    -0.189774137190E+03    0.13567E-01   -0.39064E-02 10560   0.723E-01    0.371E-01
DAV:   7    -0.189774798926E+03   -0.66174E-03   -0.90720E-03 12240   0.505E-01    0.388E-01
DAV:   8    -0.189773703330E+03    0.10956E-02   -0.25829E-03 11760   0.286E-01    0.133E-01
DAV:   9    -0.189774114499E+03   -0.41117E-03   -0.10786E-03 10800   0.149E-01    0.172E-01
DAV:  10    -0.189774204773E+03   -0.90273E-04   -0.12773E-03 11240   0.239E-01    0.204E-01
DAV:  11    -0.189773850720E+03    0.35405E-03   -0.65490E-04  9040   0.168E-01    0.439E-02
DAV:  12    -0.189773846722E+03    0.39978E-05   -0.91470E-05  6200   0.399E-02
   3 F= -.18977385E+03 E0= -.18965528E+03  d E =-.109219E+01
       N       E                     dE             d eps       ncg     rms          rms(c)
DAV:   1    -0.191331984420E+03   -0.15581E+01   -0.75610E+01  8160   0.198E+01    0.460E+00
DAV:   2    -0.191200760420E+03    0.13122E+00   -0.54238E+00 13200   0.807E+00    0.496E+00
DAV:   3    -0.191304224408E+03   -0.10346E+00   -0.16241E+00 11760   0.914E+00    0.712E+00
DAV:   4    -0.190974767551E+03    0.32946E+00   -0.17396E+00 12200   0.818E+00    0.441E+00
DAV:   5    -0.190943573531E+03    0.31194E-01   -0.96099E-01 11200   0.596E+00    0.360E+00
DAV:   6    -0.190760511608E+03    0.18306E+00   -0.22212E-01 11840   0.299E+00    0.680E-01
DAV:   7    -0.190755650800E+03    0.48608E-02   -0.40988E-02 11200   0.730E-01    0.461E-01
DAV:   8    -0.190752796685E+03    0.28541E-02   -0.81083E-03 10240   0.393E-01    0.207E-01
DAV:   9    -0.190753032039E+03   -0.23535E-03   -0.20902E-03 11880   0.305E-01    0.244E-01
DAV:  10    -0.190752945908E+03    0.86131E-04   -0.15377E-03 10400   0.264E-01    0.152E-01
DAV:  11    -0.190752770442E+03    0.17547E-03   -0.82746E-04 10440   0.128E-01    0.519E-02
DAV:  12    -0.190752759952E+03    0.10491E-04   -0.16165E-04  6680   0.492E-02
   4 F= -.19075276E+03 E0= -.19064961E+03  d E =-.978913E+00
       N       E                     dE             d eps       ncg     rms          rms(c)
DAV:   1    -0.192104998785E+03   -0.13522E+01   -0.15868E+02  8160   0.281E+01    0.570E+00
DAV:   2    -0.191924271862E+03    0.18073E+00   -0.95342E+00 11920   0.899E+00    0.489E+00
DAV:   3    -0.192368602957E+03   -0.44433E+00   -0.27008E+00 12240   0.113E+01    0.958E+00
DAV:   4    -0.191589250644E+03    0.77935E+00   -0.26605E+00 12200   0.110E+01    0.330E+00
DAV:   5    -0.191413654936E+03    0.17560E+00   -0.44690E-01 12080   0.294E+00    0.124E+00
DAV:   6    -0.191416118793E+03   -0.24639E-02   -0.16416E-01 12520   0.236E+00    0.180E+00
DAV:   7    -0.191395022262E+03    0.21097E-01   -0.11868E-01 12160   0.217E+00    0.808E-01
DAV:   8    -0.191385601421E+03    0.94208E-02   -0.12294E-02 11600   0.620E-01    0.178E-01
DAV:   9    -0.191386225815E+03   -0.62439E-03   -0.30465E-03 12120   0.219E-01    0.191E-01
DAV:  10    -0.191386238573E+03   -0.12758E-04   -0.21807E-03 11480   0.313E-01    0.213E-01
DAV:  11    -0.191385851378E+03    0.38719E-03   -0.97958E-04 10040   0.218E-01    0.668E-02
DAV:  12    -0.191385807448E+03    0.43930E-04   -0.12960E-04  6160   0.553E-02
   5 F= -.19138581E+03 E0= -.19128471E+03  d E =-.633047E+00
       N       E                     dE             d eps       ncg     rms          rms(c)
DAV:   1    -0.191422665902E+03   -0.36815E-01   -0.27865E+00  8160   0.354E+00    0.461E-01
DAV:   2    -0.191447963549E+03   -0.25298E-01   -0.16771E-01 12680   0.192E+00    0.123E+00
DAV:   3    -0.191432816076E+03    0.15147E-01   -0.41456E-02 12200   0.139E+00    0.367E-01
DAV:   4    -0.191433177950E+03   -0.36187E-03   -0.87654E-03 11000   0.580E-01    0.493E-01
DAV:   5    -0.191431127415E+03    0.20505E-02   -0.53723E-03 10880   0.500E-01    0.199E-01
DAV:   6    -0.191430829227E+03    0.29819E-03   -0.14529E-03 10880   0.183E-01    0.881E-02
DAV:   7    -0.191430707021E+03    0.12221E-03   -0.65944E-04  9760   0.905E-02    0.354E-02
DAV:   8    -0.191430705442E+03    0.15792E-05   -0.10474E-04  6880   0.529E-02
   6 F= -.19143071E+03 E0= -.19132776E+03  d E =-.448980E-01
       N       E                     dE             d eps       ncg     rms          rms(c)
DAV:   1    -0.191477005418E+03   -0.46298E-01   -0.55248E+00  8160   0.498E+00    0.582E-01
DAV:   2    -0.191495731703E+03   -0.18726E-01   -0.17808E-01 13080   0.150E+00    0.102E+00
DAV:   3    -0.191488861066E+03    0.68706E-02   -0.55830E-02 11880   0.154E+00    0.752E-01
DAV:   4    -0.191484653972E+03    0.42071E-02   -0.16305E-02 11760   0.779E-01    0.486E-01
DAV:   5    -0.191483275812E+03    0.13782E-02   -0.83130E-03 11080   0.650E-01    0.361E-01
DAV:   6    -0.191481989449E+03    0.12864E-02   -0.34657E-03 11080   0.358E-01    0.118E-01
DAV:   7    -0.191481888140E+03    0.10131E-03   -0.10872E-03 10200   0.144E-01    0.770E-02
DAV:   8    -0.191481897427E+03   -0.92862E-05   -0.43037E-04  8840   0.141E-01
   7 F= -.19148190E+03 E0= -.19137757E+03  d E =-.511920E-01
       N       E                     dE             d eps       ncg     rms          rms(c)
DAV:   1    -0.191506739923E+03   -0.24852E-01   -0.10527E+00  8160   0.222E+00    0.303E-01
DAV:   2    -0.191510717934E+03   -0.39780E-02   -0.41115E-02 13080   0.854E-01    0.539E-01
DAV:   3    -0.191508151372E+03    0.25666E-02   -0.10405E-02 12240   0.745E-01    0.266E-01
DAV:   4    -0.191507205678E+03    0.94569E-03   -0.22610E-03 11480   0.267E-01    0.115E-01
DAV:   5    -0.191507157584E+03    0.48095E-04   -0.12093E-03  9840   0.173E-01    0.142E-01
DAV:   6    -0.191507146210E+03    0.11374E-04   -0.11678E-03  9000   0.230E-01    0.138E-01
DAV:   7    -0.191506955804E+03    0.19041E-03   -0.36801E-04  7280   0.127E-01    0.275E-02
DAV:   8    -0.191506964836E+03   -0.90318E-05   -0.66306E-05  6040   0.489E-02
   8 F= -.19150696E+03 E0= -.19140235E+03  d E =-.250674E-01
       N       E                     dE             d eps       ncg     rms          rms(c)
DAV:   1    -0.191496158496E+03    0.10797E-01   -0.21336E-01  8160   0.982E-01    0.104E-01
DAV:   2    -0.191496884922E+03   -0.72643E-03   -0.64165E-03 13480   0.292E-01    0.187E-01
DAV:   3    -0.191496557577E+03    0.32735E-03   -0.13816E-03 10200   0.268E-01    0.109E-01
DAV:   4    -0.191496445878E+03    0.11170E-03   -0.32750E-04  7440   0.116E-01    0.563E-02
DAV:   5    -0.191496456072E+03   -0.10194E-04   -0.20483E-04  6280   0.989E-02
   9 F= -.19149646E+03 E0= -.19139203E+03  d E =0.105088E-01
       N       E                     dE             d eps       ncg     rms          rms(c)
DAV:   1    -0.191510073124E+03   -0.13627E-01   -0.40610E-01  8160   0.136E+00    0.145E-01
DAV:   2    -0.191511632650E+03   -0.15595E-02   -0.12330E-02 13600   0.448E-01    0.327E-01
DAV:   3    -0.191510786406E+03    0.84624E-03   -0.37887E-03 11400   0.407E-01    0.172E-01
DAV:   4    -0.191510538141E+03    0.24827E-03   -0.78249E-04  8440   0.165E-01    0.832E-02
DAV:   5    -0.191510533699E+03    0.44426E-05   -0.35413E-04  8000   0.129E-01
  10 F= -.19151053E+03 E0= -.19140625E+03  d E =-.140776E-01
       N       E                     dE             d eps       ncg     rms          rms(c)
DAV:   1    -0.191522234035E+03   -0.11696E-01   -0.34790E-01  8160   0.126E+00    0.177E-01
DAV:   2    -0.191527289525E+03   -0.50555E-02   -0.17961E-02 13320   0.722E-01    0.696E-01
DAV:   3    -0.191522666163E+03    0.46234E-02   -0.85939E-03 11360   0.641E-01    0.115E-01
DAV:   4    -0.191522722879E+03   -0.56716E-04   -0.83737E-04  9800   0.172E-01
  11 F= -.19152272E+03 E0= -.19141865E+03  d E =-.121892E-01
       N       E                     dE             d eps       ncg     rms          rms(c)
DAV:   1    -0.191559276545E+03   -0.36610E-01   -0.20569E+00  8160   0.313E+00    0.387E-01
DAV:   2    -0.191562787625E+03   -0.35111E-02   -0.64931E-02 13600   0.818E-01    0.399E-01
DAV:   3    -0.191563722837E+03   -0.93521E-03   -0.12789E-02 12200   0.824E-01    0.515E-01
DAV:   4    -0.191560798628E+03    0.29242E-02   -0.69325E-03 11920   0.559E-01    0.234E-01
DAV:   5    -0.191561271318E+03   -0.47269E-03   -0.39569E-03 11360   0.424E-01    0.344E-01
DAV:   6    -0.191560241261E+03    0.10301E-02   -0.25912E-03 10880   0.349E-01    0.946E-02
DAV:   7    -0.191560131144E+03    0.11012E-03   -0.36770E-04  7960   0.100E-01    0.475E-02
DAV:   8    -0.191560128293E+03    0.28509E-05   -0.15380E-04  7280   0.845E-02
  12 F= -.19156013E+03 E0= -.19145669E+03  d E =-.374054E-01
       N       E                     dE             d eps       ncg     rms          rms(c)
DAV:   1    -0.191569147152E+03   -0.90160E-02   -0.14874E-01  8160   0.830E-01    0.933E-02
DAV:   2    -0.191569694415E+03   -0.54726E-03   -0.44587E-03 13480   0.257E-01    0.197E-01
DAV:   3    -0.191569364768E+03    0.32965E-03   -0.11326E-03 10120   0.235E-01    0.936E-02
DAV:   4    -0.191569354591E+03    0.10176E-04   -0.32156E-04  7440   0.120E-01
  13 F= -.19156935E+03 E0= -.19146640E+03  d E =-.922630E-02
       N       E                     dE             d eps       ncg     rms          rms(c)
DAV:   1    -0.191593160894E+03   -0.23796E-01   -0.13563E+00  8160   0.250E+00    0.301E-01
DAV:   2    -0.191598264537E+03   -0.51036E-02   -0.44709E-02 12760   0.770E-01    0.607E-01
DAV:   3    -0.191595531353E+03    0.27332E-02   -0.14980E-02 11200   0.814E-01    0.363E-01
DAV:   4    -0.191594490083E+03    0.10413E-02   -0.37595E-03 10960   0.372E-01    0.211E-01
DAV:   5    -0.191594244345E+03    0.24574E-03   -0.20461E-03  9840   0.325E-01    0.175E-01
DAV:   6    -0.191593996952E+03    0.24739E-03   -0.12114E-03  9920   0.207E-01    0.988E-02
DAV:   7    -0.191594069574E+03   -0.72621E-04   -0.73427E-04  8640   0.185E-01
  14 F= -.19159407E+03 E0= -.19149250E+03  d E =-.247150E-01
       N       E                     dE             d eps       ncg     rms          rms(c)
DAV:   1    -0.191620635881E+03   -0.26639E-01   -0.10179E+00  8160   0.223E+00    0.311E-01
DAV:   2    -0.191621837372E+03   -0.12015E-02   -0.31803E-02 13600   0.594E-01    0.403E-01
DAV:   3    -0.191622273779E+03   -0.43641E-03   -0.12549E-02 12240   0.748E-01    0.497E-01
DAV:   4    -0.191619730383E+03    0.25434E-02   -0.53620E-03 11080   0.476E-01    0.122E-01
DAV:   5    -0.191619803160E+03   -0.72778E-04   -0.16161E-03 11120   0.222E-01    0.193E-01
DAV:   6    -0.191619523911E+03    0.27925E-03   -0.12357E-03  9560   0.247E-01    0.104E-01
DAV:   7    -0.191619416363E+03    0.10755E-03   -0.23186E-04  5800   0.998E-02    0.236E-02
DAV:   8    -0.191619410359E+03    0.60034E-05   -0.48496E-05  6760   0.349E-02
  15 F= -.19161941E+03 E0= -.19151929E+03  d E =-.253408E-01
       N       E                     dE             d eps       ncg     rms          rms(c)
DAV:   1    -0.191671173817E+03   -0.51757E-01   -0.33965E+00  8160   0.397E+00    0.409E-01
DAV:   2    -0.191677141280E+03   -0.59675E-02   -0.94953E-02 12680   0.885E-01    0.364E-01
DAV:   3    -0.191680146025E+03   -0.30047E-02   -0.14255E-02 11320   0.875E-01    0.658E-01
DAV:   4    -0.191675463249E+03    0.46828E-02   -0.72780E-03 11000   0.648E-01    0.209E-01
DAV:   5    -0.191676009973E+03   -0.54672E-03   -0.32619E-03 10040   0.421E-01    0.307E-01
DAV:   6    -0.191675169332E+03    0.84064E-03   -0.25945E-03 10800   0.341E-01    0.113E-01
DAV:   7    -0.191675073260E+03    0.96072E-04   -0.67304E-04  8440   0.170E-01
  16 F= -.19167507E+03 E0= -.19157866E+03  d E =-.556629E-01
       N       E                     dE             d eps       ncg     rms          rms(c)
DAV:   1    -0.191557849405E+03    0.11732E+00   -0.12347E+01  8160   0.754E+00    0.763E-01
DAV:   2    -0.191583686134E+03   -0.25837E-01   -0.35006E-01 12480   0.170E+00    0.900E-01
DAV:   3    -0.191593112129E+03   -0.94260E-02   -0.65579E-02 12160   0.181E+00    0.135E+00
DAV:   4    -0.191574032842E+03    0.19079E-01   -0.26245E-02 12080   0.112E+00    0.219E-01
DAV:   5    -0.191574656405E+03   -0.62356E-03   -0.58151E-03 12040   0.321E-01    0.268E-01
DAV:   6    -0.191574229894E+03    0.42651E-03   -0.48843E-03 12480   0.454E-01    0.288E-01
DAV:   7    -0.191573371519E+03    0.85838E-03   -0.18932E-03  9800   0.282E-01    0.638E-02
DAV:   8    -0.191573425898E+03   -0.54379E-04   -0.37662E-04  8440   0.122E-01
  17 F= -.19157343E+03 E0= -.19147098E+03  d E =0.101647E+00
       N       E                     dE             d eps       ncg     rms          rms(c)
DAV:   1    -0.191498464999E+03    0.74907E-01   -0.11608E+01  8160   0.729E+00    0.759E-01
DAV:   2    -0.191518354548E+03   -0.19890E-01   -0.28339E-01 13080   0.160E+00    0.942E-01
DAV:   3    -0.191523507022E+03   -0.51525E-02   -0.59616E-02 12080   0.174E+00    0.125E+00
DAV:   4    -0.191509344580E+03    0.14162E-01   -0.29984E-02 12120   0.115E+00    0.454E-01
DAV:   5    -0.191509621496E+03   -0.27692E-03   -0.13277E-02 11360   0.797E-01    0.493E-01
DAV:   6    -0.191507403006E+03    0.22185E-02   -0.74787E-03 11880   0.542E-01    0.168E-01
DAV:   7    -0.191506855145E+03    0.54786E-03   -0.13909E-03 10520   0.165E-01    0.643E-02
DAV:   8    -0.191506896742E+03   -0.41597E-04   -0.40577E-04  9360   0.124E-01
  18 F= -.19150690E+03 E0= -.19140189E+03  d E =0.665292E-01
       N       E                     dE             d eps       ncg     rms          rms(c)
DAV:   1    -0.191499642987E+03    0.72122E-02   -0.12421E+00  8160   0.238E+00    0.253E-01
DAV:   2    -0.191501382054E+03   -0.17391E-02   -0.28148E-02 13240   0.563E-01    0.334E-01
DAV:   3    -0.191501633037E+03   -0.25098E-03   -0.73681E-03 12240   0.570E-01    0.379E-01
DAV:   4    -0.191500315727E+03    0.13173E-02   -0.32912E-03  9880   0.378E-01    0.155E-01
DAV:   5    -0.191500424637E+03   -0.10891E-03   -0.15453E-03  9600   0.290E-01    0.195E-01
DAV:   6    -0.191500086769E+03    0.33787E-03   -0.99682E-04  9520   0.217E-01    0.771E-02
DAV:   7    -0.191500054567E+03    0.32202E-04   -0.28480E-04  6800   0.110E-01
  19 F= -.19150005E+03 E0= -.19139445E+03  d E =0.684217E-02
       N       E                     dE             d eps       ncg     rms          rms(c)
DAV:   1    -0.191524994365E+03   -0.24908E-01   -0.17188E+00  8160   0.279E+00    0.292E-01
DAV:   2    -0.191529566194E+03   -0.45718E-02   -0.59543E-02 12160   0.707E-01    0.338E-01
DAV:   3    -0.191530833964E+03   -0.12678E-02   -0.11110E-02 11920   0.680E-01    0.524E-01
DAV:   4    -0.191528317732E+03    0.25162E-02   -0.54282E-03 10760   0.484E-01    0.142E-01
DAV:   5    -0.191528292640E+03    0.25092E-04   -0.11252E-03 10080   0.218E-01    0.156E-01
DAV:   6    -0.191528232646E+03    0.59995E-04   -0.10539E-03 10680   0.240E-01    0.121E-01
DAV:   7    -0.191528060871E+03    0.17177E-03   -0.41475E-04  8400   0.130E-01    0.604E-02
DAV:   8    -0.191528032573E+03    0.28298E-04   -0.11951E-04  5760   0.764E-02
  20 F= -.19152803E+03 E0= -.19142240E+03  d E =-.279780E-01
       N       E                     dE             d eps       ncg     rms          rms(c)
DAV:   1    -0.191533500302E+03   -0.54394E-02   -0.71423E-02  8160   0.587E-01    0.846E-02
DAV:   2    -0.191533712843E+03   -0.21254E-03   -0.28516E-03 12880   0.207E-01    0.138E-01
DAV:   3    -0.191533612736E+03    0.10011E-03   -0.76064E-04  9240   0.204E-01    0.107E-01
DAV:   4    -0.191533534771E+03    0.77965E-04   -0.34155E-04  7560   0.128E-01
  21 F= -.19153353E+03 E0= -.19142803E+03  d E =-.550220E-02
       N       E                     dE             d eps       ncg     rms          rms(c)
DAV:   1    -0.191567051391E+03   -0.33439E-01   -0.24786E+00  8160   0.342E+00    0.433E-01
DAV:   2    -0.191572287097E+03   -0.52357E-02   -0.85821E-02 12480   0.963E-01    0.556E-01
DAV:   3    -0.191573355435E+03   -0.10683E-02   -0.19948E-02 12280   0.102E+00    0.678E-01
DAV:   4    -0.191569095674E+03    0.42598E-02   -0.94759E-03 12360   0.674E-01    0.279E-01
DAV:   5    -0.191569019608E+03    0.76067E-04   -0.45399E-03 10560   0.470E-01    0.293E-01
DAV:   6    -0.191568127436E+03    0.89217E-03   -0.28893E-03 11120   0.330E-01    0.891E-02
DAV:   7    -0.191568013830E+03    0.11361E-03   -0.47075E-04  9240   0.971E-02    0.447E-02
DAV:   8    -0.191568015793E+03   -0.19623E-05   -0.16821E-04  7480   0.878E-02
  22 F= -.19156802E+03 E0= -.19146288E+03  d E =-.344810E-01
       N       E                     dE             d eps       ncg     rms          rms(c)
DAV:   1    -0.191582040143E+03   -0.14026E-01   -0.40886E-01  8160   0.137E+00    0.163E-01
DAV:   2    -0.191583681680E+03   -0.16415E-02   -0.15300E-02 12640   0.487E-01    0.316E-01
DAV:   3    -0.191582796678E+03    0.88500E-03   -0.33614E-03 11720   0.397E-01    0.146E-01
DAV:   4    -0.191582799029E+03   -0.23512E-05   -0.10348E-03  9360   0.217E-01    0.165E-01
DAV:   5    -0.191582572584E+03    0.22644E-03   -0.62786E-04  8160   0.196E-01    0.815E-02
DAV:   6    -0.191582547012E+03    0.25572E-04   -0.22081E-04  6800   0.839E-02
  23 F= -.19158255E+03 E0= -.19147801E+03  d E =-.145312E-01
       N       E                     dE             d eps       ncg     rms          rms(c)
DAV:   1    -0.191605248945E+03   -0.22676E-01   -0.10689E+00  8160   0.222E+00    0.239E-01
DAV:   2    -0.191607732023E+03   -0.24831E-02   -0.32757E-02 12560   0.547E-01    0.303E-01
DAV:   3    -0.191607924530E+03   -0.19251E-03   -0.66891E-03 11520   0.555E-01    0.351E-01
DAV:   4    -0.191606856240E+03    0.10683E-02   -0.28428E-03  9960   0.364E-01    0.167E-01
DAV:   5    -0.191606714409E+03    0.14183E-03   -0.10058E-03  9560   0.243E-01    0.134E-01
DAV:   6    -0.191606619621E+03    0.94788E-04   -0.52050E-04  9560   0.150E-01
  24 F= -.19160662E+03 E0= -.19150322E+03  d E =-.240726E-01
       N       E                     dE             d eps       ncg     rms          rms(c)
DAV:   1    -0.191585739871E+03    0.20975E-01   -0.75557E-01  8160   0.187E+00    0.203E-01
DAV:   2    -0.191587368697E+03   -0.16288E-02   -0.22217E-02 12560   0.445E-01    0.260E-01
DAV:   3    -0.191587595016E+03   -0.22632E-03   -0.55357E-03 12240   0.488E-01    0.315E-01
DAV:   4    -0.191586607571E+03    0.98745E-03   -0.22380E-03  9560   0.305E-01    0.104E-01
DAV:   5    -0.191586626291E+03   -0.18720E-04   -0.68230E-04  8280   0.189E-01
  25 F= -.19158663E+03 E0= -.19148198E+03  d E =0.199933E-01
       N       E                     dE             d eps       ncg     rms          rms(c)
DAV:   1    -0.191505063644E+03    0.81544E-01   -0.12150E+01  8160   0.751E+00    0.810E-01
DAV:   2    -0.191530908252E+03   -0.25845E-01   -0.36434E-01 13200   0.184E+00    0.897E-01
DAV:   3    -0.191536649955E+03   -0.57417E-02   -0.68738E-02 11840   0.183E+00    0.116E+00
DAV:   4    -0.191523080670E+03    0.13569E-01   -0.32142E-02 12200   0.122E+00    0.543E-01
DAV:   5    -0.191522157171E+03    0.92350E-03   -0.13518E-02 10400   0.823E-01    0.510E-01
DAV:   6    -0.191520621887E+03    0.15353E-02   -0.78838E-03 12200   0.544E-01    0.231E-01
DAV:   7    -0.191519530854E+03    0.10910E-02   -0.19814E-03 10840   0.202E-01    0.835E-02
DAV:   8    -0.191519589002E+03   -0.58148E-04   -0.54164E-04  9280   0.148E-01
  26 F= -.19151959E+03 E0= -.19141306E+03  d E =0.670373E-01
       N       E                     dE             d eps       ncg     rms          rms(c)
DAV:   1    -0.191524987946E+03   -0.54571E-02   -0.68938E-01  8160   0.179E+00    0.194E-01
DAV:   2    -0.191526854607E+03   -0.18667E-02   -0.19733E-02 13080   0.500E-01    0.333E-01
DAV:   3    -0.191526325835E+03    0.52877E-03   -0.48146E-03 11400   0.469E-01    0.255E-01
DAV:   4    -0.191525776431E+03    0.54940E-03   -0.15591E-03  9560   0.248E-01    0.102E-01
DAV:   5    -0.191525718001E+03    0.58429E-04   -0.61781E-04  9400   0.155E-01
  27 F= -.19152572E+03 E0= -.19141885E+03  d E =-.612900E-02
       N       E                     dE             d eps       ncg     rms          rms(c)
DAV:   1    -0.191542467928E+03   -0.16691E-01   -0.13713E+00  8160   0.252E+00    0.299E-01
DAV:   2    -0.191546645019E+03   -0.41771E-02   -0.42580E-02 13560   0.752E-01    0.482E-01
DAV:   3    -0.191544915992E+03    0.17290E-02   -0.99607E-03 12240   0.728E-01    0.330E-01
DAV:   4    -0.191543997434E+03    0.91856E-03   -0.30503E-03 11080   0.367E-01    0.199E-01
DAV:   5    -0.191543891110E+03    0.10632E-03   -0.20389E-03 10280   0.307E-01    0.211E-01
DAV:   6    -0.191543506716E+03    0.38439E-03   -0.12684E-03  9720   0.225E-01    0.718E-02
DAV:   7    -0.191543447003E+03    0.59713E-04   -0.20110E-04  6200   0.670E-02
  28 F= -.19154345E+03 E0= -.19143686E+03  d E =-.177290E-01
       N       E                     dE             d eps       ncg     rms          rms(c)
DAV:   1    -0.191562010314E+03   -0.18504E-01   -0.11274E+00  8160   0.226E+00    0.245E-01
DAV:   2    -0.191565014204E+03   -0.30039E-02   -0.36625E-02 12080   0.609E-01    0.367E-01
DAV:   3    -0.191564945244E+03    0.68960E-04   -0.79683E-03 12400   0.600E-01    0.359E-01
DAV:   4    -0.191563574063E+03    0.13712E-02   -0.22588E-03  9960   0.312E-01    0.757E-02
DAV:   5    -0.191563644799E+03   -0.70736E-04   -0.57348E-04 10240   0.113E-01
  29 F= -.19156364E+03 E0= -.19145732E+03  d E =-.201978E-01
       N       E                     dE             d eps       ncg     rms          rms(c)
DAV:   1    -0.191595026670E+03   -0.31453E-01   -0.38579E+00  8160   0.421E+00    0.457E-01
DAV:   2    -0.191604841654E+03   -0.98150E-02   -0.12306E-01 12320   0.106E+00    0.623E-01
DAV:   3    -0.191604225005E+03    0.61665E-03   -0.25160E-02 12320   0.108E+00    0.605E-01
DAV:   4    -0.191600973587E+03    0.32514E-02   -0.92440E-03 11880   0.649E-01    0.332E-01
DAV:   5    -0.191600288665E+03    0.68492E-03   -0.38022E-03 10120   0.456E-01    0.221E-01
DAV:   6    -0.191599825233E+03    0.46343E-03   -0.14103E-03 11920   0.198E-01    0.574E-02
DAV:   7    -0.191599764327E+03    0.60906E-04   -0.21407E-04  6600   0.709E-02
  30 F= -.19159976E+03 E0= -.19149411E+03  d E =-.361195E-01
       N       E                     dE             d eps       ncg     rms          rms(c)
DAV:   1    -0.191605753405E+03   -0.59282E-02   -0.11858E-01  8160   0.751E-01    0.105E-01
DAV:   2    -0.191606632733E+03   -0.87933E-03   -0.53157E-03 13400   0.326E-01    0.275E-01
DAV:   3    -0.191605915513E+03    0.71722E-03   -0.21603E-03 10120   0.317E-01    0.976E-02
DAV:   4    -0.191605838153E+03    0.77359E-04   -0.24275E-04  6440   0.912E-02
  31 F= -.19160584E+03 E0= -.19150044E+03  d E =-.607383E-02
       N       E                     dE             d eps       ncg     rms          rms(c)
DAV:   1    -0.191592404978E+03    0.13511E-01   -0.23323E+00  8160   0.331E+00    0.405E-01
DAV:   2    -0.191599630724E+03   -0.72257E-02   -0.57512E-02 13240   0.102E+00    0.803E-01
DAV:   3    -0.191594938484E+03    0.46922E-02   -0.21741E-02 12240   0.107E+00    0.491E-01
DAV:   4    -0.191592984451E+03    0.19540E-02   -0.62004E-03 11280   0.499E-01    0.233E-01
DAV:   5    -0.191592762694E+03    0.22176E-03   -0.34667E-03 10960   0.406E-01    0.255E-01
DAV:   6    -0.191592146225E+03    0.61647E-03   -0.21528E-03 10440   0.328E-01    0.100E-01
DAV:   7    -0.191592025362E+03    0.12086E-03   -0.41193E-04  8760   0.109E-01    0.332E-02
DAV:   8    -0.191592046741E+03   -0.21379E-04   -0.13190E-04  7000   0.770E-02
  32 F= -.19159205E+03 E0= -.19148592E+03  d E =0.137914E-01
       N       E                     dE             d eps       ncg     rms          rms(c)
DAV:   1    -0.191588816793E+03    0.32086E-02   -0.20555E-01  8160   0.983E-01    0.116E-01
DAV:   2    -0.191589275121E+03   -0.45833E-03   -0.49036E-03 13280   0.271E-01    0.184E-01
DAV:   3    -0.191589029320E+03    0.24580E-03   -0.13240E-03 11000   0.267E-01    0.126E-01
DAV:   4    -0.191588957435E+03    0.71885E-04   -0.49650E-04  8440   0.156E-01
  33 F= -.19158896E+03 E0= -.19148254E+03  d E =0.308931E-02
       N       E                     dE             d eps       ncg     rms          rms(c)
DAV:   1    -0.191594331051E+03   -0.53017E-02   -0.19525E+00  8160   0.304E+00    0.374E-01
DAV:   2    -0.191599328946E+03   -0.49979E-02   -0.56716E-02 13320   0.812E-01    0.560E-01
DAV:   3    -0.191597970765E+03    0.13582E-02   -0.15368E-02 12080   0.893E-01    0.511E-01
DAV:   4    -0.191595920752E+03    0.20500E-02   -0.62431E-03 11920   0.542E-01    0.241E-01
DAV:   5    -0.191595575997E+03    0.34476E-03   -0.31912E-03 10400   0.380E-01    0.243E-01
DAV:   6    -0.191595036621E+03    0.53938E-03   -0.19994E-03 10520   0.316E-01    0.101E-01
DAV:   7    -0.191594929480E+03    0.10714E-03   -0.28733E-04  8080   0.102E-01    0.413E-02
DAV:   8    -0.191594924142E+03    0.53385E-05   -0.98967E-05  7440   0.699E-02
  34 F= -.19159492E+03 E0= -.19148807E+03  d E =-.596671E-02
       N       E                     dE             d eps       ncg     rms          rms(c)
DAV:   1    -0.191604559381E+03   -0.96299E-02   -0.11892E+00  8160   0.235E+00    0.266E-01
DAV:   2    -0.191609215856E+03   -0.46565E-02   -0.39581E-02 12560   0.741E-01    0.532E-01
DAV:   3    -0.191607096658E+03    0.21192E-02   -0.90691E-03 12240   0.703E-01    0.298E-01
DAV:   4    -0.191606308754E+03    0.78790E-03   -0.20481E-03 11080   0.290E-01    0.116E-01
DAV:   5    -0.191606129972E+03    0.17878E-03   -0.73667E-04 11160   0.144E-01    0.915E-02
DAV:   6    -0.191606273320E+03   -0.14335E-03   -0.73426E-04  9240   0.206E-01    0.134E-01
DAV:   7    -0.191606036815E+03    0.23650E-03   -0.36356E-04  8160   0.140E-01    0.140E-02
DAV:   8    -0.191606047713E+03   -0.10898E-04   -0.42287E-05  5680   0.305E-02
  35 F= -.19160605E+03 E0= -.19149913E+03  d E =-.111236E-01
       N       E                     dE             d eps       ncg     rms          rms(c)
DAV:   1    -0.191613781173E+03   -0.77444E-02   -0.55584E-01  8160   0.161E+00    0.218E-01
DAV:   2    -0.191616674866E+03   -0.28937E-02   -0.23012E-02 12760   0.671E-01    0.491E-01
DAV:   3    -0.191614668387E+03    0.20065E-02   -0.60527E-03 12320   0.590E-01    0.207E-01
DAV:   4    -0.191614265694E+03    0.40269E-03   -0.12459E-03 10080   0.232E-01    0.118E-01
DAV:   5    -0.191614255278E+03    0.10416E-04   -0.90650E-04  9760   0.220E-01
  36 F= -.19161426E+03 E0= -.19150678E+03  d E =-.820757E-02
       N       E                     dE             d eps       ncg     rms          rms(c)
DAV:   1    -0.191621601611E+03   -0.73359E-02   -0.65030E-01  8160   0.173E+00    0.255E-01
DAV:   2    -0.191625526787E+03   -0.39252E-02   -0.27351E-02 12960   0.811E-01    0.607E-01
DAV:   3    -0.191622233083E+03    0.32937E-02   -0.80369E-03 12280   0.689E-01    0.209E-01
DAV:   4    -0.191622012036E+03    0.22105E-03   -0.16868E-03 10040   0.290E-01    0.191E-01
DAV:   5    -0.191621707742E+03    0.30429E-03   -0.13294E-03 10160   0.276E-01    0.113E-01
DAV:   6    -0.191621555139E+03    0.15260E-03   -0.52536E-04  8320   0.128E-01    0.278E-02
DAV:   7    -0.191621544904E+03    0.10236E-04   -0.76008E-05  6760   0.394E-02
  37 F= -.19162154E+03 E0= -.19151412E+03  d E =-.728963E-02
       N       E                     dE             d eps       ncg     rms          rms(c)
DAV:   1    -0.191625997856E+03   -0.44427E-02   -0.26168E-01  8160   0.109E+00    0.131E-01
DAV:   2    -0.191627058835E+03   -0.10610E-02   -0.10024E-02 11520   0.388E-01    0.249E-01
DAV:   3    -0.191626608886E+03    0.44995E-03   -0.22034E-03 12000   0.345E-01    0.147E-01
DAV:   4    -0.191626421220E+03    0.18767E-03   -0.49871E-04  8160   0.162E-01    0.708E-02
DAV:   5    -0.191626435590E+03   -0.14370E-04   -0.30713E-04  8160   0.136E-01
  38 F= -.19162644E+03 E0= -.19151954E+03  d E =-.489069E-02
       N       E                     dE             d eps       ncg     rms          rms(c)
DAV:   1    -0.191634634899E+03   -0.82137E-02   -0.14697E+00  8160   0.257E+00    0.291E-01
DAV:   2    -0.191637811811E+03   -0.31769E-02   -0.44960E-02 12240   0.655E-01    0.353E-01
DAV:   3    -0.191638474279E+03   -0.66247E-03   -0.80471E-03 12240   0.692E-01    0.457E-01
DAV:   4    -0.191636335454E+03    0.21388E-02   -0.32870E-03 11320   0.441E-01    0.104E-01
DAV:   5    -0.191636327219E+03    0.82354E-05   -0.90899E-04 10040   0.151E-01
  39 F= -.19163633E+03 E0= -.19153062E+03  d E =-.989163E-02
       N       E                     dE             d eps       ncg     rms          rms(c)
DAV:   1    -0.191637984188E+03   -0.16487E-02   -0.38569E-02  8160   0.516E-01    0.116E-01
DAV:   2    -0.191639219256E+03   -0.12351E-02   -0.43429E-03 13160   0.422E-01    0.330E-01
DAV:   3    -0.191637795828E+03    0.14234E-02   -0.25563E-03 10400   0.386E-01    0.713E-02
DAV:   4    -0.191637819156E+03   -0.23328E-04   -0.29575E-04  8320   0.101E-01
  40 F= -.19163782E+03 E0= -.19153177E+03  d E =-.149194E-02
       N       E                     dE             d eps       ncg     rms          rms(c)
DAV:   1    -0.191640693829E+03   -0.28980E-02   -0.17454E-01  8160   0.899E-01    0.128E-01
DAV:   2    -0.191642748126E+03   -0.20543E-02   -0.92536E-03 13440   0.486E-01    0.417E-01
DAV:   3    -0.191640971134E+03    0.17770E-02   -0.37707E-03 11080   0.437E-01    0.802E-02
DAV:   4    -0.191640932110E+03    0.39024E-04   -0.18178E-04  5560   0.789E-02
  41 F= -.19164093E+03 E0= -.19153558E+03  d E =-.311295E-02
       N       E                     dE             d eps       ncg     rms          rms(c)
DAV:   1    -0.191647313023E+03   -0.63419E-02   -0.58568E-01  8160   0.163E+00    0.182E-01
DAV:   2    -0.191648912265E+03   -0.15992E-02   -0.14540E-02 13600   0.473E-01    0.320E-01
DAV:   3    -0.191648221304E+03    0.69096E-03   -0.33998E-03 12280   0.459E-01    0.219E-01
DAV:   4    -0.191647845884E+03    0.37542E-03   -0.10760E-03  9520   0.226E-01    0.941E-02
DAV:   5    -0.191647737583E+03    0.10830E-03   -0.45111E-04  9400   0.116E-01    0.663E-02
DAV:   6    -0.191647795567E+03   -0.57984E-04   -0.40322E-04  8840   0.152E-01
  42 F= -.19164780E+03 E0= -.19154346E+03  d E =-.686346E-02
       N       E                     dE             d eps       ncg     rms          rms(c)
DAV:   1    -0.191643222980E+03    0.45146E-02   -0.24797E-01  8160   0.105E+00    0.127E-01
DAV:   2    -0.191644389700E+03   -0.11667E-02   -0.69978E-03 13040   0.418E-01    0.299E-01
DAV:   3    -0.191643372575E+03    0.10171E-02   -0.22306E-03 11840   0.357E-01    0.937E-02
DAV:   4    -0.191643392692E+03   -0.20117E-04   -0.45783E-04  8120   0.143E-01
  43 F= -.19164339E+03 E0= -.19153823E+03  d E =0.440287E-02
       N       E                     dE             d eps       ncg     rms          rms(c)
DAV:   1    -0.191646599255E+03   -0.32267E-02   -0.17303E-01  8160   0.901E-01    0.116E-01
DAV:   2    -0.191647616021E+03   -0.10168E-02   -0.67107E-03 12720   0.404E-01    0.280E-01
DAV:   3    -0.191646779787E+03    0.83623E-03   -0.18775E-03 11360   0.328E-01    0.804E-02
DAV:   4    -0.191646801717E+03   -0.21930E-04   -0.31897E-04  7960   0.139E-01
  44 F= -.19164680E+03 E0= -.19154180E+03  d E =-.340903E-02
       N       E                     dE             d eps       ncg     rms          rms(c)
DAV:   1    -0.191646718162E+03    0.61625E-04   -0.36266E-04  8520   0.134E-01    0.426E-02
DAV:   2    -0.191646986869E+03   -0.26871E-03   -0.60142E-04  9760   0.187E-01    0.158E-01
DAV:   3    -0.191646687378E+03    0.29949E-03   -0.39862E-04  8160   0.162E-01    0.239E-02
DAV:   4    -0.191646699145E+03   -0.11767E-04   -0.38142E-05  5520   0.458E-02
  45 F= -.19164670E+03 E0= -.19154159E+03  d E =0.102572E-03
       N       E                     dE             d eps       ncg     rms          rms(c)
DAV:   1    -0.191649480630E+03   -0.27933E-02   -0.11263E-01  8160   0.720E-01    0.856E-02
DAV:   2    -0.191649759212E+03   -0.27858E-03   -0.28740E-03 13400   0.203E-01    0.145E-01
DAV:   3    -0.191649625609E+03    0.13360E-03   -0.69448E-04  9400   0.214E-01    0.107E-01
DAV:   4    -0.191649527267E+03    0.98342E-04   -0.24403E-04  6880   0.114E-01
  46 F= -.19164953E+03 E0= -.19154510E+03  d E =-.282812E-02
       N       E                     dE             d eps       ncg     rms          rms(c)
DAV:   1    -0.191644840396E+03    0.47852E-02   -0.70250E-01  8160   0.182E+00    0.255E-01
DAV:   2    -0.191645284808E+03   -0.44441E-03   -0.19423E-02 13480   0.450E-01    0.281E-01
DAV:   3    -0.191645300584E+03   -0.15775E-04   -0.50065E-03 12240   0.524E-01    0.350E-01
DAV:   4    -0.191644323884E+03    0.97670E-03   -0.31715E-03 11280   0.440E-01    0.181E-01
DAV:   5    -0.191643897843E+03    0.42604E-03   -0.11024E-03  9760   0.192E-01    0.880E-02
DAV:   6    -0.191643899960E+03   -0.21169E-05   -0.57542E-04  8960   0.171E-01
  47 F= -.19164390E+03 E0= -.19153791E+03  d E =0.562731E-02
       N       E                     dE             d eps       ncg     rms          rms(c)
DAV:   1    -0.191644046568E+03   -0.14872E-03   -0.28966E-03 10040   0.141E-01    0.369E-02
DAV:   2    -0.191644103229E+03   -0.56660E-04   -0.35131E-04  9480   0.109E-01
  48 F= -.19164410E+03 E0= -.19153809E+03  d E =-.203268E-03
       N       E                     dE             d eps       ncg     rms          rms(c)
DAV:   1    -0.191651053641E+03   -0.70071E-02   -0.61463E-01  8160   0.170E+00    0.287E-01
DAV:   2    -0.191651196618E+03   -0.14298E-03   -0.22292E-02 12560   0.599E-01    0.349E-01
DAV:   3    -0.191650705008E+03    0.49161E-03   -0.69685E-03 12120   0.618E-01    0.310E-01
DAV:   4    -0.191649883817E+03    0.82119E-03   -0.43534E-03 11360   0.447E-01    0.214E-01
DAV:   5    -0.191649709435E+03    0.17438E-03   -0.24059E-03  9960   0.337E-01    0.208E-01
DAV:   6    -0.191649265106E+03    0.44433E-03   -0.11556E-03  9760   0.238E-01    0.680E-02
DAV:   7    -0.191649215202E+03    0.49903E-04   -0.15628E-04  5720   0.681E-02
  49 F= -.19164922E+03 E0= -.19154469E+03  d E =-.511197E-02
       N       E                     dE             d eps       ncg     rms          rms(c)
DAV:   1    -0.191652631063E+03   -0.33660E-02   -0.93296E-02  8160   0.689E-01    0.144E-01
DAV:   2    -0.191653367855E+03   -0.73679E-03   -0.52711E-03 11440   0.435E-01    0.317E-01
DAV:   3    -0.191652248374E+03    0.11195E-02   -0.27213E-03 11400   0.389E-01    0.934E-02
DAV:   4    -0.191652222650E+03    0.25725E-04   -0.68524E-04  8760   0.157E-01
  50 F= -.19165222E+03 E0= -.19154769E+03  d E =-.300745E-02
       N       E                     dE             d eps       ncg     rms          rms(c)
DAV:   1    -0.191664671275E+03   -0.12423E-01   -0.14242E+00  8160   0.258E+00    0.373E-01
DAV:   2    -0.191669103035E+03   -0.44318E-02   -0.44305E-02 13560   0.101E+00    0.698E-01
DAV:   3    -0.191664574539E+03    0.45285E-02   -0.16343E-02 12200   0.939E-01    0.344E-01
DAV:   4    -0.191663942410E+03    0.63213E-03   -0.51009E-03 11280   0.476E-01    0.294E-01
DAV:   5    -0.191663531294E+03    0.41112E-03   -0.41070E-03 11520   0.475E-01    0.265E-01
DAV:   6    -0.191662731711E+03    0.79958E-03   -0.19475E-03 10480   0.308E-01    0.731E-02
DAV:   7    -0.191662676905E+03    0.54806E-04   -0.27159E-04  7240   0.835E-02
  51 F= -.19166268E+03 E0= -.19155932E+03  d E =-.104543E-01
       N       E                     dE             d eps       ncg     rms          rms(c)
DAV:   1    -0.191664887900E+03   -0.21562E-02   -0.38338E-02  8160   0.473E-01    0.147E-01
DAV:   2    -0.191666407059E+03   -0.15192E-02   -0.60818E-03 10520   0.528E-01    0.426E-01
DAV:   3    -0.191664395680E+03    0.20114E-02   -0.37986E-03 10240   0.462E-01    0.916E-02
DAV:   4    -0.191664366375E+03    0.29305E-04   -0.54238E-04  8280   0.157E-01
  52 F= -.19166437E+03 E0= -.19156133E+03  d E =-.168947E-02
       N       E                     dE             d eps       ncg     rms          rms(c)
DAV:   1    -0.191676579488E+03   -0.12184E-01   -0.11146E+00  8160   0.226E+00    0.282E-01
DAV:   2    -0.191679264614E+03   -0.26851E-02   -0.29755E-02 13600   0.594E-01    0.439E-01
DAV:   3    -0.191677795929E+03    0.14687E-02   -0.10684E-02 11520   0.711E-01    0.336E-01
DAV:   4    -0.191676867497E+03    0.92843E-03   -0.30465E-03 11000   0.369E-01    0.174E-01
DAV:   5    -0.191676769531E+03    0.97967E-04   -0.18043E-03 10120   0.310E-01    0.180E-01
DAV:   6    -0.191676500051E+03    0.26948E-03   -0.10272E-03 10000   0.240E-01    0.820E-02
DAV:   7    -0.191676423838E+03    0.76213E-04   -0.23813E-04  6880   0.911E-02
  53 F= -.19167642E+03 E0= -.19157594E+03  d E =-.120575E-01
       N       E                     dE             d eps       ncg     rms          rms(c)
DAV:   1    -0.191679236905E+03   -0.27369E-02   -0.58534E-02  8160   0.520E-01    0.863E-02
DAV:   2    -0.191680035098E+03   -0.79819E-03   -0.32421E-03 12520   0.355E-01    0.267E-01
DAV:   3    -0.191679220436E+03    0.81466E-03   -0.14083E-03 10160   0.291E-01    0.515E-02
DAV:   4    -0.191679262979E+03   -0.42543E-04   -0.18435E-04  7120   0.105E-01
  54 F= -.19167926E+03 E0= -.19157921E+03  d E =-.283914E-02
       N       E                     dE             d eps       ncg     rms          rms(c)
DAV:   1    -0.191683312801E+03   -0.40924E-02   -0.19492E-01  8160   0.976E-01    0.148E-01
DAV:   2    -0.191684820954E+03   -0.15082E-02   -0.10918E-02 12680   0.487E-01    0.344E-01
DAV:   3    -0.191683657317E+03    0.11636E-02   -0.39845E-03 12160   0.445E-01    0.138E-01
DAV:   4    -0.191683447462E+03    0.20985E-03   -0.60870E-04  8440   0.156E-01    0.648E-02
DAV:   5    -0.191683412748E+03    0.34714E-04   -0.27485E-04  6800   0.102E-01
  55 F= -.19168341E+03 E0= -.19158360E+03  d E =-.414977E-02
       N       E                     dE             d eps       ncg     rms          rms(c)
DAV:   1    -0.191698254547E+03   -0.14807E-01   -0.11570E+00  8160   0.227E+00    0.258E-01
DAV:   2    -0.191703268244E+03   -0.50137E-02   -0.29384E-02 13600   0.815E-01    0.592E-01
DAV:   3    -0.191699024169E+03    0.42441E-02   -0.99310E-03 12280   0.747E-01    0.169E-01
DAV:   4    -0.191698881343E+03    0.14283E-03   -0.11417E-03 10560   0.178E-01    0.113E-01
DAV:   5    -0.191698843762E+03    0.37581E-04   -0.75454E-04 11320   0.193E-01
  56 F= -.19169884E+03 E0= -.19160111E+03  d E =-.154310E-01
       N       E                     dE             d eps       ncg     rms          rms(c)
DAV:   1    -0.191656929691E+03    0.41952E-01   -0.81579E+00  8160   0.605E+00    0.639E-01
DAV:   2    -0.191684233004E+03   -0.27303E-01   -0.18749E-01 13600   0.173E+00    0.129E+00
DAV:   3    -0.191666388257E+03    0.17845E-01   -0.46508E-02 11960   0.169E+00    0.651E-01
DAV:   4    -0.191664166088E+03    0.22222E-02   -0.13310E-02 12280   0.797E-01    0.442E-01
DAV:   5    -0.191662869487E+03    0.12966E-02   -0.83032E-03 11360   0.671E-01    0.362E-01
DAV:   6    -0.191661648792E+03    0.12207E-02   -0.41549E-03 11480   0.471E-01    0.163E-01
DAV:   7    -0.191661437734E+03    0.21106E-03   -0.10468E-03 10880   0.181E-01    0.791E-02
DAV:   8    -0.191661390521E+03    0.47213E-04   -0.37499E-04  9280   0.132E-01
  57 F= -.19166139E+03 E0= -.19155843E+03  d E =0.374532E-01
       N       E                     dE             d eps       ncg     rms          rms(c)
DAV:   1    -0.191646672600E+03    0.14765E-01   -0.33790E+00  8160   0.391E+00    0.488E-01
DAV:   2    -0.191663176603E+03   -0.16504E-01   -0.10073E-01 13440   0.165E+00    0.111E+00
DAV:   3    -0.191648721303E+03    0.14455E-01   -0.31593E-02 12240   0.134E+00    0.343E-01
DAV:   4    -0.191648711996E+03    0.93074E-05   -0.59553E-03 11440   0.502E-01    0.366E-01
DAV:   5    -0.191647975210E+03    0.73679E-03   -0.50869E-03 11520   0.553E-01    0.301E-01
DAV:   6    -0.191647039886E+03    0.93532E-03   -0.21921E-03 10920   0.336E-01    0.918E-02
DAV:   7    -0.191646987331E+03    0.52556E-04   -0.43986E-04  9600   0.958E-02
  58 F= -.19164699E+03 E0= -.19154177E+03  d E =0.144032E-01
       N       E                     dE             d eps       ncg     rms          rms(c)
DAV:   1    -0.191652186182E+03   -0.51463E-02   -0.48699E-01  8160   0.149E+00    0.201E-01
DAV:   2    -0.191656118034E+03   -0.39319E-02   -0.19347E-02 13600   0.781E-01    0.583E-01
DAV:   3    -0.191652586922E+03    0.35311E-02   -0.66191E-03 11480   0.622E-01    0.135E-01
DAV:   4    -0.191652721004E+03   -0.13408E-03   -0.12356E-03 10040   0.255E-01    0.184E-01
DAV:   5    -0.191652362124E+03    0.35888E-03   -0.92146E-04  9280   0.228E-01    0.767E-02
DAV:   6    -0.191652320230E+03    0.41894E-04   -0.30334E-04  7160   0.957E-02
  59 F= -.19165232E+03 E0= -.19154772E+03  d E =-.533290E-02
       N       E                     dE             d eps       ncg     rms          rms(c)
DAV:   1    -0.191652933530E+03   -0.57141E-03   -0.63473E-02  8160   0.541E-01    0.593E-02
DAV:   2    -0.191653120579E+03   -0.18705E-03   -0.19106E-03 13000   0.149E-01    0.973E-02
DAV:   3    -0.191653060416E+03    0.60163E-04   -0.35072E-04  8720   0.148E-01
  60 F= -.19165306E+03 E0= -.19154861E+03  d E =-.740186E-03
       N       E                     dE             d eps       ncg     rms          rms(c)
DAV:   1    -0.191653568241E+03   -0.44766E-03   -0.12611E-01  8160   0.770E-01    0.996E-02
DAV:   2    -0.191653782168E+03   -0.21393E-03   -0.33491E-03 12280   0.183E-01    0.109E-01
DAV:   3    -0.191653766287E+03    0.15881E-04   -0.10666E-03 10960   0.205E-01    0.131E-01
DAV:   4    -0.191653632316E+03    0.13397E-03   -0.53411E-04  8680   0.161E-01    0.655E-02
DAV:   5    -0.191653589835E+03    0.42481E-04   -0.13680E-04  5520   0.810E-02
  61 F= -.19165359E+03 E0= -.19154899E+03  d E =-.529419E-03
       N       E                     dE             d eps       ncg     rms          rms(c)
DAV:   1    -0.191658954688E+03   -0.53224E-02   -0.45983E-01  8160   0.143E+00    0.166E-01
DAV:   2    -0.191661400527E+03   -0.24458E-02   -0.13516E-02 13560   0.554E-01    0.413E-01
DAV:   3    -0.191659414081E+03    0.19864E-02   -0.45869E-03 11880   0.501E-01    0.116E-01
DAV:   4    -0.191659468937E+03   -0.54857E-04   -0.60626E-04  8720   0.169E-01
  62 F= -.19165947E+03 E0= -.19155587E+03  d E =-.587910E-02
       N       E                     dE             d eps       ncg     rms          rms(c)
DAV:   1    -0.191645033467E+03    0.14381E-01   -0.26461E+00  8160   0.342E+00    0.366E-01
DAV:   2    -0.191657571667E+03   -0.12538E-01   -0.72932E-02 13600   0.130E+00    0.902E-01
DAV:   3    -0.191647476914E+03    0.10095E-01   -0.21669E-02 12200   0.109E+00    0.215E-01
DAV:   4    -0.191647281451E+03    0.19546E-03   -0.19796E-03 11400   0.264E-01    0.190E-01
DAV:   5    -0.191647214620E+03    0.66831E-04   -0.16929E-03 11240   0.318E-01    0.194E-01
DAV:   6    -0.191647016729E+03    0.19789E-03   -0.11436E-03  9560   0.237E-01    0.965E-02
DAV:   7    -0.191646850170E+03    0.16656E-03   -0.27873E-04  7880   0.863E-02    0.185E-02
DAV:   8    -0.191646859487E+03   -0.93163E-05   -0.53130E-05  6640   0.424E-02
  63 F= -.19164686E+03 E0= -.19154083E+03  d E =0.126095E-01
       N       E                     dE             d eps       ncg     rms          rms(c)
DAV:   1    -0.191636583910E+03    0.10266E-01   -0.28420E+00  8160   0.354E+00    0.371E-01
DAV:   2    -0.191644655180E+03   -0.80713E-02   -0.63950E-02 13520   0.985E-01    0.694E-01
DAV:   3    -0.191639723573E+03    0.49316E-02   -0.17087E-02 12160   0.947E-01    0.344E-01
DAV:   4    -0.191639211066E+03    0.51251E-03   -0.35896E-03 11360   0.407E-01    0.266E-01
DAV:   5    -0.191638803929E+03    0.40714E-03   -0.30071E-03 10320   0.414E-01    0.217E-01
DAV:   6    -0.191638511807E+03    0.29212E-03   -0.13424E-03  9960   0.253E-01    0.987E-02
DAV:   7    -0.191638352827E+03    0.15898E-03   -0.31134E-04  8240   0.897E-02    0.222E-02
DAV:   8    -0.191638350093E+03    0.27345E-05   -0.44214E-05  7880   0.303E-02
  64 F= -.19163835E+03 E0= -.19153012E+03  d E =0.850939E-02
       N       E                     dE             d eps       ncg     rms          rms(c)
DAV:   1    -0.191634898901E+03    0.34539E-02   -0.13579E+00  8160   0.245E+00    0.262E-01
DAV:   2    -0.191639500936E+03   -0.46020E-02   -0.31310E-02 13520   0.750E-01    0.566E-01
DAV:   3    -0.191636449558E+03    0.30514E-02   -0.81469E-03 12040   0.696E-01    0.245E-01
DAV:   4    -0.191636377906E+03    0.71651E-04   -0.20500E-03 10000   0.323E-01    0.219E-01
DAV:   5    -0.191635901704E+03    0.47620E-03   -0.15526E-03 10040   0.287E-01    0.107E-01
DAV:   6    -0.191635904301E+03   -0.25966E-05   -0.55417E-04  9800   0.145E-01
  65 F= -.19163590E+03 E0= -.19152640E+03  d E =0.244579E-02
       N       E                     dE             d eps       ncg     rms          rms(c)
DAV:   1    -0.191637785344E+03   -0.18836E-02   -0.51447E-01  8160   0.151E+00    0.181E-01
DAV:   2    -0.191640546287E+03   -0.27609E-02   -0.15788E-02 13600   0.675E-01    0.454E-01
DAV:   3    -0.191638161590E+03    0.23847E-02   -0.53688E-03 11360   0.535E-01    0.114E-01
DAV:   4    -0.191638153093E+03    0.84971E-05   -0.61681E-04  9640   0.155E-01
  66 F= -.19163815E+03 E0= -.19152907E+03  d E =-.224879E-02
       N       E                     dE             d eps       ncg     rms          rms(c)
DAV:   1    -0.191638220600E+03   -0.59010E-04   -0.17689E-03 11560   0.208E-01    0.109E-01
DAV:   2    -0.191641001924E+03   -0.27813E-02   -0.48219E-03 10920   0.572E-01    0.519E-01
DAV:   3    -0.191638071135E+03    0.29308E-02   -0.34730E-03 10080   0.483E-01    0.377E-02
DAV:   4    -0.191638102269E+03   -0.31135E-04   -0.82908E-05  5960   0.608E-02
  67 F= -.19163810E+03 E0= -.19152902E+03  d E =0.508236E-04
       N       E                     dE             d eps       ncg     rms          rms(c)
DAV:   1    -0.191639198466E+03   -0.11273E-02   -0.10571E-01  8160   0.689E-01    0.823E-02
DAV:   2    -0.191639739936E+03   -0.54147E-03   -0.35582E-03 13560   0.221E-01    0.183E-01
DAV:   3    -0.191639397839E+03    0.34210E-03   -0.10145E-03 10320   0.233E-01    0.811E-02
DAV:   4    -0.191639378132E+03    0.19708E-04   -0.17531E-04  5800   0.966E-02
  68 F= -.19163938E+03 E0= -.19153061E+03  d E =-.127586E-02
       N       E                     dE             d eps       ncg     rms          rms(c)
DAV:   1    -0.191639199234E+03    0.19860E-03   -0.61994E-03  9760   0.197E-01    0.344E-02
DAV:   2    -0.191639244254E+03   -0.45020E-04   -0.27545E-04  7880   0.843E-02
  69 F= -.19163924E+03 E0= -.19153030E+03  d E =0.133877E-03
       N       E                     dE             d eps       ncg     rms          rms(c)
DAV:   1    -0.191640427101E+03   -0.12279E-02   -0.10793E-01  8160   0.700E-01    0.994E-02
DAV:   2    -0.191641444650E+03   -0.10175E-02   -0.45204E-03 13600   0.358E-01    0.291E-01
DAV:   3    -0.191640513463E+03    0.93119E-03   -0.16792E-03 10160   0.311E-01    0.644E-02
DAV:   4    -0.191640595040E+03   -0.81577E-04   -0.30430E-04  7800   0.131E-01
  70 F= -.19164060E+03 E0= -.19153191E+03  d E =-.135079E-02
       N       E                     dE             d eps       ncg     rms          rms(c)
DAV:   1    -0.191640577838E+03   -0.64375E-04   -0.99829E-04  8480   0.128E-01    0.265E-02
DAV:   2    -0.191640669345E+03   -0.91507E-04   -0.17563E-04  7040   0.104E-01
  71 F= -.19164067E+03 E0= -.19153197E+03  d E =-.743051E-04
       N       E                     dE             d eps       ncg     rms          rms(c)
DAV:   1    -0.191642190601E+03   -0.16128E-02   -0.14031E-01  8160   0.810E-01    0.121E-01
DAV:   2    -0.191642137286E+03    0.53315E-04   -0.39380E-03 11400   0.182E-01    0.898E-02
DAV:   3    -0.191642320536E+03   -0.18325E-03   -0.92530E-04 10040   0.211E-01    0.178E-01
DAV:   4    -0.191642008752E+03    0.31178E-03   -0.61359E-04  8400   0.203E-01    0.620E-02
DAV:   5    -0.191641987719E+03    0.21033E-04   -0.19022E-04  5680   0.806E-02
  72 F= -.19164199E+03 E0= -.19153385E+03  d E =-.131837E-02
       N       E                     dE             d eps       ncg     rms          rms(c)
DAV:   1    -0.191642773728E+03   -0.76498E-03   -0.20800E-02  8160   0.319E-01    0.901E-02
DAV:   2    -0.191643670160E+03   -0.89643E-03   -0.29509E-03 11400   0.398E-01    0.291E-01
DAV:   3    -0.191642632868E+03    0.10373E-02   -0.16514E-03 10080   0.310E-01    0.349E-02
DAV:   4    -0.191642650362E+03   -0.17494E-04   -0.12842E-04  6000   0.714E-02
  73 F= -.19164265E+03 E0= -.19153450E+03  d E =-.662643E-03
       N       E                     dE             d eps       ncg     rms          rms(c)
DAV:   1    -0.191641911907E+03    0.72096E-03   -0.43825E-02  8160   0.465E-01    0.105E-01
DAV:   2    -0.191643739800E+03   -0.18279E-02   -0.54109E-03 11200   0.511E-01    0.407E-01
DAV:   3    -0.191641777571E+03    0.19622E-02   -0.30474E-03  9920   0.402E-01    0.466E-02
DAV:   4    -0.191641855320E+03   -0.77748E-04   -0.29775E-04  7800   0.121E-01
  74 F= -.19164186E+03 E0= -.19153362E+03  d E =0.795042E-03
       N       E                     dE             d eps       ncg     rms          rms(c)
DAV:   1    -0.191641329368E+03    0.44820E-03   -0.16051E-01  8160   0.914E-01    0.207E-01
DAV:   2    -0.191643204091E+03   -0.18747E-02   -0.12421E-02 11400   0.660E-01    0.474E-01
DAV:   3    -0.191640530683E+03    0.26734E-02   -0.59102E-03 11640   0.566E-01    0.111E-01
DAV:   4    -0.191640427048E+03    0.10363E-03   -0.10280E-03  9600   0.155E-01    0.106E-01
DAV:   5    -0.191640378971E+03    0.48077E-04   -0.68350E-04  9840   0.184E-01
  75 F= -.19164038E+03 E0= -.19153278E+03  d E =0.147635E-02
       N       E                     dE             d eps       ncg     rms          rms(c)
DAV:   1    -0.191646144559E+03   -0.57175E-02   -0.63153E-01  8160   0.176E+00    0.327E-01
DAV:   2    -0.191652829357E+03   -0.66848E-02   -0.35592E-02 12280   0.113E+00    0.842E-01
DAV:   3    -0.191644676812E+03    0.81525E-02   -0.18128E-02 11480   0.974E-01    0.186E-01
DAV:   4    -0.191644959057E+03   -0.28225E-03   -0.37461E-03 12240   0.365E-01    0.280E-01
DAV:   5    -0.191644345088E+03    0.61397E-03   -0.35574E-03 10840   0.410E-01    0.198E-01
DAV:   6    -0.191643854799E+03    0.49029E-03   -0.12305E-03  9600   0.212E-01    0.433E-02
DAV:   7    -0.191643835254E+03    0.19545E-04   -0.13399E-04  5640   0.503E-02
  76 F= -.19164384E+03 E0= -.19153591E+03  d E =-.345628E-02
       N       E                     dE             d eps       ncg     rms          rms(c)
DAV:   1    -0.191645280334E+03   -0.14255E-02   -0.10143E-01  8160   0.671E-01    0.825E-02
DAV:   2    -0.191645581419E+03   -0.30109E-03   -0.27506E-03 13600   0.206E-01    0.155E-01
DAV:   3    -0.191645366543E+03    0.21488E-03   -0.10551E-03 10880   0.222E-01    0.882E-02
DAV:   4    -0.191645310056E+03    0.56487E-04   -0.24826E-04  6440   0.100E-01
  77 F= -.19164531E+03 E0= -.19153800E+03  d E =-.147480E-02
       N       E                     dE             d eps       ncg     rms          rms(c)
DAV:   1    -0.191643764442E+03    0.16021E-02   -0.14746E-01  8160   0.845E-01    0.120E-01
DAV:   2    -0.191644121578E+03   -0.35714E-03   -0.52833E-03 13600   0.250E-01    0.176E-01
DAV:   3    -0.191643911961E+03    0.20962E-03   -0.16584E-03 10480   0.291E-01    0.144E-01
DAV:   4    -0.191643720036E+03    0.19193E-03   -0.53906E-04  8640   0.163E-01    0.749E-02
DAV:   5    -0.191643700498E+03    0.19539E-04   -0.33032E-04  8160   0.135E-01
  78 F= -.19164370E+03 E0= -.19153543E+03  d E =0.160956E-02
       N       E                     dE             d eps       ncg     rms          rms(c)
DAV:   1    -0.191643022306E+03    0.69773E-03   -0.25921E-01  8160   0.116E+00    0.239E-01
DAV:   2    -0.191643147740E+03   -0.12543E-03   -0.13408E-02 11360   0.500E-01    0.352E-01
DAV:   3    -0.191642360417E+03    0.78732E-03   -0.55796E-03 11240   0.553E-01    0.242E-01
DAV:   4    -0.191641863942E+03    0.49648E-03   -0.23741E-03 10840   0.340E-01    0.189E-01
DAV:   5    -0.191641710764E+03    0.15318E-03   -0.14419E-03  9760   0.298E-01    0.160E-01
DAV:   6    -0.191641380129E+03    0.33064E-03   -0.58987E-04  8400   0.158E-01    0.236E-02
DAV:   7    -0.191641394077E+03   -0.13947E-04   -0.79058E-05  5520   0.448E-02
  79 F= -.19164139E+03 E0= -.19153183E+03  d E =0.230642E-02
       N       E                     dE             d eps       ncg     rms          rms(c)
DAV:   1    -0.191638560611E+03    0.28195E-02   -0.37437E-01  8160   0.131E+00    0.175E-01
DAV:   2    -0.191639200572E+03   -0.63996E-03   -0.11372E-02 13600   0.362E-01    0.243E-01
DAV:   3    -0.191639093485E+03    0.10709E-03   -0.33412E-03 11920   0.418E-01    0.246E-01
DAV:   4    -0.191638508016E+03    0.58547E-03   -0.13876E-03  9560   0.257E-01    0.793E-02
DAV:   5    -0.191638421165E+03    0.86851E-04   -0.43487E-04  8360   0.877E-02
  80 F= -.19163842E+03 E0= -.19152769E+03  d E =0.297291E-02
       N       E                     dE             d eps       ncg     rms          rms(c)
DAV:   1    -0.191662512374E+03   -0.24004E-01   -0.83212E+00  8160   0.616E+00    0.859E-01
DAV:   2    -0.191672122976E+03   -0.96106E-02   -0.23762E-01 13200   0.180E+00    0.113E+00
DAV:   3    -0.191670118868E+03    0.20041E-02   -0.62600E-02 12080   0.198E+00    0.117E+00
DAV:   4    -0.191656953269E+03    0.13166E-01   -0.30347E-02 11600   0.134E+00    0.439E-01
DAV:   5    -0.191655299447E+03    0.16538E-02   -0.11931E-02 11520   0.678E-01    0.398E-01
DAV:   6    -0.191654074789E+03    0.12247E-02   -0.72466E-03 12680   0.608E-01    0.262E-01
DAV:   7    -0.191653357455E+03    0.71733E-03   -0.23284E-03 11520   0.300E-01    0.996E-02
DAV:   8    -0.191653367216E+03   -0.97613E-05   -0.70761E-04  9280   0.182E-01
  81 F= -.19165337E+03 E0= -.19154900E+03  d E =-.149461E-01
       N       E                     dE             d eps       ncg     rms          rms(c)
DAV:   1    -0.191651050157E+03    0.23073E-02   -0.13878E+00  8160   0.257E+00    0.398E-01
DAV:   2    -0.191651826735E+03   -0.77658E-03   -0.45584E-02 13600   0.776E-01    0.507E-01
DAV:   3    -0.191651728560E+03    0.98175E-04   -0.15197E-02 12200   0.933E-01    0.535E-01
DAV:   4    -0.191648759670E+03    0.29689E-02   -0.74574E-03 11280   0.620E-01    0.215E-01
DAV:   5    -0.191648639137E+03    0.12053E-03   -0.31802E-03 11040   0.394E-01    0.240E-01
DAV:   6    -0.191648009846E+03    0.62929E-03   -0.19085E-03 11080   0.305E-01    0.903E-02
DAV:   7    -0.191647922602E+03    0.87244E-04   -0.31776E-04  7000   0.949E-02
  82 F= -.19164792E+03 E0= -.19154047E+03  d E =0.544461E-02
       N       E                     dE             d eps       ncg     rms          rms(c)
DAV:   1    -0.191652015690E+03   -0.40058E-02   -0.41193E-01  8160   0.135E+00    0.152E-01
DAV:   2    -0.191653626042E+03   -0.16104E-02   -0.10000E-02 13600   0.435E-01    0.357E-01
DAV:   3    -0.191652379761E+03    0.12463E-02   -0.34919E-03 11040   0.440E-01    0.146E-01
DAV:   4    -0.191652267556E+03    0.11221E-03   -0.72333E-04  9040   0.167E-01    0.973E-02
DAV:   5    -0.191652191150E+03    0.76406E-04   -0.46001E-04  8400   0.156E-01
  83 F= -.19165219E+03 E0= -.19154575E+03  d E =-.426855E-02
       N       E                     dE             d eps       ncg     rms          rms(c)
DAV:   1    -0.191648140130E+03    0.41274E-02   -0.33065E-01  8160   0.121E+00    0.128E-01
DAV:   2    -0.191649476998E+03   -0.13369E-02   -0.80999E-03 13560   0.422E-01    0.301E-01
DAV:   3    -0.191648550817E+03    0.92618E-03   -0.22202E-03 11400   0.376E-01    0.139E-01
DAV:   4    -0.191648392062E+03    0.15875E-03   -0.49889E-04  8480   0.152E-01    0.652E-02
DAV:   5    -0.191648382881E+03    0.91805E-05   -0.24192E-04  7360   0.103E-01
  84 F= -.19164838E+03 E0= -.19154136E+03  d E =0.380827E-02
       N       E                     dE             d eps       ncg     rms          rms(c)
DAV:   1    -0.191642441878E+03    0.59502E-02   -0.10334E+00  8160   0.213E+00    0.246E-01
DAV:   2    -0.191646973930E+03   -0.45321E-02   -0.24975E-02 13560   0.756E-01    0.596E-01
DAV:   3    -0.191643419905E+03    0.35540E-02   -0.74575E-03 12240   0.701E-01    0.215E-01
DAV:   4    -0.191643372329E+03    0.47576E-04   -0.17728E-03  9560   0.286E-01    0.191E-01
DAV:   5    -0.191643033221E+03    0.33911E-03   -0.13080E-03 10240   0.263E-01    0.109E-01
DAV:   6    -0.191642971399E+03    0.61822E-04   -0.53173E-04  9280   0.152E-01
  85 F= -.19164297E+03 E0= -.19153451E+03  d E =0.541148E-02
       N       E                     dE             d eps       ncg     rms          rms(c)
DAV:   1    -0.191640864132E+03    0.21691E-02   -0.28053E-01  8160   0.111E+00    0.123E-01
DAV:   2    -0.191641655257E+03   -0.79113E-03   -0.66668E-03 13240   0.303E-01    0.229E-01
DAV:   3    -0.191641251744E+03    0.40351E-03   -0.18093E-03 11000   0.323E-01    0.152E-01
DAV:   4    -0.191641074454E+03    0.17729E-03   -0.50146E-04  8160   0.155E-01    0.691E-02
DAV:   5    -0.191641041777E+03    0.32677E-04   -0.25998E-04  7560   0.103E-01
  86 F= -.19164104E+03 E0= -.19153208E+03  d E =0.192962E-02
       N       E                     dE             d eps       ncg     rms          rms(c)
DAV:   1    -0.191642332106E+03   -0.12577E-02   -0.10046E-01  8160   0.679E-01    0.101E-01
DAV:   2    -0.191643820526E+03   -0.14884E-02   -0.53246E-03 12560   0.443E-01    0.345E-01
DAV:   3    -0.191642400270E+03    0.14203E-02   -0.21797E-03 10120   0.362E-01    0.630E-02
DAV:   4    -0.191642410356E+03   -0.10087E-04   -0.22029E-04  6720   0.106E-01
  87 F= -.19164241E+03 E0= -.19153347E+03  d E =-.136858E-02
       N       E                     dE             d eps       ncg     rms          rms(c)
DAV:   1    -0.191642888331E+03   -0.48806E-03   -0.13526E-02  8160   0.257E-01    0.647E-02
DAV:   2    -0.191643452979E+03   -0.56465E-03   -0.13971E-03 11080   0.258E-01    0.221E-01
DAV:   3    -0.191642854324E+03    0.59866E-03   -0.86968E-04  9520   0.232E-01    0.417E-02
DAV:   4    -0.191642859165E+03   -0.48415E-05   -0.71971E-05  5480   0.601E-02
  88 F= -.19164286E+03 E0= -.19153416E+03  d E =-.448809E-03
       N       E                     dE             d eps       ncg     rms          rms(c)
DAV:   1    -0.191642466448E+03    0.38788E-03   -0.90174E-03  8160   0.207E-01    0.311E-02
DAV:   2    -0.191642629878E+03   -0.16343E-03   -0.48354E-04 10360   0.146E-01    0.114E-01
DAV:   3    -0.191642465475E+03    0.16440E-03   -0.25610E-04  7760   0.125E-01    0.167E-02
DAV:   4    -0.191642471348E+03   -0.58721E-05   -0.21545E-05  5640   0.295E-02
  89 F= -.19164247E+03 E0= -.19153360E+03  d E =0.387818E-03
       N       E                     dE             d eps       ncg     rms          rms(c)
DAV:   1    -0.191642822254E+03   -0.35678E-03   -0.17957E-02  8160   0.297E-01    0.598E-02
DAV:   2    -0.191643130907E+03   -0.30865E-03   -0.14595E-03 11440   0.219E-01    0.176E-01
DAV:   3    -0.191642809826E+03    0.32108E-03   -0.52535E-04  8320   0.187E-01    0.392E-02
DAV:   4    -0.191642796221E+03    0.13605E-04   -0.55920E-05  5560   0.438E-02
  90 F= -.19164280E+03 E0= -.19153385E+03  d E =-.324874E-03
       N       E                     dE             d eps       ncg     rms          rms(c)
DAV:   1    -0.191644309798E+03   -0.15000E-02   -0.13364E-01  8160   0.766E-01    0.836E-02
DAV:   2    -0.191644781388E+03   -0.47159E-03   -0.28422E-03 13600   0.230E-01    0.185E-01
DAV:   3    -0.191644378866E+03    0.40252E-03   -0.10662E-03  9800   0.238E-01    0.649E-02
DAV:   4    -0.191644373504E+03    0.53621E-05   -0.14252E-04  5680   0.789E-02
  91 F= -.19164437E+03 E0= -.19153590E+03  d E =-.157728E-02
       N       E                     dE             d eps       ncg     rms          rms(c)
DAV:   1    -0.191643107483E+03    0.12714E-02   -0.10192E-01  8160   0.692E-01    0.100E-01
DAV:   2    -0.191644138829E+03   -0.10313E-02   -0.42784E-03 13600   0.384E-01    0.316E-01
DAV:   3    -0.191643055386E+03    0.10834E-02   -0.20473E-03  9880   0.339E-01    0.620E-02
DAV:   4    -0.191643073645E+03   -0.18259E-04   -0.24446E-04  6520   0.879E-02
  92 F= -.19164307E+03 E0= -.19153386E+03  d E =0.129986E-02
       N       E                     dE             d eps       ncg     rms          rms(c)
DAV:   1    -0.191643529118E+03   -0.47373E-03   -0.39665E-02  8160   0.436E-01    0.115E-01
DAV:   2    -0.191644179506E+03   -0.65039E-03   -0.37538E-03 11400   0.377E-01    0.285E-01
DAV:   3    -0.191643320842E+03    0.85866E-03   -0.17502E-03 10200   0.326E-01    0.837E-02
DAV:   4    -0.191643331784E+03   -0.10941E-04   -0.39846E-04  8640   0.147E-01
  93 F= -.19164333E+03 E0= -.19153414E+03  d E =-.258139E-03
       N       E                     dE             d eps       ncg     rms          rms(c)
DAV:   1    -0.191644704609E+03   -0.13838E-02   -0.89527E-02  8160   0.653E-01    0.908E-02
DAV:   2    -0.191645111011E+03   -0.40640E-03   -0.27128E-03 12720   0.278E-01    0.205E-01
DAV:   3    -0.191644629645E+03    0.48137E-03   -0.97605E-04  9800   0.239E-01    0.600E-02
DAV:   4    -0.191644683045E+03   -0.53400E-04   -0.25931E-04  7000   0.121E-01
  94 F= -.19164468E+03 E0= -.19153586E+03  d E =-.135126E-02
       N       E                     dE             d eps       ncg     rms          rms(c)
DAV:   1    -0.191642851611E+03    0.17780E-02   -0.33343E-01  8160   0.124E+00    0.167E-01
DAV:   2    -0.191644167405E+03   -0.13158E-02   -0.11927E-02 13440   0.507E-01    0.332E-01
DAV:   3    -0.191643010493E+03    0.11569E-02   -0.34253E-03 11440   0.424E-01    0.132E-01
DAV:   4    -0.191643002450E+03    0.80421E-05   -0.99090E-04 10360   0.201E-01
  95 F= -.19164300E+03 E0= -.19153354E+03  d E =0.168059E-02
       N       E                     dE             d eps       ncg     rms          rms(c)
DAV:   1    -0.191643822693E+03   -0.81220E-03   -0.95831E-02  8160   0.698E-01    0.136E-01
DAV:   2    -0.191646845774E+03   -0.30231E-02   -0.89605E-03 12200   0.604E-01    0.508E-01
DAV:   3    -0.191643856211E+03    0.29896E-02   -0.45917E-03 10720   0.527E-01    0.807E-02
DAV:   4    -0.191643884269E+03   -0.28058E-04   -0.38728E-04  8400   0.125E-01
  96 F= -.19164388E+03 E0= -.19153456E+03  d E =-.881819E-03
       N       E                     dE             d eps       ncg     rms          rms(c)
DAV:   1    -0.191643840738E+03    0.15473E-04   -0.57067E-02  8160   0.537E-01    0.591E-02
DAV:   2    -0.191644053346E+03   -0.21261E-03   -0.18024E-03 12680   0.159E-01    0.111E-01
DAV:   3    -0.191643917710E+03    0.13564E-03   -0.50424E-04  8680   0.162E-01    0.542E-02
DAV:   4    -0.191643889259E+03    0.28451E-04   -0.76353E-05  5520   0.604E-02
  97 F= -.19164389E+03 E0= -.19153485E+03  d E =-.498974E-05
       N       E                     dE             d eps       ncg     rms          rms(c)
DAV:   1    -0.191645632724E+03   -0.17150E-02   -0.55412E-01  8160   0.161E+00    0.195E-01
DAV:   2    -0.191648255980E+03   -0.26233E-02   -0.17724E-02 13040   0.560E-01    0.442E-01
DAV:   3    -0.191646397838E+03    0.18581E-02   -0.60077E-03 12280   0.563E-01    0.192E-01
DAV:   4    -0.191646137656E+03    0.26018E-03   -0.12266E-03 10000   0.201E-01    0.103E-01
DAV:   5    -0.191645962068E+03    0.17559E-03   -0.53796E-04 10080   0.116E-01    0.633E-02
DAV:   6    -0.191646028511E+03   -0.66443E-04   -0.38932E-04  8640   0.148E-01
  98 F= -.19164603E+03 E0= -.19153717E+03  d E =-.213925E-02
       N       E                     dE             d eps       ncg     rms          rms(c)
DAV:   1    -0.191650397713E+03   -0.44356E-02   -0.33603E-01  8160   0.128E+00    0.190E-01
DAV:   2    -0.191650639496E+03   -0.24178E-03   -0.10843E-02 12400   0.360E-01    0.217E-01
DAV:   3    -0.191650737133E+03   -0.97638E-04   -0.30580E-03 11840   0.418E-01    0.259E-01
DAV:   4    -0.191650114924E+03    0.62221E-03   -0.16752E-03  9960   0.314E-01    0.119E-01
DAV:   5    -0.191650082991E+03    0.31933E-04   -0.78376E-04  9720   0.191E-01
  99 F= -.19165008E+03 E0= -.19154317E+03  d E =-.405448E-02
       N       E                     dE             d eps       ncg     rms          rms(c)
DAV:   1    -0.191643979926E+03    0.61350E-02   -0.90937E-01  8160   0.208E+00    0.260E-01
DAV:   2    -0.191645783308E+03   -0.18034E-02   -0.25595E-02 13120   0.484E-01    0.334E-01
DAV:   3    -0.191645174967E+03    0.60834E-03   -0.67668E-03 11640   0.560E-01    0.333E-01
DAV:   4    -0.191644339144E+03    0.83582E-03   -0.26741E-03 11080   0.387E-01    0.174E-01
DAV:   5    -0.191644111423E+03    0.22772E-03   -0.14917E-03 10080   0.270E-01    0.159E-01
DAV:   6    -0.191643934167E+03    0.17726E-03   -0.92012E-04  9760   0.221E-01    0.864E-02
DAV:   7    -0.191643840518E+03    0.93649E-04   -0.27974E-04  7000   0.939E-02
 100 F= -.19164384E+03 E0= -.19153454E+03  d E =0.624247E-02
