unknown system                          
           1
     8.855916    5.103853    0.000000
    -8.857044    5.105794    0.000000
     0.000000    0.000000   30.000000
   V    Mo   W    S 
   3   3   3  18
Direct configuration=     1
   0.33333334  0.66666669  0.00000000
   0.66666669  0.66666669  0.00000000
   1.00000000  0.33333334  0.00000000
   0.33333334  0.33333334  0.00000000
   0.00000000  0.00000000  0.00000000
   0.66666669  0.33333334  0.00000000
   0.00000000  0.66666669  0.00000000
   0.33333334  0.00000000  0.00000000
   0.66666669  0.00000000  0.00000000
   0.11068511  0.22244981  0.95539999
   0.22244981  0.11068511  0.04460000
   0.11068511  0.55578315  0.95539999
   0.22244981  0.44401845  0.04460000
   0.11068511  0.88911647  0.95539999
   0.22244981  0.77735180  0.04460000
   0.44401845  0.22244981  0.95539999
   0.55578315  0.11068511  0.04460000
   0.44401845  0.55578315  0.95539999
   0.55578315  0.44401845  0.04460000
   0.44401845  0.88911647  0.95539999
   0.55578315  0.77735180  0.04460000
   0.77735180  0.22244981  0.95539999
   0.88911647  0.11068511  0.04460000
   0.77735180  0.55578315  0.95539999
   0.88911647  0.44401845  0.04460000
   0.77735180  0.88911647  0.95539999
   0.88911647  0.77735180  0.04460000
unknown system                          
           1
     8.667519    4.997718    0.000000
    -8.668603    4.999583    0.000000
     0.000000    0.000000   30.000000
   V    Mo   W    S 
   3   3   3  18
Direct configuration=     2
   0.33340049  0.66513389 -0.00000680
   0.66627172  0.66546581  0.00013705
   1.00038963  0.33246449 -0.00013475
   0.33336844  0.33238935  0.00001399
   0.00139352  0.00138463  0.00009768
   0.66518466  0.33331749 -0.00008804
  -0.00158065  0.66631126  0.00001060
   0.33319285  0.00299310 -0.00000488
   0.66831991  0.00118787 -0.00002362
   0.10856337  0.22465108  0.95198553
   0.22247346  0.11040986  0.04935465
   0.11268575  0.55356113  0.95302495
   0.21994913  0.44649187  0.04693844
   0.11160536  0.88831039  0.95076305
   0.22415871  0.77574919  0.04794746
   0.44397741  0.22110789  0.95065350
   0.55487616  0.11002207  0.04924405
   0.44629807  0.55986381  0.95312481
   0.55770251  0.44896542  0.04807674
   0.44257753  0.88510625  0.95198444
   0.55398426  0.77408191  0.04690095
   0.78176272  0.22341488  0.95188898
   0.89002716  0.11492925  0.04809473
   0.77624986  0.55825950  0.95197419
   0.89172296  0.44293530  0.04792439
   0.77498375  0.88473096  0.95199850
   0.88467574  0.77497579  0.04811930
unknown system                          
           1
     8.486814    4.897713    0.000000
    -8.488331    4.900331    0.000000
     0.000000    0.000000   30.000000
   V    Mo   W    S 
   3   3   3  18
Direct configuration=     3
   0.33339310  0.66472921 -0.00000913
   0.66626705  0.66515175  0.00015383
   1.00040684  0.33215617 -0.00015103
   0.33336138  0.33144217  0.00001304
   0.00209950  0.00175731  0.00006445
   0.66446260  0.33298372 -0.00005347
  -0.00202115  0.66637257  0.00007484
   0.33318299  0.00419840 -0.00000237
   0.66878788  0.00168871 -0.00008693
   0.10852651  0.22473232  0.95192966
   0.22259795  0.11029252  0.04950882
   0.11255374  0.55361947  0.95310565
   0.21991892  0.44651003  0.04688752
   0.11172198  0.88820501  0.95076068
   0.22405743  0.77585056  0.04781174
   0.44385369  0.22090124  0.95049672
   0.55475675  0.10975947  0.04923753
   0.44636123  0.55991843  0.95316572
   0.55777476  0.44912543  0.04812758
   0.44264040  0.88528744  0.95213308
   0.55407560  0.77424583  0.04683500
   0.78177330  0.22326547  0.95188681
   0.88989233  0.11494014  0.04812776
   0.77641500  0.55841327  0.95193267
   0.89188706  0.44314139  0.04784608
   0.77479279  0.88474651  0.95208451
   0.88467484  0.77477990  0.04811914
unknown system                          
           1
     8.279902    4.772660    0.000000
    -8.286203    4.783565    0.000000
     0.000000    0.000000   30.000000
   V    Mo   W    S 
   3   3   3  18
Direct configuration=     4
   0.33336149  0.66357930 -0.00001148
   0.66663689  0.66417050  0.00015089
   1.00000774  0.33082486 -0.00014486
   0.33338139  0.32703672  0.00000694
   0.00500720  0.00292965 -0.00006700
   0.66144362  0.33120865  0.00007516
  -0.00342971  0.66696075  0.00028701
   0.33320043  0.00882666  0.00000274
   0.67023144  0.00368993 -0.00029517
   0.10819641  0.22550977  0.95027594
   0.22265717  0.11039453  0.05179222
   0.11280731  0.55312277  0.95207464
   0.21951461  0.44687242  0.04797979
   0.11183792  0.88808759  0.94913627
   0.22452327  0.77570172  0.04869943
   0.44382159  0.22104990  0.94821254
   0.55463967  0.10941691  0.05082989
   0.44689503  0.56068800  0.95203881
   0.55825768  0.45040313  0.04975875
   0.44206790  0.88460493  0.95129042
   0.55371198  0.77345172  0.04790769
   0.78297858  0.22408634  0.95040620
   0.89062327  0.11613391  0.04970865
   0.77577294  0.55886730  0.95033167
   0.89238103  0.44265888  0.04896894
   0.77419156  0.88366551  0.95098458
   0.88349605  0.77427211  0.04959925
unknown system                          
           1
     8.284827    4.769571    0.000000
    -8.296754    4.790224    0.000000
     0.000000    0.000000   30.000000
   V    Mo   W    S 
   3   3   3  18
Direct configuration=     5
   0.33328938  0.66087218 -0.00000694
   0.66739777  0.66250454 -0.00001127
   0.99919119  0.32836250  0.00002280
   0.33340226  0.31852134  0.00001274
   0.01104300  0.00524361 -0.00020366
   0.65521105  0.32739855  0.00020281
  -0.00591636  0.66816107  0.00053317
   0.33316509  0.01772664 -0.00001105
   0.67285121  0.00735764 -0.00054665
   0.10867353  0.22633386  0.94799443
   0.22245434  0.11093392  0.05523113
   0.11272473  0.55246958  0.95064706
   0.21944365  0.44639567  0.04946344
   0.11226587  0.88828612  0.94702420
   0.22521204  0.77655606  0.04959418
   0.44403388  0.22176124  0.94476702
   0.55421987  0.10916114  0.05293247
   0.44710921  0.56022456  0.95052097
   0.55791448  0.45097586  0.05202637
   0.44130600  0.88464483  0.95043993
   0.55372549  0.77294586  0.04936096
   0.78434256  0.22586064  0.94835716
   0.89188840  0.11734114  0.05166914
   0.77462385  0.55874315  0.94835512
   0.89202837  0.44179024  0.05024501
   0.77445931  0.88297082  0.94972017
   0.88215426  0.77467167  0.05165919
unknown system                          
           1
     8.276513    4.765533    0.000000
    -8.287830    4.785130    0.000000
     0.000000    0.000000   30.000000
   V    Mo   W    S 
   3   3   3  18
Direct configuration=     6
   0.33325615  0.65923180 -0.00001227
   0.66734325  0.66191817  0.00001501
   0.99924497  0.32780567 -0.00000980
   0.33340350  0.31831028  0.00000948
   0.01197067  0.00553358 -0.00010472
   0.65424640  0.32673164  0.00011499
  -0.00634264  0.66879917  0.00058819
   0.33313491  0.01852066 -0.00000309
   0.67333473  0.00838539 -0.00059485
   0.10946243  0.22623288  0.94792386
   0.22223742  0.11095758  0.05567951
   0.11230547  0.55239526  0.95072549
   0.21976663  0.44554865  0.04950198
   0.11282724  0.88861235  0.94691170
   0.22546924  0.77776154  0.04926387
   0.44423513  0.22198072  0.94430918
   0.55364677  0.10892666  0.05303188
   0.44678283  0.55906388  0.95049732
   0.55711873  0.45007076  0.05210284
   0.44107620  0.88559773  0.95077067
   0.55417350  0.77330891  0.04927665
   0.78424023  0.22640249  0.94829004
   0.89217971  0.11716023  0.05171063
   0.77434826  0.55827445  0.94832535
   0.89107665  0.44161113  0.05006398
   0.77541148  0.88373387  0.94988437
   0.88226459  0.77533901  0.05172764
unknown system                          
           1
     8.283303    4.768810    0.000000
    -8.295281    4.789551    0.000000
     0.000000    0.000000   30.000000
   V    Mo   W    S 
   3   3   3  18
Direct configuration=     7
   0.33317660  0.65679060 -0.00001534
   0.66712873  0.66087559  0.00005425
   0.99944798  0.32691343 -0.00004763
   0.33338287  0.31720802  0.00001023
   0.01361649  0.00602254 -0.00004190
   0.65252937  0.32548704  0.00004855
  -0.00691030  0.66992208  0.00064637
   0.33309843  0.02066708 -0.00001275
   0.67406368  0.01010257 -0.00065569
   0.10995593  0.22611890  0.94775677
   0.22223878  0.11112526  0.05614904
   0.11191504  0.55225669  0.95080291
   0.21989084  0.44487427  0.04964980
   0.11319095  0.88885299  0.94673299
   0.22578135  0.77866836  0.04893366
   0.44421898  0.22210358  0.94384429
   0.55327328  0.10879331  0.05320451
   0.44664872  0.55824920  0.95035134
   0.55661621  0.44944933  0.05227326
   0.44079116  0.88619467  0.95111552
   0.55457028  0.77358196  0.04919862
   0.78435718  0.22703454  0.94812435
   0.89250270  0.11720439  0.05183907
   0.77405836  0.55797381  0.94820888
   0.89037614  0.44152014  0.04986054
   0.77612477  0.88433952  0.95006591
   0.88216993  0.77588457  0.05190236
unknown system                          
           1
     8.283331    4.768749    0.000000
    -8.295356    4.789572    0.000000
     0.000000    0.000000   30.000000
   V    Mo   W    S 
   3   3   3  18
Direct configuration=     8
   0.33318028  0.65540247 -0.00001906
   0.66690522  0.66022206  0.00007473
   0.99970411  0.32648867 -0.00006910
   0.33341731  0.31728908  0.00001274
   0.01410449  0.00608496 -0.00000187
   0.65196090  0.32507062  0.00001287
  -0.00711643  0.67066672  0.00068134
   0.33306455  0.02120536 -0.00001199
   0.67430696  0.01095979 -0.00068818
   0.11012319  0.22601133  0.94774714
   0.22225519  0.11122138  0.05625115
   0.11176236  0.55222536  0.95092224
   0.21987036  0.44458503  0.04970174
   0.11336360  0.88897526  0.94671275
   0.22593673  0.77898699  0.04869077
   0.44419309  0.22216970  0.94373933
   0.55309046  0.10872617  0.05321391
   0.44668461  0.55799224  0.95031158
   0.55645204  0.44918330  0.05227241
   0.44065324  0.88636729  0.95136521
   0.55473405  0.77369450  0.04907318
   0.78441288  0.22732137  0.94810911
   0.89257654  0.11719054  0.05183062
   0.77398672  0.55789511  0.94823560
   0.89011251  0.44155581  0.04965906
   0.77637802  0.88461049  0.95025900
   0.88210149  0.77611284  0.05191363
unknown system                          
           1
     8.281793    4.767256    0.000000
    -8.294090    4.788548    0.000000
     0.000000    0.000000   30.000000
   V    Mo   W    S 
   3   3   3  18
Direct configuration=     9
   0.33319043  0.65595106 -0.00001809
   0.66696777  0.66046122  0.00006553
   0.99963813  0.32667279 -0.00005994
   0.33341472  0.31742892  0.00001222
   0.01380270  0.00600850 -0.00001707
   0.65228433  0.32530590  0.00002802
  -0.00700571  0.67040287  0.00066854
   0.33307456  0.02082442 -0.00001059
   0.67416972  0.01059630 -0.00067530
   0.11002607  0.22604555  0.94776693
   0.22225173  0.11118473  0.05617600
   0.11184332  0.55224874  0.95089031
   0.21985237  0.44472572  0.04967746
   0.11328644  0.88892314  0.94673581
   0.22587108  0.77880646  0.04877654
   0.44420007  0.22214498  0.94381411
   0.55317039  0.10875496  0.05319308
   0.44670199  0.55815122  0.95033365
   0.55655037  0.44931577  0.05225377
   0.44071214  0.88625040  0.95127650
   0.55465015  0.77363519  0.04910625
   0.78439267  0.22719279  0.94813013
   0.89252054  0.11718944  0.05181816
   0.77403791  0.55795157  0.94824354
   0.89025558  0.44156273  0.04972057
   0.77623447  0.88447874  0.95020168
   0.88212051  0.77600033  0.05189209
unknown system                          
           1
     8.281334    4.766974    0.000000
    -8.294306    4.789437    0.000000
     0.000000    0.000000   30.000000
   V    Mo   W    S 
   3   3   3  18
Direct configuration=    10
   0.33331365  0.65529452 -0.00002118
   0.66700819  0.66000056  0.00007301
   0.99970343  0.32629106 -0.00007703
   0.33353384  0.31748547  0.00001577
   0.01402971  0.00592414  0.00000033
   0.65191839  0.32515126  0.00001434
  -0.00727486  0.67096226  0.00068428
   0.33303624  0.02117028 -0.00001006
   0.67431114  0.01113077 -0.00069232
   0.11005357  0.22598194  0.94774840
   0.22228605  0.11125320  0.05622523
   0.11173164  0.55223732  0.95093634
   0.21975737  0.44452788  0.04975438
   0.11336404  0.88897202  0.94671006
   0.22591130  0.77890844  0.04867231
   0.44415588  0.22216438  0.94376022
   0.55309445  0.10871387  0.05320467
   0.44685290  0.55808459  0.95027487
   0.55654361  0.44928507  0.05226156
   0.44067113  0.88632311  0.95137717
   0.55478656  0.77369870  0.04905822
   0.78444778  0.22732960  0.94810806
   0.89252562  0.11717328  0.05182942
   0.77400723  0.55796007  0.94825041
   0.89020678  0.44162146  0.04962010
   0.77624356  0.88451168  0.95030739
   0.88199527  0.77605754  0.05191396
unknown system                          
           1
     8.289364    4.770806    0.000000
    -8.302610    4.793743    0.000000
     0.000000    0.000000   30.000000
   V    Mo   W    S 
   3   3   3  18
Direct configuration=    11
   0.33313970  0.65452386 -0.00002555
   0.66672218  0.65983333  0.00008693
   0.99986825  0.32625930 -0.00008049
   0.33344386  0.31721522  0.00001372
   0.01450464  0.00614885  0.00002310
   0.65151063  0.32469159 -0.00001110
  -0.00722763  0.67115844  0.00070997
   0.33304441  0.02164730 -0.00001482
   0.67447636  0.01156254 -0.00071292
   0.11020419  0.22595429  0.94771618
   0.22227171  0.11128006  0.05633053
   0.11171739  0.55222230  0.95097159
   0.21985013  0.44444953  0.04976102
   0.11346478  0.88904393  0.94669714
   0.22604577  0.77913223  0.04854786
   0.44417295  0.22220954  0.94366235
   0.55298673  0.10866861  0.05323088
   0.44669641  0.55788180  0.95026882
   0.55637279  0.44903435  0.05227992
   0.44057654  0.88641989  0.95152342
   0.55477590  0.77374611  0.04900722
   0.78446192  0.22748485  0.94808583
   0.89259166  0.11718792  0.05183638
   0.77398245  0.55788489  0.94825936
   0.88997999  0.44158081  0.04954831
   0.77650766  0.88476458  0.95037235
   0.88207309  0.77622835  0.05191187
unknown system                          
           1
     8.289792    4.771081    0.000000
    -8.302561    4.793191    0.000000
     0.000000    0.000000   30.000000
   V    Mo   W    S 
   3   3   3  18
Direct configuration=    12
   0.33314349  0.65262564 -0.00002323
   0.66641420  0.65867525  0.00010385
   1.00024297  0.32536698 -0.00010036
   0.33342288  0.31748016  0.00001398
   0.01508461  0.00627500  0.00005959
   0.65082441  0.32420174 -0.00004472
  -0.00738451  0.67243708  0.00074308
   0.33299487  0.02225446 -0.00000888
   0.67481034  0.01293897 -0.00075004
   0.11028848  0.22582137  0.94765799
   0.22232411  0.11146485  0.05648836
   0.11151480  0.55214461  0.95112181
   0.21964373  0.44407378  0.04990616
   0.11364131  0.88918948  0.94658312
   0.22624950  0.77936176  0.04828975
   0.44410312  0.22231300  0.94349369
   0.55279106  0.10863655  0.05331040
   0.44693720  0.55770328  0.95010908
   0.55629343  0.44885117  0.05237133
   0.44035414  0.88643702  0.95178054
   0.55498722  0.77384210  0.04888261
   0.78465924  0.22794434  0.94800835
   0.89267662  0.11723263  0.05187570
   0.77389381  0.55782479  0.94820178
   0.88987683  0.44169097  0.04928163
   0.77660252  0.88493407  0.95060044
   0.88182409  0.77649339  0.05204390
unknown system                          
           1
     8.282277    4.766564    0.000000
    -8.296856    4.791818    0.000000
     0.000000    0.000000   30.000000
   V    Mo   W    S 
   3   3   3  18
Direct configuration=    13
   0.33320850  0.65226744 -0.00002227
   0.66635743  0.65825355  0.00010715
   1.00039540  0.32505400 -0.00010500
   0.33343097  0.31774634  0.00001429
   0.01507384  0.00623410  0.00006808
   0.65078839  0.32425826 -0.00004861
  -0.00740699  0.67284115  0.00074751
   0.33296739  0.02225321 -0.00001112
   0.67481124  0.01322138 -0.00075746
   0.11025039  0.22578650  0.94765713
   0.22233903  0.11150774  0.05647622
   0.11147841  0.55213023  0.95119270
   0.21953976  0.44401670  0.04993195
   0.11364294  0.88921714  0.94656256
   0.22625241  0.77930837  0.04823371
   0.44407149  0.22232375  0.94350618
   0.55277921  0.10866902  0.05331590
   0.44705771  0.55774929  0.95007528
   0.55632768  0.44886882  0.05238877
   0.44031657  0.88636402  0.95183031
   0.55502249  0.77383247  0.04883235
   0.78471333  0.22803941  0.94800990
   0.89266897  0.11723371  0.05187471
   0.77390209  0.55783298  0.94818786
   0.88996346  0.44177626  0.04919044
   0.77651596  0.88490728  0.95067064
   0.88174635  0.77652132  0.05207074
unknown system                          
           1
     8.291964    4.772646    0.000000
    -8.304795    4.794864    0.000000
     0.000000    0.000000   30.000000
   V    Mo   W    S 
   3   3   3  18
Direct configuration=    14
   0.33292205  0.65079708 -0.00003373
   0.66594153  0.65783023  0.00012838
   1.00055145  0.32474565 -0.00011585
   0.33335846  0.31732838  0.00001286
   0.01591344  0.00658568  0.00010510
   0.64995669  0.32335710 -0.00009399
  -0.00737589  0.67352016  0.00079035
   0.33297728  0.02309864 -0.00002146
   0.67519198  0.01432336 -0.00078823
   0.11044072  0.22569533  0.94761315
   0.22237399  0.11161072  0.05662518
   0.11138314  0.55209188  0.95123885
   0.21955040  0.44372909  0.05002131
   0.11382813  0.88933037  0.94654061
   0.22647949  0.77963422  0.04801658
   0.44403717  0.22238458  0.94336354
   0.55259732  0.10854415  0.05336244
   0.44695887  0.55741853  0.94999819
   0.55612713  0.44849502  0.05239873
   0.44019607  0.88650564  0.95209496
   0.55508908  0.77398140  0.04874073
   0.78480075  0.22833457  0.94795151
   0.89272337  0.11725892  0.05187960
   0.77390199  0.55777629  0.94823618
   0.88965429  0.44176630  0.04902484
   0.77685328  0.88529103  0.95084183
   0.88178227  0.77678014  0.05206823
unknown system                          
           1
     8.295490    4.774307    0.000000
    -8.309349    4.798309    0.000000
     0.000000    0.000000   30.000000
   V    Mo   W    S 
   3   3   3  18
Direct configuration=    15
   0.33316703  0.65002000 -0.00003349
   0.66569984  0.65665309  0.00013317
   1.00113223  0.32405226 -0.00012428
   0.33342742  0.31812435  0.00001681
   0.01585093  0.00641319  0.00013171
   0.64986453  0.32359815 -0.00010449
  -0.00739760  0.67454549  0.00078860
   0.33288680  0.02300231 -0.00002059
   0.67500982  0.01484154 -0.00080075
   0.11035285  0.22561005  0.94756701
   0.22239634  0.11170374  0.05659550
   0.11134510  0.55209294  0.95140603
   0.21934774  0.44367326  0.05010204
   0.11381926  0.88942848  0.94646895
   0.22653160  0.77948069  0.04790723
   0.44398319  0.22243504  0.94339299
   0.55258007  0.10866185  0.05338336
   0.44724507  0.55759082  0.94991698
   0.55620704  0.44856924  0.05246389
   0.44005454  0.88626261  0.95218270
   0.55513951  0.77390900  0.04862805
   0.78491529  0.22856484  0.94794888
   0.89267907  0.11721372  0.05190297
   0.77391925  0.55779933  0.94818540
   0.88990594  0.44197746  0.04882326
   0.77658493  0.88515072  0.95099451
   0.88156665  0.77684028  0.05214348
unknown system                          
           1
     8.291363    4.771251    0.000000
    -8.304880    4.794658    0.000000
     0.000000    0.000000   30.000000
   V    Mo   W    S 
   3   3   3  18
Direct configuration=    16
   0.33306535  0.64792443 -0.00004637
   0.66493509  0.65492388  0.00014607
   1.00190198  0.32295862 -0.00013302
   0.33342952  0.31855272  0.00002104
   0.01664925  0.00667181  0.00019086
   0.64888074  0.32286960 -0.00015983
  -0.00716230  0.67648458  0.00081844
   0.33279307  0.02359432 -0.00002285
   0.67513676  0.01658666 -0.00082624
   0.11046422  0.22540313  0.94743984
   0.22245858  0.11192376  0.05674071
   0.11120218  0.55203840  0.95159797
   0.21910672  0.44321636  0.05032702
   0.11401786  0.88967028  0.94633479
   0.22685258  0.77961600  0.04761135
   0.44389311  0.22257040  0.94324396
   0.55235078  0.10863256  0.05349067
   0.44747563  0.55736569  0.94970885
   0.55608221  0.44822281  0.05256756
   0.43978627  0.88609791  0.95251888
   0.55526061  0.77400461  0.04842457
   0.78519151  0.22917435  0.94785135
   0.89264110  0.11716890  0.05195103
   0.77398965  0.55778271  0.94818701
   0.88987551  0.44219332  0.04842166
   0.77661261  0.88538002  0.95135812
   0.88132387  0.77718663  0.05223644
unknown system                          
           1
     8.281793    4.764966    0.000000
    -8.295615    4.788898    0.000000
     0.000000    0.000000   30.000000
   V    Mo   W    S 
   3   3   3  18
Direct configuration=    17
   0.33333111  0.65154933 -0.00001323
   0.66671546  0.65837661  0.00015759
   1.00020829  0.32476517 -0.00014611
   0.33332267  0.31764985  0.00001523
   0.01510883  0.00618762  0.00007204
   0.65083786  0.32431499 -0.00004205
  -0.00816328  0.67249177  0.00076926
   0.33303114  0.02270585 -0.00000353
   0.67526675  0.01343154 -0.00080227
   0.11021621  0.22586065  0.94770911
   0.22235295  0.11154163  0.05649113
   0.11143018  0.55211212  0.95121390
   0.21953129  0.44409416  0.04992383
   0.11364798  0.88914133  0.94660221
   0.22625325  0.77951248  0.04811520
   0.44408514  0.22238645  0.94349735
   0.55278235  0.10865792  0.05326064
   0.44704617  0.55780914  0.95006276
   0.55629863  0.44891723  0.05236893
   0.44025055  0.88653831  0.95191307
   0.55507463  0.77384153  0.04885988
   0.78470022  0.22805084  0.94804027
   0.89281976  0.11735056  0.05186125
   0.77374687  0.55778392  0.94811132
   0.88983304  0.44162929  0.04927057
   0.77670631  0.88498955  0.95058123
   0.88178010  0.77652462  0.05211031
unknown system                          
           1
     8.286708    4.766639    0.000000
    -8.301372    4.792030    0.000000
     0.000000    0.000000   30.000000
   V    Mo   W    S 
   3   3   3  18
Direct configuration=    18
   0.33363285  0.65403637  0.00000882
   0.66876137  0.66215197  0.00019259
   0.99828973  0.32653106 -0.00017894
   0.33316063  0.31631128  0.00001484
   0.01377161  0.00569207 -0.00004256
   0.65269187  0.32561593  0.00007109
  -0.01016343  0.66790560  0.00071531
   0.33337605  0.02272517 -0.00001185
   0.67599547  0.01062092 -0.00079170
   0.11008660  0.22622797  0.94793240
   0.22223817  0.11128816  0.05639884
   0.11147433  0.55219332  0.95091819
   0.21986205  0.44465750  0.04961692
   0.11338639  0.88852452  0.94694544
   0.22564974  0.77961855  0.04829984
   0.44428977  0.22237258  0.94362370
   0.55316630  0.10851459  0.05301146
   0.44667116  0.55802195  0.95034689
   0.55635296  0.44937252  0.05214802
   0.44071738  0.88717911  0.95160815
   0.55508079  0.77393104  0.04921886
   0.78428171  0.22726233  0.94809946
   0.89313612  0.11756574  0.05183189
   0.77335918  0.55772510  0.94800271
   0.88952808  0.44107238  0.05008821
   0.77713277  0.88494996  0.94984531
   0.88228481  0.77614675  0.05208603
unknown system                          
           1
     8.285656    4.764991    0.000000
    -8.301290    4.792064    0.000000
     0.000000    0.000000   30.000000
   V    Mo   W    S 
   3   3   3  18
Direct configuration=    19
   0.33383504  0.65425624  0.00001935
   0.66937912  0.66339964  0.00020892
   0.99779379  0.32728065 -0.00019933
   0.33312760  0.31591604  0.00001616
   0.01343151  0.00557301 -0.00004177
   0.65322015  0.32611805  0.00007567
  -0.01123034  0.66625218  0.00070604
   0.33351147  0.02303666  0.00000953
   0.67641184  0.00980385 -0.00078023
   0.11008689  0.22628938  0.94797049
   0.22215997  0.11122029  0.05644448
   0.11145528  0.55222506  0.95086504
   0.21993207  0.44468864  0.04956871
   0.11336612  0.88831409  0.94704318
   0.22550523  0.77965199  0.04821044
   0.44442086  0.22248290  0.94357084
   0.55323810  0.10840970  0.05294848
   0.44665142  0.55801303  0.95040529
   0.55634573  0.44949704  0.05208469
   0.44080619  0.88731497  0.95163411
   0.55515458  0.77400165  0.04928060
   0.78418837  0.22713554  0.94805994
   0.89326690  0.11765315  0.05185939
   0.77314389  0.55772809  0.94794288
   0.88931849  0.44088032  0.05033106
   0.77733698  0.88497707  0.94965059
   0.88235720  0.77609524  0.05211535
unknown system                          
           1
     8.287791    4.766348    0.000000
    -8.303334    4.793262    0.000000
     0.000000    0.000000   30.000000
   V    Mo   W    S 
   3   3   3  18
Direct configuration=    20
   0.33389418  0.65231183  0.00002285
   0.66907547  0.66292016  0.00023070
   0.99813281  0.32712016 -0.00022852
   0.33302103  0.31585499  0.00000829
   0.01402167  0.00596038  0.00001786
   0.65274361  0.32592790  0.00000684
  -0.01205082  0.66637282  0.00073626
   0.33359766  0.02409890  0.00001825
   0.67705985  0.01080762 -0.00079882
   0.11017281  0.22609654  0.94793933
   0.22214016  0.11134608  0.05658571
   0.11126934  0.55218125  0.95105479
   0.21972287  0.44418688  0.04970813
   0.11353905  0.88836900  0.94707645
   0.22562300  0.77969621  0.04775959
   0.44445472  0.22269028  0.94342940
   0.55310601  0.10834260  0.05294521
   0.44690525  0.55773111  0.95027514
   0.55624490  0.44928320  0.05209222
   0.44066813  0.88719851  0.95205530
   0.55537327  0.77418454  0.04909580
   0.78436147  0.22751571  0.94799401
   0.89330715  0.11773655  0.05188764
   0.77302000  0.55776833  0.94791361
   0.88912722  0.44095054  0.05010719
   0.77750523  0.88522372  0.94988715
   0.88217841  0.77633864  0.05217954
unknown system                          
           1
     8.297038    4.772148    0.000000
    -8.312128    4.798276    0.000000
     0.000000    0.000000   30.000000
   V    Mo   W    S 
   3   3   3  18
Direct configuration=    21
   0.33390171  0.65198627  0.00002233
   0.66895669  0.66267357  0.00023431
   0.99826872  0.32700410 -0.00023183
   0.33302965  0.31594780  0.00000906
   0.01411798  0.00599761  0.00002954
   0.65262686  0.32587158 -0.00000402
  -0.01208435  0.66660130  0.00074175
   0.33359333  0.02417849  0.00001823
   0.67709296  0.01104964 -0.00080303
   0.11018242  0.22606484  0.94791742
   0.22214911  0.11137601  0.05660833
   0.11126168  0.55217891  0.95107928
   0.21968746  0.44411843  0.04974608
   0.11356516  0.88840483  0.94706046
   0.22567683  0.77969996  0.04770853
   0.44444245  0.22270913  0.94340550
   0.55307964  0.10835031  0.05296144
   0.44694561  0.55770106  0.95024023
   0.55623513  0.44924734  0.05210790
   0.44061637  0.88714909  0.95210730
   0.55538216  0.77418681  0.04906920
   0.78439689  0.22759598  0.94797869
   0.89330650  0.11774027  0.05190172
   0.77302000  0.55777635  0.94790616
   0.88911939  0.44097527  0.05005869
   0.77750627  0.88524676  0.94993586
   0.88213785  0.77638275  0.05219074
unknown system                          
           1
     8.295086    4.771032    0.000000
    -8.310059    4.796958    0.000000
     0.000000    0.000000   30.000000
   V    Mo   W    S 
   3   3   3  18
Direct configuration=    22
   0.33397743  0.64976761  0.00002855
   0.66847206  0.66152310  0.00027178
   0.99885524  0.32639133 -0.00027081
   0.33295965  0.31620235  0.00000611
   0.01474635  0.00639063  0.00009653
   0.65205885  0.32568120 -0.00007545
  -0.01293246  0.66727024  0.00078127
   0.33367148  0.02506816  0.00002047
   0.67773276  0.01255834 -0.00084047
   0.11022455  0.22586567  0.94784118
   0.22220995  0.11155833  0.05673385
   0.11113578  0.55215045  0.95124224
   0.21942643  0.44359138  0.04997020
   0.11372894  0.88855863  0.94706111
   0.22592044  0.77976243  0.04727443
   0.44438349  0.22285801  0.94327956
   0.55294678  0.10839585  0.05299120
   0.44723158  0.55744096  0.95002120
   0.55616499  0.44903510  0.05215943
   0.44035024  0.88693963  0.95251399
   0.55552508  0.77429479  0.04891488
   0.78459562  0.22803956  0.94791070
   0.89335848  0.11784750  0.05196871
   0.77293043  0.55783688  0.94783394
   0.88898366  0.44106611  0.04981394
   0.77762594  0.88547096  0.95019669
   0.88193072  0.77664925  0.05225465
unknown system                          
           1
     8.295605    4.771584    0.000000
    -8.310259    4.796957    0.000000
     0.000000    0.000000   30.000000
   V    Mo   W    S 
   3   3   3  18
Direct configuration=    23
   0.33405582  0.64887077  0.00003328
   0.66821588  0.66098535  0.00028771
   0.99918818  0.32616909 -0.00028875
   0.33295259  0.31639553  0.00000442
   0.01495644  0.00654955  0.00011974
   0.65187371  0.32569757 -0.00009919
  -0.01335846  0.66746309  0.00079463
   0.33372475  0.02539663  0.00002411
   0.67796540  0.01311526 -0.00085485
   0.11023773  0.22579142  0.94781699
   0.22223968  0.11162451  0.05677124
   0.11112976  0.55215981  0.95132632
   0.21933390  0.44342294  0.05004402
   0.11377853  0.88861487  0.94707634
   0.22599841  0.77973574  0.04708175
   0.44435849  0.22291279  0.94324044
   0.55291439  0.10843541  0.05299164
   0.44734005  0.55737565  0.94995148
   0.55614246  0.44896975  0.05217093
   0.44025679  0.88682402  0.95268752
   0.55554664  0.77430739  0.04883429
   0.78467596  0.22822367  0.94789171
   0.89336788  0.11788642  0.05199023
   0.77289553  0.55787702  0.94780423
   0.88894317  0.44110964  0.04971201
   0.77764948  0.88554830  0.95031572
   0.88183128  0.77675227  0.05227192
unknown system                          
           1
     8.293301    4.770046    0.000000
    -8.308325    4.796061    0.000000
     0.000000    0.000000   30.000000
   V    Mo   W    S 
   3   3   3  18
Direct configuration=    24
   0.33413267  0.64748744  0.00004106
   0.66777325  0.66000755  0.00030985
   0.99971324  0.32567657 -0.00031393
   0.33290822  0.31670445  0.00000059
   0.01531677  0.00684144  0.00015816
   0.65156594  0.32566792 -0.00014054
  -0.01392442  0.66790372  0.00081361
   0.33380125  0.02587882  0.00002957
   0.67832945  0.01411988 -0.00087624
   0.11025298  0.22567132  0.94776688
   0.22229879  0.11173851  0.05682740
   0.11110074  0.55216348  0.95145495
   0.21915994  0.44312179  0.05017980
   0.11385866  0.88872057  0.94708541
   0.22613004  0.77970504  0.04679752
   0.44430453  0.22299236  0.94318142
   0.55285608  0.10850694  0.05300572
   0.44752722  0.55725552  0.94981576
   0.55610646  0.44885092  0.05221060
   0.44010369  0.88664208  0.95294630