   27   27  100    1
  0.9710400E+02  0.1002848E-08  0.1002848E-08  0.3000000E-08  0.5000000E-15
  1.000000000000000E-004
  CAR 
 unknown system                          
    159     34    120
 
  0.0000000E+00  0.0000000E+00  0.0000000E+00  0.1562500E-01
    1      -17.825339   1.000000
    2      -16.626781   1.000000
    3      -16.597764   1.000000
    4      -16.504716   1.000000
    5      -16.471079   1.000000
    6      -16.437277   1.000000
    7      -16.405392   1.000000
    8      -16.311030   1.000000
    9      -16.115267   1.000000
   10      -16.076337   1.000000
   11      -16.024903   1.000000
   12      -15.998340   1.000000
   13      -15.920553   1.000000
   14      -15.852806   1.000000
   15      -15.617994   1.000000
   16      -15.516785   1.000000
   17      -15.473567   1.000000
   18      -15.419907   1.000000
   19       -9.304021   1.000000
   20       -8.901583   1.000000
   21       -8.844218   1.000000
   22       -8.761634   1.000000
   23       -8.697899   1.000000
   24       -8.649798   1.000000
   25       -8.624253   1.000000
   26       -8.518539   1.000000
   27       -8.503315   1.000000
   28       -8.439024   1.000000
   29       -8.386732   1.000000
   30       -8.295445   1.000000
   31       -8.285740   1.000000
   32       -8.189132   1.000000
   33       -8.132627   1.000000
   34       -8.022332   1.000000
   35       -7.930449   1.000000
   36       -7.878727   1.000000
   37       -7.735587   1.000000
   38       -7.603266   1.000000
   39       -7.534325   1.000000
   40       -7.389121   1.000000
   41       -7.360461   1.000000
   42       -7.238839   1.000000
   43       -7.202011   1.000000
   44       -6.847983   1.000000
   45       -6.801930   1.000000
   46       -6.759334   1.000000
   47       -6.715678   1.000000
   48       -6.673933   1.000000
   49       -6.553088   1.000000
   50       -6.518962   1.000000
   51       -6.459307   1.000000
   52       -6.372022   1.000000
   53       -6.314249   1.000000
   54       -6.292302   1.000000
   55       -6.250391   1.000000
   56       -6.145838   1.000000
   57       -6.059227   1.000000
   58       -5.893551   1.000000
   59       -5.627277   1.000000
   60       -5.568309   1.000000
   61       -5.518853   1.000000
   62       -5.412334   1.000000
   63       -5.285874   1.000000
   64       -5.253329   1.000000
   65       -4.955180   1.000000
   66       -4.943738   1.000000
   67       -4.787682   1.000000
   68       -4.717818   1.000000
   69       -4.666738   1.000000
   70       -4.598741   1.000000
   71       -4.543069   1.000000
   72       -4.497214   1.000000
   73       -4.477233   1.000000
   74       -4.289500   1.000000
   75       -4.147515   1.000000
   76       -4.083675   1.000000
   77       -3.531937   0.999847
   78       -3.483556   0.999458
   79       -3.423299   0.997756
   80       -3.103723   0.719679
   81       -3.031048   0.527106
   82       -2.685832   0.008821
   83       -2.558122   0.000526
   84       -2.539856   0.000331
   85       -2.478335   0.000061
   86       -2.470226   0.000049
   87       -2.288406   0.000000
   88       -2.196851   0.000000
   89       -2.123291   0.000000
   90       -2.089042   0.000000
   91       -1.829313   0.000000
   92       -1.739216   0.000000
   93       -1.701582   0.000000
   94       -1.488125   0.000000
   95       -1.320653   0.000000
   96       -1.304041   0.000000
   97       -1.077881   0.000000
   98       -1.035009   0.000000
   99       -0.907871   0.000000
  100       -0.439715   0.000000
  101       -0.368345   0.000000
  102       -0.316835   0.000000
  103       -0.297513   0.000000
  104       -0.226491   0.000000
  105       -0.092746   0.000000
  106        0.106487   0.000000
  107        0.229585   0.000000
  108        0.328656   0.000000
  109        0.370414   0.000000
  110        0.381721   0.000000
  111        0.424441   0.000000
  112        0.687335   0.000000
  113        0.881808   0.000000
  114        0.902044   0.000000
  115        0.929725   0.000000
  116        0.992283   0.000000
  117        1.021817   0.000000
  118        1.680954   0.000000
  119        1.835278   0.000000
  120        2.188195   0.000000
 
  0.1250000E+00  0.2775558E-16  0.0000000E+00  0.3125000E-01
    1      -17.799113   1.000000
    2      -16.752139   1.000000
    3      -16.615412   1.000000
    4      -16.573346   1.000000
    5      -16.499103   1.000000
    6      -16.349119   1.000000
    7      -16.322880   1.000000
    8      -16.278763   1.000000
    9      -16.170382   1.000000
   10      -16.108299   1.000000
   11      -16.011715   1.000000
   12      -15.930457   1.000000
   13      -15.879845   1.000000
   14      -15.815236   1.000000
   15      -15.636810   1.000000
   16      -15.537341   1.000000
   17      -15.472494   1.000000
   18      -15.429795   1.000000
   19       -9.294248   1.000000
   20       -9.126961   1.000000
   21       -8.928375   1.000000
   22       -8.862428   1.000000
   23       -8.780055   1.000000
   24       -8.649757   1.000000
   25       -8.628568   1.000000
   26       -8.557859   1.000000
   27       -8.493145   1.000000
   28       -8.412473   1.000000
   29       -8.330531   1.000000
   30       -8.244697   1.000000
   31       -8.156193   1.000000
   32       -8.142046   1.000000
   33       -8.020872   1.000000
   34       -7.968858   1.000000
   35       -7.846394   1.000000
   36       -7.751855   1.000000
   37       -7.718681   1.000000
   38       -7.577114   1.000000
   39       -7.501430   1.000000
   40       -7.468456   1.000000
   41       -7.329340   1.000000
   42       -7.206020   1.000000
   43       -7.158976   1.000000
   44       -6.961868   1.000000
   45       -6.860333   1.000000
   46       -6.804861   1.000000
   47       -6.727722   1.000000
   48       -6.619503   1.000000
   49       -6.545146   1.000000
   50       -6.499127   1.000000
   51       -6.435961   1.000000
   52       -6.395703   1.000000
   53       -6.350696   1.000000
   54       -6.310528   1.000000
   55       -6.229499   1.000000
   56       -6.169689   1.000000
   57       -6.079738   1.000000
   58       -5.848856   1.000000
   59       -5.631982   1.000000
   60       -5.572589   1.000000
   61       -5.507991   1.000000
   62       -5.313962   1.000000
   63       -5.237812   1.000000
   64       -5.170465   1.000000
   65       -5.125145   1.000000
   66       -5.086932   1.000000
   67       -4.965664   1.000000
   68       -4.912319   1.000000
   69       -4.676133   1.000000
   70       -4.647475   1.000000
   71       -4.577158   1.000000
   72       -4.406964   1.000000
   73       -4.295424   1.000000
   74       -4.101636   1.000000
   75       -4.035460   1.000000
   76       -3.950345   1.000000
   77       -3.683643   0.999999
   78       -3.637747   0.999993
   79       -3.514125   0.999753
   80       -2.965254   0.345598
   81       -2.907489   0.210209
   82       -2.730290   0.019762
   83       -2.646532   0.004013
   84       -2.544353   0.000371
   85       -2.478719   0.000062
   86       -2.421574   0.000011
   87       -2.281510   0.000000
   88       -2.211112   0.000000
   89       -2.145246   0.000000
   90       -2.084363   0.000000
   91       -1.842484   0.000000
   92       -1.725803   0.000000
   93       -1.687490   0.000000
   94       -1.453933   0.000000
   95       -1.305149   0.000000
   96       -1.285231   0.000000
   97       -1.069888   0.000000
   98       -1.013870   0.000000
   99       -0.867023   0.000000
  100       -0.515915   0.000000
  101       -0.462804   0.000000
  102       -0.396102   0.000000
  103       -0.343478   0.000000
  104       -0.265460   0.000000
  105       -0.116696   0.000000
  106       -0.020350   0.000000
  107        0.134372   0.000000
  108        0.268506   0.000000
  109        0.324948   0.000000
  110        0.445714   0.000000
  111        0.481186   0.000000
  112        0.699419   0.000000
  113        0.818170   0.000000
  114        0.938732   0.000000
  115        0.996223   0.000000
  116        1.060493   0.000000
  117        1.126283   0.000000
  118        1.723941   0.000000
  119        1.875296   0.000000
  120        2.223402   0.000000
 
  0.2500000E+00  0.5551115E-16  0.0000000E+00  0.3125000E-01
    1      -17.721290   1.000000
    2      -16.983846   1.000000
    3      -16.664306   1.000000
    4      -16.584151   1.000000
    5      -16.538053   1.000000
    6      -16.299738   1.000000
    7      -16.251612   1.000000
    8      -16.227857   1.000000
    9      -16.187434   1.000000
   10      -16.112396   1.000000
   11      -16.007465   1.000000
   12      -15.871806   1.000000
   13      -15.799554   1.000000
   14      -15.705957   1.000000
   15      -15.666031   1.000000
   16      -15.585077   1.000000
   17      -15.488240   1.000000
   18      -15.454207   1.000000
   19       -9.494262   1.000000
   20       -9.235100   1.000000
   21       -9.057265   1.000000
   22       -8.980474   1.000000
   23       -8.939894   1.000000
   24       -8.750189   1.000000
   25       -8.570686   1.000000
   26       -8.519769   1.000000
   27       -8.448547   1.000000
   28       -8.385283   1.000000
   29       -8.264789   1.000000
   30       -8.221251   1.000000
   31       -8.179948   1.000000
   32       -8.054581   1.000000
   33       -7.887117   1.000000
   34       -7.787555   1.000000
   35       -7.728895   1.000000
   36       -7.654280   1.000000
   37       -7.608315   1.000000
   38       -7.537868   1.000000
   39       -7.427057   1.000000
   40       -7.362085   1.000000
   41       -7.216872   1.000000
   42       -7.161041   1.000000
   43       -7.091516   1.000000
   44       -7.018272   1.000000
   45       -6.923630   1.000000
   46       -6.852978   1.000000
   47       -6.743420   1.000000
   48       -6.670714   1.000000
   49       -6.583199   1.000000
   50       -6.538322   1.000000
   51       -6.479121   1.000000
   52       -6.404513   1.000000
   53       -6.318179   1.000000
   54       -6.241751   1.000000
   55       -6.178861   1.000000
   56       -6.136945   1.000000
   57       -6.072516   1.000000
   58       -5.843399   1.000000
   59       -5.618308   1.000000
   60       -5.592768   1.000000
   61       -5.538871   1.000000
   62       -5.440502   1.000000
   63       -5.416442   1.000000
   64       -5.338085   1.000000
   65       -5.276696   1.000000
   66       -5.115950   1.000000
   67       -5.044196   1.000000
   68       -4.933381   1.000000
   69       -4.672799   1.000000
   70       -4.648880   1.000000
   71       -4.538296   1.000000
   72       -4.270812   1.000000
   73       -4.211971   1.000000
   74       -4.102460   1.000000
   75       -3.919594   1.000000
   76       -3.894119   1.000000
   77       -3.740272   1.000000
   78       -3.671370   0.999998
   79       -3.506237   0.999696
   80       -2.854854   0.119422
   81       -2.833692   0.092169
   82       -2.756703   0.030609
   83       -2.701844   0.011916
   84       -2.571052   0.000725
   85       -2.493861   0.000096
   86       -2.401787   0.000006
   87       -2.268716   0.000000
   88       -2.222966   0.000000
   89       -2.179372   0.000000
   90       -2.079215   0.000000
   91       -1.848761   0.000000
   92       -1.708240   0.000000
   93       -1.660424   0.000000
   94       -1.393926   0.000000
   95       -1.266908   0.000000
   96       -1.233903   0.000000
   97       -1.056642   0.000000
   98       -0.969199   0.000000
   99       -0.780142   0.000000
  100       -0.674861   0.000000
  101       -0.621232   0.000000
  102       -0.534427   0.000000
  103       -0.492318   0.000000
  104       -0.356162   0.000000
  105       -0.280293   0.000000
  106       -0.167740   0.000000
  107       -0.000737   0.000000
  108        0.167834   0.000000
  109        0.195121   0.000000
  110        0.461734   0.000000
  111        0.565788   0.000000
  112        0.602763   0.000000
  113        0.859279   0.000000
  114        1.042481   0.000000
  115        1.096358   0.000000
  116        1.214669   0.000000
  117        1.311585   0.000000
  118        1.844560   0.000000
  119        1.990077   0.000000
  120        2.327965   0.000000
 
  0.3750000E+00  0.0000000E+00  0.0000000E+00  0.3125000E-01
    1      -17.594600   1.000000
    2      -17.215460   1.000000
    3      -16.706214   1.000000
    4      -16.607871   1.000000
    5      -16.520196   1.000000
    6      -16.355829   1.000000
    7      -16.227003   1.000000
    8      -16.190345   1.000000
    9      -16.140653   1.000000
   10      -16.069373   1.000000
   11      -15.968037   1.000000
   12      -15.867926   1.000000
   13      -15.732735   1.000000
   14      -15.683220   1.000000
   15      -15.653205   1.000000
   16      -15.574384   1.000000
   17      -15.529215   1.000000
   18      -15.478633   1.000000
   19       -9.726934   1.000000
   20       -9.275813   1.000000
   21       -9.155231   1.000000
   22       -9.058928   1.000000
   23       -8.929673   1.000000
   24       -8.829856   1.000000
   25       -8.525812   1.000000
   26       -8.502924   1.000000
   27       -8.395887   1.000000
   28       -8.375686   1.000000
   29       -8.253542   1.000000
   30       -8.232850   1.000000
   31       -8.152165   1.000000
   32       -8.024794   1.000000
   33       -7.893343   1.000000
   34       -7.781491   1.000000
   35       -7.686422   1.000000
   36       -7.637307   1.000000
   37       -7.537269   1.000000
   38       -7.411383   1.000000
   39       -7.333086   1.000000
   40       -7.230228   1.000000
   41       -7.184418   1.000000
   42       -7.100019   1.000000
   43       -7.028758   1.000000
   44       -6.971733   1.000000
   45       -6.869753   1.000000
   46       -6.805486   1.000000
   47       -6.708296   1.000000
   48       -6.665421   1.000000
   49       -6.573405   1.000000
   50       -6.545167   1.000000
   51       -6.387136   1.000000
   52       -6.380084   1.000000
   53       -6.284963   1.000000
   54       -6.207914   1.000000
   55       -6.121953   1.000000
   56       -6.018749   1.000000
   57       -5.988836   1.000000
   58       -5.909144   1.000000
   59       -5.874481   1.000000
   60       -5.776573   1.000000
   61       -5.730829   1.000000
   62       -5.699874   1.000000
   63       -5.602407   1.000000
   64       -5.521453   1.000000
   65       -5.231260   1.000000
   66       -5.004834   1.000000
   67       -4.952775   1.000000
   68       -4.826896   1.000000
   69       -4.758642   1.000000
   70       -4.614639   1.000000
   71       -4.585417   1.000000
   72       -4.511653   1.000000
   73       -4.147214   1.000000
   74       -4.116236   1.000000
   75       -3.979117   1.000000
   76       -3.792541   1.000000
   77       -3.594586   0.999975
   78       -3.464511   0.999135
   79       -3.413333   0.997207
   80       -2.933484   0.267009
   81       -2.893023   0.181942
   82       -2.740286   0.023406
   83       -2.653718   0.004659
   84       -2.606548   0.001675
   85       -2.454264   0.000030
   86       -2.413482   0.000009
   87       -2.260099   0.000000
   88       -2.228315   0.000000
   89       -2.176121   0.000000
   90       -2.077208   0.000000
   91       -1.832779   0.000000
   92       -1.703994   0.000000
   93       -1.640573   0.000000
   94       -1.363484   0.000000
   95       -1.235417   0.000000
   96       -1.185326   0.000000
   97       -1.064040   0.000000
   98       -0.933623   0.000000
   99       -0.794098   0.000000
  100       -0.760507   0.000000
  101       -0.689777   0.000000
  102       -0.617501   0.000000
  103       -0.603336   0.000000
  104       -0.499553   0.000000
  105       -0.461161   0.000000
  106       -0.299484   0.000000
  107       -0.073448   0.000000
  108        0.067985   0.000000
  109        0.104026   0.000000
  110        0.351371   0.000000
  111        0.587024   0.000000
  112        0.656879   0.000000
  113        0.857106   0.000000
  114        1.152609   0.000000
  115        1.188312   0.000000
  116        1.345246   0.000000
  117        1.456199   0.000000
  118        2.027196   0.000000
  119        2.165951   0.000000
  120        2.498710   0.000000
 
  0.5000000E+00  0.1110223E-15  0.0000000E+00  0.1562500E-01
    1      -17.433488   1.000000
    2      -17.413128   1.000000
    3      -16.721052   1.000000
    4      -16.619835   1.000000
    5      -16.499085   1.000000
    6      -16.388474   1.000000
    7      -16.227814   1.000000
    8      -16.190713   1.000000
    9      -16.101558   1.000000
   10      -16.024098   1.000000
   11      -15.981561   1.000000
   12      -15.853521   1.000000
   13      -15.718952   1.000000
   14      -15.692771   1.000000
   15      -15.643361   1.000000
   16      -15.569717   1.000000
   17      -15.537799   1.000000
   18      -15.483574   1.000000
   19       -9.810875   1.000000
   20       -9.304616   1.000000
   21       -9.191878   1.000000
   22       -9.096942   1.000000
   23       -8.879286   1.000000
   24       -8.805735   1.000000
   25       -8.644483   1.000000
   26       -8.472198   1.000000
   27       -8.380753   1.000000
   28       -8.350178   1.000000
   29       -8.231715   1.000000
   30       -8.188882   1.000000
   31       -8.125366   1.000000
   32       -8.039150   1.000000
   33       -7.894818   1.000000
   34       -7.831732   1.000000
   35       -7.721312   1.000000
   36       -7.645343   1.000000
   37       -7.515144   1.000000
   38       -7.377034   1.000000
   39       -7.302431   1.000000
   40       -7.245306   1.000000
   41       -7.139148   1.000000
   42       -7.029859   1.000000
   43       -6.975206   1.000000
   44       -6.903835   1.000000
   45       -6.851047   1.000000
   46       -6.745993   1.000000
   47       -6.686899   1.000000
   48       -6.633327   1.000000
   49       -6.589386   1.000000
   50       -6.450377   1.000000
   51       -6.404654   1.000000
   52       -6.344736   1.000000
   53       -6.245465   1.000000
   54       -6.177618   1.000000
   55       -6.114113   1.000000
   56       -6.067799   1.000000
   57       -6.011135   1.000000
   58       -5.945525   1.000000
   59       -5.860251   1.000000
   60       -5.847014   1.000000
   61       -5.830350   1.000000
   62       -5.754487   1.000000
   63       -5.640562   1.000000
   64       -5.593909   1.000000
   65       -5.274786   1.000000
   66       -5.115208   1.000000
   67       -4.951891   1.000000
   68       -4.849570   1.000000
   69       -4.748835   1.000000
   70       -4.603178   1.000000
   71       -4.538877   1.000000
   72       -4.515502   1.000000
   73       -4.250571   1.000000
   74       -4.094902   1.000000
   75       -3.937425   1.000000
   76       -3.700999   0.999999
   77       -3.617547   0.999988
   78       -3.361327   0.991879
   79       -3.322611   0.983400
   80       -2.988455   0.407811
   81       -2.937099   0.275480
   82       -2.739239   0.023000
   83       -2.649900   0.004305
   84       -2.624240   0.002488
   85       -2.426507   0.000013
   86       -2.408830   0.000007
   87       -2.258226   0.000000
   88       -2.228170   0.000000
   89       -2.167000   0.000000
   90       -2.074559   0.000000
   91       -1.822792   0.000000
   92       -1.705451   0.000000
   93       -1.634350   0.000000
   94       -1.357584   0.000000
   95       -1.231157   0.000000
   96       -1.168990   0.000000
   97       -1.078617   0.000000
   98       -0.920425   0.000000
   99       -0.840645   0.000000
  100       -0.769579   0.000000
  101       -0.690362   0.000000
  102       -0.629746   0.000000
  103       -0.626695   0.000000
  104       -0.571207   0.000000
  105       -0.547200   0.000000
  106       -0.359177   0.000000
  107       -0.086257   0.000000
  108        0.010653   0.000000
  109        0.086005   0.000000
  110        0.301051   0.000000
  111        0.598843   0.000000
  112        0.677412   0.000000
  113        0.855166   0.000000
  114        1.187763   0.000000
  115        1.227834   0.000000
  116        1.391392   0.000000
  117        1.510235   0.000000
  118        2.254825   0.000000
  119        2.267010   0.000000
  120        2.361831   0.000000
 
  0.0000000E+00  0.1250000E+00  0.0000000E+00  0.3125000E-01
    1      -17.799368   1.000000
    2      -16.727226   1.000000
    3      -16.625318   1.000000
    4      -16.566230   1.000000
    5      -16.527919   1.000000
    6      -16.383693   1.000000
    7      -16.306898   1.000000
    8      -16.255801   1.000000
    9      -16.200873   1.000000
   10      -16.066172   1.000000
   11      -15.998654   1.000000
   12      -15.937641   1.000000
   13      -15.912317   1.000000
   14      -15.798137   1.000000
   15      -15.626841   1.000000
   16      -15.540443   1.000000
   17      -15.487254   1.000000
   18      -15.420791   1.000000
   19       -9.288020   1.000000
   20       -9.120431   1.000000
   21       -8.964162   1.000000
   22       -8.861976   1.000000
   23       -8.758697   1.000000
   24       -8.694902   1.000000
   25       -8.588795   1.000000
   26       -8.529363   1.000000
   27       -8.485350   1.000000
   28       -8.393902   1.000000
   29       -8.365459   1.000000
   30       -8.259683   1.000000
   31       -8.206809   1.000000
   32       -8.119630   1.000000
   33       -8.038279   1.000000
   34       -7.966378   1.000000
   35       -7.825485   1.000000
   36       -7.734696   1.000000
   37       -7.680910   1.000000
   38       -7.593751   1.000000
   39       -7.540952   1.000000
   40       -7.446882   1.000000
   41       -7.290513   1.000000
   42       -7.238306   1.000000
   43       -7.184564   1.000000
   44       -6.906367   1.000000
   45       -6.851292   1.000000
   46       -6.796414   1.000000
   47       -6.763463   1.000000
   48       -6.679128   1.000000
   49       -6.594765   1.000000
   50       -6.462072   1.000000
   51       -6.417252   1.000000
   52       -6.378106   1.000000
   53       -6.344083   1.000000
   54       -6.274359   1.000000
   55       -6.228756   1.000000
   56       -6.185867   1.000000
   57       -6.081954   1.000000
   58       -5.822679   1.000000
   59       -5.677484   1.000000
   60       -5.574800   1.000000
   61       -5.439816   1.000000
   62       -5.343692   1.000000
   63       -5.297144   1.000000
   64       -5.149361   1.000000
   65       -5.096809   1.000000
   66       -5.044908   1.000000
   67       -4.995138   1.000000
   68       -4.881105   1.000000
   69       -4.741214   1.000000
   70       -4.653961   1.000000
   71       -4.566921   1.000000
   72       -4.374542   1.000000
   73       -4.274889   1.000000
   74       -4.218031   1.000000
   75       -4.013888   1.000000
   76       -3.891045   1.000000
   77       -3.713247   1.000000
   78       -3.635827   0.999993
   79       -3.477853   0.999375
   80       -2.973631   0.367682
   81       -2.910851   0.217130
   82       -2.746358   0.025884
   83       -2.596888   0.001341
   84       -2.572146   0.000744
   85       -2.506171   0.000135
   86       -2.400228   0.000006
   87       -2.318361   0.000000
   88       -2.230563   0.000000
   89       -2.132117   0.000000
   90       -2.112278   0.000000
   91       -1.841062   0.000000
   92       -1.740255   0.000000
   93       -1.591082   0.000000
   94       -1.474076   0.000000
   95       -1.321548   0.000000
   96       -1.268694   0.000000
   97       -1.072462   0.000000
   98       -1.005862   0.000000
   99       -0.867209   0.000000
  100       -0.517009   0.000000
  101       -0.449925   0.000000
  102       -0.420032   0.000000
  103       -0.338357   0.000000
  104       -0.212396   0.000000
  105       -0.103301   0.000000
  106       -0.042019   0.000000
  107        0.130582   0.000000
  108        0.233457   0.000000
  109        0.297343   0.000000
  110        0.396121   0.000000
  111        0.475891   0.000000
  112        0.738186   0.000000
  113        0.911400   0.000000
  114        0.952847   0.000000
  115        0.985303   0.000000
  116        1.033380   0.000000
  117        1.102151   0.000000
  118        1.724227   0.000000
  119        1.874663   0.000000
  120        2.223716   0.000000
 
  0.1250000E+00  0.1250000E+00  0.0000000E+00  0.3125000E-01
    1      -17.747325   1.000000
    2      -16.884031   1.000000
    3      -16.743350   1.000000
    4      -16.564990   1.000000
    5      -16.465164   1.000000
    6      -16.332990   1.000000
    7      -16.272012   1.000000
    8      -16.233841   1.000000
    9      -16.209734   1.000000
   10      -16.094567   1.000000
   11      -15.991376   1.000000
   12      -15.926890   1.000000
   13      -15.786116   1.000000
   14      -15.753034   1.000000
   15      -15.647868   1.000000
   16      -15.563330   1.000000
   17      -15.512399   1.000000
   18      -15.428928   1.000000
   19       -9.370639   1.000000
   20       -9.298067   1.000000
   21       -9.104502   1.000000
   22       -8.970914   1.000000
   23       -8.755114   1.000000
   24       -8.724374   1.000000
   25       -8.590417   1.000000
   26       -8.532452   1.000000
   27       -8.425264   1.000000
   28       -8.371030   1.000000
   29       -8.286817   1.000000
   30       -8.264624   1.000000
   31       -8.159379   1.000000
   32       -8.092279   1.000000
   33       -7.990181   1.000000
   34       -7.841399   1.000000
   35       -7.749757   1.000000
   36       -7.711053   1.000000
   37       -7.664350   1.000000
   38       -7.454087   1.000000
   39       -7.397326   1.000000
   40       -7.338076   1.000000
   41       -7.264702   1.000000
   42       -7.207509   1.000000
   43       -7.159620   1.000000
   44       -6.975330   1.000000
   45       -6.958184   1.000000
   46       -6.823871   1.000000
   47       -6.763080   1.000000
   48       -6.711923   1.000000
   49       -6.598860   1.000000
   50       -6.514923   1.000000
   51       -6.442153   1.000000
   52       -6.383019   1.000000
   53       -6.282747   1.000000
   54       -6.248761   1.000000
   55       -6.200814   1.000000
   56       -6.169300   1.000000
   57       -6.106553   1.000000
   58       -5.818407   1.000000
   59       -5.675258   1.000000
   60       -5.556861   1.000000
   61       -5.483183   1.000000
   62       -5.382272   1.000000
   63       -5.335737   1.000000
   64       -5.286223   1.000000
   65       -5.156441   1.000000
   66       -5.048574   1.000000
   67       -5.019306   1.000000
   68       -4.947619   1.000000
   69       -4.885663   1.000000
   70       -4.808725   1.000000
   71       -4.355921   1.000000
   72       -4.299905   1.000000
   73       -4.188864   1.000000
   74       -4.046750   1.000000
   75       -3.994204   1.000000
   76       -3.914326   1.000000
   77       -3.789826   1.000000
   78       -3.669035   0.999998
   79       -3.509325   0.999720
   80       -2.887609   0.172006
   81       -2.826437   0.083975
   82       -2.756051   0.030292
   83       -2.663698   0.005710
   84       -2.578099   0.000860
   85       -2.514261   0.000168
   86       -2.391002   0.000004
   87       -2.317877   0.000000
   88       -2.257398   0.000000
   89       -2.145110   0.000000
   90       -2.081249   0.000000
   91       -1.868901   0.000000
   92       -1.709134   0.000000
   93       -1.573001   0.000000
   94       -1.442583   0.000000
   95       -1.299228   0.000000
   96       -1.232876   0.000000
   97       -1.062401   0.000000
   98       -0.970422   0.000000
   99       -0.788902   0.000000
  100       -0.631439   0.000000
  101       -0.573616   0.000000
  102       -0.516951   0.000000
  103       -0.393472   0.000000
  104       -0.336446   0.000000
  105       -0.242330   0.000000
  106       -0.135681   0.000000
  107        0.023945   0.000000
  108        0.159738   0.000000
  109        0.311966   0.000000
  110        0.381208   0.000000
  111        0.532980   0.000000
  112        0.663637   0.000000
  113        0.879257   0.000000
  114        1.017547   0.000000
  115        1.098665   0.000000
  116        1.143255   0.000000
  117        1.223365   0.000000
  118        1.806254   0.000000
  119        1.952293   0.000000
  120        2.293712   0.000000
 
  0.2500000E+00  0.1250000E+00  0.0000000E+00  0.3125000E-01
    1      -17.645259   1.000000
    2      -17.095625   1.000000
    3      -16.841040   1.000000
    4      -16.540051   1.000000
    5      -16.438740   1.000000
    6      -16.324462   1.000000
    7      -16.252392   1.000000
    8      -16.223605   1.000000
    9      -16.175749   1.000000
   10      -16.060235   1.000000
   11      -15.977725   1.000000
   12      -15.900815   1.000000
   13      -15.773712   1.000000
   14      -15.656776   1.000000
   15      -15.633054   1.000000
   16      -15.602817   1.000000
   17      -15.536766   1.000000
   18      -15.445023   1.000000
   19       -9.623872   1.000000
   20       -9.392349   1.000000
   21       -9.197282   1.000000
   22       -9.006079   1.000000
   23       -8.818806   1.000000
   24       -8.714772   1.000000
   25       -8.537899   1.000000
   26       -8.486958   1.000000
   27       -8.392629   1.000000
   28       -8.357313   1.000000
   29       -8.288772   1.000000
   30       -8.229458   1.000000
   31       -8.151919   1.000000
   32       -8.073290   1.000000
   33       -7.995148   1.000000
   34       -7.854381   1.000000
   35       -7.813419   1.000000
   36       -7.548779   1.000000
   37       -7.456921   1.000000
   38       -7.398336   1.000000
   39       -7.357347   1.000000
   40       -7.240992   1.000000
   41       -7.191764   1.000000
   42       -7.113134   1.000000
   43       -7.082961   1.000000
   44       -6.973395   1.000000
   45       -6.861638   1.000000
   46       -6.816211   1.000000
   47       -6.766900   1.000000