unknown system                          
           1
     8.856330    5.108312    0.000000
    -8.853477    5.103403    0.000000
     0.000000    0.000000   30.000000
   V    Mo   W    S 
   3   3   3  18
Direct configuration=     1
   0.00000000  0.00000000  0.00000000
   0.66666669  0.66666669  0.00000000
   1.00000000  0.33333334  0.00000000
   0.66666669  0.00000000  0.00000000
   0.33333334  0.00000000  0.00000000
   0.33333334  0.33333334  0.00000000
   0.00000000  0.66666669  0.00000000
   0.33333334  0.66666669  0.00000000
   0.66666669  0.33333334  0.00000000
   0.11068511  0.22244981  0.95539999
   0.22244981  0.11068511  0.04460000
   0.11068511  0.55578315  0.95539999
   0.22244981  0.44401845  0.04460000
   0.11068511  0.88911647  0.95539999
   0.22244981  0.77735180  0.04460000
   0.44401845  0.22244981  0.95539999
   0.55578315  0.11068511  0.04460000
   0.44401845  0.55578315  0.95539999
   0.55578315  0.44401845  0.04460000
   0.44401845  0.88911647  0.95539999
   0.55578315  0.77735180  0.04460000
   0.77735180  0.22244981  0.95539999
   0.88911647  0.11068511  0.04460000
   0.77735180  0.55578315  0.95539999
   0.88911647  0.44401845  0.04460000
   0.77735180  0.88911647  0.95539999
   0.88911647  0.77735180  0.04460000
unknown system                          
           1
     8.668428    5.002016    0.000000
    -8.665832    4.997553    0.000000
     0.000000    0.000000   30.000000
   V    Mo   W    S 
   3   3   3  18
Direct configuration=     2
   0.00069704  0.00116649 -0.00002188
   0.66592194  0.66717312  0.00010298
   1.00007074  0.33181545 -0.00013023
   0.66565987 -0.00007174 -0.00008017
   0.33464481  0.00141182  0.00004222
   0.33316437  0.33171417  0.00004074
   0.00121093  0.66838650  0.00004542
   0.33487310  0.66788142 -0.00017639
   0.66369266  0.33040115  0.00020682
   0.10651257  0.22019034  0.95307255
   0.21767670  0.10882733  0.04805409
   0.10922805  0.55164308  0.95187012
   0.21811028  0.44306782  0.04798273
   0.10817907  0.89023058  0.95200152
   0.22166520  0.77701965  0.04924939
   0.44519798  0.22254453  0.95068001
   0.55598375  0.11210692  0.04932220
   0.44826583  0.55811512  0.95194487
   0.55828505  0.44850907  0.04810089
   0.44373215  0.88770503  0.95074370
   0.55705058  0.77475604  0.04805459
   0.78193040  0.22484671  0.95192033
   0.89320772  0.11297618  0.04688946
   0.77577035  0.55749748  0.95207935
   0.89072301  0.44238779  0.04792979
   0.77981167  0.88662846  0.95308986
   0.88694864  0.77928394  0.04698493
unknown system                          
           1
     8.486723    4.901002    0.000000
    -8.485006    4.898057    0.000000
     0.000000    0.000000   30.000000
   V    Mo   W    S 
   3   3   3  18
Direct configuration=     3
   0.00093899  0.00146047 -0.00002264
   0.66563973  0.66726220  0.00006184
   1.00012963  0.33151713 -0.00010102
   0.66485741 -0.00008093 -0.00012621
   0.33541535  0.00197118  0.00004771
   0.33342231  0.33122159  0.00008878
   0.00185985  0.66889924  0.00003864
   0.33520584  0.66842437 -0.00019916
   0.66245869  0.32920944  0.00022584
   0.10642515  0.22009170  0.95305457
   0.21750681  0.10873496  0.04809534
   0.10928941  0.55179064  0.95193038
   0.21812650  0.44323574  0.04788889
   0.10802617  0.89004214  0.95200922
   0.22159272  0.77681289  0.04924974
   0.44543011  0.22265602  0.95055174
   0.55609988  0.11234464  0.04947994
   0.44825256  0.55829843  0.95197596
   0.55849446  0.44849081  0.04810343
   0.44357065  0.88746523  0.95064419
   0.55687981  0.77460221  0.04809737
   0.78191550  0.22505717  0.95193927
   0.89326928  0.11300635  0.04683949
   0.77587098  0.55740748  0.95223290
   0.89062921  0.44247574  0.04779885
   0.77985564  0.88661206  0.95318139
   0.88705180  0.77920558  0.04691344
unknown system                          
           1
     8.278998    4.786054    0.000000
    -8.272895    4.775510    0.000000
     0.000000    0.000000   30.000000
   V    Mo   W    S 
   3   3   3  18
Direct configuration=     4
   0.00192372  0.00233208 -0.00001567
   0.66430666  0.66735872 -0.00012841
   1.00045169  0.33096171  0.00006772
   0.66104132 -0.00016096 -0.00024048
   0.33886278  0.00407421  0.00004840
   0.33489250  0.32954677  0.00024163
   0.00459262  0.67053050 -0.00001169
   0.33609421  0.67066319 -0.00018212
   0.65764645  0.32455989  0.00019095
   0.10548182  0.21937625  0.95165335
   0.21608077  0.10789060  0.04969323
   0.10887977  0.55083251  0.95064619
   0.21722912  0.44284386  0.04892258
   0.10769722  0.89074366  0.95057049
   0.22189406  0.77691817  0.05089191
   0.44546390  0.22264652  0.94840405
   0.55609101  0.11225954  0.05178592
   0.44924234  0.55877101  0.95065359
   0.55928913  0.44958756  0.04960030
   0.44332422  0.88743173  0.94860779
   0.55743440  0.77418520  0.04972420
   0.78290955  0.22584261  0.95056093
   0.89401385  0.11333505  0.04792702
   0.77548501  0.55756135  0.95142578
   0.89084592  0.44203156  0.04871224
   0.78040919  0.88628765  0.95224117
   0.88663120  0.77980353  0.04800879
unknown system                          
           1
     8.286651    4.796523    0.000000
    -8.273616    4.773975    0.000000
     0.000000    0.000000   30.000000
   V    Mo   W    S 
   3   3   3  18
Direct configuration=     5
   0.00357583  0.00351033  0.00001185
   0.66146784  0.66765081 -0.00047645
   1.00144505  0.33067117  0.00041098
   0.65328803 -0.00053243 -0.00028456
   0.34568279  0.00767231  0.00003328
   0.33789803  0.32617409  0.00042376
   0.01069053  0.67405090 -0.00015108
   0.33745239  0.67544557 -0.00004337
   0.64826888  0.31548088  0.00004469
   0.10519816  0.21867076  0.94966469
   0.21511857  0.10695952  0.05187947
   0.10897915  0.54971974  0.94882996
   0.21720940  0.44249796  0.05006693
   0.10841664  0.89233436  0.94870147
   0.22309604  0.77821822  0.05318400
   0.44483732  0.22204562  0.94525905
   0.55567460  0.11166309  0.05528524
   0.44973640  0.55866720  0.94902926
   0.55999344  0.45028973  0.05170968
   0.44299545  0.88784704  0.94556245
   0.55814133  0.77443215  0.05188795
   0.78314161  0.22601872  0.94876455
   0.89368629  0.11297571  0.04931837
   0.77499855  0.55692920  0.95085700
   0.89025229  0.44133860  0.04958108
   0.78058006  0.88669565  0.95099568
   0.88638981  0.78078755  0.04945395
unknown system                          
           1
     8.285524    4.795548    0.000000
    -8.271932    4.772040    0.000000
     0.000000    0.000000   30.000000
   V    Mo   W    S 
   3   3   3  18
Direct configuration=     6
   0.00395606  0.00372203  0.00004526
   0.66012082  0.66795107 -0.00050087
   1.00204584  0.33080211  0.00043074
   0.65199759 -0.00113883 -0.00019685
   0.34547812  0.00708843 -0.00001909
   0.33832028  0.32498385  0.00038217
   0.01361838  0.67578402 -0.00024225
   0.33758025  0.67730686 -0.00012058
   0.64697026  0.31423744  0.00012264
   0.10575305  0.21884413  0.94966818
   0.21594131  0.10695493  0.05194232
   0.10958754  0.54991670  0.94876422
   0.21846606  0.44283481  0.04985630
   0.10933394  0.89283075  0.94864481
   0.22384543  0.77913361  0.05350000
   0.44426825  0.22143554  0.94486578
   0.55547173  0.11141704  0.05568142
   0.44892562  0.55826787  0.94917000
   0.56004465  0.44967927  0.05176223
   0.44277267  0.88802527  0.94523328
   0.55796913  0.77484456  0.05202047
   0.78212041  0.22547591  0.94883163
   0.89269453  0.11240305  0.04917443
   0.77507987  0.55595224  0.95140100
   0.88922378  0.44125663  0.04917886
   0.77998056  0.88742765  0.95109063
   0.88664832  0.78077751  0.04931316
unknown system                          
           1
     8.282091    4.792767    0.000000
    -8.269885    4.771656    0.000000
     0.000000    0.000000   30.000000
   V    Mo   W    S 
   3   3   3  18
Direct configuration=     7
   0.00419301  0.00390424  0.00008714
   0.65920641  0.66821646 -0.00053025
   1.00232264  0.33077399  0.00047220
   0.65110875 -0.00155275 -0.00017401
   0.34551327  0.00686998 -0.00001920
   0.33868952  0.32409261  0.00037482
   0.01558982  0.67693318 -0.00027435
   0.33770232  0.67860032 -0.00013125
   0.64568646  0.31307031  0.00011023
   0.10593400  0.21888239  0.94964603
   0.21618818  0.10691013  0.05200013
   0.10986542  0.55000284  0.94869378
   0.21900460  0.44301245  0.04971402
   0.10962753  0.89305800  0.94853835
   0.22415491  0.77945320  0.05372136
   0.44413901  0.22118594  0.94468990
   0.55530158  0.11125931  0.05586480
   0.44856307  0.55810974  0.94923489
   0.56004275  0.44949442  0.05180212
   0.44273340  0.88812586  0.94503125
   0.55782935  0.77490678  0.05213654
   0.78178156  0.22528066  0.94886907
   0.89233868  0.11219988  0.04909803
   0.77526246  0.55569651  0.95172687
   0.88889747  0.44130840  0.04896068
   0.77977335  0.88768041  0.95114333
   0.88676493  0.78073917  0.04921341
unknown system                          
           1
     8.278351    4.788542    0.000000
    -8.268479    4.771473    0.000000
     0.000000    0.000000   30.000000
   V    Mo   W    S 
   3   3   3  18
Direct configuration=     8
   0.00397665  0.00371117  0.00006072
   0.66002615  0.66795151 -0.00050280
   1.00213696  0.33086522  0.00043284
   0.65163322 -0.00119089 -0.00019174
   0.34571655  0.00710960 -0.00000847
   0.33846725  0.32486152  0.00037240
   0.01396734  0.67600494 -0.00022523
   0.33763185  0.67759551 -0.00011764
   0.64655578  0.31384419  0.00009800
   0.10582033  0.21886937  0.94964549
   0.21604111  0.10694075  0.05195623
   0.10965270  0.54990459  0.94873336
   0.21857025  0.44286245  0.04985996
   0.10949129  0.89291885  0.94862177
   0.22390306  0.77923866  0.05352423
   0.44427686  0.22141136  0.94482647
   0.55541580  0.11138648  0.05575072
   0.44890276  0.55825955  0.94916428
   0.56005340  0.44964077  0.05179669
   0.44276005  0.88805352  0.94517310
   0.55794687  0.77488352  0.05203881
   0.78198979  0.22540052  0.94882565
   0.89255296  0.11232627  0.04916481
   0.77506657  0.55581789  0.95143686
   0.88909648  0.44122528  0.04915518
   0.77989810  0.88752342  0.95109308
   0.88666431  0.78079845  0.04931511
unknown system                          
           1
     8.269263    4.785824    0.000000
    -8.256988    4.764590    0.000000
     0.000000    0.000000   30.000000
   V    Mo   W    S 
   3   3   3  18
Direct configuration=     9
   0.00300952  0.00252973 -0.00002311
   0.66285137  0.66692229 -0.00042481
   1.00212826  0.33181831  0.00029728
   0.65197546 -0.00033680 -0.00019116
   0.34690146  0.00744188  0.00000506
   0.33823865  0.32745687  0.00035345
   0.00931475  0.67358762 -0.00009236
   0.33745173  0.67503199 -0.00010427
   0.64868077  0.31568799  0.00008817
   0.10562023  0.21889705  0.94956313
   0.21600492  0.10690480  0.05183839
   0.10915595  0.54956601  0.94876338
   0.21758800  0.44261962  0.05039190
   0.10973679  0.89279080  0.94887303
   0.22346325  0.77909457  0.05303175
   0.44446851  0.22177310  0.94502860
   0.55560121  0.11175480  0.05568333
   0.45005844  0.55894152  0.94891655
   0.56027414  0.45010540  0.05192145
   0.44259806  0.88783772  0.94537331
   0.55829651  0.77489578  0.05177845
   0.78217241  0.22547182  0.94860117
   0.89270918  0.11243403  0.04932813
   0.77437560  0.55566750  0.95057554
   0.88922475  0.44087178  0.04973331
   0.77998109  0.88737234  0.95096437
   0.88633343  0.78107593  0.04972587
unknown system                          
           1
     8.279971    4.792642    0.000000
    -8.266266    4.768935    0.000000
     0.000000    0.000000   30.000000
   V    Mo   W    S 
   3   3   3  18
Direct configuration=    10
   0.00302286  0.00252481  0.00001276
   0.66317147  0.66636061 -0.00045339
   1.00334933  0.33241335  0.00036656
   0.65084654 -0.00008216 -0.00015400
   0.34793009  0.00782585 -0.00002351
   0.33848050  0.32755836  0.00035492
   0.00923651  0.67369011 -0.00010982
   0.33727871  0.67524478 -0.00008963
   0.64766904  0.31488279  0.00007878
   0.10587104  0.21904401  0.94963398
   0.21651049  0.10706067  0.05170322
   0.10931114  0.54971368  0.94873598
   0.21800692  0.44269504  0.05033059
   0.11024105  0.89292466  0.94890263
   0.22363624  0.77936000  0.05307000
   0.44420221  0.22156199  0.94497129
   0.55549787  0.11175737  0.05596078
   0.45002164  0.55894358  0.94895536
   0.56024289  0.44983388  0.05198284
   0.44239130  0.88768331  0.94512302
   0.55818439  0.77502512  0.05175872
   0.78151078  0.22505837  0.94868697
   0.89218272  0.11220845  0.04909589
   0.77452151  0.55516213  0.95067159
   0.88881502  0.44084558  0.04955661
   0.77956870  0.88780678  0.95110522
   0.88651350  0.78111137  0.04977254
unknown system                          
           1
     8.284463    4.796186    0.000000
    -8.269168    4.769729    0.000000
     0.000000    0.000000   30.000000
   V    Mo   W    S 
   3   3   3  18
Direct configuration=    11
   0.00343138  0.00295205  0.00004613
   0.66179554  0.66679626 -0.00048629
   1.00374072  0.33223012  0.00041187
   0.65008860 -0.00071145 -0.00014801
   0.34749654  0.00741296 -0.00003633
   0.33873887  0.32626527  0.00034419
   0.01191729  0.67520113 -0.00016553
   0.33736663  0.67685577 -0.00011896
   0.64630863  0.31371520  0.00011316
   0.10600510  0.21906012  0.94961982
   0.21663147  0.10699487  0.05180434
   0.10959800  0.54982524  0.94866650
   0.21863421  0.44289864  0.05012306
   0.11030997  0.89311972  0.94874602
   0.22394937  0.77960108  0.05337611
   0.44400038  0.22126984  0.94475193
   0.55533044  0.11156704  0.05610855
   0.44948317  0.55866210  0.94906337
   0.56019293  0.44963495  0.05199214
   0.44239823  0.88779706  0.94494188
   0.55801391  0.77502254  0.05191180
   0.78132724  0.22497273  0.94877690
   0.89193766  0.11206987  0.04901688
   0.77482938  0.55505638  0.95110540
   0.88859819  0.44097191  0.04924806
   0.77943442  0.88797258  0.95118620
   0.88665621  0.78100046  0.04960071
unknown system                          
           1
     8.271606    4.786052    0.000000
    -8.260890    4.767519    0.000000
     0.000000    0.000000   30.000000
   V    Mo   W    S 
   3   3   3  18
Direct configuration=    12
   0.00364298  0.00314886  0.00007499
   0.66106754  0.66683070 -0.00051526
   1.00471589  0.33249297  0.00044504
   0.64897549 -0.00118299 -0.00012808
   0.34756815  0.00711903 -0.00005769
   0.33900625  0.32544927  0.00032717
   0.01382627  0.67641331 -0.00019660
   0.33730532  0.67806580 -0.00014958
   0.64496667  0.31267572  0.00014689
   0.10614870  0.21911271  0.94961140
   0.21686135  0.10695493  0.05182909
   0.10981669  0.54992701  0.94860431
   0.21919917  0.44310469  0.05000467
   0.11051091  0.89330491  0.94865208
   0.22419670  0.77984736  0.05358889
   0.44377079  0.22099056  0.94457419
   0.55516452  0.11145790  0.05629512
   0.44917398  0.55853195  0.94915903
   0.56016404  0.44944889  0.05203394
   0.44230389  0.88779911  0.94474660
   0.55785994  0.77503676  0.05198507
   0.78099692  0.22480616  0.94889189
   0.89159000  0.11190503  0.04887889
   0.77505258  0.55477153  0.95141316
   0.88830849  0.44102722  0.04896811
   0.77921708  0.88821351  0.95131020
   0.88680414  0.78096155  0.04950637
unknown system                          
           1
     8.272054    4.786213    0.000000
    -8.262177    4.769130    0.000000
     0.000000    0.000000   30.000000
   V    Mo   W    S 
   3   3   3  18
Direct configuration=    13
   0.00335543  0.00294294 -0.00002423
   0.66310988  0.66677303 -0.00041689
   1.00161964  0.33156588  0.00035946
   0.65178458  0.00042238 -0.00022052
   0.34778884  0.00810356 -0.00000275
   0.33829083  0.32758975  0.00034551
   0.00875406  0.67301114 -0.00008311
   0.33748425  0.67495116 -0.00007877
   0.64841964  0.31496414  0.00006833
   0.10581584  0.21903996  0.94967543
   0.21633310  0.10709132  0.05177285
   0.10926408  0.54952156  0.94877724
   0.21759149  0.44242761  0.05030809
   0.11014782  0.89290227  0.94893657
   0.22351066  0.77922401  0.05297864
   0.44434960  0.22181083  0.94500800
   0.55562043  0.11180366  0.05589324
   0.44997382  0.55881312  0.94882896
   0.56028161  0.44985886  0.05194924
   0.44257856  0.88779573  0.94527291
   0.55830702  0.77511469  0.05183447
   0.78182717  0.22518137  0.94848639
   0.89244836  0.11229079  0.04928181
   0.77435794  0.55533859  0.95050385
   0.88899616  0.44078835  0.04979248
   0.77976836  0.88776261  0.95094809
   0.88643529  0.78112513  0.04980459
unknown system                          
           1
     8.268324    4.784712    0.000000
    -8.256479    4.764224    0.000000
     0.000000    0.000000   30.000000
   V    Mo   W    S 
   3   3   3  18
Direct configuration=    14
   0.00339031  0.00287716 -0.00007321
   0.66386218  0.66666941 -0.00041274
   0.99964510  0.33092469  0.00038049
   0.65271071  0.00146561 -0.00019991
   0.34837539  0.00888196  0.00001056
   0.33843132  0.32870494  0.00037786
   0.00620073  0.67125628 -0.00009220
   0.33799563  0.67382869 -0.00001682
   0.64996944  0.31566173  0.00003765
   0.10579456  0.21915320  0.94970845
   0.21638203  0.10722052  0.05175714
   0.10907328  0.54924820  0.94885667
   0.21704284  0.44213514  0.05034660
   0.11028763  0.89276910  0.94912061
   0.22333379  0.77915836  0.05273554
   0.44448678  0.22209635  0.94507476
   0.55577226  0.11189029  0.05593966
   0.45035422  0.55896472  0.94869570
   0.56039221  0.44988040  0.05189525
   0.44260439  0.88777788  0.94535772
   0.55854315  0.77531772  0.05173932
   0.78187996  0.22517116  0.94816473
   0.89248377  0.11223995  0.04943346
   0.77405962  0.55531566  0.95020487
   0.88897672  0.44059270  0.05015466
   0.77982032  0.88781096  0.95088754
   0.88634610  0.78120168  0.04991554
unknown system                          
           1
     8.273758    4.788242    0.000000
    -8.261274    4.766649    0.000000
     0.000000    0.000000   30.000000
   V    Mo   W    S 
   3   3   3  18
Direct configuration=    15
   0.00386335  0.00317888 -0.00006093
   0.66297239  0.66673246 -0.00044252
   0.99968964  0.33076351  0.00041462
   0.65142198  0.00137949 -0.00019357
   0.34888785  0.00900909 -0.00000031
   0.33890980  0.32789626  0.00035077
   0.00757780  0.67198654 -0.00013775
   0.33845432  0.67527870 -0.00003402
   0.64891383  0.31433858  0.00006228
   0.10597144  0.21930482  0.94978443
   0.21676792  0.10726327  0.05173657
   0.10930580  0.54928311  0.94890291
   0.21759678  0.44235897  0.05011135
   0.11060510  0.89290628  0.94912878
   0.22354143  0.77938445  0.05281409
   0.44433780  0.22187950  0.94492639
   0.55559796  0.11181188  0.05616508
   0.45006823  0.55887442  0.94879897
   0.56046683  0.44964139  0.05189217
   0.44250070  0.88778783  0.94519934
   0.55848096  0.77544898  0.05177685
   0.78135720  0.22487520  0.94820953
   0.89197421  0.11195441  0.04926905
   0.77428850  0.55494371  0.95055486
   0.88854949  0.44059425  0.04989714
   0.77956908  0.88822871  0.95111861
   0.88654406  0.78110978  0.04975518
unknown system                          
           1
     8.282470    4.793926    0.000000
    -8.268221    4.769281    0.000000
     0.000000    0.000000   30.000000
   V    Mo   W    S 
   3   3   3  18
Direct configuration=    16
   0.00390382  0.00321333 -0.00003604
   0.66249723  0.66678328 -0.00046022
   1.00033396  0.33094818  0.00043076
   0.65097948  0.00094889 -0.00017121
   0.34863279  0.00868484 -0.00000994
   0.33902428  0.32740093  0.00035038
   0.00880022  0.67280488 -0.00015933
   0.33835639  0.67591814 -0.00005131
   0.64819781  0.31395934  0.00007403
   0.10601808  0.21928933  0.94975327
   0.21681492  0.10721032  0.05176875
   0.10942279  0.54937818  0.94884999
   0.21790479  0.44249654  0.05005956
   0.11062179  0.89299530  0.94903752
   0.22368081  0.77949084  0.05297037
   0.44424704  0.22171450  0.94483862
   0.55550212  0.11172943  0.05622148
   0.44989426  0.55880507  0.94885958
   0.56043729  0.44959396  0.05191438
   0.44245687  0.88781192  0.94508975
   0.55838754  0.77540578  0.05183163
   0.78126327  0.22484105  0.94829694
   0.89186488  0.11190971  0.04920537
   0.77441212  0.55488332  0.95073561
   0.88847292  0.44066037  0.04973820
   0.77949285  0.88825906  0.95116232
   0.88659411  0.78107798  0.04969944
unknown system                          
           1
     8.280755    4.792354    0.000000
    -8.267819    4.769979    0.000000
     0.000000    0.000000   30.000000
   V    Mo   W    S 
   3   3   3  18
Direct configuration=    17
   0.00432584  0.00348142  0.00000935
   0.66119580  0.66694850 -0.00050597
   1.00089675  0.33093519  0.00048856
   0.64978022  0.00030728 -0.00012279
   0.34833950  0.00819319 -0.00002694
   0.33954148  0.32611644  0.00034120
   0.01162851  0.67455128 -0.00022450
   0.33849088  0.67777711 -0.00008677
   0.64656290  0.31263750  0.00009379
   0.10618462  0.21934190  0.94974719
   0.21706944  0.10714817  0.05182926
   0.10975724  0.54951885  0.94878956
   0.21864497  0.44281433  0.04981536
   0.11079296  0.89322595  0.94888158
   0.22400757  0.77976244  0.05328142
   0.44408034  0.22136375  0.94462048
   0.55524260  0.11155007  0.05642957
   0.44946419  0.55863357  0.94899848
   0.56045053  0.44940117  0.05194072
   0.44234400  0.88789732  0.94482087
   0.55823042  0.77542739  0.05196462
   0.78086161  0.22463273  0.94840964
   0.89145647  0.11166990  0.04904026
   0.77466773  0.55458175  0.95120822
   0.88814881  0.44075941  0.04938989
   0.77927766  0.88852967  0.95134238
   0.88677142  0.78100816  0.04952446
unknown system                          
           1
     8.267048    4.783359    0.000000
    -8.255953    4.764171    0.000000
     0.000000    0.000000   30.000000
   V    Mo   W    S 
   3   3   3  18
Direct configuration=    18
   0.00402130  0.00325215 -0.00002096
   0.66222336  0.66675633 -0.00047176
   1.00063059  0.33104709  0.00044359
   0.65049315  0.00083865 -0.00014609
   0.34875421  0.00865383 -0.00001479
   0.33921800  0.32710568  0.00034327
   0.00942483  0.67320808 -0.00017343
   0.33840877  0.67642582 -0.00005989
   0.64767412  0.31351472  0.00007673
   0.10607435  0.21932902  0.94973679
   0.21693346  0.10718889  0.05178721
   0.10951777  0.54937709  0.94881607
   0.21813015  0.44257997  0.05001589
   0.11074695  0.89309620  0.94899925
   0.22376711  0.77960187  0.05305378
   0.44419261  0.22162639  0.94475033
   0.55542063  0.11168664  0.05634226
   0.44981526  0.55877017  0.94888067
   0.56045230  0.44952910  0.05194245
   0.44238279  0.88781560  0.94496676
   0.55838147  0.77544741  0.05187720
   0.78109457  0.22474807  0.94830948
   0.89168113  0.11180234  0.04914872
   0.77443188  0.55471033  0.95084517
   0.88831859  0.44063174  0.04965400
   0.77938948  0.88839358  0.95122851
   0.88663561  0.78107768  0.04966869
unknown system                          
           1
     8.283923    4.795333    0.000000
    -8.269321    4.770076    0.000000
     0.000000    0.000000   30.000000
   V    Mo   W    S 
   3   3   3  18
Direct configuration=    19
   0.00347681  0.00269563 -0.00008787
   0.66447344  0.66625096 -0.00040525
   1.00087134  0.33169325  0.00035420
   0.65082781  0.00175053 -0.00018083
   0.35016404  0.00958950 -0.00000996
   0.33870343  0.32885876  0.00033432
   0.00519463  0.67075640 -0.00007781
   0.33830400  0.67429171 -0.00002005
   0.64921616  0.31464084  0.00006972
   0.10590355  0.21935572  0.94976648
   0.21690587  0.10722471  0.05160851
   0.10915196  0.54913448  0.94893881
   0.21736914  0.44232871  0.05034084
   0.11090700  0.89289853  0.94934253
   0.22337604  0.77941465  0.05250452
   0.44435244  0.22200864  0.94499859
   0.55563855  0.11201107  0.05624282
   0.45054893  0.55918556  0.94874538
   0.56050044  0.44970960  0.05191790
   0.44224484  0.88758544  0.94524121
   0.55858723  0.77549586  0.05162332
   0.78125239  0.22483140  0.94820240
   0.89190854  0.11196353  0.04920183
   0.77396397  0.55467874  0.95024545
   0.88848522  0.44033236  0.05002694
   0.77946682  0.88832646  0.95118797
   0.88641985  0.78120139  0.04988795
unknown system                          
           1
     8.284994    4.796434    0.000000
    -8.269856    4.770247    0.000000
     0.000000    0.000000   30.000000
   V    Mo   W    S 
   3   3   3  18
Direct configuration=    20
   0.00418340  0.00331600 -0.00001402
   0.66220274  0.66659596 -0.00048138
   1.00152681  0.33141051  0.00046458
   0.64951315  0.00065729 -0.00011961
   0.34919430  0.00869406 -0.00003681
   0.33929846  0.32676865  0.00033277
   0.00974390  0.67347895 -0.00019380
   0.33848313  0.67704543 -0.00007318
   0.64697623  0.31295230  0.00010268
   0.10614879  0.21938841  0.94974574
   0.21716075  0.10715165  0.05174770
   0.10962232  0.54941788  0.94882306
   0.21846304  0.44276442  0.04994966
   0.11097397  0.89318134  0.94902868
   0.22386863  0.77976131  0.05306238
   0.44407166  0.22146932  0.94466328
   0.55529251  0.11169204  0.05649707
   0.44978159  0.55882091  0.94895170
   0.56047177  0.44944264  0.05195710
   0.44218068  0.88776170  0.94484817
   0.55832558  0.77548418  0.05186351
   0.78079713  0.22459813  0.94839046
   0.89141826  0.11167922  0.04899703
   0.77445838  0.55441821  0.95096991
   0.88814161  0.44058513  0.04949992
   0.77921582  0.88862401  0.95139260
   0.88669983  0.78105481  0.04963068
unknown system                          
           1
     8.283921    4.796064    0.000000
    -8.267684    4.767976    0.000000
     0.000000    0.000000   30.000000
   V    Mo   W    S 
   3   3   3  18
Direct configuration=    21
   0.00427771  0.00337917 -0.00000669
   0.66216864  0.66649365 -0.00048863
   1.00203615  0.33159391  0.00047327
   0.64907367  0.00053295 -0.00010757
   0.34937069  0.00871283 -0.00004493
   0.33931899  0.32659523  0.00032430
   0.00992866  0.67363780 -0.00019894
   0.33850507  0.67733165 -0.00008466
   0.64662041  0.31273152  0.00011314
   0.10619194  0.21941082  0.94973761
   0.21724733  0.10713542  0.05173888
   0.10966600  0.54944700  0.94881635
   0.21862842  0.44284526  0.04993134
   0.11104322  0.89321115  0.94902685
   0.22389149  0.77981494  0.05307684
   0.44402088  0.22141427  0.94462686
   0.55524063  0.11169317  0.05655950
   0.44976291  0.55882280  0.94898737
   0.56045887  0.44939763  0.05196594
   0.44210289  0.88774134  0.94478946
   0.55829894  0.77549949  0.05186163
   0.78066691  0.22453524  0.94844362
   0.89129510  0.11162083  0.04893024
   0.77446003  0.55428940  0.95101992
   0.88806846  0.44055935  0.04942703
   0.77913957  0.88871932  0.95146494
   0.88673089  0.78104832  0.04961624
unknown system                          
           1
     8.280975    4.794231    0.000000
    -8.265094    4.766761    0.000000
     0.000000    0.000000   30.000000
   V    Mo   W    S 
   3   3   3  18
Direct configuration=    22
   0.00465036  0.00367850  0.00003518
   0.66083266  0.66672118 -0.00053323
   1.00245498  0.33148924  0.00052151
   0.64820807 -0.00021265 -0.00008341
   0.34876958  0.00806788 -0.00005531
   0.33972788  0.32533490  0.00031696
   0.01284132  0.67541749 -0.00025406
   0.33856018  0.67903977 -0.00012643
   0.64517586  0.31167156  0.00013267
   0.10633694  0.21942221  0.94974080
   0.21739022  0.10708722  0.05180306
   0.10996704  0.54964030  0.94878265
   0.21927904  0.44314422  0.04968745
   0.11103469  0.89334994  0.94886153
   0.22416595  0.77997790  0.05336804
   0.44390238  0.22110435  0.94448743
   0.55502236  0.11151961  0.05662164
   0.44930380  0.55862728  0.94914885
   0.56042364  0.44923547  0.05195665
   0.44209219  0.88786336  0.94462972
   0.55808574  0.77545185  0.05196712
   0.78040616  0.22441289  0.94859992
   0.89103390  0.11147360  0.04880368
   0.77475444  0.55416305  0.95147838
   0.88788041  0.44072740  0.04908494
   0.77901464  0.88884675  0.95159753
   0.88690003  0.78095919  0.04942664
unknown system                          
           1
     8.271706    4.788124    0.000000
    -8.259047    4.766227    0.000000
     0.000000    0.000000   30.000000
   V    Mo   W    S 
   3   3   3  18
Direct configuration=    23
   0.00444423  0.00352598  0.00001309
   0.66166957  0.66642025 -0.00050948
   1.00270286  0.33182887  0.00048826
   0.64827980  0.00016168 -0.00009495
   0.34943973  0.00850477 -0.00005269
   0.33957069  0.32607606  0.00031080
   0.01114080  0.67436155 -0.00021499
   0.33852698  0.67821073 -0.00011288
   0.64571282  0.31207594  0.00012804
   0.10630004  0.21947772  0.94974220
   0.21742108  0.10713286  0.05174735
   0.10981376  0.54953675  0.94882459
   0.21899219  0.44302905  0.04981625
   0.11110492  0.89324665  0.94897875
   0.22398196  0.77989170  0.05315737
   0.44395976  0.22127650  0.94457823
   0.55510994  0.11164742  0.05659906
   0.44959007  0.55876364  0.94909538
   0.56041805  0.44928766  0.05195184
   0.44204090  0.88777140  0.94471970
   0.55817613  0.77548833  0.05186869
   0.78044868  0.22443356  0.94857472
   0.89107758  0.11154634  0.04881948
   0.77455204  0.55411878  0.95123350
   0.88794782  0.44059276  0.04922478
   0.77898229  0.88882402  0.95158604
   0.88680977  0.78098346  0.04952676
unknown system                          
           1
     8.275967    4.792596    0.000000
    -8.260305    4.765501    0.000000
     0.000000    0.000000   30.000000
   V    Mo   W    S 
   3   3   3  18
Direct configuration=    24
   0.00290579  0.00225482 -0.00014322
   0.66832417  0.66416182 -0.00032404
   1.00489226  0.33452167  0.00023116
   0.64910504  0.00274781 -0.00013835
   0.35361540  0.01122776 -0.00004514
   0.33810704  0.33136066  0.00026330
  -0.00120373  0.66701856  0.00007408
   0.33779178  0.67186697 -0.00000837
   0.64990452  0.31568069  0.00008984
   0.10596023  0.21975309  0.94968543
   0.21749896  0.10732446  0.05134340
   0.10869012  0.54871644  0.94898472
   0.21693986  0.44225876  0.05091097
   0.11159483  0.89260181  0.94983095
   0.22269258  0.77935406  0.05172391
   0.44424529  0.22243434  0.94511540
   0.55575471  0.11258134  0.05659821
   0.45175866  0.55984781  0.94861658
   0.56045647  0.44980303  0.05205182
   0.44151205  0.88699802  0.94521406