       N       E                     dE             d eps       ncg     rms          rms(c)
DAV:   1     0.112577342981E+04    0.11258E+04   -0.35983E+04  8160   0.577E+02
DAV:   2    -0.195821474356E+01   -0.11277E+04   -0.10874E+04 11200   0.173E+02
DAV:   3    -0.199645993552E+03   -0.19769E+03   -0.18982E+03 10880   0.820E+01
DAV:   4    -0.209011038185E+03   -0.93650E+01   -0.90880E+01 12320   0.263E+01
DAV:   5    -0.209312113272E+03   -0.30108E+00   -0.30021E+00 11440   0.338E+00    0.275E+01
DAV:   6    -0.237175358185E+03   -0.27863E+02   -0.10612E+02 12560   0.604E+01    0.594E+01
DAV:   7    -0.196493538262E+03    0.40682E+02   -0.17636E+02 13320   0.152E+02    0.201E+01
DAV:   8    -0.189442078942E+03    0.70515E+01   -0.17478E+01 11800   0.127E+01    0.125E+01
DAV:   9    -0.188236303477E+03    0.12058E+01   -0.35811E+00 12360   0.614E+00    0.931E+00
DAV:  10    -0.187081059201E+03    0.11552E+01   -0.20109E+00 13400   0.736E+00    0.318E+00
DAV:  11    -0.187032957050E+03    0.48102E-01   -0.72279E-01 13560   0.322E+00    0.345E+00
DAV:  12    -0.187174142624E+03   -0.14119E+00   -0.11434E+00 12840   0.556E+00    0.483E+00
DAV:  13    -0.186930141488E+03    0.24400E+00   -0.48741E-01 13400   0.356E+00    0.218E+00
DAV:  14    -0.186880659908E+03    0.49482E-01   -0.11189E-01 13560   0.163E+00    0.665E-01
DAV:  15    -0.186879421394E+03    0.12385E-02   -0.29674E-02 12520   0.927E-01    0.930E-01
DAV:  16    -0.186875050564E+03    0.43708E-02   -0.13923E-02 13560   0.661E-01    0.589E-01
DAV:  17    -0.186871465702E+03    0.35849E-02   -0.97459E-03 12720   0.524E-01    0.217E-01
DAV:  18    -0.186871297391E+03    0.16831E-03   -0.20718E-03 11680   0.147E-01    0.156E-01
DAV:  19    -0.186870937437E+03    0.35995E-03   -0.91584E-04 11320   0.104E-01    0.506E-02
DAV:  20    -0.186871660107E+03   -0.72267E-03   -0.70428E-04  9120   0.610E-02    0.544E-02
DAV:  21    -0.186872211513E+03   -0.55141E-03   -0.22632E-04  8280   0.450E-02    0.332E-02
DAV:  22    -0.186873410607E+03   -0.11991E-02   -0.20237E-04  7640   0.445E-02    0.328E-02
DAV:  23    -0.186874638936E+03   -0.12283E-02   -0.13023E-04  7600   0.402E-02    0.108E-02
DAV:  24    -0.186875229233E+03   -0.59030E-03   -0.25894E-05  6680   0.130E-02    0.863E-03
DAV:  25    -0.186875608154E+03   -0.37892E-03   -0.15035E-05  5640   0.123E-02    0.479E-03
DAV:  26    -0.186875832647E+03   -0.22449E-03   -0.88349E-06  6800   0.707E-03    0.216E-03
DAV:  27    -0.186875930462E+03   -0.97815E-04   -0.37181E-06  7160   0.419E-03
   1 F= -.18687593E+03 E0= -.18670432E+03  d E =-.186876E+03
       N       E                     dE             d eps       ncg     rms          rms(c)
DAV:   1    -0.187499217348E+03   -0.62338E+00   -0.27012E+02  8160   0.349E+01    0.461E+00
DAV:   2    -0.189360536982E+03   -0.18613E+01   -0.20034E+01 12240   0.151E+01    0.864E+00
DAV:   3    -0.189378909730E+03   -0.18373E-01   -0.42587E+00 12400   0.121E+01    0.660E+00
DAV:   4    -0.188755544718E+03    0.62337E+00   -0.59402E-01 12440   0.458E+00    0.167E+00
DAV:   5    -0.188798755221E+03   -0.43211E-01   -0.34344E-01 11600   0.265E+00    0.359E+00
DAV:   6    -0.188762694090E+03    0.36061E-01   -0.52523E-01 12800   0.407E+00    0.309E+00
DAV:   7    -0.188689902834E+03    0.72791E-01   -0.20233E-01 12760   0.203E+00    0.108E+00
DAV:   8    -0.188674767685E+03    0.15135E-01   -0.55083E-02 11680   0.954E-01    0.890E-01
DAV:   9    -0.188669846236E+03    0.49214E-02   -0.16632E-02 12200   0.746E-01    0.507E-01
DAV:  10    -0.188668290870E+03    0.15554E-02   -0.50868E-03 13360   0.356E-01    0.247E-01
DAV:  11    -0.188667652204E+03    0.63867E-03   -0.28756E-03 12760   0.209E-01    0.132E-01
DAV:  12    -0.188667632707E+03    0.19497E-04   -0.98549E-04 11560   0.938E-02
   2 F= -.18866763E+03 E0= -.18852785E+03  d E =-.179170E+01
       N       E                     dE             d eps       ncg     rms          rms(c)
DAV:   1    -0.190584432985E+03   -0.19168E+01   -0.30813E+01  9200   0.141E+01    0.445E+00
DAV:   2    -0.190564608450E+03    0.19825E-01   -0.28024E+00 11080   0.964E+00    0.738E+00
DAV:   3    -0.190059728858E+03    0.50488E+00   -0.13016E+00 12280   0.865E+00    0.416E+00
DAV:   4    -0.189854015656E+03    0.20571E+00   -0.68785E-01 12720   0.413E+00    0.248E+00
DAV:   5    -0.189787979521E+03    0.66036E-01   -0.30948E-01 11040   0.234E+00    0.194E+00
DAV:   6    -0.189758174536E+03    0.29805E-01   -0.10374E-01 12640   0.192E+00    0.868E-01
DAV:   7    -0.189750332596E+03    0.78419E-02   -0.15438E-02 12520   0.605E-01    0.193E-01
DAV:   8    -0.189750337858E+03   -0.52628E-05   -0.26123E-03 11120   0.163E-01    0.139E-01
DAV:   9    -0.189750948169E+03   -0.61031E-03   -0.14177E-03 10560   0.241E-01    0.257E-01
DAV:  10    -0.189750746613E+03    0.20156E-03   -0.15006E-03 10560   0.268E-01    0.155E-01
DAV:  11    -0.189750455439E+03    0.29117E-03   -0.51184E-04  8720   0.114E-01    0.291E-02
DAV:  12    -0.189750471854E+03   -0.16415E-04   -0.84448E-05  6680   0.328E-02
   3 F= -.18975047E+03 E0= -.18963307E+03  d E =-.108284E+01
       N       E                     dE             d eps       ncg     rms          rms(c)
DAV:   1    -0.191287360185E+03   -0.15369E+01   -0.70373E+01  8160   0.192E+01    0.459E+00
DAV:   2    -0.191179341961E+03    0.10802E+00   -0.53557E+00 13400   0.835E+00    0.518E+00
DAV:   3    -0.191227800347E+03   -0.48458E-01   -0.15663E+00 11680   0.918E+00    0.684E+00
DAV:   4    -0.190904192406E+03    0.32361E+00   -0.15579E+00 12520   0.784E+00    0.412E+00
DAV:   5    -0.190890885542E+03    0.13307E-01   -0.87111E-01 11200   0.587E+00    0.359E+00
DAV:   6    -0.190708654343E+03    0.18223E+00   -0.20534E-01 11280   0.295E+00    0.604E-01
DAV:   7    -0.190707040854E+03    0.16135E-02   -0.36939E-02 11360   0.693E-01    0.451E-01
DAV:   8    -0.190703653389E+03    0.33875E-02   -0.72654E-03 10200   0.354E-01    0.166E-01
DAV:   9    -0.190704271337E+03   -0.61795E-03   -0.19652E-03 12320   0.294E-01    0.265E-01
DAV:  10    -0.190703991325E+03    0.28001E-03   -0.15897E-03 10960   0.274E-01    0.122E-01
DAV:  11    -0.190703851139E+03    0.14019E-03   -0.59560E-04 10200   0.107E-01    0.451E-02
DAV:  12    -0.190703858830E+03   -0.76907E-05   -0.13523E-04  7280   0.441E-02
   4 F= -.19070386E+03 E0= -.19060529E+03  d E =-.953387E+00
       N       E                     dE             d eps       ncg     rms          rms(c)
DAV:   1    -0.192124306887E+03   -0.14205E+01   -0.15158E+02  8160   0.276E+01    0.586E+00
DAV:   2    -0.191967670655E+03    0.15664E+00   -0.99428E+00 12200   0.959E+00    0.556E+00
DAV:   3    -0.192424188250E+03   -0.45652E+00   -0.33671E+00 12240   0.127E+01    0.948E+00
DAV:   4    -0.191545424078E+03    0.87876E+00   -0.22182E+00 12280   0.107E+01    0.305E+00
DAV:   5    -0.191517404586E+03    0.28019E-01   -0.55773E-01 11800   0.496E+00    0.422E+00
DAV:   6    -0.191375480012E+03    0.14192E+00   -0.61098E-01 12200   0.522E+00    0.161E+00
DAV:   7    -0.191350320400E+03    0.25160E-01   -0.72071E-02 11920   0.146E+00    0.694E-01
DAV:   8    -0.191348871308E+03    0.14491E-02   -0.25162E-02 12080   0.112E+00    0.762E-01
DAV:   9    -0.191343168881E+03    0.57024E-02   -0.10121E-02 11440   0.757E-01    0.233E-01
DAV:  10    -0.191343291317E+03   -0.12244E-03   -0.28238E-03 11640   0.227E-01    0.116E-01
DAV:  11    -0.191343164174E+03    0.12714E-03   -0.86595E-04 10720   0.108E-01    0.657E-02
DAV:  12    -0.191343125116E+03    0.39058E-04   -0.14273E-04  7200   0.484E-02
   5 F= -.19134313E+03 E0= -.19124969E+03  d E =-.639266E+00
       N       E                     dE             d eps       ncg     rms          rms(c)
DAV:   1    -0.191395178104E+03   -0.52014E-01   -0.47215E+00  8160   0.460E+00    0.639E-01
DAV:   2    -0.191456177844E+03   -0.61000E-01   -0.25261E-01 12480   0.267E+00    0.233E+00
DAV:   3    -0.191406372117E+03    0.49806E-01   -0.12247E-01 11960   0.234E+00    0.563E-01
DAV:   4    -0.191406601009E+03   -0.22889E-03   -0.16354E-02 11480   0.866E-01    0.603E-01
DAV:   5    -0.191402850163E+03    0.37508E-02   -0.74584E-03 11440   0.634E-01    0.195E-01
DAV:   6    -0.191402869191E+03   -0.19028E-04   -0.23407E-03 11440   0.297E-01    0.225E-01
DAV:   7    -0.191402894148E+03   -0.24958E-04   -0.25909E-03 11680   0.383E-01    0.220E-01
DAV:   8    -0.191402336052E+03    0.55810E-03   -0.93680E-04 10040   0.208E-01    0.311E-02
DAV:   9    -0.191402349584E+03   -0.13533E-04   -0.91274E-05  6080   0.376E-02
   6 F= -.19140235E+03 E0= -.19130652E+03  d E =-.592245E-01
       N       E                     dE             d eps       ncg     rms          rms(c)
DAV:   1    -0.191464358583E+03   -0.62023E-01   -0.80989E+00  8160   0.601E+00    0.801E-01
DAV:   2    -0.191561150538E+03   -0.96792E-01   -0.35826E-01 13080   0.327E+00    0.313E+00
DAV:   3    -0.191477391701E+03    0.83759E-01   -0.22945E-01 12080   0.304E+00    0.749E-01
DAV:   4    -0.191476902932E+03    0.48877E-03   -0.26806E-02 11640   0.111E+00    0.756E-01
DAV:   5    -0.191471136118E+03    0.57668E-02   -0.12315E-02 11640   0.792E-01    0.267E-01
DAV:   6    -0.191471255906E+03   -0.11979E-03   -0.45534E-03 11440   0.443E-01    0.334E-01
DAV:   7    -0.191470692123E+03    0.56378E-03   -0.41474E-03 11280   0.485E-01    0.219E-01
DAV:   8    -0.191470104564E+03    0.58756E-03   -0.11109E-03  9920   0.214E-01    0.392E-02
DAV:   9    -0.191470097005E+03    0.75582E-05   -0.12734E-04  6720   0.462E-02
   7 F= -.19147010E+03 E0= -.19137229E+03  d E =-.677474E-01
       N       E                     dE             d eps       ncg     rms          rms(c)
DAV:   1    -0.191503734923E+03   -0.33630E-01   -0.21600E+00  8160   0.314E+00    0.449E-01
DAV:   2    -0.191532546027E+03   -0.28811E-01   -0.11056E-01 12760   0.191E+00    0.167E+00
DAV:   3    -0.191506930206E+03    0.25616E-01   -0.59196E-02 12160   0.162E+00    0.378E-01
DAV:   4    -0.191507376319E+03   -0.44611E-03   -0.83307E-03 11520   0.625E-01    0.447E-01
DAV:   5    -0.191505391931E+03    0.19844E-02   -0.44387E-03 11320   0.468E-01    0.161E-01
DAV:   6    -0.191505488151E+03   -0.96220E-04   -0.17318E-03  9880   0.279E-01    0.205E-01
DAV:   7    -0.191505198515E+03    0.28964E-03   -0.14094E-03  9840   0.279E-01    0.110E-01
DAV:   8    -0.191505040701E+03    0.15781E-03   -0.30449E-04  7520   0.109E-01    0.234E-02
DAV:   9    -0.191505037364E+03    0.33375E-05   -0.54229E-05  6960   0.302E-02
   8 F= -.19150504E+03 E0= -.19140682E+03  d E =-.349404E-01
       N       E                     dE             d eps       ncg     rms          rms(c)
DAV:   1    -0.191557672315E+03   -0.52632E-01   -0.59238E+00  8160   0.519E+00    0.646E-01
DAV:   2    -0.191610929925E+03   -0.53258E-01   -0.23711E-01 13040   0.249E+00    0.226E+00
DAV:   3    -0.191567527070E+03    0.43403E-01   -0.12143E-01 12280   0.224E+00    0.589E-01
DAV:   4    -0.191568434011E+03   -0.90694E-03   -0.18231E-02 11480   0.913E-01    0.687E-01
DAV:   5    -0.191563661024E+03    0.47730E-02   -0.10249E-02 11240   0.729E-01    0.247E-01
DAV:   6    -0.191563641684E+03    0.19340E-04   -0.33938E-03 11520   0.382E-01    0.268E-01
DAV:   7    -0.191563413195E+03    0.22849E-03   -0.30433E-03 11200   0.427E-01    0.207E-01
DAV:   8    -0.191562830979E+03    0.58222E-03   -0.93335E-04  9640   0.213E-01    0.335E-02
DAV:   9    -0.191562828989E+03    0.19904E-05   -0.10086E-04  6760   0.405E-02
   9 F= -.19156283E+03 E0= -.19146584E+03  d E =-.577916E-01
       N       E                     dE             d eps       ncg     rms          rms(c)
DAV:   1    -0.191555899957E+03    0.69310E-02   -0.11092E-01  8160   0.709E-01    0.881E-02
DAV:   2    -0.191556767468E+03   -0.86751E-03   -0.42025E-03 12560   0.306E-01    0.277E-01
DAV:   3    -0.191556013765E+03    0.75370E-03   -0.17746E-03  9720   0.294E-01    0.796E-02
DAV:   4    -0.191555993243E+03    0.20522E-04   -0.22337E-04  5960   0.894E-02
  10 F= -.19155599E+03 E0= -.19145864E+03  d E =0.683575E-02
       N       E                     dE             d eps       ncg     rms          rms(c)
DAV:   1    -0.191558770677E+03   -0.27569E-02   -0.20035E-02  8160   0.321E-01    0.693E-02
DAV:   2    -0.191559052193E+03   -0.28152E-03   -0.15206E-03 10560   0.208E-01    0.181E-01
DAV:   3    -0.191558713439E+03    0.33875E-03   -0.78752E-04  9240   0.206E-01    0.603E-02
DAV:   4    -0.191558729672E+03   -0.16233E-04   -0.20028E-04  6480   0.994E-02
  11 F= -.19155873E+03 E0= -.19146176E+03  d E =-.273643E-02
       N       E                     dE             d eps       ncg     rms          rms(c)
DAV:   1    -0.191579992054E+03   -0.21279E-01   -0.74742E-01  8160   0.189E+00    0.268E-01
DAV:   2    -0.191582811809E+03   -0.28198E-02   -0.28709E-02 13440   0.700E-01    0.530E-01
DAV:   3    -0.191580838265E+03    0.19735E-02   -0.10308E-02 11600   0.679E-01    0.313E-01
DAV:   4    -0.191580449493E+03    0.38877E-03   -0.39895E-03 11560   0.411E-01    0.280E-01
DAV:   5    -0.191579747139E+03    0.70235E-03   -0.21659E-03  9720   0.346E-01    0.138E-01
DAV:   6    -0.191579558574E+03    0.18857E-03   -0.86178E-04  9800   0.168E-01    0.713E-02
DAV:   7    -0.191579558840E+03   -0.26626E-06   -0.35991E-04  8120   0.133E-01
  12 F= -.19157956E+03 E0= -.19148295E+03  d E =-.208292E-01
       N       E                     dE             d eps       ncg     rms          rms(c)
DAV:   1    -0.191605787752E+03   -0.26229E-01   -0.12601E+00  8160   0.240E+00    0.279E-01
DAV:   2    -0.191612543239E+03   -0.67555E-02   -0.42663E-02 12760   0.850E-01    0.708E-01
DAV:   3    -0.191607914192E+03    0.46290E-02   -0.14614E-02 12280   0.854E-01    0.287E-01
DAV:   4    -0.191607552850E+03    0.36134E-03   -0.28270E-03 10920   0.316E-01    0.231E-01
DAV:   5    -0.191607235018E+03    0.31783E-03   -0.20439E-03  9840   0.317E-01    0.175E-01
DAV:   6    -0.191606992460E+03    0.24256E-03   -0.89827E-04  9440   0.181E-01    0.732E-02
DAV:   7    -0.191606987991E+03    0.44687E-05   -0.31713E-04  8440   0.115E-01
  13 F= -.19160699E+03 E0= -.19151240E+03  d E =-.274292E-01
       N       E                     dE             d eps       ncg     rms          rms(c)
DAV:   1    -0.191637807591E+03   -0.30815E-01   -0.15949E+00  8160   0.270E+00    0.279E-01
DAV:   2    -0.191642126397E+03   -0.43188E-02   -0.47373E-02 11800   0.699E-01    0.439E-01
DAV:   3    -0.191641701431E+03    0.42497E-03   -0.11279E-02 12320   0.705E-01    0.418E-01
DAV:   4    -0.191640224359E+03    0.14771E-02   -0.36679E-03 11840   0.394E-01    0.177E-01
DAV:   5    -0.191640059383E+03    0.16498E-03   -0.14333E-03  9960   0.267E-01    0.170E-01
DAV:   6    -0.191639921224E+03    0.13816E-03   -0.11534E-03 10440   0.237E-01    0.110E-01
DAV:   7    -0.191639849241E+03    0.71983E-04   -0.42569E-04  8320   0.146E-01
  14 F= -.19163985E+03 E0= -.19154765E+03  d E =-.328613E-01
       N       E                     dE             d eps       ncg     rms          rms(c)
DAV:   1    -0.191593625176E+03    0.46296E-01   -0.28530E+00  8160   0.361E+00    0.374E-01
DAV:   2    -0.191599817961E+03   -0.61928E-02   -0.83483E-02 12240   0.861E-01    0.426E-01
DAV:   3    -0.191600448207E+03   -0.63025E-03   -0.13863E-02 12240   0.821E-01    0.570E-01
DAV:   4    -0.191597989154E+03    0.24591E-02   -0.91133E-03 11880   0.617E-01    0.320E-01
DAV:   5    -0.191597226716E+03    0.76244E-03   -0.32238E-03 11000   0.405E-01    0.212E-01
DAV:   6    -0.191596951043E+03    0.27567E-03   -0.18126E-03 11000   0.287E-01    0.122E-01
DAV:   7    -0.191596815114E+03    0.13593E-03   -0.72216E-04 11040   0.163E-01    0.951E-02
DAV:   8    -0.191596726382E+03    0.88732E-04   -0.25630E-04  7920   0.120E-01
  15 F= -.19159673E+03 E0= -.19150154E+03  d E =0.431229E-01
       N       E                     dE             d eps       ncg     rms          rms(c)
DAV:   1    -0.191553433350E+03    0.43382E-01   -0.35990E+00  8160   0.406E+00    0.415E-01
DAV:   2    -0.191560864533E+03   -0.74312E-02   -0.10512E-01 12200   0.902E-01    0.380E-01
DAV:   3    -0.191561791011E+03   -0.92648E-03   -0.13479E-02 12440   0.779E-01    0.559E-01
DAV:   4    -0.191558985794E+03    0.28052E-02   -0.74955E-03 12200   0.682E-01    0.273E-01
DAV:   5    -0.191558205651E+03    0.78014E-03   -0.25811E-03 11360   0.324E-01    0.184E-01
DAV:   6    -0.191558640976E+03   -0.43532E-03   -0.27416E-03 11280   0.377E-01    0.268E-01
DAV:   7    -0.191558052644E+03    0.58833E-03   -0.17625E-03  9840   0.284E-01    0.148E-01
DAV:   8    -0.191557856443E+03    0.19620E-03   -0.43905E-04  8000   0.146E-01    0.328E-02
DAV:   9    -0.191557855439E+03    0.10046E-05   -0.47707E-05  6720   0.349E-02
  16 F= -.19155786E+03 E0= -.19146115E+03  d E =0.388709E-01
       N       E                     dE             d eps       ncg     rms          rms(c)
DAV:   1    -0.191569168926E+03   -0.11312E-01   -0.10240E+00  8160   0.218E+00    0.281E-01
DAV:   2    -0.191579736061E+03   -0.10567E-01   -0.43806E-02 13600   0.106E+00    0.100E+00
DAV:   3    -0.191570761436E+03    0.89746E-02   -0.19880E-02 11840   0.963E-01    0.230E-01
DAV:   4    -0.191571174499E+03   -0.41306E-03   -0.28636E-03 10840   0.365E-01    0.304E-01
DAV:   5    -0.191570261471E+03    0.91303E-03   -0.20242E-03  9600   0.342E-01    0.107E-01
DAV:   6    -0.191570272821E+03   -0.11349E-04   -0.61712E-04 10200   0.138E-01
  17 F= -.19157027E+03 E0= -.19147511E+03  d E =-.124174E-01
       N       E                     dE             d eps       ncg     rms          rms(c)
DAV:   1    -0.191596925605E+03   -0.26664E-01   -0.18049E+00  8160   0.291E+00    0.368E-01
DAV:   2    -0.191608018937E+03   -0.11093E-01   -0.70968E-02 13280   0.116E+00    0.101E+00
DAV:   3    -0.191600083305E+03    0.79356E-02   -0.26917E-02 12000   0.108E+00    0.381E-01
DAV:   4    -0.191599401631E+03    0.68167E-03   -0.55087E-03 11200   0.456E-01    0.320E-01
DAV:   5    -0.191598561673E+03    0.83996E-03   -0.34341E-03 10720   0.433E-01    0.208E-01
DAV:   6    -0.191598191837E+03    0.36984E-03   -0.14911E-03  9640   0.241E-01    0.990E-02
DAV:   7    -0.191598155909E+03    0.35928E-04   -0.61780E-04 10560   0.156E-01
  18 F= -.19159816E+03 E0= -.19150384E+03  d E =-.278831E-01
       N       E                     dE             d eps       ncg     rms          rms(c)
DAV:   1    -0.191647857491E+03   -0.49666E-01   -0.30908E+01  8160   0.120E+01    0.147E+00
DAV:   2    -0.191945194441E+03   -0.29734E+00   -0.12513E+00 12680   0.552E+00    0.605E+00
DAV:   3    -0.191713690613E+03    0.23150E+00   -0.79138E-01 12080   0.527E+00    0.136E+00
DAV:   4    -0.191718733664E+03   -0.50431E-02   -0.92586E-02 11080   0.231E+00    0.163E+00
DAV:   5    -0.191686696153E+03    0.32038E-01   -0.46753E-02 11160   0.179E+00    0.479E-01
DAV:   6    -0.191686751988E+03   -0.55834E-04   -0.14009E-02 12720   0.629E-01    0.453E-01
DAV:   7    -0.191685430155E+03    0.13218E-02   -0.95263E-03 12400   0.783E-01    0.401E-01
DAV:   8    -0.191683315761E+03    0.21144E-02   -0.31192E-03 11600   0.459E-01    0.715E-02
DAV:   9    -0.191683285291E+03    0.30470E-04   -0.50598E-04 10680   0.924E-02
  19 F= -.19168329E+03 E0= -.19159770E+03  d E =-.851294E-01
       N       E                     dE             d eps       ncg     rms          rms(c)
DAV:   1    -0.191679370517E+03    0.39452E-02   -0.19756E+00  8160   0.301E+00    0.354E-01
DAV:   2    -0.191691742394E+03   -0.12372E-01   -0.60017E-02 13160   0.123E+00    0.103E+00
DAV:   3    -0.191681182696E+03    0.10560E-01   -0.20249E-02 12440   0.112E+00    0.286E-01
DAV:   4    -0.191681361814E+03   -0.17912E-03   -0.38280E-03 11400   0.395E-01    0.329E-01
DAV:   5    -0.191680472343E+03    0.88947E-03   -0.31476E-03 10760   0.427E-01    0.177E-01
DAV:   6    -0.191680261362E+03    0.21098E-03   -0.11529E-03  9600   0.207E-01    0.986E-02
DAV:   7    -0.191680224624E+03    0.36739E-04   -0.48409E-04 10080   0.177E-01
  20 F= -.19168022E+03 E0= -.19159297E+03  d E =0.306067E-02
       N       E                     dE             d eps       ncg     rms          rms(c)
DAV:   1    -0.191701553000E+03   -0.21292E-01   -0.20401E+00  8160   0.305E+00    0.336E-01
DAV:   2    -0.191712867701E+03   -0.11315E-01   -0.69140E-02 12800   0.113E+00    0.968E-01
DAV:   3    -0.191705368617E+03    0.74991E-02   -0.21252E-02 11960   0.101E+00    0.320E-01
DAV:   4    -0.191705009960E+03    0.35866E-03   -0.34167E-03 11200   0.397E-01    0.286E-01
DAV:   5    -0.191704229826E+03    0.78013E-03   -0.22073E-03 10520   0.385E-01    0.146E-01
DAV:   6    -0.191704153306E+03    0.76520E-04   -0.10092E-03 10520   0.181E-01    0.876E-02
DAV:   7    -0.191704007560E+03    0.14575E-03   -0.37817E-04  7880   0.103E-01    0.393E-02
DAV:   8    -0.191703998203E+03    0.93569E-05   -0.76428E-05  7960   0.739E-02
  21 F= -.19170400E+03 E0= -.19161887E+03  d E =-.237736E-01
       N       E                     dE             d eps       ncg     rms          rms(c)
DAV:   1    -0.191717263473E+03   -0.13256E-01   -0.60098E-01  8160   0.165E+00    0.164E-01
DAV:   2    -0.191718300956E+03   -0.10375E-02   -0.15725E-02 12080   0.373E-01    0.167E-01
DAV:   3    -0.191718590401E+03   -0.28944E-03   -0.25294E-03 11960   0.368E-01    0.242E-01
DAV:   4    -0.191718014820E+03    0.57558E-03   -0.12615E-03  9880   0.274E-01    0.982E-02
DAV:   5    -0.191718065582E+03   -0.50762E-04   -0.57664E-04  8280   0.169E-01
  22 F= -.19171807E+03 E0= -.19163469E+03  d E =-.140674E-01
       N       E                     dE             d eps       ncg     rms          rms(c)
DAV:   1    -0.191674344385E+03    0.43670E-01   -0.78021E+00  8160   0.602E+00    0.607E-01
DAV:   2    -0.191688395094E+03   -0.14051E-01   -0.20361E-01 12560   0.135E+00    0.670E-01
DAV:   3    -0.191691304682E+03   -0.29096E-02   -0.38128E-02 12360   0.135E+00    0.945E-01
DAV:   4    -0.191684098389E+03    0.72063E-02   -0.20597E-02 12240   0.104E+00    0.455E-01
DAV:   5    -0.191683119249E+03    0.97914E-03   -0.75153E-03 11080   0.650E-01    0.438E-01
DAV:   6    -0.191681927335E+03    0.11919E-02   -0.57747E-03 11600   0.589E-01    0.243E-01
DAV:   7    -0.191681172811E+03    0.75452E-03   -0.16460E-03 11720   0.249E-01    0.660E-02
DAV:   8    -0.191681130382E+03    0.42429E-04   -0.26728E-04  8160   0.108E-01
  23 F= -.19168113E+03 E0= -.19159539E+03  d E =0.369352E-01
       N       E                     dE             d eps       ncg     rms          rms(c)
DAV:   1    -0.191675580008E+03    0.55928E-02   -0.15960E+00  8160   0.274E+00    0.301E-01
DAV:   2    -0.191678728463E+03   -0.31485E-02   -0.42332E-02 12800   0.666E-01    0.412E-01
DAV:   3    -0.191678799737E+03   -0.71274E-04   -0.81982E-03 12160   0.709E-01    0.435E-01
DAV:   4    -0.191677258707E+03    0.15410E-02   -0.34582E-03 12000   0.437E-01    0.218E-01
DAV:   5    -0.191677075744E+03    0.18296E-03   -0.19530E-03 10040   0.342E-01    0.205E-01
DAV:   6    -0.191676829996E+03    0.24575E-03   -0.12974E-03  9600   0.269E-01    0.107E-01
DAV:   7    -0.191676700036E+03    0.12996E-03   -0.41363E-04  9120   0.139E-01    0.722E-02
DAV:   8    -0.191676640398E+03    0.59639E-04   -0.11267E-04  7120   0.970E-02
  24 F= -.19167664E+03 E0= -.19159206E+03  d E =0.448998E-02
       N       E                     dE             d eps       ncg     rms          rms(c)
DAV:   1    -0.191691930138E+03   -0.15230E-01   -0.13452E+00  8160   0.250E+00    0.301E-01
DAV:   2    -0.191699730130E+03   -0.78000E-02   -0.47454E-02 13240   0.964E-01    0.812E-01
DAV:   3    -0.191694277029E+03    0.54531E-02   -0.13152E-02 11960   0.876E-01    0.276E-01
DAV:   4    -0.191694147574E+03    0.12945E-03   -0.26141E-03 11160   0.369E-01    0.273E-01
DAV:   5    -0.191693429176E+03    0.71840E-03   -0.18896E-03 10040   0.364E-01    0.130E-01
DAV:   6    -0.191693351787E+03    0.77389E-04   -0.72889E-04 10320   0.162E-01
  25 F= -.19169335E+03 E0= -.19161096E+03  d E =-.167114E-01
       N       E                     dE             d eps       ncg     rms          rms(c)
DAV:   1    -0.191691472469E+03    0.19567E-02   -0.13998E-01  8160   0.817E-01    0.105E-01
DAV:   2    -0.191692255031E+03   -0.78256E-03   -0.50080E-03 12840   0.342E-01    0.237E-01
DAV:   3    -0.191691589141E+03    0.66589E-03   -0.12774E-03 10080   0.292E-01    0.658E-02
DAV:   4    -0.191691578730E+03    0.10411E-04   -0.19222E-04  6120   0.982E-02
  26 F= -.19169158E+03 E0= -.19160885E+03  d E =0.177306E-02
       N       E                     dE             d eps       ncg     rms          rms(c)
DAV:   1    -0.191704078778E+03   -0.12490E-01   -0.96042E-01  8160   0.209E+00    0.219E-01
DAV:   2    -0.191706949998E+03   -0.28712E-02   -0.26743E-02 13200   0.598E-01    0.417E-01
DAV:   3    -0.191705864906E+03    0.10851E-02   -0.55723E-03 11400   0.553E-01    0.271E-01
DAV:   4    -0.191705400681E+03    0.46423E-03   -0.17241E-03 10000   0.298E-01    0.175E-01
DAV:   5    -0.191705127994E+03    0.27269E-03   -0.86758E-04 10080   0.243E-01    0.104E-01
DAV:   6    -0.191705081140E+03    0.46854E-04   -0.49750E-04  9200   0.157E-01
  27 F= -.19170508E+03 E0= -.19162355E+03  d E =-.135024E-01
       N       E                     dE             d eps       ncg     rms          rms(c)
DAV:   1    -0.191679374240E+03    0.25754E-01   -0.33098E+00  8160   0.386E+00    0.383E-01
DAV:   2    -0.191686806880E+03   -0.74326E-02   -0.82493E-02 12400   0.952E-01    0.574E-01
DAV:   3    -0.191685441038E+03    0.13658E-02   -0.14157E-02 12240   0.940E-01    0.504E-01
DAV:   4    -0.191683509165E+03    0.19319E-02   -0.52171E-03 11520   0.530E-01    0.304E-01
DAV:   5    -0.191683085109E+03    0.42406E-03   -0.32076E-03 10520   0.441E-01    0.243E-01
DAV:   6    -0.191682721679E+03    0.36343E-03   -0.18888E-03 11040   0.286E-01    0.131E-01
DAV:   7    -0.191682632894E+03    0.88784E-04   -0.79144E-04 10440   0.213E-01
  28 F= -.19168263E+03 E0= -.19159871E+03  d E =0.224482E-01
       N       E                     dE             d eps       ncg     rms          rms(c)
DAV:   1    -0.191681910043E+03    0.81164E-03   -0.60112E-02  8160   0.539E-01    0.665E-02
DAV:   2    -0.191682006874E+03   -0.96830E-04   -0.17886E-03 12280   0.121E-01    0.636E-02
DAV:   3    -0.191681983435E+03    0.23439E-04   -0.30039E-04  9000   0.119E-01
  29 F= -.19168198E+03 E0= -.19159824E+03  d E =0.649460E-03
       N       E                     dE             d eps       ncg     rms          rms(c)
DAV:   1    -0.191693427178E+03   -0.11420E-01   -0.78219E-01  8160   0.191E+00    0.214E-01
DAV:   2    -0.191695207786E+03   -0.17806E-02   -0.24781E-02 12880   0.481E-01    0.255E-01
DAV:   3    -0.191695574048E+03   -0.36626E-03   -0.39694E-03 11880   0.490E-01    0.337E-01
DAV:   4    -0.191694549899E+03    0.10241E-02   -0.17559E-03 10200   0.334E-01    0.135E-01
DAV:   5    -0.191694496231E+03    0.53668E-04   -0.86600E-04  9560   0.220E-01
  30 F= -.19169450E+03 E0= -.19161200E+03  d E =-.125128E-01
       N       E                     dE             d eps       ncg     rms          rms(c)
DAV:   1    -0.191688504564E+03    0.60453E-02   -0.22172E-01  8160   0.105E+00    0.159E-01
DAV:   2    -0.191692155284E+03   -0.36507E-02   -0.12400E-02 12440   0.675E-01    0.568E-01
DAV:   3    -0.191688736905E+03    0.34184E-02   -0.59803E-03 11280   0.608E-01    0.127E-01
DAV:   4    -0.191688694440E+03    0.42466E-04   -0.64612E-04  8560   0.168E-01
  31 F= -.19168869E+03 E0= -.19160615E+03  d E =0.580179E-02
       N       E                     dE             d eps       ncg     rms          rms(c)
DAV:   1    -0.191697403710E+03   -0.86668E-02   -0.60321E-01  8160   0.166E+00    0.182E-01
DAV:   2    -0.191699153140E+03   -0.17494E-02   -0.18874E-02 13480   0.551E-01    0.279E-01
DAV:   3    -0.191698383692E+03    0.76945E-03   -0.32212E-03 11200   0.451E-01    0.179E-01
DAV:   4    -0.191698132581E+03    0.25111E-03   -0.98072E-04 10120   0.250E-01    0.123E-01
DAV:   5    -0.191698046263E+03    0.86318E-04   -0.51790E-04  8720   0.175E-01
  32 F= -.19169805E+03 E0= -.19161672E+03  d E =-.935182E-02
       N       E                     dE             d eps       ncg     rms          rms(c)
DAV:   1    -0.191698268812E+03   -0.13623E-03   -0.80132E-02  8160   0.666E-01    0.116E-01
DAV:   2    -0.191699502093E+03   -0.12333E-02   -0.45358E-03 12320   0.389E-01    0.347E-01
DAV:   3    -0.191698240140E+03    0.12620E-02   -0.20774E-03 10120   0.376E-01    0.110E-01
DAV:   4    -0.191698186006E+03    0.54134E-04   -0.44466E-04  8640   0.130E-01
  33 F= -.19169819E+03 E0= -.19161616E+03  d E =-.139743E-03
       N       E                     dE             d eps       ncg     rms          rms(c)
DAV:   1    -0.191710709888E+03   -0.12470E-01   -0.14977E+00  8160   0.260E+00    0.297E-01
DAV:   2    -0.191717475223E+03   -0.67653E-02   -0.47055E-02 12960   0.974E-01    0.668E-01
DAV:   3    -0.191712943665E+03    0.45316E-02   -0.11746E-02 12240   0.888E-01    0.248E-01
DAV:   4    -0.191712181008E+03    0.76266E-03   -0.13407E-03 11240   0.235E-01    0.851E-02
DAV:   5    -0.191712182420E+03   -0.14121E-05   -0.80568E-04 11320   0.121E-01
  34 F= -.19171218E+03 E0= -.19163205E+03  d E =-.139964E-01
       N       E                     dE             d eps       ncg     rms          rms(c)
DAV:   1    -0.191703151188E+03    0.90298E-02   -0.28925E+00  8160   0.371E+00    0.553E-01
DAV:   2    -0.191716940818E+03   -0.13790E-01   -0.10944E-01 12960   0.162E+00    0.119E+00
DAV:   3    -0.191704166515E+03    0.12774E-01   -0.33567E-02 12200   0.154E+00    0.574E-01
DAV:   4    -0.191702538011E+03    0.16285E-02   -0.11084E-02 11760   0.755E-01    0.474E-01
DAV:   5    -0.191701150425E+03    0.13876E-02   -0.77035E-03 11440   0.736E-01    0.371E-01
DAV:   6    -0.191699704854E+03    0.14456E-02   -0.41423E-03 10920   0.441E-01    0.170E-01
DAV:   7    -0.191699654689E+03    0.50165E-04   -0.15896E-03 11120   0.307E-01    0.162E-01
DAV:   8    -0.191699342490E+03    0.31220E-03   -0.54326E-04  8880   0.180E-01    0.405E-02
DAV:   9    -0.191699313539E+03    0.28951E-04   -0.70724E-05  6400   0.404E-02
  35 F= -.19169931E+03 E0= -.19161716E+03  d E =0.128689E-01
       N       E                     dE             d eps       ncg     rms          rms(c)
DAV:   1    -0.191704180549E+03   -0.48381E-02   -0.10404E-01  8160   0.722E-01    0.134E-01
DAV:   2    -0.191704674466E+03   -0.49392E-03   -0.52223E-03 11680   0.390E-01    0.245E-01
DAV:   3    -0.191704042266E+03    0.63220E-03   -0.14282E-03 10960   0.329E-01    0.941E-02
DAV:   4    -0.191703977280E+03    0.64985E-04   -0.42016E-04  8200   0.139E-01
  36 F= -.19170398E+03 E0= -.19162289E+03  d E =-.466374E-02
       N       E                     dE             d eps       ncg     rms          rms(c)
DAV:   1    -0.191721851974E+03   -0.17810E-01   -0.13820E+00  8160   0.256E+00    0.322E-01
DAV:   2    -0.191724340115E+03   -0.24881E-02   -0.40097E-02 12560   0.689E-01    0.435E-01
DAV:   3    -0.191724175431E+03    0.16468E-03   -0.92080E-03 12240   0.752E-01    0.457E-01
DAV:   4    -0.191722393095E+03    0.17823E-02   -0.41218E-03 11360   0.494E-01    0.206E-01
DAV:   5    -0.191722387263E+03    0.58326E-05   -0.20539E-03 10120   0.388E-01    0.237E-01
DAV:   6    -0.191721843024E+03    0.54424E-03   -0.12974E-03 10480   0.302E-01    0.970E-02
DAV:   7    -0.191721796920E+03    0.46104E-04   -0.37223E-04  8560   0.146E-01
  37 F= -.19172180E+03 E0= -.19164238E+03  d E =-.178196E-01
       N       E                     dE             d eps       ncg     rms          rms(c)
DAV:   1    -0.191725076453E+03   -0.32334E-02   -0.43419E-02  8160   0.464E-01    0.115E-01
DAV:   2    -0.191725701751E+03   -0.62530E-03   -0.35008E-03 11480   0.387E-01    0.272E-01
DAV:   3    -0.191724844606E+03    0.85714E-03   -0.15148E-03 10080   0.325E-01    0.711E-02
DAV:   4    -0.191724872927E+03   -0.28320E-04   -0.32159E-04  8440   0.140E-01
  38 F= -.19172487E+03 E0= -.19164576E+03  d E =-.307601E-02
       N       E                     dE             d eps       ncg     rms          rms(c)
DAV:   1    -0.191747750173E+03   -0.22906E-01   -0.18673E+00  8160   0.298E+00    0.367E-01
DAV:   2    -0.191749711175E+03   -0.19610E-02   -0.50628E-02 13600   0.750E-01    0.373E-01
DAV:   3    -0.191749986055E+03   -0.27488E-03   -0.92618E-03 12120   0.761E-01    0.425E-01
DAV:   4    -0.191748007575E+03    0.19785E-02   -0.41922E-03 11440   0.545E-01    0.234E-01
DAV:   5    -0.191748064744E+03   -0.57170E-04   -0.25340E-03 11640   0.407E-01    0.277E-01
DAV:   6    -0.191747458105E+03    0.60664E-03   -0.18172E-03 10880   0.331E-01    0.124E-01
DAV:   7    -0.191747289559E+03    0.16855E-03   -0.42304E-04  8400   0.142E-01    0.707E-02
DAV:   8    -0.191747249712E+03    0.39847E-04   -0.14385E-04  7160   0.112E-01
  39 F= -.19174725E+03 E0= -.19166927E+03  d E =-.223768E-01
       N       E                     dE             d eps       ncg     rms          rms(c)
DAV:   1    -0.191755462351E+03   -0.81728E-02   -0.20557E-01  8160   0.982E-01    0.122E-01
DAV:   2    -0.191756305756E+03   -0.84340E-03   -0.63506E-03 12600   0.350E-01    0.256E-01
DAV:   3    -0.191755732391E+03    0.57336E-03   -0.15069E-03 11000   0.318E-01    0.116E-01
DAV:   4    -0.191755677556E+03    0.54835E-04   -0.32678E-04  8320   0.153E-01
  40 F= -.19175568E+03 E0= -.19167804E+03  d E =-.842784E-02
       N       E                     dE             d eps       ncg     rms          rms(c)
DAV:   1    -0.191769747872E+03   -0.14015E-01   -0.64568E-01  8160   0.174E+00    0.207E-01
DAV:   2    -0.191771041341E+03   -0.12935E-02   -0.16392E-02 12280   0.417E-01    0.285E-01
DAV:   3    -0.191770808617E+03    0.23272E-03   -0.31954E-03 12400   0.489E-01    0.270E-01
DAV:   4    -0.191770248235E+03    0.56038E-03   -0.13491E-03  9920   0.299E-01    0.145E-01
DAV:   5    -0.191770136924E+03    0.11131E-03   -0.78314E-04  9640   0.238E-01    0.125E-01
DAV:   6    -0.191770022787E+03    0.11414E-03   -0.53315E-04  9040   0.174E-01    0.649E-02
DAV:   7    -0.191769999596E+03    0.23190E-04   -0.25244E-04  7240   0.110E-01
  41 F= -.19177000E+03 E0= -.19169307E+03  d E =-.143220E-01
       N       E                     dE             d eps       ncg     rms          rms(c)
DAV:   1    -0.191777476387E+03   -0.74536E-02   -0.15187E-01  8160   0.862E-01    0.112E-01
DAV:   2    -0.191777668976E+03   -0.19259E-03   -0.45367E-03 11400   0.210E-01    0.116E-01
DAV:   3    -0.191777762899E+03   -0.93923E-04   -0.86900E-04 11200   0.254E-01
  42 F= -.19177776E+03 E0= -.19170024E+03  d E =-.776330E-02
       N       E                     dE             d eps       ncg     rms          rms(c)
DAV:   1    -0.191772813519E+03    0.48555E-02   -0.29826E-01  8160   0.125E+00    0.234E-01
DAV:   2    -0.191777339712E+03   -0.45262E-02   -0.18319E-02 12440   0.896E-01    0.660E-01
DAV:   3    -0.191772401281E+03    0.49384E-02   -0.74739E-03 11400   0.778E-01    0.157E-01
DAV:   4    -0.191772439302E+03   -0.38021E-04   -0.13618E-03  9560   0.256E-01    0.189E-01
DAV:   5    -0.191772188899E+03    0.25040E-03   -0.11869E-03  9840   0.282E-01    0.138E-01
DAV:   6    -0.191771995512E+03    0.19339E-03   -0.44314E-04  8240   0.161E-01    0.556E-02
DAV:   7    -0.191771977823E+03    0.17690E-04   -0.12573E-04  6400   0.890E-02
  43 F= -.19177198E+03 E0= -.19169554E+03  d E =0.578508E-02
       N       E                     dE             d eps       ncg     rms          rms(c)
DAV:   1    -0.191809833658E+03   -0.37838E-01   -0.30255E+00  8160   0.387E+00    0.609E-01
DAV:   2    -0.191822894369E+03   -0.13061E-01   -0.10553E-01 12200   0.172E+00    0.123E+00
DAV:   3    -0.191807914075E+03    0.14980E-01   -0.35755E-02 12040   0.167E+00    0.476E-01
DAV:   4    -0.191805469022E+03    0.24451E-02   -0.82374E-03 12240   0.664E-01    0.358E-01
DAV:   5    -0.191805297120E+03    0.17190E-03   -0.61911E-03 11560   0.672E-01    0.388E-01
DAV:   6    -0.191803863431E+03    0.14337E-02   -0.39578E-03 11960   0.468E-01    0.182E-01
DAV:   7    -0.191803659679E+03    0.20375E-03   -0.12862E-03  9720   0.278E-01    0.129E-01
DAV:   8    -0.191803477726E+03    0.18195E-03   -0.32596E-04  8960   0.146E-01    0.398E-02
DAV:   9    -0.191803446755E+03    0.30971E-04   -0.55433E-05  6360   0.387E-02
  44 F= -.19180345E+03 E0= -.19172583E+03  d E =-.314689E-01
       N       E                     dE             d eps       ncg     rms          rms(c)
DAV:   1    -0.191814031945E+03   -0.10554E-01   -0.41005E-01  8160   0.139E+00    0.196E-01
DAV:   2    -0.191814752099E+03   -0.72015E-03   -0.14941E-02 11680   0.465E-01    0.248E-01
DAV:   3    -0.191814457451E+03    0.29465E-03   -0.32172E-03 11680   0.455E-01    0.214E-01
DAV:   4    -0.191813944428E+03    0.51302E-03   -0.12619E-03 10000   0.288E-01    0.107E-01
DAV:   5    -0.191813917910E+03    0.26518E-04   -0.61730E-04  9920   0.186E-01
  45 F= -.19181392E+03 E0= -.19173722E+03  d E =-.104712E-01
       N       E                     dE             d eps       ncg     rms          rms(c)
DAV:   1    -0.191838367544E+03   -0.24423E-01   -0.17832E+00  8160   0.287E+00    0.308E-01
DAV:   2    -0.191842340469E+03   -0.39729E-02   -0.45388E-02 12440   0.750E-01    0.439E-01
DAV:   3    -0.191841375245E+03    0.96522E-03   -0.80795E-03 12400   0.767E-01    0.345E-01
DAV:   4    -0.191839985933E+03    0.13893E-02   -0.20062E-03 11400   0.360E-01    0.117E-01
DAV:   5    -0.191840381739E+03   -0.39581E-03   -0.12221E-03 10240   0.291E-01    0.229E-01
DAV:   6    -0.191839962189E+03    0.41955E-03   -0.11608E-03 10520   0.289E-01    0.986E-02
DAV:   7    -0.191839825072E+03    0.13712E-03   -0.27503E-04  8080   0.103E-01    0.350E-02
DAV:   8    -0.191839817730E+03    0.73421E-05   -0.54274E-05  6720   0.578E-02
  46 F= -.19183982E+03 E0= -.19176308E+03  d E =-.258998E-01
       N       E                     dE             d eps       ncg     rms          rms(c)
DAV:   1    -0.191843919872E+03   -0.40948E-02   -0.39472E-02  8160   0.439E-01    0.595E-02
DAV:   2    -0.191844027440E+03   -0.10757E-03   -0.13781E-03 11880   0.148E-01    0.909E-02
DAV:   3    -0.191843963772E+03    0.63668E-04   -0.28306E-04  9600   0.147E-01
  47 F= -.19184396E+03 E0= -.19176701E+03  d E =-.414604E-02
       N       E                     dE             d eps       ncg     rms          rms(c)
DAV:   1    -0.191831159094E+03    0.12868E-01   -0.63608E-01  8160   0.173E+00    0.267E-01
DAV:   2    -0.191838339118E+03   -0.71800E-02   -0.31938E-02 12760   0.114E+00    0.761E-01
DAV:   3    -0.191831385970E+03    0.69531E-02   -0.99780E-03 12080   0.884E-01    0.143E-01
DAV:   4    -0.191831444291E+03   -0.58321E-04   -0.12496E-03  9640   0.278E-01    0.186E-01
DAV:   5    -0.191831111190E+03    0.33310E-03   -0.98895E-04 10840   0.275E-01    0.111E-01
DAV:   6    -0.191831075046E+03    0.36144E-04   -0.50871E-04  8560   0.168E-01
  48 F= -.19183108E+03 E0= -.19175487E+03  d E =0.128887E-01
       N       E                     dE             d eps       ncg     rms          rms(c)
DAV:   1    -0.191785746032E+03    0.45365E-01   -0.89650E+00  8160   0.653E+00    0.102E+00
DAV:   2    -0.191832044542E+03   -0.46299E-01   -0.34053E-01 13080   0.326E+00    0.200E+00
DAV:   3    -0.191781996510E+03    0.50048E-01   -0.86392E-02 11640   0.261E+00    0.665E-01
DAV:   4    -0.191780024277E+03    0.19722E-02   -0.23779E-02 11480   0.119E+00    0.736E-01
DAV:   5    -0.191775486664E+03    0.45376E-02   -0.18333E-02 11400   0.117E+00    0.441E-01
DAV:   6    -0.191772965392E+03    0.25213E-02   -0.61544E-03 12720   0.507E-01    0.105E-01
DAV:   7    -0.191772990294E+03   -0.24903E-04   -0.92357E-04 11320   0.178E-01
  49 F= -.19177299E+03 E0= -.19169868E+03  d E =0.580848E-01
       N       E                     dE             d eps       ncg     rms          rms(c)
DAV:   1    -0.191894102281E+03   -0.12114E+00   -0.26224E+01  8160   0.113E+01    0.159E+00
DAV:   2    -0.192052812315E+03   -0.15871E+00   -0.95647E-01 13360   0.524E+00    0.388E+00
DAV:   3    -0.191899107024E+03    0.15371E+00   -0.35924E-01 12240   0.493E+00    0.102E+00
DAV:   4    -0.191887927802E+03    0.11179E-01   -0.53987E-02 12240   0.152E+00    0.922E-01
DAV:   5    -0.191884217899E+03    0.37099E-02   -0.38393E-02 10920   0.170E+00    0.862E-01
DAV:   6    -0.191877039174E+03    0.71787E-02   -0.19070E-02 12360   0.107E+00    0.413E-01
DAV:   7    -0.191876366532E+03    0.67264E-03   -0.62152E-03 11400   0.687E-01    0.332E-01
DAV:   8    -0.191875040636E+03    0.13259E-02   -0.18673E-03 10840   0.352E-01    0.796E-02
DAV:   9    -0.191874960421E+03    0.80215E-04   -0.38404E-04  9280   0.750E-02
  50 F= -.19187496E+03 E0= -.19179769E+03  d E =-.101970E+00
       N       E                     dE             d eps       ncg     rms          rms(c)
DAV:   1    -0.191895388047E+03   -0.20347E-01   -0.11708E+00  8160   0.231E+00    0.252E-01
DAV:   2    -0.191899214971E+03   -0.38269E-02   -0.34623E-02 12360   0.745E-01    0.446E-01
DAV:   3    -0.191897472790E+03    0.17422E-02   -0.68974E-03 12320   0.678E-01    0.236E-01
DAV:   4    -0.191896803909E+03    0.66888E-03   -0.13923E-03 10200   0.246E-01    0.864E-02
DAV:   5    -0.191896907966E+03   -0.10406E-03   -0.81954E-04 10560   0.167E-01    0.121E-01
DAV:   6    -0.191896817107E+03    0.90859E-04   -0.58749E-04 10120   0.203E-01
  51 F= -.19189682E+03 E0= -.19181965E+03  d E =-.218567E-01
       N       E                     dE             d eps       ncg     rms          rms(c)
DAV:   1    -0.191902928770E+03   -0.60208E-02   -0.93226E-02  8160   0.666E-01    0.845E-02
DAV:   2    -0.191903543073E+03   -0.61430E-03   -0.33752E-03 13360   0.303E-01    0.210E-01
DAV:   3    -0.191903068508E+03    0.47456E-03   -0.83069E-04 10040   0.263E-01    0.632E-02
DAV:   4    -0.191903071163E+03   -0.26547E-05   -0.12317E-04  6160   0.890E-02
  52 F= -.19190307E+03 E0= -.19182576E+03  d E =-.625406E-02
       N       E                     dE             d eps       ncg     rms          rms(c)
DAV:   1    -0.191892762877E+03    0.10306E-01   -0.27361E-01  8160   0.113E+00    0.171E-01
DAV:   2    -0.191894562959E+03   -0.18001E-02   -0.12041E-02 12680   0.608E-01    0.384E-01
DAV:   3    -0.191892815606E+03    0.17474E-02   -0.32927E-03 11920   0.485E-01    0.108E-01
DAV:   4    -0.191892798417E+03    0.17190E-04   -0.83266E-04  8320   0.197E-01
  53 F= -.19189280E+03 E0= -.19181575E+03  d E =0.102727E-01
       N       E                     dE             d eps       ncg     rms          rms(c)
DAV:   1    -0.191926361619E+03   -0.33546E-01   -0.29423E+00  8160   0.369E+00    0.451E-01
DAV:   2    -0.191942059270E+03   -0.15698E-01   -0.10080E-01 12560   0.163E+00    0.105E+00
DAV:   3    -0.191930022823E+03    0.12036E-01   -0.24792E-02 12040   0.134E+00    0.299E-01
DAV:   4    -0.191929628699E+03    0.39412E-03   -0.41351E-03 12240   0.487E-01    0.305E-01
DAV:   5    -0.191928788697E+03    0.84000E-03   -0.30482E-03 11320   0.481E-01    0.189E-01
DAV:   6    -0.191928579119E+03    0.20958E-03   -0.15729E-03 10840   0.250E-01    0.124E-01
DAV:   7    -0.191928438244E+03    0.14087E-03   -0.66778E-04  9400   0.198E-01    0.899E-02
DAV:   8    -0.191928345478E+03    0.92766E-04   -0.12235E-04  5600   0.101E-01
  54 F= -.19192835E+03 E0= -.19185087E+03  d E =-.355471E-01
       N       E                     dE             d eps       ncg     rms          rms(c)
DAV:   1    -0.191944778889E+03   -0.16341E-01   -0.66938E-01  8160   0.175E+00    0.200E-01
DAV:   2    -0.191947629937E+03   -0.28510E-02   -0.20848E-02 12040   0.658E-01    0.424E-01
DAV:   3    -0.191945766119E+03    0.18638E-02   -0.51669E-03 12200   0.581E-01    0.155E-01
DAV:   4    -0.191945471557E+03    0.29456E-03   -0.52447E-04  8720   0.148E-01    0.575E-02
DAV:   5    -0.191945614585E+03   -0.14303E-03   -0.38321E-04  9400   0.154E-01    0.113E-01
DAV:   6    -0.191945472894E+03    0.14169E-03   -0.32029E-04  8880   0.158E-01    0.383E-02
DAV:   7    -0.191945457896E+03    0.14998E-04   -0.68510E-05  6600   0.546E-02
  55 F= -.19194546E+03 E0= -.19186809E+03  d E =-.171124E-01
       N       E                     dE             d eps       ncg     rms          rms(c)
DAV:   1    -0.191959550398E+03   -0.14078E-01   -0.49654E-01  8160   0.150E+00    0.168E-01
DAV:   2    -0.191961366757E+03   -0.18164E-02   -0.14897E-02 12000   0.520E-01    0.326E-01
DAV:   3    -0.191960323857E+03    0.10429E-02   -0.34531E-03 12160   0.471E-01    0.142E-01
DAV:   4    -0.191960085017E+03    0.23884E-03   -0.49132E-04  8280   0.145E-01    0.553E-02
DAV:   5    -0.191960168068E+03   -0.83051E-04   -0.34226E-04  9320   0.144E-01
  56 F= -.19196017E+03 E0= -.19188282E+03  d E =-.147102E-01
       N       E                     dE             d eps       ncg     rms          rms(c)
DAV:   1    -0.191962116022E+03   -0.20310E-02   -0.18903E-02  8160   0.356E-01    0.658E-02
DAV:   2    -0.191962405864E+03   -0.28984E-03   -0.12485E-03 12720   0.217E-01    0.164E-01
DAV:   3    -0.191962094800E+03    0.31106E-03   -0.46822E-04  8200   0.209E-01    0.549E-02
DAV:   4    -0.191962083808E+03    0.10991E-04   -0.12260E-04  5440   0.782E-02
  57 F= -.19196208E+03 E0= -.19188510E+03  d E =-.191574E-02
       N       E                     dE             d eps       ncg     rms          rms(c)
DAV:   1    -0.191991178343E+03   -0.29084E-01   -0.26252E+00  8160   0.345E+00    0.395E-01
DAV:   2    -0.192001481195E+03   -0.10303E-01   -0.83442E-02 12640   0.124E+00    0.784E-01
DAV:   3    -0.191995335921E+03    0.61453E-02   -0.20345E-02 12120   0.114E+00    0.333E-01
DAV:   4    -0.191993863643E+03    0.14723E-02   -0.25975E-03 10960   0.331E-01    0.111E-01
DAV:   5    -0.191994123320E+03   -0.25968E-03   -0.13974E-03 12280   0.263E-01    0.176E-01
DAV:   6    -0.191993866547E+03    0.25677E-03   -0.10919E-03 10560   0.285E-01    0.102E-01
DAV:   7    -0.191993753082E+03    0.11346E-03   -0.26218E-04  8200   0.122E-01    0.483E-02
DAV:   8    -0.191993733887E+03    0.19195E-04   -0.59108E-05  6040   0.742E-02
  58 F= -.19199373E+03 E0= -.19191763E+03  d E =-.316501E-01
       N       E                     dE             d eps       ncg     rms          rms(c)
DAV:   1    -0.191982706715E+03    0.11046E-01   -0.52637E-01  8160   0.159E+00    0.240E-01
DAV:   2    -0.191983801909E+03   -0.10952E-02   -0.20318E-02 12440   0.563E-01    0.344E-01
DAV:   3    -0.191983126238E+03    0.67567E-03   -0.55806E-03 12240   0.612E-01    0.269E-01
DAV:   4    -0.191982162801E+03    0.96344E-03   -0.17718E-03 11640   0.311E-01    0.804E-02
DAV:   5    -0.191982163664E+03   -0.86308E-06   -0.67128E-04  9880   0.164E-01
  59 F= -.19198216E+03 E0= -.19190518E+03  d E =0.115702E-01
       N       E                     dE             d eps       ncg     rms          rms(c)
DAV:   1    -0.191999878598E+03   -0.17716E-01   -0.81512E-01  8160   0.196E+00    0.290E-01
DAV:   2    -0.192002167885E+03   -0.22893E-02   -0.31336E-02 12320   0.750E-01    0.454E-01
DAV:   3    -0.192000353927E+03    0.18140E-02   -0.72882E-03 11920   0.704E-01    0.255E-01
DAV:   4    -0.191999585139E+03    0.76879E-03   -0.24405E-03 12200   0.343E-01    0.165E-01
DAV:   5    -0.191999462175E+03    0.12296E-03   -0.16263E-03 10480   0.317E-01    0.150E-01
DAV:   6    -0.191999215260E+03    0.24691E-03   -0.71278E-04  9960   0.198E-01    0.490E-02
DAV:   7    -0.191999169311E+03    0.45950E-04   -0.10247E-04  6160   0.557E-02
  60 F= -.19199917E+03 E0= -.19192172E+03  d E =-.170056E-01
       N       E                     dE             d eps       ncg     rms          rms(c)
DAV:   1    -0.192021214964E+03   -0.22000E-01   -0.14094E+00  8160   0.253E+00    0.292E-01
DAV:   2    -0.192027306913E+03   -0.60919E-02   -0.45866E-02 12080   0.923E-01    0.607E-01
DAV:   3    -0.192023536633E+03    0.37703E-02   -0.11183E-02 12200   0.859E-01    0.238E-01
DAV:   4    -0.192022796120E+03    0.74051E-03   -0.13393E-03 10480   0.228E-01    0.769E-02
DAV:   5    -0.192022858906E+03   -0.62786E-04   -0.67537E-04 11080   0.116E-01
  61 F= -.19202286E+03 E0= -.19194620E+03  d E =-.236896E-01
       N       E                     dE             d eps       ncg     rms          rms(c)
DAV:   1    -0.192043126699E+03   -0.20331E-01   -0.12413E+00  8160   0.238E+00    0.302E-01
DAV:   2    -0.192050710115E+03   -0.75834E-02   -0.45506E-02 11960   0.110E+00    0.724E-01
DAV:   3    -0.192044864077E+03    0.58460E-02   -0.11520E-02 11880   0.922E-01    0.196E-01
DAV:   4    -0.192044664182E+03    0.19990E-03   -0.15288E-03 11120   0.290E-01    0.173E-01
DAV:   5    -0.192044439158E+03    0.22502E-03   -0.11168E-03 10840   0.292E-01    0.117E-01
DAV:   6    -0.192044318368E+03    0.12079E-03   -0.46434E-04  8720   0.140E-01    0.377E-02
DAV:   7    -0.192044298884E+03    0.19484E-04   -0.93421E-05  7520   0.630E-02
  62 F= -.19204430E+03 E0= -.19196786E+03  d E =-.214400E-01
       N       E                     dE             d eps       ncg     rms          rms(c)
DAV:   1    -0.192073044307E+03   -0.28726E-01   -0.33987E+00  8160   0.392E+00    0.436E-01
DAV:   2    -0.192085716711E+03   -0.12672E-01   -0.10774E-01 12200   0.131E+00    0.817E-01
DAV:   3    -0.192079451758E+03    0.62650E-02   -0.23687E-02 12200   0.125E+00    0.399E-01
DAV:   4    -0.192077484464E+03    0.19673E-02   -0.39401E-03 11440   0.411E-01    0.137E-01
DAV:   5    -0.192077542091E+03   -0.57627E-04   -0.17726E-03 11840   0.219E-01    0.156E-01
DAV:   6    -0.192077671637E+03   -0.12955E-03   -0.13886E-03 10960   0.330E-01    0.198E-01
DAV:   7    -0.192077217559E+03    0.45408E-03   -0.53811E-04  9280   0.217E-01    0.319E-02
DAV:   8    -0.192077216371E+03    0.11880E-05   -0.66526E-05  5800   0.463E-02
  63 F= -.19207722E+03 E0= -.19200165E+03  d E =-.329175E-01
       N       E                     dE             d eps       ncg     rms          rms(c)
DAV:   1    -0.192087626247E+03   -0.10409E-01   -0.40345E-01  8160   0.138E+00    0.207E-01
DAV:   2    -0.192090330353E+03   -0.27041E-02   -0.19004E-02 11920   0.722E-01    0.460E-01
DAV:   3    -0.192087965229E+03    0.23651E-02   -0.50278E-03 12320   0.594E-01    0.136E-01
DAV:   4    -0.192087869144E+03    0.96085E-04   -0.10494E-03 10160   0.230E-01    0.135E-01
DAV:   5    -0.192087732710E+03    0.13643E-03   -0.75854E-04 10960   0.231E-01    0.102E-01
DAV:   6    -0.192087626551E+03    0.10616E-03   -0.29563E-04  7520   0.126E-01    0.443E-02
DAV:   7    -0.192087618598E+03    0.79526E-05   -0.97984E-05  6840   0.903E-02
  64 F= -.19208762E+03 E0= -.19201200E+03  d E =-.104022E-01
       N       E                     dE             d eps       ncg     rms          rms(c)
DAV:   1    -0.192102178785E+03   -0.14552E-01   -0.99075E-01  8160   0.212E+00    0.242E-01
DAV:   2    -0.192105899878E+03   -0.37211E-02   -0.33740E-02 11920   0.729E-01    0.434E-01
DAV:   3    -0.192104186593E+03    0.17133E-02   -0.71745E-03 12400   0.684E-01    0.234E-01
DAV:   4    -0.192103542706E+03    0.64389E-03   -0.13708E-03  9760   0.257E-01    0.847E-02
DAV:   5    -0.192103580821E+03   -0.38115E-04   -0.58641E-04 10320   0.162E-01
  65 F= -.19210358E+03 E0= -.19202859E+03  d E =-.159622E-01
       N       E                     dE             d eps       ncg     rms          rms(c)
DAV:   1    -0.192126966716E+03   -0.23424E-01   -0.45636E+00  8160   0.455E+00    0.522E-01
DAV:   2    -0.192148065923E+03   -0.21099E-01   -0.15751E-01 12000   0.177E+00    0.110E+00
DAV:   3    -0.192135610424E+03    0.12455E-01   -0.34797E-02 12200   0.156E+00    0.409E-01
DAV:   4    -0.192133363459E+03    0.22470E-02   -0.40872E-03 12360   0.401E-01    0.145E-01
DAV:   5    -0.192133478040E+03   -0.11458E-03   -0.22345E-03 12080   0.210E-01    0.147E-01
DAV:   6    -0.192133508913E+03   -0.30874E-04   -0.15789E-03 10360   0.310E-01    0.188E-01
DAV:   7    -0.192133101000E+03    0.40791E-03   -0.51535E-04  9840   0.212E-01    0.316E-02
DAV:   8    -0.192133098355E+03    0.26449E-05   -0.61271E-05  6000   0.460E-02
  66 F= -.19213310E+03 E0= -.19205830E+03  d E =-.295175E-01
       N       E                     dE             d eps       ncg     rms          rms(c)
DAV:   1    -0.192150931396E+03   -0.17830E-01   -0.87892E+00  8160   0.631E+00    0.684E-01
DAV:   2    -0.192182566004E+03   -0.31635E-01   -0.29089E-01 12240   0.210E+00    0.119E+00
DAV:   3    -0.192170517732E+03    0.12048E-01   -0.54413E-02 12240   0.192E+00    0.669E-01
DAV:   4    -0.192165203997E+03    0.53137E-02   -0.12189E-02 12520   0.757E-01    0.259E-01
DAV:   5    -0.192164383493E+03    0.82050E-03   -0.51143E-03 11400   0.344E-01    0.203E-01
DAV:   6    -0.192165223487E+03   -0.83999E-03   -0.36903E-03 12520   0.504E-01    0.318E-01
DAV:   7    -0.192163941454E+03    0.12820E-02   -0.15425E-03 11560   0.367E-01    0.710E-02
DAV:   8    -0.192163928675E+03    0.12779E-04   -0.23978E-04  8320   0.122E-01
  67 F= -.19216393E+03 E0= -.19208877E+03  d E =-.308303E-01
       N       E                     dE             d eps       ncg     rms          rms(c)
DAV:   1    -0.192169804750E+03   -0.58633E-02   -0.65455E+00  8160   0.542E+00    0.592E-01
DAV:   2    -0.192192174715E+03   -0.22370E-01   -0.22062E-01 12240   0.173E+00    0.943E-01
DAV:   3    -0.192185489996E+03    0.66847E-02   -0.39067E-02 12160   0.163E+00    0.628E-01
DAV:   4    -0.192180900847E+03    0.45891E-02   -0.10026E-02 12520   0.722E-01    0.223E-01
DAV:   5    -0.192180256933E+03    0.64391E-03   -0.35830E-03 11480   0.275E-01    0.162E-01
DAV:   6    -0.192181015153E+03   -0.75822E-03   -0.24806E-03 12840   0.425E-01    0.292E-01
DAV:   7    -0.192180018985E+03    0.99617E-03   -0.12162E-03 11120   0.342E-01    0.562E-02
DAV:   8    -0.192180004635E+03    0.14349E-04   -0.14344E-04  6600   0.892E-02
  68 F= -.19218000E+03 E0= -.19210470E+03  d E =-.160760E-01
       N       E                     dE             d eps       ncg     rms          rms(c)
DAV:   1    -0.192182334044E+03   -0.23151E-02   -0.19121E-01  8200   0.928E-01    0.101E-01
DAV:   2    -0.192182884552E+03   -0.55051E-03   -0.63141E-03 12280   0.287E-01    0.137E-01
DAV:   3    -0.192182739758E+03    0.14479E-03   -0.79273E-04 11120   0.242E-01    0.988E-02
DAV:   4    -0.192182649617E+03    0.90142E-04   -0.26102E-04  8480   0.137E-01
  69 F= -.19218265E+03 E0= -.19210721E+03  d E =-.264498E-02
       N       E                     dE             d eps       ncg     rms          rms(c)
DAV:   1    -0.192186516487E+03   -0.37767E-02   -0.79857E-01  8160   0.190E+00    0.207E-01
DAV:   2    -0.192188676990E+03   -0.21605E-02   -0.23375E-02 13280   0.525E-01    0.279E-01
DAV:   3    -0.192188070813E+03    0.60618E-03   -0.35464E-03 11520   0.493E-01    0.226E-01
DAV:   4    -0.192187612675E+03    0.45814E-03   -0.14792E-03 11200   0.292E-01    0.111E-01
DAV:   5    -0.192187514600E+03    0.98075E-04   -0.62016E-04  9440   0.177E-01
  70 F= -.19218751E+03 E0= -.19211233E+03  d E =-.486498E-02
       N       E                     dE             d eps       ncg     rms          rms(c)
DAV:   1    -0.192187530364E+03    0.82311E-04   -0.23774E-02  8240   0.351E-01    0.979E-02
DAV:   2    -0.192188699550E+03   -0.11692E-02   -0.31174E-03 12120   0.447E-01    0.302E-01
DAV:   3    -0.192187430821E+03    0.12687E-02   -0.14325E-03 10280   0.361E-01    0.430E-02
DAV:   4    -0.192187425217E+03    0.56043E-05   -0.13552E-04  5800   0.748E-02
  71 F= -.19218743E+03 E0= -.19211225E+03  d E =0.893837E-04
       N       E                     dE             d eps       ncg     rms          rms(c)
DAV:   1    -0.192188943805E+03   -0.15130E-02   -0.11548E-01  8160   0.723E-01    0.805E-02
DAV:   2    -0.192189174084E+03   -0.23028E-03   -0.27167E-03 12520   0.189E-01    0.116E-01
DAV:   3    -0.192189062935E+03    0.11115E-03   -0.56154E-04  9560   0.199E-01    0.852E-02
DAV:   4    -0.192189004644E+03    0.58291E-04   -0.21833E-04  7640   0.115E-01
  72 F= -.19218900E+03 E0= -.19211387E+03  d E =-.157943E-02
       N       E                     dE             d eps       ncg     rms          rms(c)
DAV:   1    -0.192190024233E+03   -0.96130E-03   -0.38295E-02  8160   0.418E-01    0.473E-02
DAV:   2    -0.192190086504E+03   -0.62270E-04   -0.93656E-04 11800   0.980E-02
  73 F= -.19219009E+03 E0= -.19211506E+03  d E =-.108186E-02
       N       E                     dE             d eps       ncg     rms          rms(c)
DAV:   1    -0.192190500964E+03   -0.47673E-03   -0.37272E-02  8160   0.434E-01    0.842E-02
DAV:   2    -0.192190881763E+03   -0.38080E-03   -0.20524E-03 13560   0.263E-01    0.185E-01
DAV:   3    -0.192190488159E+03    0.39360E-03   -0.69872E-04  9880   0.254E-01    0.652E-02
DAV:   4    -0.192190451374E+03    0.36785E-04   -0.10986E-04  5840   0.729E-02
  74 F= -.19219045E+03 E0= -.19211557E+03  d E =-.364871E-03
       N       E                     dE             d eps       ncg     rms          rms(c)
DAV:   1    -0.192192733924E+03   -0.22458E-02   -0.20162E-01  8160   0.950E-01    0.107E-01
DAV:   2    -0.192193569478E+03   -0.83555E-03   -0.57565E-03 12360   0.357E-01    0.216E-01
DAV:   3    -0.192192968476E+03    0.60100E-03   -0.12685E-03 10960   0.307E-01    0.772E-02
DAV:   4    -0.192192948332E+03    0.20144E-04   -0.24154E-04  7280   0.117E-01
  75 F= -.19219295E+03 E0= -.19211813E+03  d E =-.249696E-02
       N       E                     dE             d eps       ncg     rms          rms(c)
DAV:   1    -0.192192502094E+03    0.46638E-03   -0.25678E-02  8160   0.364E-01    0.708E-02
DAV:   2    -0.192193163323E+03   -0.66123E-03   -0.18064E-03 12400   0.321E-01    0.232E-01
DAV:   3    -0.192192483975E+03    0.67935E-03   -0.81526E-04 10160   0.268E-01    0.343E-02
DAV:   4    -0.192192498164E+03   -0.14189E-04   -0.59523E-05  5800   0.710E-02
  76 F= -.19219250E+03 E0= -.19211776E+03  d E =0.450167E-03
       N       E                     dE             d eps       ncg     rms          rms(c)
DAV:   1    -0.192191370740E+03    0.11132E-02   -0.18094E-01  8160   0.918E-01    0.133E-01
DAV:   2    -0.192191554834E+03   -0.18409E-03   -0.49906E-03 11520   0.277E-01    0.150E-01
DAV:   3    -0.192191409863E+03    0.14497E-03   -0.15087E-03 11520   0.299E-01    0.155E-01
DAV:   4    -0.192191204882E+03    0.20498E-03   -0.56378E-04  9320   0.214E-01    0.820E-02
DAV:   5    -0.192191087341E+03    0.11754E-03   -0.21750E-04  6400   0.968E-02    0.307E-02
DAV:   6    -0.192191095897E+03   -0.85558E-05   -0.99818E-05  6800   0.735E-02
  77 F= -.19219110E+03 E0= -.19211660E+03  d E =0.140227E-02
       N       E                     dE             d eps       ncg     rms          rms(c)
DAV:   1    -0.192188242094E+03    0.28452E-02   -0.32941E-01  8160   0.121E+00    0.130E-01
DAV:   2    -0.192188892245E+03   -0.65015E-03   -0.72268E-03 12200   0.337E-01    0.177E-01
DAV:   3    -0.192188546644E+03    0.34560E-03   -0.15134E-03 11600   0.306E-01    0.130E-01
DAV:   4    -0.192188427842E+03    0.11880E-03   -0.43893E-04  9640   0.181E-01    0.810E-02
DAV:   5    -0.192188359756E+03    0.68087E-04   -0.20288E-04  6400   0.114E-01
  78 F= -.19218836E+03 E0= -.19211388E+03  d E =0.273614E-02
       N       E                     dE             d eps       ncg     rms          rms(c)
DAV:   1    -0.192192435432E+03   -0.40076E-02   -0.62282E-01  8160   0.167E+00    0.170E-01
DAV:   2    -0.192193648869E+03   -0.12134E-02   -0.13239E-02 11200   0.401E-01    0.233E-01
DAV:   3    -0.192193080595E+03    0.56827E-03   -0.27840E-03 12400   0.404E-01    0.186E-01
DAV:   4    -0.192192803721E+03    0.27687E-03   -0.92884E-04 10440   0.252E-01    0.974E-02
DAV:   5    -0.192192640459E+03    0.16326E-03   -0.31394E-04  7520   0.983E-02    0.311E-02
DAV:   6    -0.192192649833E+03   -0.93737E-05   -0.11661E-04  6760   0.426E-02
  79 F= -.19219265E+03 E0= -.19211811E+03  d E =-.429008E-02
       N       E                     dE             d eps       ncg     rms          rms(c)
DAV:   1    -0.192196877142E+03   -0.42367E-02   -0.70877E-01  8160   0.179E+00    0.195E-01
DAV:   2    -0.192198198108E+03   -0.13210E-02   -0.17807E-02 12040   0.443E-01    0.218E-01
DAV:   3    -0.192197767291E+03    0.43082E-03   -0.31710E-03 12480   0.402E-01    0.192E-01
DAV:   4    -0.192197516366E+03    0.25092E-03   -0.12438E-03 11200   0.296E-01    0.127E-01
DAV:   5    -0.192197300204E+03    0.21616E-03   -0.57087E-04  9080   0.170E-01    0.692E-02
DAV:   6    -0.192197354076E+03   -0.53873E-04   -0.33853E-04  8920   0.161E-01
  80 F= -.19219735E+03 E0= -.19212261E+03  d E =-.470424E-02
       N       E                     dE             d eps       ncg     rms          rms(c)
DAV:   1    -0.192199872709E+03   -0.25725E-02   -0.24566E-01  8160   0.105E+00    0.102E-01
DAV:   2    -0.192200323495E+03   -0.45079E-03   -0.53196E-03 12200   0.252E-01    0.125E-01
DAV:   3    -0.192200168346E+03    0.15515E-03   -0.88120E-04 11120   0.222E-01    0.995E-02
DAV:   4    -0.192200099841E+03    0.68505E-04   -0.24156E-04  8160   0.143E-01
  81 F= -.19220010E+03 E0= -.19212554E+03  d E =-.274576E-02
       N       E                     dE             d eps       ncg     rms          rms(c)
DAV:   1    -0.192200607262E+03   -0.43892E-03   -0.10599E-02  8160   0.233E-01    0.415E-02
DAV:   2    -0.192200747105E+03   -0.13984E-03   -0.37547E-04 10160   0.152E-01    0.110E-01
DAV:   3    -0.192200598161E+03    0.14894E-03   -0.18127E-04  7440   0.139E-01    0.235E-02
DAV:   4    -0.192200611044E+03   -0.12882E-04   -0.34487E-05  5840   0.408E-02
  82 F= -.19220061E+03 E0= -.19212613E+03  d E =-.511203E-03
       N       E                     dE             d eps       ncg     rms          rms(c)
DAV:   1    -0.192203973241E+03   -0.33751E-02   -0.33657E-01  8160   0.123E+00    0.145E-01
DAV:   2    -0.192205031228E+03   -0.10580E-02   -0.92353E-03 12000   0.472E-01    0.257E-01
DAV:   3    -0.192204194962E+03    0.83627E-03   -0.20119E-03 11960   0.380E-01    0.103E-01
DAV:   4    -0.192204128813E+03    0.66148E-04   -0.44889E-04  9360   0.147E-01
  83 F= -.19220413E+03 E0= -.19213004E+03  d E =-.351777E-02
       N       E                     dE             d eps       ncg     rms          rms(c)
DAV:   1    -0.192200238393E+03    0.39566E-02   -0.37679E-01  8160   0.130E+00    0.148E-01
DAV:   2    -0.192202419261E+03   -0.21809E-02   -0.11242E-02 12440   0.591E-01    0.382E-01
DAV:   3    -0.192200564712E+03    0.18545E-02   -0.29739E-03 11520   0.490E-01    0.956E-02
DAV:   4    -0.192200535181E+03    0.29530E-04   -0.45363E-04  8800   0.159E-01
  84 F= -.19220054E+03 E0= -.19212598E+03  d E =0.359363E-02
       N       E                     dE             d eps       ncg     rms          rms(c)
DAV:   1    -0.192196428355E+03    0.41364E-02   -0.84632E-01  8160   0.198E+00    0.275E-01
DAV:   2    -0.192197600665E+03   -0.11723E-02   -0.22067E-02 12320   0.626E-01    0.371E-01
DAV:   3    -0.192196014035E+03    0.15866E-02   -0.60625E-03 11800   0.606E-01    0.231E-01
DAV:   4    -0.192195793025E+03    0.22101E-03   -0.23948E-03 12040   0.398E-01    0.205E-01
DAV:   5    -0.192195312068E+03    0.48096E-03   -0.13995E-03 11160   0.292E-01    0.133E-01
DAV:   6    -0.192195178464E+03    0.13360E-03   -0.62914E-04 10520   0.213E-01    0.772E-02
DAV:   7    -0.192195098805E+03    0.79659E-04   -0.12327E-04  6280   0.856E-02
  85 F= -.19219510E+03 E0= -.19211983E+03  d E =0.543638E-02
       N       E                     dE             d eps       ncg     rms          rms(c)
DAV:   1    -0.192202316935E+03   -0.71385E-02   -0.14362E+00  8160   0.254E+00    0.293E-01
DAV:   2    -0.192206176597E+03   -0.38597E-02   -0.36275E-02 12160   0.925E-01    0.502E-01
DAV:   3    -0.192202903164E+03    0.32734E-02   -0.82995E-03 12280   0.746E-01    0.201E-01
DAV:   4    -0.192202639491E+03    0.26367E-03   -0.20185E-03 11880   0.299E-01    0.159E-01
DAV:   5    -0.192202237513E+03    0.40198E-03   -0.10641E-03 10560   0.190E-01    0.831E-02
DAV:   6    -0.192202367239E+03   -0.12973E-03   -0.64903E-04 10640   0.216E-01    0.127E-01
DAV:   7    -0.192202174529E+03    0.19271E-03   -0.30140E-04  7640   0.149E-01    0.208E-02
DAV:   8    -0.192202176980E+03   -0.24513E-05   -0.32684E-05  5760   0.318E-02
  86 F= -.19220218E+03 E0= -.19212767E+03  d E =-.707818E-02
       N       E                     dE             d eps       ncg     rms          rms(c)
DAV:   1    -0.192205438027E+03   -0.32635E-02   -0.32467E-01  8160   0.120E+00    0.124E-01
DAV:   2    -0.192206184349E+03   -0.74632E-03   -0.75399E-03 12280   0.367E-01    0.187E-01
DAV:   3    -0.192205735106E+03    0.44924E-03   -0.14404E-03 11680   0.299E-01    0.966E-02
DAV:   4    -0.192205675929E+03    0.59177E-04   -0.34661E-04  9120   0.141E-01
  87 F= -.19220568E+03 E0= -.19213156E+03  d E =-.349895E-02
       N       E                     dE             d eps       ncg     rms          rms(c)
DAV:   1    -0.192201157677E+03    0.45774E-02   -0.49741E-01  8160   0.150E+00    0.167E-01
DAV:   2    -0.192202750085E+03   -0.15924E-02   -0.13580E-02 12520   0.542E-01    0.308E-01
DAV:   3    -0.192201526385E+03    0.12237E-02   -0.31250E-03 11400   0.451E-01    0.127E-01
DAV:   4    -0.192201432509E+03    0.93876E-04   -0.74681E-04  9760   0.205E-01
  88 F= -.19220143E+03 E0= -.19212662E+03  d E =0.424342E-02
       N       E                     dE             d eps       ncg     rms          rms(c)
DAV:   1    -0.192201555126E+03   -0.28741E-04   -0.56507E-02  8160   0.551E-01    0.114E-01
DAV:   2    -0.192201760576E+03   -0.20545E-03   -0.30646E-03 11440   0.257E-01    0.172E-01
DAV:   3    -0.192201469464E+03    0.29111E-03   -0.10992E-03 10520   0.286E-01    0.117E-01
DAV:   4    -0.192201336014E+03    0.13345E-03   -0.38895E-04  8800   0.149E-01    0.645E-02
DAV:   5    -0.192201311053E+03    0.24961E-04   -0.21644E-04  9120   0.136E-01
  89 F= -.19220131E+03 E0= -.19212645E+03  d E =0.121456E-03
       N       E                     dE             d eps       ncg     rms          rms(c)
DAV:   1    -0.192204555282E+03   -0.32193E-02   -0.20020E-01  8160   0.956E-01    0.138E-01
DAV:   2    -0.192205189432E+03   -0.63415E-03   -0.63630E-03 11440   0.430E-01    0.243E-01
DAV:   3    -0.192204418214E+03    0.77122E-03   -0.18204E-03 11400   0.356E-01    0.914E-02
DAV:   4    -0.192204359429E+03    0.58786E-04   -0.44311E-04  9200   0.136E-01
  90 F= -.19220436E+03 E0= -.19212991E+03  d E =-.304838E-02
       N       E                     dE             d eps       ncg     rms          rms(c)
DAV:   1    -0.192197119058E+03    0.72992E-02   -0.14316E+00  8160   0.256E+00    0.324E-01
DAV:   2    -0.192202752790E+03   -0.56337E-02   -0.43776E-02 12840   0.107E+00    0.649E-01
DAV:   3    -0.192197703024E+03    0.50498E-02   -0.11470E-02 12240   0.905E-01    0.235E-01
DAV:   4    -0.192197531167E+03    0.17186E-03   -0.29117E-03 12240   0.401E-01    0.229E-01
DAV:   5    -0.192197029331E+03    0.50184E-03   -0.17751E-03 11920   0.355E-01    0.166E-01
DAV:   6    -0.192196753227E+03    0.27610E-03   -0.93133E-04 10240   0.234E-01    0.720E-02
DAV:   7    -0.192196681383E+03    0.71844E-04   -0.16689E-04  5960   0.761E-02
  91 F= -.19219668E+03 E0= -.19212115E+03  d E =0.767805E-02
       N       E                     dE             d eps       ncg     rms          rms(c)
DAV:   1    -0.192184106086E+03    0.12647E-01   -0.83238E+00  8160   0.618E+00    0.791E-01
DAV:   2    -0.192202200106E+03   -0.18094E-01   -0.22484E-01 12400   0.218E+00    0.124E+00
DAV:   3    -0.192184699728E+03    0.17500E-01   -0.55913E-02 12280   0.196E+00    0.589E-01
DAV:   4    -0.192181967533E+03    0.27322E-02   -0.16226E-02 12520   0.867E-01    0.464E-01
DAV:   5    -0.192178881188E+03    0.30863E-02   -0.95830E-03 12720   0.654E-01    0.323E-01
DAV:   6    -0.192178792340E+03    0.88848E-04   -0.57016E-03 12720   0.626E-01    0.293E-01
DAV:   7    -0.192177719497E+03    0.10728E-02   -0.18218E-03 12040   0.320E-01    0.522E-02
DAV:   8    -0.192177677070E+03    0.42427E-04   -0.16092E-04  6920   0.625E-02
  92 F= -.19217768E+03 E0= -.19210040E+03  d E =0.190043E-01
       N       E                     dE             d eps       ncg     rms          rms(c)
DAV:   1    -0.192228275385E+03   -0.50556E-01   -0.28043E+01  8160   0.113E+01    0.143E+00
DAV:   2    -0.192299563401E+03   -0.71288E-01   -0.78194E-01 12360   0.429E+00    0.232E+00
DAV:   3    -0.192231757868E+03    0.67806E-01   -0.17827E-01 12360   0.347E+00    0.994E-01
DAV:   4    -0.192225319924E+03    0.64379E-02   -0.52002E-02 12440   0.156E+00    0.840E-01
DAV:   5    -0.192216460951E+03    0.88590E-02   -0.29835E-02 12720   0.128E+00    0.609E-01
DAV:   6    -0.192214307383E+03    0.21536E-02   -0.16523E-02 12680   0.107E+00    0.424E-01
DAV:   7    -0.192212035246E+03    0.22721E-02   -0.48748E-03 12680   0.485E-01    0.101E-01
DAV:   8    -0.192211985683E+03    0.49563E-04   -0.74651E-04 10880   0.170E-01
  93 F= -.19221199E+03 E0= -.19213859E+03  d E =-.343086E-01
       N       E                     dE             d eps       ncg     rms          rms(c)
DAV:   1    -0.192210080084E+03    0.19552E-02   -0.28064E-01  8160   0.116E+00    0.194E-01
DAV:   2    -0.192211074444E+03   -0.99436E-03   -0.10131E-02 12320   0.566E-01    0.353E-01
DAV:   3    -0.192209605460E+03    0.14690E-02   -0.32082E-03 11600   0.505E-01    0.136E-01
DAV:   4    -0.192209519367E+03    0.86093E-04   -0.99667E-04 10400   0.225E-01
  94 F= -.19220952E+03 E0= -.19213550E+03  d E =0.246632E-02
       N       E                     dE             d eps       ncg     rms          rms(c)
DAV:   1    -0.192211190982E+03   -0.15855E-02   -0.17411E-01  8160   0.939E-01    0.144E-01
DAV:   2    -0.192211983586E+03   -0.79260E-03   -0.68869E-03 12360   0.416E-01    0.263E-01
DAV:   3    -0.192211211374E+03    0.77221E-03   -0.19497E-03 11760   0.408E-01    0.133E-01
DAV:   4    -0.192211020754E+03    0.19062E-03   -0.42017E-04  8920   0.156E-01    0.711E-02
DAV:   5    -0.192211000192E+03    0.20563E-04   -0.29210E-04  9240   0.150E-01
  95 F= -.19221100E+03 E0= -.19213681E+03  d E =-.148082E-02
       N       E                     dE             d eps       ncg     rms          rms(c)
DAV:   1    -0.192213438739E+03   -0.24180E-02   -0.10866E-01  8160   0.706E-01    0.107E-01
DAV:   2    -0.192213973352E+03   -0.53461E-03   -0.37714E-03 11720   0.376E-01    0.222E-01
DAV:   3    -0.192213338255E+03    0.63510E-03   -0.11615E-03 10200   0.301E-01    0.606E-02
DAV:   4    -0.192213312084E+03    0.26170E-04   -0.20687E-04  6880   0.876E-02
  96 F= -.19221331E+03 E0= -.19213948E+03  d E =-.231189E-02
       N       E                     dE             d eps       ncg     rms          rms(c)
DAV:   1    -0.192216500697E+03   -0.31624E-02   -0.19612E-01  8160   0.992E-01    0.191E-01
DAV:   2    -0.192217156801E+03   -0.65610E-03   -0.87175E-03 11840   0.541E-01    0.328E-01
DAV:   3    -0.192215959038E+03    0.11978E-02   -0.30967E-03 11520   0.497E-01    0.144E-01
DAV:   4    -0.192215779022E+03    0.18002E-03   -0.96309E-04  9840   0.237E-01    0.115E-01
DAV:   5    -0.192215731437E+03    0.47586E-04   -0.69678E-04  9960   0.220E-01
  97 F= -.19221573E+03 E0= -.19214253E+03  d E =-.241935E-02
       N       E                     dE             d eps       ncg     rms          rms(c)
DAV:   1    -0.192217009428E+03   -0.12304E-02   -0.52668E-02  8160   0.573E-01    0.118E-01
DAV:   2    -0.192217179035E+03   -0.16961E-03   -0.31813E-03 11080   0.306E-01    0.189E-01
DAV:   3    -0.192216791251E+03    0.38778E-03   -0.10166E-03 10080   0.287E-01    0.863E-02
DAV:   4    -0.192216721139E+03    0.70112E-04   -0.36351E-04  8480   0.143E-01
  98 F= -.19221672E+03 E0= -.19214321E+03  d E =-.989702E-03
       N       E                     dE             d eps       ncg     rms          rms(c)
DAV:   1    -0.192220131672E+03   -0.33404E-02   -0.34108E-01  8160   0.124E+00    0.146E-01
DAV:   2    -0.192221792463E+03   -0.16608E-02   -0.89667E-03 13000   0.495E-01    0.319E-01
DAV:   3    -0.192220324563E+03    0.14679E-02   -0.27472E-03 12240   0.447E-01    0.984E-02
DAV:   4    -0.192220263117E+03    0.61446E-04   -0.41275E-04  8360   0.123E-01
  99 F= -.19222026E+03 E0= -.19214706E+03  d E =-.354198E-02
       N       E                     dE             d eps       ncg     rms          rms(c)
DAV:   1    -0.192221747571E+03   -0.14230E-02   -0.56030E-02  8160   0.510E-01    0.786E-02
DAV:   2    -0.192222320889E+03   -0.57332E-03   -0.19819E-03 13120   0.290E-01    0.212E-01
DAV:   3    -0.192221756666E+03    0.56422E-03   -0.88763E-04 10040   0.269E-01    0.511E-02
DAV:   4    -0.192221750857E+03    0.58090E-05   -0.10278E-04  5520   0.620E-02
 100 F= -.19222175E+03 E0= -.19214863E+03  d E =-.148774E-02
