unknown system                          
           1
     8.853398    5.103594    0.000000
    -8.855987    5.108047    0.000000
     0.000000    0.000000   30.000000
   V    Mo   W    S 
   3   3   3  18
Direct configuration=     1
   0.00000000  0.00000000  0.00000000
   0.00000000  0.66666669  0.00000000
   0.33333334  0.66666669  0.00000000
   0.66666669  0.00000000  0.00000000
   0.33333334  0.33333334  0.00000000
   1.00000000  0.33333334  0.00000000
   0.33333334  0.00000000  0.00000000
   0.66666669  0.33333334  0.00000000
   0.66666669  0.66666669  0.00000000
   0.11068511  0.22244981  0.95539999
   0.22244981  0.11068511  0.04460000
   0.11068511  0.55578315  0.95539999
   0.22244981  0.44401845  0.04460000
   0.11068511  0.88911647  0.95539999
   0.22244981  0.77735180  0.04460000
   0.44401845  0.22244981  0.95539999
   0.55578315  0.11068511  0.04460000
   0.44401845  0.55578315  0.95539999
   0.55578315  0.44401845  0.04460000
   0.44401845  0.88911647  0.95539999
   0.55578315  0.77735180  0.04460000
   0.77735180  0.22244981  0.95539999
   0.88911647  0.11068511  0.04460000
   0.77735180  0.55578315  0.95539999
   0.88911647  0.44401845  0.04460000
   0.77735180  0.88911647  0.95539999
   0.88911647  0.77735180  0.04460000
unknown system                          
           1
     8.665471    4.997449    0.000000
    -8.668024    5.001842    0.000000
     0.000000    0.000000   30.000000
   V    Mo   W    S 
   3   3   3  18
Direct configuration=     2
  -0.00009549  0.00197799  0.00016084
   0.00037857  0.66589619 -0.00002498
   0.33293413  0.66536516 -0.00018676
   0.66794718  0.00138105  0.00015285
   0.33190891  0.33335476 -0.00011459
   1.00032936  0.33216530 -0.00003546
   0.33408360  0.00073945 -0.00005151
   0.66682033  0.33173751  0.00003520
   0.66563109  0.66729162  0.00009378
   0.10889043  0.21772099  0.95190155
   0.21789756  0.10821456  0.04807419
   0.11311806  0.55998906  0.95311173
   0.22426259  0.44881350  0.04806529
   0.10757540  0.88728126  0.95317103
   0.22060066  0.77419616  0.04686024
   0.44481731  0.22186273  0.95070675
   0.55515691  0.11149910  0.04934718
   0.44277684  0.55836701  0.95191086
   0.55636333  0.44479559  0.04917911
   0.44156612  0.88460799  0.95196676
   0.55151576  0.77509455  0.04806080
   0.77726444  0.22270686  0.95073571
   0.89121380  0.10846903  0.04807514
   0.78128882  0.55712273  0.95193325
   0.88995209  0.44831676  0.04804266
   0.78171764  0.88998423  0.95195905
   0.89229903  0.77926331  0.04686927
unknown system                          
           1
     8.485514    4.899193    0.000000
    -8.486648    4.901132    0.000000
     0.000000    0.000000   30.000000
   V    Mo   W    S 
   3   3   3  18
Direct configuration=     3
  -0.00010418  0.00261897  0.00017784
   0.00037729  0.66563062 -0.00003408
   0.33288411  0.66489190 -0.00020979
   0.66833068  0.00216524  0.00013250
   0.33169516  0.33340178 -0.00008986
   1.00015726  0.33156684 -0.00003310
   0.33483741  0.00147795 -0.00010745
   0.66659600  0.33090093  0.00003616
   0.66514747  0.66723991  0.00014240
   0.10879250  0.21755719  0.95181415
   0.21787397  0.10798967  0.04805808
   0.11320070  0.56005487  0.95313326
   0.22432975  0.44896758  0.04809158
   0.10775616  0.88736274  0.95330023
   0.22068083  0.77438004  0.04677290
   0.44492149  0.22177359  0.95068819
   0.55506163  0.11159697  0.04943411
   0.44293399  0.55853903  0.95184722
   0.55660303  0.44489583  0.04911562
   0.44136747  0.88463143  0.95202751
   0.55152102  0.77491285  0.04804308
   0.77715794  0.22284269  0.95065824
   0.89130881  0.10840954  0.04819584
   0.78111478  0.55706900  0.95202933
   0.88981686  0.44830073  0.04801798
   0.78173037  0.88981601  0.95199494
   0.89212195  0.77922056  0.04676300
unknown system                          
           1
     8.267784    4.771560    0.000000
    -8.274289    4.782801    0.000000
     0.000000    0.000000   30.000000
   V    Mo   W    S 
   3   3   3  18
Direct configuration=     4
  -0.00025586  0.00495300  0.00016358
  -0.00001027  0.66447965 -0.00005244
   0.33304929  0.66300385 -0.00021135
   0.66958790  0.00559114  0.00001709
   0.33152960  0.33382259  0.00002765
   0.99896782  0.32905738 -0.00000302
   0.33852695  0.00497055 -0.00026685
   0.66524620  0.32727310  0.00003541
   0.66307673  0.66652359  0.00026240
   0.10805995  0.21617698  0.95004497
   0.21671857  0.10718772  0.04944730
   0.11380416  0.56089349  0.95191430
   0.22484153  0.45028976  0.04960183
   0.10687346  0.88692176  0.95248962
   0.22029204  0.77362735  0.04773390
   0.44500943  0.22199405  0.94897179
   0.55505659  0.11151353  0.05145991
   0.44235746  0.55911870  0.95010951
   0.55681985  0.44486525  0.05044981
   0.44078713  0.88360093  0.95082177
   0.55034549  0.77447509  0.04940903
   0.77731138  0.22302109  0.94873123
   0.89202377  0.10787515  0.05012676
   0.78180663  0.55753435  0.95096773
   0.89050241  0.44930803  0.04935581
   0.78284523  0.89029995  0.95071378
   0.89304102  0.77983644  0.04767836
unknown system                          
           1
     8.258009    4.767564    0.000000
    -8.270294    4.788824    0.000000
     0.000000    0.000000   30.000000
   V    Mo   W    S 
   3   3   3  18
Direct configuration=     5
  -0.00071833  0.00899226 -0.00003557
  -0.00078853  0.66246786 -0.00006817
   0.33305702  0.65850671 -0.00003558
   0.67197559  0.01333110 -0.00010859
   0.33160338  0.33501525  0.00016884
   0.99628699  0.32423586  0.00006632
   0.34612498  0.01188021 -0.00038168
   0.66244346  0.31945732  0.00001185
   0.65902560  0.66487203  0.00034423
   0.10747277  0.21498016  0.94761313
   0.21574593  0.10666609  0.05128200
   0.11424432  0.56080256  0.95009185
   0.22471378  0.45114309  0.05169203
   0.10656779  0.88712045  0.95159002
   0.22042655  0.77340262  0.04883894
   0.44524252  0.22306060  0.94645387
   0.55536578  0.11115281  0.05459285
   0.44122164  0.55923688  0.94757432
   0.55682521  0.44435932  0.05216266
   0.44084275  0.88288891  0.94925090
   0.54916142  0.77495906  0.05109605
   0.77822979  0.22342479  0.94583572
   0.89251517  0.10748477  0.05300069
   0.78201419  0.55739506  0.94969794
   0.89107757  0.44957174  0.05114530
   0.78368258  0.89107790  0.94919683
   0.89385451  0.78072904  0.04892316
unknown system                          
           1
     8.255960    4.765372    0.000000
    -8.269811    4.789339    0.000000
     0.000000    0.000000   30.000000
   V    Mo   W    S 
   3   3   3  18
Direct configuration=     6
  -0.00086757  0.01000375 -0.00001953
  -0.00093942  0.66192708 -0.00007615
   0.33216064  0.65596121 -0.00001883
   0.67249972  0.01537166 -0.00001369
   0.33188055  0.33570144  0.00012151
   0.99577116  0.32364384  0.00002543
   0.34804413  0.01355642 -0.00034863
   0.66211617  0.31793487 -0.00013397
   0.65779715  0.66391597  0.00037384
   0.10765151  0.21530821  0.94742984
   0.21621414  0.10697009  0.05130339
   0.11412204  0.55999543  0.95001077
   0.22402744  0.45031426  0.05191135
   0.10753144  0.88800969  0.95179156
   0.22111415  0.77405914  0.04866625
   0.44557340  0.22383657  0.94613307
   0.55572472  0.11104513  0.05520706
   0.44085834  0.55880805  0.94728359
   0.55694710  0.44383367  0.05217029
   0.44152122  0.88357550  0.94937217
   0.54947300  0.77586338  0.05098052
   0.77879080  0.22390222  0.94540056
   0.89215320  0.10757809  0.05329075
   0.78112822  0.55644384  0.94980036
   0.89050187  0.44853285  0.05121715
   0.78295250  0.89128498  0.94929236
   0.89346684  0.78083713  0.04882886
unknown system                          
           1
     8.258489    4.766422    0.000000
    -8.275649    4.796120    0.000000
     0.000000    0.000000   30.000000
   V    Mo   W    S 
   3   3   3  18
Direct configuration=     7
  -0.00113665  0.01134108 -0.00002727
  -0.00106691  0.66120662 -0.00002351
   0.33062423  0.65234664  0.00003003
   0.67352838  0.01841689  0.00002416
   0.33226827  0.33672578  0.00008044
   0.99515497  0.32294793 -0.00000616
   0.35082688  0.01614927 -0.00032290
   0.66162120  0.31569824 -0.00019203
   0.65601613  0.66240579  0.00044711
   0.10781801  0.21552391  0.94731618
   0.21668324  0.10736215  0.05124972
   0.11404563  0.55926945  0.94994008
   0.22337932  0.44945184  0.05211976
   0.10850338  0.88889145  0.95216096
   0.22180257  0.77463191  0.04833551
   0.44587052  0.22451874  0.94589096
   0.55620180  0.11131770  0.05570966
   0.44047265  0.55834978  0.94697374
   0.55712673  0.44332728  0.05208698
   0.44216169  0.88408216  0.94968502
   0.54957798  0.77660708  0.05069443
   0.77936246  0.22431745  0.94501250
   0.89193558  0.10781809  0.05354463
   0.78032227  0.55559423  0.94992396
   0.88992801  0.44762177  0.05120672
   0.78214871  0.89137613  0.94956015
   0.89303739  0.78091511  0.04857905
unknown system                          
           1
     8.259020    4.765447    0.000000
    -8.281252    4.803927    0.000000
     0.000000    0.000000   30.000000
   V    Mo   W    S 
   3   3   3  18
Direct configuration=     8
  -0.00126722  0.01210730 -0.00003170
  -0.00113341  0.66075301 -0.00000400
   0.32962007  0.65030634  0.00003940
   0.67418226  0.01995113  0.00006260
   0.33245355  0.33730208  0.00006636
   0.99496402  0.32273256 -0.00003541
   0.35213741  0.01749198 -0.00031051
   0.66153520  0.31487405 -0.00028236
   0.65496817  0.66140310  0.00047696
   0.10788827  0.21559324  0.94725292
   0.21685723  0.10748661  0.05122542
   0.11403340  0.55902598  0.94988170
   0.22308676  0.44901641  0.05225962
   0.10892771  0.88927972  0.95238236
   0.22210875  0.77482830  0.04815213
   0.44606456  0.22489792  0.94576807
   0.55644020  0.11141739  0.05598766
   0.44028818  0.55815616  0.94680003
   0.55720401  0.44303828  0.05207299
   0.44240892  0.88420451  0.94988622
   0.54952150  0.77688669  0.05051246
   0.77968044  0.22461476  0.94480415
   0.89186172  0.10792463  0.05368334
   0.78004969  0.55530121  0.94998118
   0.88969611  0.44728298  0.05122624
   0.78179601  0.89141345  0.94971291
   0.89284094  0.78092466  0.04842917
unknown system                          
           1
     8.260621    4.766568    0.000000
    -8.282377    4.804223    0.000000
     0.000000    0.000000   30.000000
   V    Mo   W    S 
   3   3   3  18
Direct configuration=     9
  -0.00144396  0.01357081 -0.00003621
  -0.00127242  0.65975998  0.00005236
   0.32773800  0.64688047  0.00003597
   0.67543328  0.02242343  0.00013322
   0.33272131  0.33827516  0.00006032
   0.99479992  0.32257332 -0.00007779
   0.35414728  0.01972843 -0.00027839
   0.66160099  0.31391377 -0.00040566
   0.65304554  0.65935605  0.00054647
   0.10800284  0.21568250  0.94718780
   0.21710284  0.10761858  0.05114655
   0.11401330  0.55872241  0.94977950
   0.22265135  0.44829390  0.05247361
   0.10955105  0.88982661  0.95281970
   0.22259562  0.77509496  0.04778738
   0.44636955  0.22546549  0.94563143
   0.55688078  0.11170647  0.05630257
   0.44001035  0.55783074  0.94655514
   0.55730099  0.44258069  0.05202484
   0.44272476  0.88428736  0.95033308
   0.54931811  0.77719473  0.05010676
   0.78022355  0.22512636  0.94453221
   0.89182271  0.10816045  0.05385729
   0.77977599  0.55501883  0.95006840
   0.88938070  0.44687521  0.05122467
   0.78125076  0.89138667  0.95003824
   0.89246926  0.78086107  0.04810043
unknown system                          
           1
     8.262683    4.767740    0.000000
    -8.284257    4.805080    0.000000
     0.000000    0.000000   30.000000
   V    Mo   W    S 
   3   3   3  18
Direct configuration=    10
  -0.00140341  0.01341802 -0.00003546
  -0.00127014  0.65983082  0.00004430
   0.32796037  0.64734081  0.00003107
   0.67528735  0.02207081  0.00012490
   0.33267384  0.33813547  0.00006184
   0.99484830  0.32263331 -0.00007500
   0.35383946  0.01942768 -0.00028251
   0.66164246  0.31414339 -0.00039906
   0.65327466  0.65955371  0.00053484
   0.10798873  0.21567024  0.94719444
   0.21705350  0.10758546  0.05116059
   0.11401345  0.55877650  0.94978399
   0.22270961  0.44838315  0.05245227
   0.10944991  0.88973895  0.95276910
   0.22252963  0.77504825  0.04783394
   0.44633245  0.22539530  0.94565094
   0.55683037  0.11167358  0.05625871
   0.44004453  0.55787128  0.94658454
   0.55727365  0.44262903  0.05204330
   0.44266739  0.88424646  0.95028253
   0.54932669  0.77714185  0.05015323
   0.78015963  0.22507120  0.94457081
   0.89184127  0.10813378  0.05383653
   0.77984711  0.55509273  0.95004792
   0.88944054  0.44695430  0.05123436
   0.78133389  0.89138440  0.95000026
   0.89251922  0.78086395  0.04813749
unknown system                          
           1
     8.269458    4.771306    0.000000
    -8.291640    4.809696    0.000000
     0.000000    0.000000   30.000000
   V    Mo   W    S 
   3   3   3  18
Direct configuration=    11
  -0.00138031  0.01356577 -0.00003580
  -0.00131113  0.65972561  0.00004723
   0.32789385  0.64724970  0.00002899
   0.67538835  0.02215569  0.00012598
   0.33265587  0.33813200  0.00006432
   0.99487520  0.32261653 -0.00007428
   0.35386543  0.01951805 -0.00028284
   0.66166705  0.31419495 -0.00039879
   0.65317588  0.65939543  0.00054076
   0.10798136  0.21566223  0.94720151
   0.21704366  0.10757774  0.05115238
   0.11400238  0.55876291  0.94977533
   0.22269567  0.44835669  0.05245598
   0.10945911  0.88976182  0.95279642
   0.22256547  0.77506440  0.04781546
   0.44634830  0.22540784  0.94565866
   0.55686023  0.11171298  0.05624395
   0.44003251  0.55785100  0.94658046
   0.55725929  0.44260251  0.05204310
   0.44266504  0.88423963  0.95031703
   0.54931055  0.77713425  0.05012266
   0.78017655  0.22508939  0.94457557
   0.89186196  0.10815274  0.05383157
   0.77985554  0.55510019  0.95004017
   0.88943572  0.44694124  0.05123301
   0.78133470  0.89137399  0.95002893
   0.89249623  0.78086917  0.04811213
unknown system                          
           1
     8.264778    4.767827    0.000000
    -8.289803    4.811138    0.000000
     0.000000    0.000000   30.000000
   V    Mo   W    S 
   3   3   3  18
Direct configuration=    12
  -0.00136294  0.01429604 -0.00003751
  -0.00144847  0.65917661  0.00006917
   0.32725672  0.64622525  0.00001889
   0.67594443  0.02292416  0.00014552
   0.33265919  0.33834097  0.00006853
   0.99490795  0.32257629 -0.00008354
   0.35438675  0.02027201 -0.00027439
   0.66179368  0.31416153 -0.00042993
   0.65246284  0.65847646  0.00057017
   0.10799430  0.21566265  0.94719550
   0.21706657  0.10758242  0.05112108
   0.11396349  0.55866125  0.94971563
   0.22254613  0.44810265  0.05253082
   0.10961737  0.88993295  0.95296941
   0.22276714  0.77515725  0.04768559
   0.44645365  0.22558088  0.94563654
   0.55705233  0.11189045  0.05629137
   0.43992563  0.55771508  0.94649982
   0.55724085  0.44241841  0.05204553
   0.44272661  0.88421294  0.95050781
   0.54920224  0.77719425  0.04995247
   0.78036375  0.22526290  0.94451245
   0.89191760  0.10826383  0.05387060
   0.77984214  0.55507830  0.95003116
   0.88936638  0.44683895  0.05124154
   0.78120848  0.89134537  0.95017366
   0.89235964  0.78086462  0.04797201
unknown system                          
           1
     8.264632    4.766998    0.000000
    -8.291823    4.814057    0.000000
     0.000000    0.000000   30.000000
   V    Mo   W    S 
   3   3   3  18
Direct configuration=    13
  -0.00136870  0.01504480 -0.00003808
  -0.00158451  0.65851028  0.00009777
   0.32641699  0.64476165  0.00000024
   0.67644189  0.02401960  0.00017134
   0.33279472  0.33877540  0.00006708
   0.99483651  0.32260194 -0.00011411
   0.35527922  0.02128243 -0.00025617
   0.66190589  0.31388573 -0.00050280
   0.65154391  0.65736104  0.00059309
   0.10808277  0.21575840  0.94713725
   0.21715925  0.10761194  0.05111239
   0.11395210  0.55852964  0.94965265
   0.22235940  0.44777740  0.05263161
   0.10985857  0.89012471  0.95317679
   0.22296913  0.77527875  0.04751758
   0.44658184  0.22584382  0.94557276
   0.55726471  0.11202971  0.05641858
   0.43980252  0.55754817  0.94639472
   0.55722126  0.44219495  0.05206021
   0.44285916  0.88422747  0.95071333
   0.54912076  0.77732588  0.04976475
   0.78062311  0.22550422  0.94440996
   0.89190501  0.10838660  0.05397385
   0.77978852  0.55505517  0.95004553
   0.88927637  0.44669963  0.05126975
   0.78096093  0.89128685  0.95032217
   0.89216310  0.78078827  0.04780767
unknown system                          
           1
     8.261676    4.765940    0.000000
    -8.286990    4.809751    0.000000
     0.000000    0.000000   30.000000
   V    Mo   W    S 
   3   3   3  18
Direct configuration=    14
  -0.00125585  0.01613312 -0.00003573
  -0.00187918  0.65745317  0.00012821
   0.32550830  0.64334673 -0.00002348
   0.67709658  0.02511807  0.00020733
   0.33282621  0.33907931  0.00007859
   0.99484652  0.32266773 -0.00013557
   0.35608461  0.02238446 -0.00023585
   0.66218287  0.31395637 -0.00057050
   0.65049264  0.65586771  0.00062675
   0.10815351  0.21583850  0.94708328
   0.21719570  0.10760234  0.05109946
   0.11389040  0.55838826  0.94955561
   0.22214419  0.44740201  0.05274157
   0.11006868  0.89030921  0.95344588
   0.22320753  0.77541302  0.04731597
   0.44673185  0.22612954  0.94551862
   0.55755186  0.11227283  0.05650825
   0.43964990  0.55733569  0.94627415
   0.55713269  0.44190444  0.05210108
   0.44296584  0.88420027  0.95097460
   0.54900867  0.77743168  0.04951559
   0.78091806  0.22578696  0.94431020
   0.89195438  0.10855504  0.05406763
   0.77982866  0.55512067  0.95001840
   0.88922332  0.44659261  0.05131560
   0.78074237  0.89121019  0.95052829
   0.89194415  0.78071451  0.04758596
unknown system                          
           1
     8.263502    4.767804    0.000000
    -8.287420    4.809202    0.000000
     0.000000    0.000000   30.000000
   V    Mo   W    S 
   3   3   3  18
Direct configuration=    15
  -0.00160868  0.01446317 -0.00004496
  -0.00125015  0.65931238  0.00010647
   0.32651480  0.64481613  0.00002189
   0.67628318  0.02381631  0.00016254
   0.33291611  0.33891692  0.00006364
   0.99480654  0.32254854 -0.00010438
   0.35519970  0.02100711 -0.00026397
   0.66166752  0.31347001 -0.00048418
   0.65180553  0.65805357  0.00060189
   0.10807425  0.21570716  0.94716686
   0.21723114  0.10766862  0.05108283
   0.11400095  0.55855867  0.94971082
   0.22239789  0.44783624  0.05261449
   0.10988307  0.89014623  0.95307082
   0.22291322  0.77521594  0.04757459
   0.44653229  0.22577435  0.94557712
   0.55715062  0.11187307  0.05643742
   0.43985898  0.55762473  0.94641447
   0.55736645  0.44234191  0.05198262
   0.44286543  0.88426235  0.95064758
   0.54910522  0.77730938  0.04984982
   0.78057367  0.22543853  0.94440668
   0.89185198  0.10831946  0.05394772
   0.77966950  0.55490416  0.95012697
   0.88922201  0.44668065  0.05119820
   0.78096935  0.89134141  0.95023147
   0.89221390  0.78080744  0.04790048
unknown system                          
           1
     8.261121    4.765648    0.000000
    -8.287874    4.811954    0.000000
     0.000000    0.000000   30.000000
   V    Mo   W    S 
   3   3   3  18
Direct configuration=    16
  -0.00224999  0.01241932 -0.00005706
  -0.00024576  0.66181181  0.00008817
   0.32737144  0.64605603  0.00005594
   0.67554107  0.02249546  0.00011924
   0.33304448  0.33893163  0.00003656
   0.99476099  0.32240372 -0.00007946
   0.35432751  0.01954975 -0.00029044
   0.66106453  0.31266250 -0.00041510
   0.65314391  0.66063411  0.00056112
   0.10800354  0.21553202  0.94727732
   0.21729691  0.10776413  0.05102896
   0.11413498  0.55873941  0.94989996
   0.22262358  0.44821686  0.05251461
   0.10973061  0.89004150  0.95264923
   0.22263833  0.77495446  0.04785839
   0.44631626  0.22542939  0.94562786
   0.55673872  0.11138902  0.05640021
   0.44005929  0.55794519  0.94654897
   0.55771976  0.44279896  0.05182983
   0.44275293  0.88424438  0.95032873
   0.54910279  0.77720697  0.05021624
   0.78025697  0.22509770  0.94448512
   0.89175580  0.10805564  0.05382272
   0.77945732  0.55459926  0.95031345
   0.88917434  0.44676545  0.05102715
   0.78118518  0.89153162  0.94988955
   0.89250895  0.78093816  0.04826263
unknown system                          
           1
     8.266879    4.768329    0.000000
    -8.295700    4.818214    0.000000
     0.000000    0.000000   30.000000
   V    Mo   W    S 
   3   3   3  18
Direct configuration=    17
  -0.00305218  0.01192869 -0.00003864
   0.00076407  0.66323324  0.00010769
   0.32657250  0.64486998  0.00002902
   0.67600169  0.02299918  0.00016033
   0.33324322  0.33949367  0.00005560
   0.99467952  0.32215155 -0.00008087
   0.35485936  0.02000466 -0.00027544
   0.66079733  0.31164307 -0.00046837
   0.65271679  0.66096607  0.00056253
   0.10806004  0.21547680  0.94732686
   0.21743177  0.10782214  0.05087852
   0.11407175  0.55860622  0.94991792
   0.22236241  0.44775567  0.05262909
   0.10999025  0.89032278  0.95270181
   0.22285539  0.77494540  0.04780029
   0.44636707  0.22557610  0.94561690
   0.55687768  0.11132283  0.05649355
   0.44001426  0.55789188  0.94646055
   0.55799250  0.44275377  0.05168715
   0.44278036  0.88411206  0.95053380
   0.54884959  0.77725640  0.05011684
   0.78051245  0.22528219  0.94438469
   0.89182358  0.10810894  0.05384257
   0.77929335  0.55444385  0.95055060
   0.88897870  0.44666274  0.05087553
   0.78101360  0.89160992  0.94990607
   0.89235740  0.78097467  0.04822528
unknown system                          
           1
     8.272013    4.768831    0.000000
    -8.311424    4.837048    0.000000
     0.000000    0.000000   30.000000
   V    Mo   W    S 
   3   3   3  18
Direct configuration=    18
  -0.00312314  0.01293326 -0.00003100
   0.00083793  0.66251719  0.00013794
   0.32551337  0.64328988 -0.00001482
   0.67677333  0.02412903  0.00019224
   0.33331563  0.33991658  0.00006326
   0.99471871  0.32220467 -0.00010370
   0.35567555  0.02116289 -0.00024667
   0.66107412  0.31168229 -0.00054524
   0.65149784  0.65940480  0.00057516
   0.10815076  0.21555746  0.94726237
   0.21745655  0.10778221  0.05087592
   0.11395227  0.55840435  0.94978685
   0.22208762  0.44729757  0.05276996
   0.11021815  0.89055657  0.95295033
   0.22316663  0.77507727  0.04763243
   0.44651269  0.22589245  0.94554416
   0.55724089  0.11159814  0.05661140
   0.43980282  0.55762844  0.94631058
   0.55793604  0.44243217  0.05173819
   0.44284700  0.88396666  0.95081927
   0.54863546  0.77734960  0.04987299
   0.78085956  0.22557287  0.94425909
   0.89191757  0.10830241  0.05398599
   0.77936553  0.55454155  0.95054076
   0.88891978  0.44658030  0.05091265
   0.78076310  0.89152952  0.95008278
   0.89209867  0.78090431  0.04801703
unknown system                          
           1
     8.276064    4.772296    0.000000
    -8.312879    4.836026    0.000000
     0.000000    0.000000   30.000000
   V    Mo   W    S 
   3   3   3  18
Direct configuration=    19
  -0.00592790  0.01426696  0.00001143
   0.00501712  0.66557837  0.00033303
   0.32025797  0.63568832 -0.00022172
   0.68041873  0.02869201  0.00035659
   0.33425631  0.34279680  0.00012443
   0.99445857  0.32141170 -0.00015583
   0.35936959  0.02556964 -0.00013402
   0.66093179  0.30878413 -0.00089004
   0.64657619  0.65582408  0.00062485
   0.10852931  0.21552317  0.94727149
   0.21788641  0.10773516  0.05047903
   0.11328337  0.55730901  0.94943005
   0.22063765  0.44481146  0.05342909
   0.11156122  0.89215130  0.95364975
   0.22477757  0.77536214  0.04716232
   0.44699648  0.22708917  0.94535270
   0.55879991  0.11225206  0.05710690
   0.43893601  0.55657376  0.94566191
   0.55860787  0.44158110  0.05143581
   0.44302870  0.88307436  0.95221896
   0.54711382  0.77759172  0.04895278
   0.78246002  0.22669514  0.94371591
   0.89237486  0.10900322  0.05448460
   0.77922242  0.55444053  0.95121670
   0.88827078  0.44621710  0.05047860
   0.77955544  0.89148689  0.95051327
   0.89081423  0.78070514  0.04739131
unknown system                          
           1
     8.277504    4.772628    0.000000
    -8.316041    4.839338    0.000000
     0.000000    0.000000   30.000000
   V    Mo   W    S 
   3   3   3  18
Direct configuration=    20
  -0.00487739  0.01484659  0.00000658
   0.00420175  0.66422306  0.00031007
   0.32156368  0.63765362 -0.00020856
   0.67957950  0.02757559  0.00037603
   0.33383547  0.34192843  0.00015504
   0.99448631  0.32171600 -0.00014006
   0.35851052  0.02471445 -0.00013788
   0.66141613  0.31032657 -0.00086786
   0.64709925  0.65537044  0.00060452
   0.10843161  0.21555442  0.94721516
   0.21767213  0.10761840  0.05061446
   0.11333222  0.55745892  0.94943231
   0.22092775  0.44532515  0.05326043
   0.11119248  0.89185315  0.95359956
   0.22458464  0.77528498  0.04724294
   0.44695907  0.22694398  0.94536725
   0.55872090  0.11234521  0.05696643
   0.43890281  0.55664734  0.94575782
   0.55819824  0.44154734  0.05164750
   0.44293171  0.88314530  0.95202516
   0.54739222  0.77753329  0.04901766
   0.78216394  0.22653206  0.94383328
   0.89226141  0.10891347  0.05441350
   0.77952034  0.55470349  0.95097421
   0.88848863  0.44639549  0.05062834
   0.77976695  0.89142939  0.95052778
   0.89095218  0.78062835  0.04737826
unknown system                          
           1
     8.277854    4.772595    0.000000
    -8.315973    4.838577    0.000000
     0.000000    0.000000   30.000000
   V    Mo   W    S 
   3   3   3  18
Direct configuration=    21
  -0.00516403  0.01573307  0.00001839
   0.00533501  0.66449283  0.00036620
   0.32050036  0.63614426 -0.00027837
   0.68040943  0.02867302  0.00042349
   0.33394555  0.34243676  0.00018046
   0.99437989  0.32163094 -0.00015643
   0.35931185  0.02578989 -0.00011174
   0.66158602  0.31013625 -0.00096595
   0.64560664  0.65367288  0.00059884
   0.10849985  0.21559293  0.94719188
   0.21767931  0.10751220  0.05056324
   0.11312782  0.55717321  0.94931516
   0.22060477  0.44481481  0.05337124
   0.11143841  0.89223743  0.95381624
   0.22505514  0.77534971  0.04714197
   0.44707911  0.22722849  0.94533999
   0.55923143  0.11269651  0.05702689
   0.43854206  0.55628223  0.94560207
   0.55812678  0.44120748  0.05168072
   0.44293168  0.88288376  0.95239751
   0.54705754  0.77756063  0.04872782
   0.78249468  0.22676678  0.94374722
   0.89234176  0.10910768  0.05454391
   0.77969352  0.55488868  0.95105995
   0.88840990  0.44639791  0.05056120
   0.77945021  0.89132484  0.95071100
   0.89053976  0.78047926  0.04712700
unknown system                          
           1
     8.279726    4.773472    0.000000
    -8.319752    4.842759    0.000000
     0.000000    0.000000   30.000000
   V    Mo   W    S 
   3   3   3  18
Direct configuration=    22
  -0.00476165  0.01660759  0.00002443
   0.00556120  0.66386333  0.00038816
   0.32039974  0.63599101 -0.00030517
   0.68059312  0.02905097  0.00043953
   0.33385618  0.34235371  0.00019260
   0.99433410  0.32173439 -0.00016481
   0.35945483  0.02612816 -0.00010874
   0.66179672  0.31055710 -0.00099371
   0.64497410  0.65238883  0.00058694
   0.10848492  0.21566743  0.94715488
   0.21759407  0.10740229  0.05059810
   0.11305854  0.55711121  0.94924657
   0.22054695  0.44477889  0.05336368
   0.11144371  0.89232146  0.95393842
   0.22524047  0.77540340  0.04711020
   0.44710213  0.22728647  0.94535087
   0.55944007  0.11297675  0.05699356
   0.43832773  0.55607886  0.94555729
   0.55785858  0.44098190  0.05179225
   0.44291234  0.88283328  0.95251198
   0.54707085  0.77754486  0.04858098
   0.78252002  0.22680344  0.94375714
   0.89233928  0.10919075  0.05458345
   0.77990974  0.55514860  0.95098696
   0.88846930  0.44647019  0.05060297
   0.77934869  0.89118861  0.95085903
   0.89033873  0.78035098  0.04695235
unknown system                          
           1
     8.281706    4.775561    0.000000
    -8.322256    4.845769    0.000000
     0.000000    0.000000   30.000000
   V    Mo   W    S 
   3   3   3  18
Direct configuration=    23
  -0.00692007  0.01323345 -0.00001542
   0.00595733  0.66740740  0.00035319
   0.31988492  0.63595927 -0.00026245
   0.68046032  0.02798562  0.00036032
   0.33425581  0.34290280  0.00014988
   0.99434544  0.32126373 -0.00014164
   0.35932600  0.02539354 -0.00013999
   0.66107039  0.30859987 -0.00093293
   0.64673916  0.65679174  0.00066265
   0.10860317  0.21525755  0.94736563
   0.21799864  0.10771475  0.05035642
   0.11300325  0.55711298  0.94949530
   0.22051260  0.44447249  0.05345555
   0.11153856  0.89217494  0.95361636
   0.22466312  0.77511274  0.04716453
   0.44705616  0.22713613  0.94537521
   0.55908473  0.11216432  0.05707259
   0.43895729  0.55661706  0.94566228
   0.55899189  0.44183412  0.05128731
   0.44286606  0.88280357  0.95239933
   0.54659575  0.77751391  0.04898160
   0.78265588  0.22666814  0.94372333
   0.89245024  0.10893846  0.05450693
   0.77936806  0.55435612  0.95145417
   0.88826753  0.44640519  0.05024891
   0.77957046  0.89172122  0.95033953
   0.89091176  0.78067334  0.04746131
unknown system                          
           1
     8.283677    4.776664    0.000000
    -8.325077    4.848346    0.000000
     0.000000    0.000000   30.000000
   V    Mo   W    S 
   3   3   3  18
Direct configuration=    24
  -0.00810565  0.01177635 -0.00000335
   0.00680818  0.66959125  0.00032420
   0.31960446  0.63568999 -0.00027607
   0.68059656  0.02758381  0.00037602
   0.33441875  0.34334120  0.00015039
   0.99435675  0.32087180 -0.00010758
   0.35930530  0.02515605 -0.00010779
   0.66078513  0.30779102 -0.00094442
   0.64712708  0.65846866  0.00064149
   0.10864764  0.21506601  0.94748186
   0.21812409  0.10776662  0.05022091
   0.11289785  0.55699938  0.94959911
   0.22050874  0.44438304  0.05342794
   0.11159131  0.89229106  0.95344372
   0.22461512  0.77498758  0.04726099
   0.44709185  0.22713158  0.94538705
   0.55912742  0.11191733  0.05706457
   0.43906719  0.55678067  0.94574935
   0.55941585  0.44211534  0.05108637
   0.44272959  0.88256771  0.95242231