<?xml version="1.0" encoding="ISO-8859-1"?>
<modeling>
 <generator>
  <i name="program" type="string">vasp </i>
  <i name="version" type="string">5.4.1  </i>
  <i name="subversion" type="string">05Feb16 (build Jul 05 2020 17:13:04) complex                          parallel </i>
  <i name="platform" type="string">IFC91_ompi </i>
  <i name="date" type="string">2024 05 06 </i>
  <i name="time" type="string">23:43:14 </i>
 </generator>
 <incar>
  <i type="int" name="ISTART">     0</i>
  <i type="string" name="PREC">normal</i>
  <i type="string" name="ALGO"> Normal</i>
  <i type="int" name="ISPIN">     1</i>
  <i type="int" name="ICHARG">     2</i>
  <i type="int" name="IBRION">     1</i>
  <i type="int" name="NSW">   100</i>
  <i type="int" name="ISIF">     3</i>
  <i type="int" name="ISYM">     0</i>
  <i name="SYMPREC">      0.00000001</i>
  <i name="POTIM">      0.50000000</i>
  <i type="logical" name="LREAL"> F  </i>
  <i type="logical" name="LPLANE"> F  </i>
  <i type="int" name="ISMEAR">     0</i>
  <i type="logical" name="LWAVE"> F  </i>
  <i type="logical" name="LCHARG"> F  </i>
  <v type="int" name="KPOINT_BSE">    -1     0     0     0</v>
 </incar>
 <kpoints>
  <generation param="Gamma">
   <v type="int" name="divisions">       8        8        1 </v>
   <v name="usershift">      0.00000000       0.00000000       0.00000000 </v>
   <v name="genvec1">      0.12500000       0.00000000       0.00000000 </v>
   <v name="genvec2">     -0.00000000       0.12500000       0.00000000 </v>
   <v name="genvec3">      0.00000000       0.00000000       1.00000000 </v>
   <v name="shift">      0.00000000       0.00000000       0.00000000 </v>
  </generation>
  <varray name="kpointlist" >
   <v>       0.00000000       0.00000000       0.00000000 </v>
   <v>       0.12500000       0.00000000       0.00000000 </v>
   <v>       0.25000000       0.00000000       0.00000000 </v>
   <v>       0.37500000       0.00000000       0.00000000 </v>
   <v>       0.50000000       0.00000000       0.00000000 </v>
   <v>       0.00000000       0.12500000       0.00000000 </v>
   <v>       0.12500000       0.12500000       0.00000000 </v>
   <v>       0.25000000       0.12500000       0.00000000 </v>
   <v>       0.37500000       0.12500000       0.00000000 </v>
   <v>       0.50000000       0.12500000       0.00000000 </v>
   <v>      -0.37500000       0.12500000       0.00000000 </v>
   <v>      -0.25000000       0.12500000       0.00000000 </v>
   <v>      -0.12500000       0.12500000       0.00000000 </v>
   <v>       0.00000000       0.25000000       0.00000000 </v>
   <v>       0.12500000       0.25000000       0.00000000 </v>
   <v>       0.25000000       0.25000000       0.00000000 </v>
   <v>       0.37500000       0.25000000       0.00000000 </v>
   <v>       0.50000000       0.25000000       0.00000000 </v>
   <v>      -0.37500000       0.25000000       0.00000000 </v>
   <v>      -0.25000000       0.25000000       0.00000000 </v>
   <v>      -0.12500000       0.25000000       0.00000000 </v>
   <v>      -0.00000000       0.37500000       0.00000000 </v>
   <v>       0.12500000       0.37500000       0.00000000 </v>
   <v>       0.25000000       0.37500000       0.00000000 </v>
   <v>       0.37500000       0.37500000       0.00000000 </v>
   <v>       0.50000000       0.37500000       0.00000000 </v>
   <v>      -0.37500000       0.37500000       0.00000000 </v>
   <v>      -0.25000000       0.37500000       0.00000000 </v>
   <v>      -0.12500000       0.37500000       0.00000000 </v>
   <v>       0.00000000       0.50000000       0.00000000 </v>
   <v>       0.12500000       0.50000000       0.00000000 </v>
   <v>       0.25000000       0.50000000       0.00000000 </v>
   <v>       0.37500000       0.50000000       0.00000000 </v>
   <v>       0.50000000       0.50000000       0.00000000 </v>
  </varray>
  <varray name="weights" >
   <v>       0.01562500 </v>
   <v>       0.03125000 </v>
   <v>       0.03125000 </v>
   <v>       0.03125000 </v>
   <v>       0.01562500 </v>
   <v>       0.03125000 </v>
   <v>       0.03125000 </v>
   <v>       0.03125000 </v>
   <v>       0.03125000 </v>
   <v>       0.03125000 </v>
   <v>       0.03125000 </v>
   <v>       0.03125000 </v>
   <v>       0.03125000 </v>
   <v>       0.03125000 </v>
   <v>       0.03125000 </v>
   <v>       0.03125000 </v>
   <v>       0.03125000 </v>
   <v>       0.03125000 </v>
   <v>       0.03125000 </v>
   <v>       0.03125000 </v>
   <v>       0.03125000 </v>
   <v>       0.03125000 </v>
   <v>       0.03125000 </v>
   <v>       0.03125000 </v>
   <v>       0.03125000 </v>
   <v>       0.03125000 </v>
   <v>       0.03125000 </v>
   <v>       0.03125000 </v>
   <v>       0.03125000 </v>
   <v>       0.01562500 </v>
   <v>       0.03125000 </v>
   <v>       0.03125000 </v>
   <v>       0.03125000 </v>
   <v>       0.01562500 </v>
  </varray>
 </kpoints>
 <parameters>
  <separator name="general" >
   <i type="string" name="SYSTEM">unknown system</i>
   <i type="logical" name="LCOMPAT"> F  </i>
  </separator>
  <separator name="electronic" >
   <i type="string" name="PREC">normal</i>
   <i name="ENMAX">    280.00000000</i>
   <i name="ENAUG">    373.43800000</i>
   <i name="EDIFF">      0.00010000</i>
   <i type="int" name="IALGO">    38</i>
   <i type="int" name="IWAVPR">    11</i>
   <i type="int" name="NBANDS">   120</i>
   <i name="NELECT">    159.00000000</i>
   <i type="int" name="TURBO">     0</i>
   <i type="int" name="IRESTART">     0</i>
   <i type="int" name="NREBOOT">     0</i>
   <i type="int" name="NMIN">     0</i>
   <i name="EREF">      0.00000000</i>
   <separator name="electronic smearing" >
    <i type="int" name="ISMEAR">     0</i>
    <i name="SIGMA">      0.20000000</i>
    <i name="KSPACING">      0.50000000</i>
    <i type="logical" name="KGAMMA"> T  </i>
   </separator>
   <separator name="electronic projectors" >
    <i type="logical" name="LREAL"> F  </i>
    <v name="ROPT">      0.00000000      0.00000000      0.00000000      0.00000000</v>
    <i type="int" name="LMAXPAW">  -100</i>
    <i type="int" name="LMAXMIX">     2</i>
    <i type="logical" name="NLSPLINE"> F  </i>
   </separator>
   <separator name="electronic startup" >
    <i type="int" name="ISTART">     0</i>
    <i type="int" name="ICHARG">     2</i>
    <i type="int" name="INIWAV">     1</i>
   </separator>
   <separator name="electronic spin" >
    <i type="int" name="ISPIN">     1</i>
    <i type="logical" name="LNONCOLLINEAR"> F  </i>
    <v name="MAGMOM">      1.00000000      1.00000000      1.00000000      1.00000000      1.00000000      1.00000000      1.00000000      1.00000000      1.00000000      1.00000000      1.00000000      1.00000000      1.00000000      1.00000000      1.00000000      1.00000000      1.00000000      1.00000000      1.00000000      1.00000000
      1.00000000      1.00000000      1.00000000      1.00000000      1.00000000      1.00000000      1.00000000</v>
    <i name="NUPDOWN">     -1.00000000</i>
    <i type="logical" name="LSORBIT"> F  </i>
    <v name="SAXIS">      0.00000000      0.00000000      1.00000000</v>
    <i type="logical" name="LSPIRAL"> F  </i>
    <v name="QSPIRAL">      0.00000000      0.00000000      0.00000000</v>
    <i type="logical" name="LZEROZ"> F  </i>
   </separator>
   <separator name="electronic exchange-correlation" >
    <i type="logical" name="LASPH"> F  </i>
    <i type="logical" name="LMETAGGA"> F  </i>
   </separator>
   <separator name="electronic convergence" >
    <i type="int" name="NELM">    60</i>
    <i type="int" name="NELMDL">    -5</i>
    <i type="int" name="NELMIN">     2</i>
    <i name="ENINI">    280.00000000</i>
    <separator name="electronic convergence detail" >
     <i type="logical" name="LDIAG"> T  </i>
     <i type="logical" name="LSUBROT"> F  </i>
     <i name="WEIMIN">      0.00100000</i>
     <i name="EBREAK">      0.00000021</i>
     <i name="DEPER">      0.30000000</i>
     <i type="int" name="NRMM">     4</i>
     <i name="TIME">      0.40000000</i>
    </separator>
   </separator>
   <separator name="electronic mixer" >
    <i name="AMIX">      0.40000000</i>
    <i name="BMIX">      1.00000000</i>
    <i name="AMIN">      0.10000000</i>
    <i name="AMIX_MAG">      1.60000000</i>
    <i name="BMIX_MAG">      1.00000000</i>
    <separator name="electronic mixer details" >
     <i type="int" name="IMIX">     4</i>
     <i type="logical" name="MIXFIRST"> F  </i>
     <i type="int" name="MAXMIX">   -45</i>
     <i name="WC">    100.00000000</i>
     <i type="int" name="INIMIX">     1</i>
     <i type="int" name="MIXPRE">     1</i>
     <i type="int" name="MREMOVE">     5</i>
    </separator>
   </separator>
   <separator name="electronic dipolcorrection" >
    <i type="logical" name="LDIPOL"> F  </i>
    <i type="logical" name="LMONO"> F  </i>
    <i type="int" name="IDIPOL">     0</i>
    <i name="EPSILON">      1.00000000</i>
    <v name="DIPOL">   -100.00000000   -100.00000000   -100.00000000</v>
    <i name="EFIELD">      0.00000000</i>
   </separator>
  </separator>
  <separator name="grids" >
   <i type="int" name="NGX">    42</i>
   <i type="int" name="NGY">    42</i>
   <i type="int" name="NGZ">   126</i>
   <i type="int" name="NGXF">    84</i>
   <i type="int" name="NGYF">    84</i>
   <i type="int" name="NGZF">   252</i>
   <i type="logical" name="ADDGRID"> F  </i>
  </separator>
  <separator name="ionic" >
   <i type="int" name="NSW">   100</i>
   <i type="int" name="IBRION">     1</i>
   <i type="int" name="ISIF">     3</i>
   <i name="PSTRESS">      0.00000000</i>
   <i name="EDIFFG">      0.00100000</i>
   <i type="int" name="NFREE">     0</i>
   <i name="POTIM">      0.50000000</i>
   <i name="SMASS">     -3.00000000</i>
   <i name="SCALEE">      1.00000000</i>
  </separator>
  <separator name="ionic md" >
   <i name="TEBEG">      0.00010000</i>
   <i name="TEEND">      0.00010000</i>
   <i type="int" name="NBLOCK">     1</i>
   <i type="int" name="KBLOCK">   100</i>
   <i type="int" name="NPACO">   256</i>
   <i name="APACO">     16.00000000</i>
  </separator>
  <separator name="symmetry" >
   <i type="int" name="ISYM">     0</i>
   <i name="SYMPREC">      0.00000001</i>
  </separator>
  <separator name="dos" >
   <i type="logical" name="LORBIT"> F  </i>
   <v name="RWIGS">     -1.00000000     -1.00000000     -1.00000000     -1.00000000</v>
   <i type="int" name="NEDOS">   301</i>
   <i name="EMIN">     10.00000000</i>
   <i name="EMAX">    -10.00000000</i>
   <i name="EFERMI">      0.00000000</i>
  </separator>
  <separator name="writing" >
   <i type="int" name="NWRITE">     2</i>
   <i type="logical" name="LWAVE"> F  </i>
   <i type="logical" name="LCHARG"> F  </i>
   <i type="logical" name="LPARD"> F  </i>
   <i type="logical" name="LVTOT"> F  </i>
   <i type="logical" name="LVHAR"> F  </i>
   <i type="logical" name="LELF"> F  </i>
   <i type="logical" name="LOPTICS"> F  </i>
   <v name="STM">      0.00000000      0.00000000      0.00000000      0.00000000      0.00000000      0.00000000      0.00000000</v>
  </separator>
  <separator name="performance" >
   <i type="int" name="NPAR">    40</i>
   <i type="int" name="NSIM">     4</i>
   <i type="int" name="NBLK">    -1</i>
   <i type="logical" name="LPLANE"> F  </i>
   <i type="logical" name="LSCALAPACK"> T  </i>
   <i type="logical" name="LSCAAWARE"> F  </i>
   <i type="logical" name="LSCALU"> F  </i>
   <i type="logical" name="LASYNC"> F  </i>
   <i type="logical" name="LORBITALREAL"> F  </i>
  </separator>
  <separator name="miscellaneous" >
   <i type="int" name="IDIOT">     3</i>
   <i type="logical" name="LMUSIC"> F  </i>
   <v name="POMASS">     50.94100000     95.94000000    183.85000000     32.06600000</v>
   <v name="DARWINR">      0.00000000      0.00000000      0.00000000      0.00000000</v>
   <v name="DARWINV">      1.00000000      1.00000000      1.00000000      1.00000000</v>
   <i type="logical" name="LCORR"> T  </i>
  </separator>
  <i type="logical" name="GGA_COMPAT"> T  </i>
  <i type="logical" name="LBERRY"> F  </i>
  <i type="int" name="ICORELEVEL">     0</i>
  <i type="logical" name="LDAU"> F  </i>
  <i type="int" name="I_CONSTRAINED_M">     0</i>
  <separator name="electronic exchange-correlation" >
   <i type="string" name="GGA">--</i>
   <i type="int" name="VOSKOWN">     0</i>
   <i type="logical" name="LHFCALC"> F  </i>
   <i type="string" name="PRECFOCK"></i>
   <i type="logical" name="LSYMGRAD"> F  </i>
   <i type="logical" name="LHFONE"> F  </i>
   <i type="logical" name="LRHFCALC"> F  </i>
   <i type="logical" name="LTHOMAS"> F  </i>
   <i type="logical" name="LMODELHF"> F  </i>
   <i name="ENCUT4O">     -1.00000000</i>
   <i type="int" name="EXXOEP">     0</i>
   <i type="int" name="FOURORBIT">     0</i>
   <i name="AEXX">      0.00000000</i>
   <i name="HFALPHA">      0.00000000</i>
   <i name="MCALPHA">      0.00000000</i>
   <i name="ALDAX">      1.00000000</i>
   <i name="AGGAX">      1.00000000</i>
   <i name="ALDAC">      1.00000000</i>
   <i name="AGGAC">      1.00000000</i>
   <i type="int" name="NKREDX">     1</i>
   <i type="int" name="NKREDY">     1</i>
   <i type="int" name="NKREDZ">     1</i>
   <i type="logical" name="SHIFTRED"> F  </i>
   <i type="logical" name="ODDONLY"> F  </i>
   <i type="logical" name="EVENONLY"> F  </i>
   <i type="int" name="LMAXFOCK">     0</i>
   <i type="int" name="NMAXFOCKAE">     0</i>
   <i type="logical" name="LFOCKAEDFT"> F  </i>
   <i name="HFSCREEN">      0.00000000</i>
   <i name="HFSCREENC">      0.00000000</i>
   <i type="int" name="NBANDSGWLOW">     0</i>
  </separator>
  <separator name="vdW DFT" >
   <i type="logical" name="LUSE_VDW"> F  </i>
   <i name="Zab_VDW">     -0.84910000</i>
   <i name="PARAM1">      0.12340000</i>
   <i name="PARAM2">      1.00000000</i>
   <i name="PARAM3">      0.00000000</i>
  </separator>
  <separator name="model GW" >
   <i type="int" name="MODEL_GW">     0</i>
   <i name="MODEL_EPS0">     58.26239943</i>
   <i name="MODEL_ALPHA">      1.00000000</i>
  </separator>
  <separator name="linear response parameters" >
   <i type="logical" name="LEPSILON"> F  </i>
   <i type="logical" name="LRPA"> F  </i>
   <i type="logical" name="LNABLA"> F  </i>
   <i type="logical" name="LVEL"> F  </i>
   <i type="int" name="KINTER">     0</i>
   <i name="CSHIFT">      0.10000000</i>
   <i name="OMEGAMAX">     -1.00000000</i>
   <i name="DEG_THRESHOLD">      0.00200000</i>
  </separator>
  <separator name="orbital magnetization" >
   <i type="logical" name="NUCIND"> F  </i>
   <v name="MAGPOS">      0.00000000      0.00000000      0.00000000</v>
   <i type="logical" name="LNICSALL"> T  </i>
   <i type="logical" name="ORBITALMAG"> F  </i>
   <i type="logical" name="LMAGBLOCH"> F  </i>
   <i type="logical" name="LCHIMAG"> F  </i>
   <i type="logical" name="LGAUGE"> T  </i>
   <i type="int" name="MAGATOM">     0</i>
   <v name="MAGDIPOL">      0.00000000      0.00000000      0.00000000</v>
   <v name="AVECCONST">      0.00000000      0.00000000      0.00000000</v>
  </separator>
  <separator name="response functions" >
   <i type="logical" name="LADDER"> F  </i>
   <i type="logical" name="LFXC"> F  </i>
   <i type="logical" name="LHARTREE"> T  </i>
   <i type="int" name="IBSE">     0</i>
   <v type="int" name="KPOINT">    -1     0     0     0</v>
   <i type="logical" name="LTCTE"> F  </i>
   <i type="logical" name="LTETE"> F  </i>
   <i type="logical" name="LTRIPLET"> F  </i>
   <i type="logical" name="LFXCEPS"> F  </i>
   <i type="logical" name="LFXHEG"> F  </i>
   <i type="int" name="NATURALO">     0</i>
   <i type="logical" name="L2ORDER"> F  </i>
   <i type="logical" name="LUSEW"> F  </i>
   <i name="ENCUTGW">     -2.00000000</i>
   <i name="ENCUTGWSOFT">     -2.00000000</i>
   <i name="ENCUTLF">     -1.00000000</i>
   <i type="int" name="LMAXMP2">    -1</i>
   <i name="SCISSOR">      0.00000000</i>
   <i type="int" name="NOMEGA">     0</i>
   <i type="int" name="NOMEGAR">     0</i>
   <i type="int" name="NBANDSGW">    -1</i>
   <i type="int" name="NBANDSO">    -1</i>
   <i type="int" name="NBANDSV">    -1</i>
   <i type="int" name="NELM">     1</i>
   <i type="int" name="NELMHF">     1</i>
   <i type="int" name="DIM">     3</i>
   <i type="int" name="ANTIRES">     0</i>
   <i name="OMEGAMAX">    -30.00000000</i>
   <i name="OMEGAMIN">    -30.00000000</i>
   <i name="OMEGATL">   -200.00000000</i>
   <i type="int" name="OMEGAGRID">     0</i>
   <i name="CSHIFT">     -0.10000000</i>
   <i type="logical" name="SELFENERGY"> F  </i>
   <i type="logical" name="LSPECTRAL"> F  </i>
   <i type="logical" name="LSPECTRALGW"> F  </i>
   <i type="logical" name="LSINGLES"> F  </i>
   <i type="logical" name="LFERMIGW"> F  </i>
   <i type="logical" name="ODDONLYGW"> F  </i>
   <i type="logical" name="EVENONLYGW"> F  </i>
   <i type="int" name="NKREDLFX">     1</i>
   <i type="int" name="NKREDLFY">     1</i>
   <i type="int" name="NKREDLFZ">     1</i>
   <i type="int" name="MAXMEM">  1800</i>
   <i type="int" name="TELESCOPE">     0</i>
   <i type="int" name="TAUPAR">     1</i>
   <i type="int" name="OMEGAPAR">    -1</i>
   <i name="LAMBDA">      1.00000000</i>
  </separator>
  <separator name="External order field" >
   <i name="OFIELD_KAPPA">      0.00000000</i>
   <v name="OFIELD_K">      0.00000000      0.00000000      0.00000000</v>
   <i name="OFIELD_Q6_NEAR">      0.00000000</i>
   <i name="OFIELD_Q6_FAR">      0.00000000</i>
   <i name="OFIELD_A">      0.00000000</i>
  </separator>
 </parameters>
 <atominfo>
  <atoms>      27 </atoms>
  <types>       4 </types>
  <array name="atoms" >
   <dimension dim="1">ion</dimension>
   <field type="string">element</field>
   <field type="int">atomtype</field>
   <set>
    <rc><c>V </c><c>   1</c></rc>
    <rc><c>V </c><c>   1</c></rc>
    <rc><c>V </c><c>   1</c></rc>
    <rc><c>Mo</c><c>   2</c></rc>
    <rc><c>Mo</c><c>   2</c></rc>
    <rc><c>Mo</c><c>   2</c></rc>
    <rc><c>W </c><c>   3</c></rc>
    <rc><c>W </c><c>   3</c></rc>
    <rc><c>W </c><c>   3</c></rc>
    <rc><c>S </c><c>   4</c></rc>
    <rc><c>S </c><c>   4</c></rc>
    <rc><c>S </c><c>   4</c></rc>
    <rc><c>S </c><c>   4</c></rc>
    <rc><c>S </c><c>   4</c></rc>
    <rc><c>S </c><c>   4</c></rc>
    <rc><c>S </c><c>   4</c></rc>
    <rc><c>S </c><c>   4</c></rc>
    <rc><c>S </c><c>   4</c></rc>
    <rc><c>S </c><c>   4</c></rc>
    <rc><c>S </c><c>   4</c></rc>
    <rc><c>S </c><c>   4</c></rc>
    <rc><c>S </c><c>   4</c></rc>
    <rc><c>S </c><c>   4</c></rc>
    <rc><c>S </c><c>   4</c></rc>
    <rc><c>S </c><c>   4</c></rc>
    <rc><c>S </c><c>   4</c></rc>
    <rc><c>S </c><c>   4</c></rc>
   </set>
  </array>
  <array name="atomtypes" >
   <dimension dim="1">type</dimension>
   <field type="int">atomspertype</field>
   <field type="string">element</field>
   <field>mass</field>
   <field>valence</field>
   <field type="string">pseudopotential</field>
   <set>
    <rc><c>   3</c><c>V </c><c>     50.94100000</c><c>      5.00000000</c><c> PAW_PBE V 08Apr2002                    </c></rc>
    <rc><c>   3</c><c>Mo</c><c>     95.94000000</c><c>      6.00000000</c><c> PAW_PBE Mo 08Apr2002                   </c></rc>
    <rc><c>   3</c><c>W </c><c>    183.85000000</c><c>      6.00000000</c><c> PAW_PBE W 08Apr2002                    </c></rc>
    <rc><c>  18</c><c>S </c><c>     32.06600000</c><c>      6.00000000</c><c>  PAW_PBE S 17Jan2003                   </c></rc>
   </set>
  </array>
 </atominfo>
 <structure name="initialpos" >
  <crystal>
   <varray name="basis" >
    <v>       8.66999996       5.03999989       0.00000000 </v>
    <v>      -8.66999982       5.04000013       0.00000000 </v>
    <v>       0.00000000       0.00000000      30.00000000 </v>
   </varray>
   <i name="volume">   2621.80797419 </i>
   <varray name="rec_basis" >
    <v>       0.05767013       0.09920635       0.00000000 </v>
    <v>      -0.05767013       0.09920635       0.00000000 </v>
    <v>       0.00000000       0.00000000       0.03333333 </v>
   </varray>
  </crystal>
  <varray name="positions" >
   <v>       0.66666669       0.00000000       0.00000000 </v>
   <v>       0.66666669       0.66666669       0.00000000 </v>
   <v>       0.33333334       0.33333334       0.00000000 </v>
   <v>       0.00000000       0.00000000       0.00000000 </v>
   <v>       0.66666669       0.33333334       0.00000000 </v>
   <v>       0.33333334       0.66666669       0.00000000 </v>
   <v>       1.00000000       0.33333334       0.00000000 </v>
   <v>       0.00000000       0.66666669       0.00000000 </v>
   <v>       0.33333334       0.00000000       0.00000000 </v>
   <v>       0.11068511       0.22244981       0.95539999 </v>
   <v>       0.22244981       0.11068511       0.04460000 </v>
   <v>       0.11068511       0.55578315       0.95539999 </v>
   <v>       0.22244981       0.44401845       0.04460000 </v>
   <v>       0.11068511       0.88911647       0.95539999 </v>
   <v>       0.22244981       0.77735180       0.04460000 </v>
   <v>       0.44401845       0.22244981       0.95539999 </v>
   <v>       0.55578315       0.11068511       0.04460000 </v>
   <v>       0.44401845       0.55578315       0.95539999 </v>
   <v>       0.55578315       0.44401845       0.04460000 </v>
   <v>       0.44401845       0.88911647       0.95539999 </v>
   <v>       0.55578315       0.77735180       0.04460000 </v>
   <v>       0.77735180       0.22244981       0.95539999 </v>
   <v>       0.88911647       0.11068511       0.04460000 </v>
   <v>       0.77735180       0.55578315       0.95539999 </v>
   <v>       0.88911647       0.44401845       0.04460000 </v>
   <v>       0.77735180       0.88911647       0.95539999 </v>
   <v>       0.88911647       0.77735180       0.04460000 </v>
  </varray>
 </structure>
 <calculation>
  <scstep>
   <time name="dav">   21.73   21.80</time>
   <time name="total">   21.77   21.84</time>
   <energy>
    <i name="alphaZ">     81.65567618 </i>
    <i name="ewald">  41890.23010383 </i>
    <i name="hartreedc"> -47722.87971498 </i>
    <i name="XCdc">   -242.92665272 </i>
    <i name="pawpsdc">   3467.42045192 </i>
    <i name="pawaedc">  -2871.19716117 </i>
    <i name="eentropy">     -0.53482657 </i>
    <i name="bandstr">   -239.08183817 </i>
    <i name="atom">   6761.44252427 </i>
    <i name="e_fr_energy">   1124.12856259 </i>
    <i name="e_wo_entrp">   1124.66338916 </i>
    <i name="e_0_energy">   1124.39597587 </i>
   </energy>
  </scstep>
  <scstep>
   <time name="dav">   28.00   28.06</time>
   <time name="total">   28.00   28.07</time>
   <energy>
    <i name="e_fr_energy">     -0.33603100 </i>
    <i name="e_wo_entrp">     -0.13851198 </i>
    <i name="e_0_energy">     -0.23727149 </i>
   </energy>
  </scstep>
  <scstep>
   <time name="dav">   27.47   27.54</time>
   <time name="total">   27.48   27.56</time>
   <energy>
    <i name="e_fr_energy">   -199.93072267 </i>
    <i name="e_wo_entrp">   -199.67358481 </i>
    <i name="e_0_energy">   -199.80215374 </i>
   </energy>
  </scstep>
  <scstep>
   <time name="dav">   29.64   29.71</time>
   <time name="total">   29.64   29.72</time>
   <energy>
    <i name="e_fr_energy">   -209.05572695 </i>
    <i name="e_wo_entrp">   -208.73190647 </i>
    <i name="e_0_energy">   -208.89381671 </i>
   </energy>
  </scstep>
  <scstep>
   <time name="dav">   28.37   28.44</time>
   <time name="total">   28.84   28.91</time>
   <energy>
    <i name="e_fr_energy">   -209.39293895 </i>
    <i name="e_wo_entrp">   -209.07067841 </i>
    <i name="e_0_energy">   -209.23180868 </i>
   </energy>
  </scstep>
  <scstep>
   <time name="dav">   30.77   30.85</time>
   <time name="total">   31.27   31.37</time>
   <energy>
    <i name="e_fr_energy">   -237.09846404 </i>
    <i name="e_wo_entrp">   -236.79875266 </i>
    <i name="e_0_energy">   -236.94860835 </i>
   </energy>
  </scstep>
  <scstep>
   <time name="dav">   32.51   32.59</time>
   <time name="total">   33.02   33.10</time>
   <energy>
    <i name="e_fr_energy">   -196.37006165 </i>
    <i name="e_wo_entrp">   -196.08437828 </i>
    <i name="e_0_energy">   -196.22721996 </i>
   </energy>
  </scstep>
  <scstep>
   <time name="dav">   29.78   29.86</time>
   <time name="total">   30.30   30.40</time>
   <energy>
    <i name="e_fr_energy">   -189.11903005 </i>
    <i name="e_wo_entrp">   -188.81196915 </i>
    <i name="e_0_energy">   -188.96549960 </i>
   </energy>
  </scstep>
  <scstep>
   <time name="dav">   32.87   32.95</time>
   <time name="total">   33.39   33.48</time>
   <energy>
    <i name="e_fr_energy">   -187.44290870 </i>
    <i name="e_wo_entrp">   -187.13029887 </i>
    <i name="e_0_energy">   -187.28660378 </i>
   </energy>
  </scstep>
  <scstep>
   <time name="dav">   32.74   32.81</time>
   <time name="total">   33.27   33.36</time>
   <energy>
    <i name="e_fr_energy">   -186.96926448 </i>
    <i name="e_wo_entrp">   -186.61372547 </i>
    <i name="e_0_energy">   -186.79149497 </i>
   </energy>
  </scstep>
  <scstep>
   <time name="dav">   31.30   31.38</time>
   <time name="total">   31.84   31.92</time>
   <energy>
    <i name="e_fr_energy">   -186.97650920 </i>
    <i name="e_wo_entrp">   -186.63779589 </i>
    <i name="e_0_energy">   -186.80715254 </i>
   </energy>
  </scstep>
  <scstep>
   <time name="dav">   32.24   32.31</time>
   <time name="total">   32.77   32.86</time>
   <energy>
    <i name="e_fr_energy">   -186.92285733 </i>
    <i name="e_wo_entrp">   -186.58357725 </i>
    <i name="e_0_energy">   -186.75321729 </i>
   </energy>
  </scstep>
  <scstep>
   <time name="dav">   31.80   31.87</time>
   <time name="total">   32.33   32.42</time>
   <energy>
    <i name="e_fr_energy">   -186.86165824 </i>
    <i name="e_wo_entrp">   -186.51908725 </i>
    <i name="e_0_energy">   -186.69037274 </i>
   </energy>
  </scstep>
  <scstep>
   <time name="dav">   31.69   31.77</time>
   <time name="total">   32.23   32.31</time>
   <energy>
    <i name="e_fr_energy">   -186.84684830 </i>
    <i name="e_wo_entrp">   -186.49761732 </i>
    <i name="e_0_energy">   -186.67223281 </i>
   </energy>
  </scstep>
  <scstep>
   <time name="dav">   29.89   29.96</time>
   <time name="total">   30.43   30.51</time>
   <energy>
    <i name="e_fr_energy">   -186.83825182 </i>
    <i name="e_wo_entrp">   -186.48959644 </i>
    <i name="e_0_energy">   -186.66392413 </i>
   </energy>
  </scstep>
  <scstep>
   <time name="dav">   32.34   32.42</time>
   <time name="total">   32.87   32.96</time>
   <energy>
    <i name="e_fr_energy">   -186.83694575 </i>
    <i name="e_wo_entrp">   -186.48907850 </i>
    <i name="e_0_energy">   -186.66301213 </i>
   </energy>
  </scstep>
  <scstep>
   <time name="dav">   30.35   30.42</time>
   <time name="total">   30.88   30.97</time>
   <energy>
    <i name="e_fr_energy">   -186.83474962 </i>
    <i name="e_wo_entrp">   -186.48932850 </i>
    <i name="e_0_energy">   -186.66203906 </i>
   </energy>
  </scstep>
  <scstep>
   <time name="dav">   31.21   31.29</time>
   <time name="total">   31.75   31.83</time>
   <energy>
    <i name="e_fr_energy">   -186.83369177 </i>
    <i name="e_wo_entrp">   -186.48701224 </i>
    <i name="e_0_energy">   -186.66035201 </i>
   </energy>
  </scstep>
  <scstep>
   <time name="dav">   26.44   26.50</time>
   <time name="total">   26.97   27.05</time>
   <energy>
    <i name="e_fr_energy">   -186.83423688 </i>
    <i name="e_wo_entrp">   -186.48781085 </i>
    <i name="e_0_energy">   -186.66102387 </i>
   </energy>
  </scstep>
  <scstep>
   <time name="dav">   24.56   24.62</time>
   <time name="total">   25.10   25.17</time>
   <energy>
    <i name="e_fr_energy">   -186.83463364 </i>
    <i name="e_wo_entrp">   -186.48840299 </i>
    <i name="e_0_energy">   -186.66151832 </i>
   </energy>
  </scstep>
  <scstep>
   <time name="dav">   20.90   20.95</time>
   <time name="total">   21.43   21.49</time>
   <energy>
    <i name="e_fr_energy">   -186.83550516 </i>
    <i name="e_wo_entrp">   -186.48910655 </i>
    <i name="e_0_energy">   -186.66230585 </i>
   </energy>
  </scstep>
  <scstep>
   <time name="dav">   18.23   18.27</time>
   <time name="total">   18.76   18.81</time>
   <energy>
    <i name="e_fr_energy">   -186.83623585 </i>
    <i name="e_wo_entrp">   -186.48975556 </i>
    <i name="e_0_energy">   -186.66299571 </i>
   </energy>
  </scstep>
  <scstep>
   <time name="dav">   20.28   20.33</time>
   <time name="total">   20.82   20.88</time>
   <energy>
    <i name="e_fr_energy">   -186.83745663 </i>
    <i name="e_wo_entrp">   -186.49108945 </i>
    <i name="e_0_energy">   -186.66427304 </i>
   </energy>
  </scstep>
  <scstep>
   <time name="dav">   18.68   18.73</time>
   <time name="total">   19.22   19.27</time>
   <energy>
    <i name="e_fr_energy">   -186.83801377 </i>
    <i name="e_wo_entrp">   -186.49163984 </i>
    <i name="e_0_energy">   -186.66482680 </i>
   </energy>
  </scstep>
  <scstep>
   <time name="dav">   16.40   16.44</time>
   <time name="total">   16.93   16.98</time>
   <energy>
    <i name="e_fr_energy">   -186.83844325 </i>
    <i name="e_wo_entrp">   -186.49201263 </i>
    <i name="e_0_energy">   -186.66522794 </i>
   </energy>
  </scstep>
  <scstep>
   <time name="dav">   19.04   19.08</time>
   <time name="total">   19.57   19.63</time>
   <energy>
    <i name="e_fr_energy">   -186.83863954 </i>
    <i name="e_wo_entrp">   -186.49223076 </i>
    <i name="e_0_energy">   -186.66543515 </i>
   </energy>
  </scstep>
  <scstep>
   <time name="dav">   19.14   19.18</time>
   <time name="total">   19.17   19.23</time>
   <energy>
    <i name="alphaZ">     81.65567618 </i>
    <i name="ewald">  41890.23010383 </i>
    <i name="hartreedc"> -47832.72348867 </i>
    <i name="XCdc">   -231.61200080 </i>
    <i name="pawpsdc">   4192.01003858 </i>
    <i name="pawaedc">  -3610.00660049 </i>
    <i name="eentropy">     -0.34639988 </i>
    <i name="bandstr">  -1437.48859239 </i>
    <i name="atom">   6761.44252427 </i>
    <i name="e_fr_energy">   -186.83873937 </i>
    <i name="e_wo_entrp">   -186.49233949 </i>
    <i name="e_0_energy">   -186.66553943 </i>
   </energy>
  </scstep>
  <structure>
   <crystal>
    <varray name="basis" >
     <v>       8.66999996       5.03999989       0.00000000 </v>
     <v>      -8.66999982       5.04000013       0.00000000 </v>
     <v>       0.00000000       0.00000000      30.00000000 </v>
    </varray>
    <i name="volume">   2621.80797419 </i>
    <varray name="rec_basis" >
     <v>       0.05767013       0.09920635       0.00000000 </v>
     <v>      -0.05767013       0.09920635       0.00000000 </v>
     <v>       0.00000000       0.00000000       0.03333333 </v>
    </varray>
   </crystal>
   <varray name="positions" >
    <v>       0.66666669       0.00000000       0.00000000 </v>
    <v>       0.66666669       0.66666669       0.00000000 </v>
    <v>       0.33333334       0.33333334       0.00000000 </v>
    <v>       0.00000000       0.00000000       0.00000000 </v>
    <v>       0.66666669       0.33333334       0.00000000 </v>
    <v>       0.33333334       0.66666669       0.00000000 </v>
    <v>       1.00000000       0.33333334       0.00000000 </v>
    <v>       0.00000000       0.66666669       0.00000000 </v>
    <v>       0.33333334       0.00000000       0.00000000 </v>
    <v>       0.11068511       0.22244981       0.95539999 </v>
    <v>       0.22244981       0.11068511       0.04460000 </v>
    <v>       0.11068511       0.55578315       0.95539999 </v>
    <v>       0.22244981       0.44401845       0.04460000 </v>
    <v>       0.11068511       0.88911647       0.95539999 </v>
    <v>       0.22244981       0.77735180       0.04460000 </v>
    <v>       0.44401845       0.22244981       0.95539999 </v>
    <v>       0.55578315       0.11068511       0.04460000 </v>
    <v>       0.44401845       0.55578315       0.95539999 </v>
    <v>       0.55578315       0.44401845       0.04460000 </v>
    <v>       0.44401845       0.88911647       0.95539999 </v>
    <v>       0.55578315       0.77735180       0.04460000 </v>
    <v>       0.77735180       0.22244981       0.95539999 </v>
    <v>       0.88911647       0.11068511       0.04460000 </v>
    <v>       0.77735180       0.55578315       0.95539999 </v>
    <v>       0.88911647       0.44401845       0.04460000 </v>
    <v>       0.77735180       0.88911647       0.95539999 </v>
    <v>       0.88911647       0.77735180       0.04460000 </v>
   </varray>
  </structure>
  <varray name="forces" >
   <v>       0.09480629      -0.03687520      -0.10869434 </v>
   <v>      -0.09468703      -0.05449909       0.00268695 </v>
   <v>      -0.00235540       0.10376633       0.10459336 </v>
   <v>      -0.00689814      -0.03588355      -0.03642566 </v>
   <v>      -0.03732532       0.01018083       0.04569533 </v>
   <v>       0.04488409       0.01195582      -0.00924452 </v>
   <v>       0.07171052      -0.04787244      -0.13474679 </v>
   <v>      -0.06770558      -0.02498516       0.00566469 </v>
   <v>      -0.00448107       0.05408847       0.13086367 </v>
   <v>       0.34549451       0.69245777      -2.14916188 </v>
   <v>      -0.36025440       0.72153584       2.18408299 </v>
   <v>       0.05345527      -0.15267080      -2.91485155 </v>
   <v>       0.69565196      -0.13366460       2.12647755 </v>
   <v>       0.27207434      -0.02331949      -2.89229445 </v>
   <v>      -0.28883796       0.01027373       2.90912235 </v>
   <v>      -0.66020665      -0.13888113      -2.10253197 </v>
   <v>       0.64341846      -0.16169330       2.09840294 </v>
   <v>       0.89152930       0.00259889      -1.46007119 </v>
   <v>      -0.89816415      -0.02352251       1.47127340 </v>
   <v>       0.39559724       0.72106709      -2.16971927 </v>
   <v>       0.32495081       0.66332030       1.42246680 </v>
   <v>       0.63124569      -0.55665826      -2.17205807 </v>
   <v>      -0.60817355      -0.55353611       2.14168415 </v>
   <v>      -0.65239747       0.15957745      -2.11678076 </v>
   <v>      -0.07982361       0.14962070       2.89579979 </v>
   <v>      -0.34428137      -0.66184958      -1.43115574 </v>
   <v>      -0.35922679      -0.69453198       2.15892221 </v>
  </varray>
  <varray name="stress" >
   <v>       7.31381738      -0.00342738      -1.52020836 </v>
   <v>      -0.00342719       4.41881739      -0.05279372 </v>
   <v>      -1.52020820      -0.05279374      30.32679454 </v>
  </varray>
  <energy>
   <i name="e_fr_energy">   -186.83873937 </i>
   <i name="e_wo_entrp">   -186.66553943 </i>
   <i name="e_0_energy">     -0.34639988 </i>
  </energy>
  <time name="totalsc">  782.00  784.17</time>
 </calculation>
 <calculation>
  <scstep>
   <time name="dav">   21.64   21.69</time>
   <time name="total">   22.19   22.24</time>
   <energy>
    <i name="alphaZ">     78.92632782 </i>
    <i name="ewald">  39381.84104764 </i>
    <i name="hartreedc"> -45339.19846310 </i>
    <i name="XCdc">   -239.06802133 </i>
    <i name="pawpsdc">   4191.98270930 </i>
    <i name="pawaedc">  -3609.97979651 </i>
    <i name="eentropy">     -0.29777884 </i>
    <i name="bandstr">  -1413.08344978 </i>
    <i name="atom">   6761.44252427 </i>
    <i name="e_fr_energy">   -187.43490054 </i>
    <i name="e_wo_entrp">   -187.13712169 </i>
    <i name="e_0_energy">   -187.28601111 </i>
   </energy>
  </scstep>
  <scstep>
   <time name="dav">   30.25   30.33</time>
   <time name="total">   30.79   30.88</time>
   <energy>
    <i name="e_fr_energy">   -189.15766974 </i>
    <i name="e_wo_entrp">   -188.84462168 </i>
    <i name="e_0_energy">   -189.00114571 </i>
   </energy>
  </scstep>
  <scstep>
   <time name="dav">   30.23   30.30</time>
   <time name="total">   30.78   30.86</time>
   <energy>
    <i name="e_fr_energy">   -189.35405369 </i>
    <i name="e_wo_entrp">   -189.06463996 </i>
    <i name="e_0_energy">   -189.20934683 </i>
   </energy>
  </scstep>
  <scstep>
   <time name="dav">   30.80   30.88</time>
   <time name="total">   31.35   31.43</time>
   <energy>
    <i name="e_fr_energy">   -188.72239505 </i>
    <i name="e_wo_entrp">   -188.42850740 </i>
    <i name="e_0_energy">   -188.57545122 </i>
   </energy>
  </scstep>
  <scstep>
   <time name="dav">   27.49   27.55</time>
   <time name="total">   28.03   28.10</time>
   <energy>
    <i name="e_fr_energy">   -188.70477841 </i>
    <i name="e_wo_entrp">   -188.40528385 </i>
    <i name="e_0_energy">   -188.55503113 </i>
   </energy>
  </scstep>
  <scstep>
   <time name="dav">   30.96   31.03</time>
   <time name="total">   31.50   31.58</time>
   <energy>
    <i name="e_fr_energy">   -188.75640876 </i>
    <i name="e_wo_entrp">   -188.45546115 </i>
    <i name="e_0_energy">   -188.60593496 </i>
   </energy>
  </scstep>
  <scstep>
   <time name="dav">   31.14   31.22</time>
   <time name="total">   31.69   31.78</time>
   <energy>
    <i name="e_fr_energy">   -188.61962888 </i>
    <i name="e_wo_entrp">   -188.32506380 </i>
    <i name="e_0_energy">   -188.47234634 </i>
   </energy>
  </scstep>
  <scstep>
   <time name="dav">   30.89   30.96</time>
   <time name="total">   31.43   31.52</time>
   <energy>
    <i name="e_fr_energy">   -188.61430303 </i>
    <i name="e_wo_entrp">   -188.31915719 </i>
    <i name="e_0_energy">   -188.46673011 </i>
   </energy>
  </scstep>
  <scstep>
   <time name="dav">   31.09   31.17</time>
   <time name="total">   31.64   31.72</time>
   <energy>
    <i name="e_fr_energy">   -188.60314663 </i>
    <i name="e_wo_entrp">   -188.30785229 </i>
    <i name="e_0_energy">   -188.45549946 </i>
   </energy>
  </scstep>
  <scstep>
   <time name="dav">   29.33   29.40</time>
   <time name="total">   29.87   29.95</time>
   <energy>
    <i name="e_fr_energy">   -188.60231659 </i>
    <i name="e_wo_entrp">   -188.30695794 </i>
    <i name="e_0_energy">   -188.45463727 </i>
   </energy>
  </scstep>
  <scstep>
   <time name="dav">   30.08   30.16</time>
   <time name="total">   30.63   30.71</time>
   <energy>
    <i name="e_fr_energy">   -188.60165704 </i>
    <i name="e_wo_entrp">   -188.30688791 </i>
    <i name="e_0_energy">   -188.45427247 </i>
   </energy>
  </scstep>
  <scstep>
   <time name="dav">   27.62   27.68</time>
   <time name="total">   28.16   28.23</time>
   <energy>
    <i name="e_fr_energy">   -188.60179075 </i>
    <i name="e_wo_entrp">   -188.30703115 </i>
    <i name="e_0_energy">   -188.45441095 </i>
   </energy>
  </scstep>
  <scstep>
   <time name="dav">   21.66   21.71</time>
   <time name="total">   21.69   21.75</time>
   <energy>
    <i name="alphaZ">     78.92632782 </i>
    <i name="ewald">  39381.84104764 </i>
    <i name="hartreedc"> -45350.03119030 </i>
    <i name="XCdc">   -237.98612205 </i>
    <i name="pawpsdc">   3950.04276829 </i>
    <i name="pawaedc">  -3364.53579599 </i>
    <i name="eentropy">     -0.29479768 </i>
    <i name="bandstr">  -1408.00653521 </i>
    <i name="atom">   6761.44252427 </i>
    <i name="e_fr_energy">   -188.60177321 </i>
    <i name="e_wo_entrp">   -188.30697554 </i>
    <i name="e_0_energy">   -188.45437438 </i>
   </energy>
  </scstep>
  <structure>
   <crystal>
    <varray name="basis" >
     <v>       8.85535423       5.10503000       0.00000000 </v>
     <v>      -8.85545510       5.10520401       0.00000000 </v>
     <v>       0.00000000       0.00000000      30.00000000 </v>
    </varray>
    <i name="volume">   2712.47261638 </i>
    <varray name="rec_basis" >
     <v>       0.05646366       0.09794151       0.00000000 </v>
     <v>      -0.05646173       0.09794039       0.00000000 </v>
     <v>       0.00000000       0.00000000       0.03333333 </v>
    </varray>
   </crystal>
   <varray name="positions" >
    <v>       0.66675397      -0.00044025      -0.00017479 </v>
    <v>       0.66614242       0.66666929       0.00000432 </v>
    <v>       0.33382341       0.33383652       0.00016820 </v>
    <v>      -0.00019093      -0.00015255      -0.00005858 </v>
    <v>       0.66661157       0.33348591       0.00007348 </v>
    <v>       0.33351544       0.66659903      -0.00001487 </v>
    <v>       0.99997039       0.33290472      -0.00021668 </v>
    <v>      -0.00030795       0.66673548       0.00000911 </v>
    <v>       0.33357974       0.00027133       0.00021044 </v>
    <v>       0.11496042       0.22480268       0.95194395 </v>
    <v>       0.22490078       0.11514065       0.04811220 </v>
    <v>       0.11010315       0.55490375       0.95071265 </v>
    <v>       0.22374551       0.44144332       0.04801956 </v>
    <v>       0.11133046       0.88824791       0.95074892 </v>
    <v>       0.22169539       0.77820456       0.04927812 </v>
    <v>       0.44151697       0.22362193       0.95201893 </v>
    <v>       0.55679939       0.10812116       0.04797442 </v>
    <v>       0.44651127       0.55331521       0.95305207 </v>
    <v>       0.55317174       0.44640471       0.04696594 </v>
    <v>       0.44857008       0.89146686       0.95191089 </v>
    <v>       0.55986185       0.77962237       0.04688745 </v>
    <v>       0.77644387       0.21802943       0.95190713 </v>
    <v>       0.88477522       0.10972793       0.04804402 </v>
    <v>       0.77630046       0.55836196       0.95199602 </v>
    <v>       0.88961047       0.44495662       0.04925670 </v>
    <v>       0.77322635       0.88690671       0.95309857 </v>
    <v>       0.88479303       0.77502721       0.04807174 </v>
   </varray>
  </structure>
  <varray name="forces" >
   <v>       0.02414709       0.00554531      -0.03434839 </v>
   <v>      -0.02269644      -0.01408990       0.00206738 </v>
   <v>       0.01402786       0.01886135       0.03248860 </v>
   <v>       0.13297240       0.04802743      -0.00663336 </v>
   <v>       0.10232619       0.09374196       0.00817629 </v>
   <v>      -0.23844392      -0.13701810      -0.00158425 </v>
   <v>      -0.09459110       0.03401825      -0.03757560 </v>
   <v>       0.08550872       0.05517324       0.00002410 </v>
   <v>      -0.01803016      -0.11254721       0.03674372 </v>
   <v>      -0.10148339       0.07006366       0.02457787 </v>
   <v>       0.10690945       0.07351782       0.01430622 </v>
   <v>      -0.08188418      -0.12377531      -0.04362770 </v>
   <v>      -0.00161228      -0.11084559      -0.00111068 </v>
   <v>       0.12906186       0.00982702      -0.00565317 </v>
   <v>      -0.13059144       0.00715985       0.05179514 </v>
   <v>       0.01075136      -0.10274764       0.05466931 </v>
   <v>      -0.00077899      -0.11368701      -0.00986556 </v>
   <v>       0.04477776       0.01040419       0.08155724 </v>
   <v>      -0.04969769       0.00077937      -0.04331028 </v>
   <v>      -0.10451999       0.07417848       0.02564878 </v>
   <v>       0.01638808       0.04247723      -0.06858769 </v>
   <v>       0.09584148       0.03853387      -0.02208688 </v>
   <v>      -0.08474153       0.04009397      -0.06397003 </v>
   <v>      -0.00215066       0.09799037       0.01095536 </v>
   <v>       0.09056752       0.11571641      -0.00311048 </v>
   <v>      -0.01100800      -0.05458469       0.02678987 </v>
   <v>       0.08895001      -0.06681433      -0.02833579 </v>
  </varray>
  <varray name="stress" >
   <v>     -19.86800797      -0.00759369       0.04666606 </v>
   <v>      -0.00759385     -19.44572166      -0.02659557 </v>
   <v>       0.04666597      -0.02659567      -1.71936161 </v>
  </varray>
  <energy>
   <i name="e_fr_energy">   -188.60177321 </i>
   <i name="e_wo_entrp">   -188.45437438 </i>
   <i name="e_0_energy">     -0.29479768 </i>
  </energy>
  <time name="totalsc">  422.21  423.32</time>
 </calculation>
 <calculation>
  <scstep>
   <time name="dav">   24.14   24.19</time>
   <time name="total">   24.67   24.73</time>
   <energy>
    <i name="alphaZ">     82.35519133 </i>
    <i name="ewald">  41307.25056487 </i>
    <i name="hartreedc"> -47306.11267283 </i>
    <i name="XCdc">   -233.85926179 </i>
    <i name="pawpsdc">   3949.67526060 </i>
    <i name="pawaedc">  -3364.16486988 </i>
    <i name="eentropy">     -0.24441496 </i>
    <i name="bandstr">  -1386.84697191 </i>
    <i name="atom">   6761.44252427 </i>
    <i name="e_fr_energy">   -190.50465029 </i>
    <i name="e_wo_entrp">   -190.26023533 </i>
    <i name="e_0_energy">   -190.38244281 </i>
   </energy>
  </scstep>
  <scstep>
   <time name="dav">   27.75   27.82</time>
   <time name="total">   28.27   28.35</time>
   <energy>
    <i name="e_fr_energy">   -190.56930690 </i>
    <i name="e_wo_entrp">   -190.31644507 </i>
    <i name="e_0_energy">   -190.44287599 </i>
   </energy>
  </scstep>
  <scstep>
   <time name="dav">   30.27   30.34</time>
   <time name="total">   30.80   30.89</time>
   <energy>
    <i name="e_fr_energy">   -189.97045171 </i>
    <i name="e_wo_entrp">   -189.71775541 </i>
    <i name="e_0_energy">   -189.84410356 </i>
   </energy>
  </scstep>
  <scstep>
   <time name="dav">   31.07   31.15</time>
   <time name="total">   31.61   31.69</time>
   <energy>
    <i name="e_fr_energy">   -189.76897549 </i>
    <i name="e_wo_entrp">   -189.51725232 </i>
    <i name="e_0_energy">   -189.64311390 </i>
   </energy>
  </scstep>
  <scstep>
   <time name="dav">   29.98   30.05</time>
   <time name="total">   30.51   30.59</time>
   <energy>
    <i name="e_fr_energy">   -189.70756972 </i>
    <i name="e_wo_entrp">   -189.45941536 </i>
    <i name="e_0_energy">   -189.58349254 </i>
   </energy>
  </scstep>
  <scstep>
   <time name="dav">   30.06   30.14</time>
   <time name="total">   30.60   30.68</time>
   <energy>
    <i name="e_fr_energy">   -189.67171933 </i>
    <i name="e_wo_entrp">   -189.42227211 </i>
    <i name="e_0_energy">   -189.54699572 </i>
   </energy>
  </scstep>
  <scstep>
   <time name="dav">   29.77   29.84</time>
   <time name="total">   30.31   30.39</time>
   <energy>
    <i name="e_fr_energy">   -189.66546605 </i>
    <i name="e_wo_entrp">   -189.41532217 </i>
    <i name="e_0_energy">   -189.54039411 </i>
   </energy>
  </scstep>
  <scstep>
   <time name="dav">   27.42   27.48</time>
   <time name="total">   27.95   28.03</time>
   <energy>
    <i name="e_fr_energy">   -189.66558338 </i>
    <i name="e_wo_entrp">   -189.41571396 </i>
    <i name="e_0_energy">   -189.54064867 </i>
   </energy>
  </scstep>
  <scstep>
   <time name="dav">   26.64   26.71</time>
   <time name="total">   27.17   27.25</time>
   <energy>
    <i name="e_fr_energy">   -189.66595327 </i>
    <i name="e_wo_entrp">   -189.41627058 </i>
    <i name="e_0_energy">   -189.54111193 </i>
   </energy>
  </scstep>
  <scstep>
   <time name="dav">   26.55   26.61</time>
   <time name="total">   27.09   27.16</time>
   <energy>
    <i name="e_fr_energy">   -189.66611214 </i>
    <i name="e_wo_entrp">   -189.41639218 </i>
    <i name="e_0_energy">   -189.54125216 </i>
   </energy>
  </scstep>
  <scstep>
   <time name="dav">   24.18   24.24</time>
   <time name="total">   24.71   24.78</time>
   <energy>
    <i name="e_fr_energy">   -189.66563649 </i>
    <i name="e_wo_entrp">   -189.41578549 </i>
    <i name="e_0_energy">   -189.54071099 </i>
   </energy>
  </scstep>
  <scstep>
   <time name="dav">   17.84   17.88</time>
   <time name="total">   17.87   17.93</time>
   <energy>
    <i name="alphaZ">     82.35519133 </i>
    <i name="ewald">  41307.25056487 </i>
    <i name="hartreedc"> -47279.44251087 </i>
    <i name="XCdc">   -235.25718964 </i>
    <i name="pawpsdc">   4038.26213218 </i>
    <i name="pawaedc">  -3453.95018419 </i>
    <i name="eentropy">     -0.24981276 </i>
    <i name="bandstr">  -1410.07637234 </i>
    <i name="atom">   6761.44252427 </i>
    <i name="e_fr_energy">   -189.66565717 </i>
    <i name="e_wo_entrp">   -189.41584441 </i>
    <i name="e_0_energy">   -189.54075079 </i>
   </energy>
  </scstep>
  <structure>
   <crystal>
    <varray name="basis" >
     <v>       8.66700532       4.99870789       0.00000000 </v>
     <v>      -8.66718703       4.99902222       0.00000000 </v>
     <v>       0.00000000       0.00000000      30.00000000 </v>
    </varray>
    <i name="volume">   2599.53865071 </i>
    <varray name="rec_basis" >
     <v>       0.05769126       0.10002375       0.00000000 </v>
     <v>      -0.05768763       0.10002166       0.00000000 </v>
     <v>       0.00000000       0.00000000       0.03333333 </v>
    </varray>
   </crystal>
   <varray name="positions" >
    <v>       0.66678651      -0.00045425      -0.00019433 </v>
    <v>       0.66609699       0.66666761       0.00000550 </v>
    <v>       0.33386847       0.33385453       0.00018668 </v>
    <v>       0.00001752      -0.00020041      -0.00006235 </v>
    <v>       0.66686691       0.33354401       0.00007813 </v>
    <v>       0.33305656       0.66659977      -0.00001577 </v>
    <v>       0.99993610       0.33305275      -0.00023806 </v>
    <v>      -0.00013329       0.66674530       0.00000912 </v>
    <v>       0.33337421       0.00010056       0.00023135 </v>
    <v>       0.11497974       0.22501761       0.95195793 </v>
    <v>       0.22512672       0.11516052       0.04812034 </v>
    <v>       0.10981731       0.55477574       0.95068783 </v>
    <v>       0.22355864       0.44125957       0.04801893 </v>
    <v>       0.11147128       0.88813995       0.95074571 </v>
    <v>       0.22158149       0.77834239       0.04930760 </v>
    <v>       0.44135556       0.22343980       0.95205004 </v>
    <v>       0.55660857       0.10793185       0.04796880 </v>
    <v>       0.44657182       0.55328945       0.95309847 </v>
    <v>       0.55312514       0.44645391       0.04694129 </v>
    <v>       0.44859335       0.89169160       0.95192548 </v>
    <v>       0.55994866       0.77967759       0.04684843 </v>
    <v>       0.77660066       0.21800148       0.95189456 </v>
    <v>       0.88476057       0.10987663       0.04800762 </v>
    <v>       0.77646220       0.55852785       0.95200225 </v>
    <v>       0.88989121       0.44506278       0.04925493 </v>
    <v>       0.77312449       0.88682607       0.95311381 </v>
    <v>       0.88476706       0.77482978       0.04805561 </v>
   </varray>
  </structure>
  <varray name="forces" >
   <v>      -0.02070481       0.03583542      -0.00664888 </v>
   <v>       0.02259469       0.00833218       0.00110707 </v>
   <v>       0.01946337      -0.03412266       0.00590927 </v>
   <v>       0.17740442       0.07426778       0.00455158 </v>
   <v>       0.15006061       0.11914945      -0.00544711 </v>
   <v>      -0.32680286      -0.19034385       0.00085363 </v>
   <v>      -0.16085807       0.06365009      -0.00013232 </v>
   <v>       0.14877105       0.08769303      -0.00098681 </v>
   <v>      -0.02320926      -0.18230511       0.00041844 </v>
   <v>       0.02226315       0.14022296      -0.47328294 </v>
   <v>      -0.01497635       0.13991456       0.52751352 </v>
   <v>      -0.04936523      -0.06195944      -0.61517066 </v>
   <v>       0.10299646      -0.04819386       0.49366408 </v>
   <v>       0.06381312       0.01432046      -0.56412701 </v>
   <v>      -0.06138715       0.00115782       0.62370058 </v>
   <v>      -0.09870307      -0.03156362      -0.43019078 </v>
   <v>       0.12069842      -0.04061969       0.48903368 </v>
   <v>       0.11417788       0.00931083      -0.35924583 </v>
   <v>      -0.12742065       0.00832942       0.40960810 </v>
   <v>       0.00529772       0.13331902      -0.47430070 </v>
   <v>       0.04945677       0.10116494       0.37191346 </v>
   <v>       0.09491338      -0.09370275      -0.53287871 </v>
   <v>      -0.07989596      -0.08577801       0.42077702 </v>
   <v>      -0.11912371       0.03199087      -0.48426428 </v>
   <v>       0.06113391       0.05664022       0.55378514 </v>
   <v>      -0.04116132      -0.12209752      -0.42583743 </v>
   <v>      -0.02943652      -0.13461254       0.46967790 </v>
  </varray>
  <varray name="stress" >
   <v>     -10.16766824       0.00694726       0.02946056 </v>
   <v>       0.00694756      -9.85681340      -0.02293192 </v>
   <v>       0.02946063      -0.02293193       6.54879352 </v>
  </varray>
  <energy>
   <i name="e_fr_energy">   -189.66565717 </i>
   <i name="e_wo_entrp">   -189.54075079 </i>
   <i name="e_0_energy">     -0.24981276 </i>
  </energy>
  <time name="totalsc">  373.99  375.00</time>
 </calculation>
 <calculation>
  <scstep>
   <time name="dav">   21.67   21.72</time>
   <time name="total">   22.19   22.24</time>
   <energy>
    <i name="alphaZ">     85.86275945 </i>
    <i name="ewald">  42851.38020154 </i>
    <i name="hartreedc"> -48868.54833407 </i>
    <i name="XCdc">   -232.94829730 </i>
    <i name="pawpsdc">   4038.31794090 </i>
    <i name="pawaedc">  -3454.00264137 </i>
    <i name="eentropy">     -0.19683607 </i>
    <i name="bandstr">  -1372.48340403 </i>
    <i name="atom">   6761.44252427 </i>
    <i name="e_fr_energy">   -191.17608668 </i>
    <i name="e_wo_entrp">   -190.97925061 </i>
    <i name="e_0_energy">   -191.07766865 </i>
   </energy>
  </scstep>
  <scstep>
   <time name="dav">   32.64   32.72</time>
   <time name="total">   33.15   33.24</time>
   <energy>
    <i name="e_fr_energy">   -191.12937961 </i>
    <i name="e_wo_entrp">   -190.91810426 </i>
    <i name="e_0_energy">   -191.02374194 </i>
   </energy>
  </scstep>
  <scstep>
   <time name="dav">   30.00   30.08</time>
   <time name="total">   30.52   30.60</time>
   <energy>
    <i name="e_fr_energy">   -191.02505645 </i>
    <i name="e_wo_entrp">   -190.81324865 </i>
    <i name="e_0_energy">   -190.91915255 </i>
   </energy>
  </scstep>
  <scstep>
   <time name="dav">   32.10   32.18</time>
   <time name="total">   32.62   32.71</time>
   <energy>
    <i name="e_fr_energy">   -190.66074116 </i>
    <i name="e_wo_entrp">   -190.45540882 </i>
    <i name="e_0_energy">   -190.55807499 </i>
   </energy>
  </scstep>
  <scstep>
   <time name="dav">   29.99   30.06</time>
   <time name="total">   30.51   30.59</time>
   <energy>
    <i name="e_fr_energy">   -190.60534645 </i>
    <i name="e_wo_entrp">   -190.40070079 </i>
    <i name="e_0_energy">   -190.50302362 </i>
   </energy>
  </scstep>
  <scstep>
   <time name="dav">   30.42   30.50</time>
   <time name="total">   30.94   31.03</time>
   <energy>
    <i name="e_fr_energy">   -190.56557290 </i>
    <i name="e_wo_entrp">   -190.35917673 </i>
    <i name="e_0_energy">   -190.46237482 </i>
   </energy>
  </scstep>
  <scstep>
   <time name="dav">   29.99   30.06</time>
   <time name="total">   30.51   30.59</time>
   <energy>
    <i name="e_fr_energy">   -190.56100339 </i>
    <i name="e_wo_entrp">   -190.35476723 </i>
    <i name="e_0_energy">   -190.45788531 </i>
   </energy>
  </scstep>
  <scstep>
   <time name="dav">   26.73   26.79</time>
   <time name="total">   27.24   27.32</time>
   <energy>
    <i name="e_fr_energy">   -190.55730118 </i>
    <i name="e_wo_entrp">   -190.35167302 </i>
    <i name="e_0_energy">   -190.45448710 </i>
   </energy>
  </scstep>
  <scstep>
   <time name="dav">   28.53   28.59</time>
   <time name="total">   29.04   29.12</time>
   <energy>
    <i name="e_fr_energy">   -190.55801779 </i>
    <i name="e_wo_entrp">   -190.35254133 </i>
    <i name="e_0_energy">   -190.45527956 </i>
   </energy>
  </scstep>
  <scstep>
   <time name="dav">   27.09   27.15</time>
   <time name="total">   27.61   27.68</time>
   <energy>
    <i name="e_fr_energy">   -190.55760053 </i>
    <i name="e_wo_entrp">   -190.35218393 </i>
    <i name="e_0_energy">   -190.45489223 </i>
   </energy>
  </scstep>
  <scstep>
   <time name="dav">   23.06   23.11</time>
   <time name="total">   23.58   23.64</time>
   <energy>
    <i name="e_fr_energy">   -190.55744013 </i>
    <i name="e_wo_entrp">   -190.35198644 </i>
    <i name="e_0_energy">   -190.45471329 </i>
   </energy>
  </scstep>
  <scstep>
   <time name="dav">   19.90   19.95</time>
   <time name="total">   19.94   19.99</time>
   <energy>
    <i name="alphaZ">     85.86275945 </i>
    <i name="ewald">  42851.38020154 </i>
    <i name="hartreedc"> -48839.76786663 </i>
    <i name="XCdc">   -234.31203964 </i>
    <i name="pawpsdc">   4061.97248544 </i>
    <i name="pawaedc">  -3477.81819730 </i>
    <i name="eentropy">     -0.20544660 </i>
    <i name="bandstr">  -1399.11185508 </i>
    <i name="atom">   6761.44252427 </i>
    <i name="e_fr_energy">   -190.55743455 </i>
    <i name="e_wo_entrp">   -190.35198796 </i>
    <i name="e_0_energy">   -190.45471125 </i>
   </energy>
  </scstep>
  <structure>
   <crystal>
    <varray name="basis" >
     <v>       8.48433286       4.89830516       0.00000000 </v>
     <v>      -8.48401710       4.89775732       0.00000000 </v>
     <v>       0.00000000       0.00000000      30.00000000 </v>
    </varray>
    <i name="volume">   2493.34524428 </i>
    <varray name="rec_basis" >
     <v>       0.05892995       0.10207993       0.00000000 </v>
     <v>      -0.05893655       0.10208373       0.00000000 </v>
     <v>       0.00000000       0.00000000       0.03333333 </v>
    </varray>
   </crystal>
   <varray name="positions" >
    <v>       0.66694764      -0.00001358      -0.00018451 </v>
    <v>       0.66635274       0.66662885       0.00000698 </v>
    <v>       0.33359982       0.33342919       0.00017628 </v>
    <v>       0.00125644      -0.00037510      -0.00004337 </v>
    <v>       0.66829129       0.33374334       0.00005522 </v>
    <v>       0.33041625       0.66658233      -0.00001192 </v>
    <v>       0.99973160       0.33420503      -0.00020642 </v>
    <v>       0.00112913       0.66674717       0.00000621 </v>
    <v>       0.33196312      -0.00112739       0.00020125 </v>
    <v>       0.11629538       0.22581452       0.95055145 </v>
    <v>       0.22594137       0.11643568       0.04965243 </v>
    <v>       0.10945122       0.55467338       0.94892412 </v>
    <v>       0.22393714       0.44058974       0.04946507 </v>
    <v>       0.11170939       0.88810421       0.94909906 </v>
    <v>       0.22145129       0.77845705       0.05108931 </v>
    <v>       0.44082005       0.22393551       0.95074405 </v>
    <v>       0.55714921       0.10724719       0.04940885 </v>
    <v>       0.44714139       0.55283137       0.95197725 </v>
    <v>       0.55262253       0.44709892       0.04817734 </v>
    <v>       0.44975647       0.89249913       0.95051511 </v>
    <v>       0.56095786       0.78023295       0.04799567 </v>
    <v>       0.77602349       0.21673937       0.95035340 </v>
    <v>       0.88362419       0.10930510       0.04929397 </v>
    <v>       0.77589730       0.55916382       0.95057524 </v>
    <v>       0.89027784       0.44509152       0.05087878 </v>
    <v>       0.77199600       0.88608290       0.95184434 </v>
    <v>       0.88347431       0.77409226       0.04945475 </v>
   </varray>
  </structure>
  <varray name="forces" >
   <v>      -0.07001449       0.07575428       0.05239665 </v>
   <v>       0.05710711       0.03041441       0.00021050 </v>
   <v>       0.02669820      -0.10001650      -0.05235545 </v>
   <v>       0.21596019       0.09515065       0.01634623 </v>
   <v>       0.19194454       0.13783018      -0.01673211 </v>
   <v>      -0.39022492      -0.22539585       0.00041701 </v>
   <v>      -0.23803653       0.10214815       0.03464970 </v>
   <v>       0.23584957       0.14330246       0.00064899 </v>
   <v>      -0.02684737      -0.27303116      -0.03489448 </v>
   <v>       0.01670716       0.05224501      -0.29286362 </v>
   <v>      -0.00640522       0.06597099       0.40715516 </v>
   <v>      -0.01732024      -0.02948469      -0.50081013 </v>
   <v>       0.01673771      -0.00334784       0.32953155 </v>
   <v>       0.01735743       0.00107563      -0.40536699 </v>
   <v>      -0.03512476       0.00037644       0.50214017 </v>
   <v>      -0.01032924       0.01679458      -0.22843658 </v>
   <v>       0.04086394      -0.01200393       0.29568254 </v>
   <v>      -0.01452905       0.00302154      -0.23654717 </v>
   <v>      -0.02461014       0.01874065       0.32236408 </v>
   <v>       0.01141213       0.02769433      -0.32035951 </v>
   <v>      -0.01763815      -0.01247731       0.23871039 </v>
   <v>       0.05455302      -0.03720178      -0.40952333 </v>
   <v>       0.00336777      -0.02817065       0.22530498 </v>
   <v>      -0.04281051       0.01232946      -0.31291255 </v>
   <v>       0.00870641       0.01676745       0.40392512 </v>
   <v>       0.01476921      -0.02787617      -0.32480760 </v>
   <v>      -0.01814377      -0.05061033       0.30612644 </v>
  </varray>
  <varray name="stress" >
   <v>      -5.87935334       0.00412138      -0.05905308 </v>
   <v>       0.00412150      -5.88958615      -0.02191104 </v>
   <v>      -0.05905333      -0.02191123       4.52629618 </v>
  </varray>
  <energy>
   <i name="e_fr_energy">   -190.55743455 </i>
   <i name="e_wo_entrp">   -190.45471125 </i>
   <i name="e_0_energy">     -0.20544660 </i>
  </energy>
  <time name="totalsc">  379.70  380.70</time>
 </calculation>
 <calculation>
  <scstep>
   <time name="dav">   21.71   21.77</time>
   <time name="total">   22.22   22.28</time>
   <energy>
    <i name="alphaZ">     90.46734833 </i>
    <i name="ewald">  44792.70501784 </i>
    <i name="hartreedc"> -50839.52706305 </i>
    <i name="XCdc">   -231.68441793 </i>
    <i name="pawpsdc">   4061.85744356 </i>
    <i name="pawaedc">  -3477.69871307 </i>
    <i name="eentropy">     -0.15985302 </i>
    <i name="bandstr">  -1349.38354283 </i>
    <i name="atom">   6761.44252427 </i>
    <i name="e_fr_energy">   -191.98125590 </i>
    <i name="e_wo_entrp">   -191.82140287 </i>
    <i name="e_0_energy">   -191.90132939 </i>
   </energy>
  </scstep>
  <scstep>
   <time name="dav">   31.66   31.74</time>
   <time name="total">   32.17   32.26</time>
   <energy>
    <i name="e_fr_energy">   -191.66825161 </i>
    <i name="e_wo_entrp">   -191.48748238 </i>
    <i name="e_0_energy">   -191.57786699 </i>
   </energy>
  </scstep>
  <scstep>
   <time name="dav">   29.85   29.92</time>
   <time name="total">   30.36   30.44</time>
   <energy>
    <i name="e_fr_energy">   -191.98554238 </i>
    <i name="e_wo_entrp">   -191.80901441 </i>
    <i name="e_0_energy">   -191.89727840 </i>
   </energy>
  </scstep>
  <scstep>
   <time name="dav">   29.99   30.06</time>
   <time name="total">   30.50   30.58</time>
   <energy>
    <i name="e_fr_energy">   -191.34437099 </i>
    <i name="e_wo_entrp">   -191.17118648 </i>
    <i name="e_0_energy">   -191.25777874 </i>
   </energy>
  </scstep>
  <scstep>
   <time name="dav">   29.90   29.97</time>
   <time name="total">   30.40   30.48</time>
   <energy>
    <i name="e_fr_energy">   -191.29559037 </i>
    <i name="e_wo_entrp">   -191.12638991 </i>
    <i name="e_0_energy">   -191.21099014 </i>
   </energy>
  </scstep>
  <scstep>
   <time name="dav">   29.74   29.81</time>
   <time name="total">   30.25   30.33</time>
   <energy>
    <i name="e_fr_energy">   -191.12377655 </i>
    <i name="e_wo_entrp">   -190.95269354 </i>
    <i name="e_0_energy">   -191.03823505 </i>
   </energy>
  </scstep>
  <scstep>
   <time name="dav">   29.97   30.04</time>
   <time name="total">   30.48   30.56</time>
   <energy>
    <i name="e_fr_energy">   -191.12215969 </i>
    <i name="e_wo_entrp">   -190.95094255 </i>
    <i name="e_0_energy">   -191.03655112 </i>
   </energy>
  </scstep>
  <scstep>
   <time name="dav">   27.14   27.20</time>
   <time name="total">   27.65   27.72</time>
   <energy>
    <i name="e_fr_energy">   -191.11893739 </i>
    <i name="e_wo_entrp">   -190.94851804 </i>
    <i name="e_0_energy">   -191.03372771 </i>
   </energy>
  </scstep>
  <scstep>
   <time name="dav">   29.75   29.82</time>
   <time name="total">   30.26   30.34</time>
   <energy>
    <i name="e_fr_energy">   -191.12024787 </i>
    <i name="e_wo_entrp">   -190.95000168 </i>
    <i name="e_0_energy">   -191.03512477 </i>
   </energy>
  </scstep>
  <scstep>
   <time name="dav">   29.05   29.12</time>
   <time name="total">   29.56   29.64</time>
   <energy>
    <i name="e_fr_energy">   -191.11918146 </i>
    <i name="e_wo_entrp">   -190.94905405 </i>
    <i name="e_0_energy">   -191.03411775 </i>
   </energy>
  </scstep>
  <scstep>
   <time name="dav">   25.76   25.83</time>
   <time name="total">   26.27   26.34</time>
   <energy>
    <i name="e_fr_energy">   -191.11907052 </i>
    <i name="e_wo_entrp">   -190.94896443 </i>
    <i name="e_0_energy">   -191.03401748 </i>
   </energy>
  </scstep>
  <scstep>
   <time name="dav">   20.61   20.66</time>
   <time name="total">   20.64   20.70</time>
   <energy>
    <i name="alphaZ">     90.46734833 </i>
    <i name="ewald">  44792.70501784 </i>
    <i name="hartreedc"> -50803.14178138 </i>
    <i name="XCdc">   -233.36497131 </i>
    <i name="pawpsdc">   4081.19491051 </i>
    <i name="pawaedc">  -3497.06460730 </i>
    <i name="eentropy">     -0.17016455 </i>
    <i name="bandstr">  -1383.18730022 </i>
    <i name="atom">   6761.44252427 </i>
    <i name="e_fr_energy">   -191.11902381 </i>
    <i name="e_wo_entrp">   -190.94885926 </i>
    <i name="e_0_energy">   -191.03394153 </i>
   </energy>
  </scstep>
  <structure>
   <crystal>
    <varray name="basis" >
     <v>       8.26603133       4.77245790       0.00000000 </v>
     <v>      -8.26512793       4.77089170       0.00000000 </v>
     <v>       0.00000000       0.00000000      30.00000000 </v>
    </varray>
    <i name="volume">   2366.43946013 </i>
    <varray name="rec_basis" >
     <v>       0.06048190       0.10477929       0.00000000 </v>
     <v>      -0.06050175       0.10479074       0.00000000 </v>
     <v>       0.00000000       0.00000000       0.03333333 </v>
    </varray>
   </crystal>
   <varray name="positions" >
    <v>       0.66738719       0.00150342       0.00002629 </v>
    <v>       0.66722626       0.66658163       0.00000736 </v>
    <v>       0.33248892       0.33192465      -0.00003364 </v>
    <v>       0.00411370      -0.00074370       0.00002875 </v>
    <v>       0.67151620       0.33408782      -0.00002129 </v>
    <v>       0.32453516       0.66657095      -0.00000745 </v>
    <v>       0.99927091       0.33729005      -0.00004491 </v>
    <v>       0.00468116       0.66681603       0.00000692 </v>
    <v>       0.32826221      -0.00442623       0.00004019 </v>
    <v>       0.11766527       0.22649784       0.94873213 </v>
    <v>       0.22683728       0.11786760       0.05192391 </v>
    <v>       0.10910682       0.55453306       0.94621063 </v>
    <v>       0.22439761       0.44026632       0.05142289 </v>
    <v>       0.11181966       0.88809481       0.94676667 </v>
    <v>       0.22127727       0.77860702       0.05381270 </v>
    <v>       0.44080677       0.22463387       0.94919116 </v>
    <v>       0.55775918       0.10667565       0.05124813 </v>
    <v>       0.44733290       0.55273168       0.95048093 </v>
    <v>       0.55244454       0.44775938       0.05001921 </v>
    <v>       0.45073922       0.89294477       0.94859544 </v>
    <v>       0.56117455       0.78045542       0.04950650 </v>
    <v>       0.77549135       0.21533316       0.94807297 </v>
    <v>       0.88273499       0.10851871       0.05083032 </v>
    <v>       0.77529433       0.55974790       0.94868126 </v>
    <v>       0.89044617       0.44512928       0.05319859 </v>
    <v>       0.77127258       0.88536271       0.94998493 </v>
    <v>       0.88213226       0.77345066       0.05131928 </v>
   </varray>
  </structure>
  <varray name="forces" >
   <v>      -0.08598531       0.10373220       0.02240865 </v>
   <v>       0.05499498       0.02667331      -0.00123628 </v>
   <v>       0.04103760      -0.12530151      -0.02141644 </v>
   <v>       0.20889482       0.06872764       0.00380616 </v>
   <v>       0.16772209       0.14691778      -0.00376007 </v>
   <v>      -0.27009840      -0.15686969      -0.00119321 </v>
   <v>      -0.27496238       0.12386125      -0.01275544 </v>
   <v>       0.21921984       0.12724952      -0.00221712 </v>
   <v>      -0.02742617      -0.30510773       0.01302226 </v>
   <v>      -0.05379448      -0.05150449       0.03725497 </v>
   <v>       0.06107835      -0.00660846       0.09984021 </v>
   <v>      -0.02190395      -0.02854105      -0.24666325 </v>
   <v>      -0.09648017       0.01743109       0.00909249 </v>
   <v>       0.00348124      -0.05350163      -0.17605055 </v>
   <v>      -0.04029276      -0.00683345       0.25158779 </v>
   <v>       0.11527951       0.01867937       0.07477379 </v>
   <v>      -0.07605836      -0.02218456      -0.04330712 </v>
   <v>      -0.16147599      -0.01806125       0.06684820 </v>
   <v>       0.08847593       0.00307127      -0.00704776 </v>
   <v>      -0.03183532      -0.09581859      -0.01135690 </v>
   <v>      -0.09542448      -0.12932843      -0.07001453 </v>
   <v>       0.02859110       0.05810225      -0.10322381 </v>
   <v>       0.07663068       0.09062541      -0.06584487 </v>
   <v>       0.08905861       0.05061807      -0.00051968 </v>
   <v>      -0.04870994       0.03094682       0.17401823 </v>
   <v>       0.04430859       0.07833446       0.00920834 </v>
   <v>       0.08567437       0.05469041       0.00474591 </v>
  </varray>
  <varray name="stress" >
   <v>      -0.37935349       0.11357363      -0.06318791 </v>
   <v>       0.11357353      -0.48515477       0.08461601 </v>
   <v>      -0.06318797       0.08461622      -0.47137387 </v>
  </varray>
  <energy>
   <i name="e_fr_energy">   -191.11902381 </i>
   <i name="e_wo_entrp">   -191.03394153 </i>
   <i name="e_0_energy">     -0.17016455 </i>
  </energy>
  <time name="totalsc">  383.36  384.37</time>
 </calculation>
 <calculation>
  <scstep>
   <time name="dav">   21.68   21.73</time>
   <time name="total">   22.19   22.24</time>
   <energy>
    <i name="alphaZ">     90.79243012 </i>
    <i name="ewald">  44922.68470565 </i>
    <i name="hartreedc"> -50937.39020868 </i>
    <i name="XCdc">   -233.20760371 </i>
    <i name="pawpsdc">   4081.04875460 </i>
    <i name="pawaedc">  -3496.91282419 </i>
    <i name="eentropy">     -0.17323309 </i>
    <i name="bandstr">  -1379.45092496 </i>
    <i name="atom">   6761.44252427 </i>
    <i name="e_fr_energy">   -191.16637999 </i>
    <i name="e_wo_entrp">   -190.99314690 </i>
    <i name="e_0_energy">   -191.07976344 </i>
   </energy>
  </scstep>
  <scstep>
   <time name="dav">   32.65   32.73</time>
   <time name="total">   33.16   33.25</time>
   <energy>
    <i name="e_fr_energy">   -191.19777039 </i>
    <i name="e_wo_entrp">   -191.02485689 </i>
    <i name="e_0_energy">   -191.11131364 </i>
   </energy>
  </scstep>
  <scstep>
   <time name="dav">   30.49   30.57</time>
   <time name="total">   31.00   31.08</time>
   <energy>
    <i name="e_fr_energy">   -191.17297223 </i>
    <i name="e_wo_entrp">   -190.99870363 </i>
    <i name="e_0_energy">   -191.08583793 </i>
   </energy>
  </scstep>
  <scstep>
   <time name="dav">   26.76   26.82</time>
   <time name="total">   27.27   27.34</time>
   <energy>
    <i name="e_fr_energy">   -191.16966088 </i>
    <i name="e_wo_entrp">   -190.99535921 </i>
    <i name="e_0_energy">   -191.08251005 </i>
   </energy>
  </scstep>
  <scstep>
   <time name="dav">   28.81   28.88</time>
   <time name="total">   29.32   29.41</time>
   <energy>
    <i name="e_fr_energy">   -191.16885390 </i>
    <i name="e_wo_entrp">   -190.99566720 </i>
    <i name="e_0_energy">   -191.08226055 </i>
   </energy>
  </scstep>
  <scstep>
   <time name="dav">   29.03   29.10</time>
   <time name="total">   29.54   29.62</time>
   <energy>
    <i name="e_fr_energy">   -191.16740237 </i>
    <i name="e_wo_entrp">   -190.99357468 </i>
    <i name="e_0_energy">   -191.08048852 </i>
   </energy>
  </scstep>
  <scstep>
   <time name="dav">   26.45   26.51</time>
   <time name="total">   26.95   27.03</time>
   <energy>
    <i name="e_fr_energy">   -191.16712506 </i>
    <i name="e_wo_entrp">   -190.99312106 </i>
    <i name="e_0_energy">   -191.08012306 </i>
   </energy>
  </scstep>
  <scstep>
   <time name="dav">   19.41   19.46</time>
   <time name="total">   19.45   19.50</time>
   <energy>
    <i name="alphaZ">     90.79243012 </i>
    <i name="ewald">  44922.68470565 </i>
    <i name="hartreedc"> -50935.59984312 </i>
    <i name="XCdc">   -233.31230022 </i>
    <i name="pawpsdc">   4081.14998881 </i>
    <i name="pawaedc">  -3496.99985680 </i>
    <i name="eentropy">     -0.17387647 </i>
    <i name="bandstr">  -1381.15084765 </i>
    <i name="atom">   6761.44252427 </i>
    <i name="e_fr_energy">   -191.16707539 </i>
    <i name="e_wo_entrp">   -190.99319893 </i>
    <i name="e_0_energy">   -191.08013716 </i>
   </energy>
  </scstep>
  <structure>
   <crystal>
    <varray name="basis" >
     <v>       8.25397627       4.76585197       0.00000000 </v>
     <v>      -8.25001218       4.75898442       0.00000000 </v>
     <v>       0.00000000       0.00000000      30.00000000 </v>
    </varray>
    <i name="volume">   2357.96643689 </i>
    <varray name="rec_basis" >
     <v>       0.06054774       0.10496348       0.00000000 </v>
     <v>      -0.06063511       0.10501392       0.00000000 </v>
     <v>       0.00000000       0.00000000       0.03333333 </v>
    </varray>
   </crystal>
   <varray name="positions" >
    <v>       0.66769312       0.00238241       0.00007212 </v>
    <v>       0.66757315       0.66655233       0.00000525 </v>
    <v>       0.33190253       0.33106967      -0.00007773 </v>
    <v>       0.00523515      -0.00103521       0.00003800 </v>
    <v>       0.67294292       0.33436899      -0.00003069 </v>
    <v>       0.32263833       0.66656533      -0.00000925 </v>
    <v>       0.99906682       0.33891957      -0.00006029 </v>
    <v>       0.00617235       0.66682172       0.00000312 </v>
    <v>       0.32640487      -0.00609901       0.00005607 </v>
    <v>       0.11728698       0.22641677       0.94871443 </v>
    <v>       0.22702631       0.11770875       0.05219151 </v>
    <v>       0.10887706       0.55444519       0.94567515 </v>
    <v>       0.22421842       0.44064269       0.05152440 </v>
    <v>       0.11154705       0.88779936       0.94636529 </v>
    <v>       0.22111142       0.77869799       0.05435705 </v>
    <v>       0.44125949       0.22441257       0.94924724 </v>
    <v>       0.55743830       0.10676824       0.05125644 </v>
    <v>       0.44674970       0.55312519       0.95052769 </v>
    <v>       0.55272264       0.44753206       0.05008691 </v>
    <v>       0.45017624       0.89255029       0.94849148 </v>
    <v>       0.56020602       0.78007162       0.04945501 </v>
    <v>       0.77586082       0.21549178       0.94779929 </v>
    <v>       0.88341196       0.10872888       0.05078878 </v>
    <v>       0.77580847       0.55976780       0.94859661 </v>
    <v>       0.89046501       0.44544468       0.05359589 </v>
    <v>       0.77179163       0.88561287       0.94992010 </v>
    <v>       0.88262768       0.77345193       0.05141002 </v>
   </varray>
  </structure>
  <varray name="forces" >
   <v>      -0.06247898       0.10114209       0.02588023 </v>
   <v>       0.03084903       0.01291748       0.00082333 </v>
   <v>       0.04925150      -0.10342883      -0.02563134 </v>
   <v>       0.24712153       0.04770480       0.00361076 </v>
   <v>       0.16779005       0.19370758      -0.00417813 </v>
   <v>      -0.24913636      -0.14551195       0.00167050 </v>
   <v>      -0.29242435       0.11287208       0.01131772 </v>
   <v>       0.17722101       0.10261452       0.00051888 </v>
   <v>      -0.04571898      -0.31464625      -0.01080533 </v>
   <v>      -0.05147777      -0.03398942       0.06334875 </v>
   <v>       0.04770172       0.00010134       0.08413707 </v>
   <v>      -0.02207167      -0.01849372      -0.20336506 </v>
   <v>      -0.07270273       0.00012580      -0.01526782 </v>
   <v>       0.01919513      -0.04594396      -0.14111189 </v>
   <v>      -0.02946325      -0.01203467       0.20369057 </v>
   <v>       0.09744153      -0.00002806       0.10950333 </v>
   <v>      -0.05773136      -0.02870105      -0.06679996 </v>
   <v>      -0.11434557      -0.01760878       0.10339636 </v>
   <v>       0.06112374      -0.00555479      -0.04655400 </v>
   <v>      -0.03519932      -0.06461340       0.01549011 </v>
   <v>      -0.07184796      -0.08888728      -0.10751905 </v>
   <v>       0.02664590       0.04274856      -0.08663186 </v>
   <v>       0.04951029       0.08400394      -0.10296320 </v>
   <v>       0.06686342       0.04772368       0.01162624 </v>
   <v>      -0.03246944       0.04036473       0.13985365 </v>
   <v>       0.02342135       0.05763405       0.04827706 </v>
   <v>       0.07293153       0.03578152      -0.01231692 </v>
  </varray>
  <varray name="stress" >
   <v>       0.12284769       0.05285250      -0.04793626 </v>
   <v>       0.05285243       0.06933002       0.06572542 </v>
   <v>      -0.04793634       0.06572544      -1.03779891 </v>
  </varray>
  <energy>
   <i name="e_fr_energy">   -191.16707539 </i>
   <i name="e_wo_entrp">   -191.08013716 </i>
   <i name="e_0_energy">     -0.17387647 </i>
  </energy>
  <time name="totalsc">  261.25  261.95</time>
 </calculation>
 <calculation>
  <scstep>
   <time name="dav">   21.65   21.70</time>
   <time name="total">   22.16   22.22</time>
   <energy>
    <i name="alphaZ">     90.74805264 </i>
    <i name="ewald">  44892.80910589 </i>
    <i name="hartreedc"> -50905.53568981 </i>
    <i name="XCdc">   -233.37953059 </i>
    <i name="pawpsdc">   4081.27363494 </i>
    <i name="pawaedc">  -3497.12465598 </i>
    <i name="eentropy">     -0.18038846 </i>
    <i name="bandstr">  -1381.25542584 </i>
    <i name="atom">   6761.44252427 </i>
    <i name="e_fr_energy">   -191.20237294 </i>
    <i name="e_wo_entrp">   -191.02198448 </i>
    <i name="e_0_energy">   -191.11217871 </i>
   </energy>
  </scstep>
  <scstep>
   <time name="dav">   32.97   33.05</time>
   <time name="total">   33.48   33.57</time>
   <energy>
    <i name="e_fr_energy">   -191.24227795 </i>
    <i name="e_wo_entrp">   -191.06318262 </i>
    <i name="e_0_energy">   -191.15273028 </i>
   </energy>
  </scstep>
  <scstep>
   <time name="dav">   30.89   30.96</time>
   <time name="total">   31.39   31.48</time>
   <energy>
    <i name="e_fr_energy">   -191.20607758 </i>
    <i name="e_wo_entrp">   -191.02577013 </i>
    <i name="e_0_energy">   -191.11592386 </i>
   </energy>
  </scstep>
  <scstep>
   <time name="dav">   28.64   28.71</time>
   <time name="total">   29.15   29.22</time>
   <energy>
    <i name="e_fr_energy">   -191.20583936 </i>
    <i name="e_wo_entrp">   -191.02521739 </i>
    <i name="e_0_energy">   -191.11552837 </i>
   </energy>
  </scstep>
  <scstep>
   <time name="dav">   29.21   29.28</time>
   <time name="total">   29.72   29.79</time>
   <energy>
    <i name="e_fr_energy">   -191.20555278 </i>
    <i name="e_wo_entrp">   -191.02554679 </i>
    <i name="e_0_energy">   -191.11554978 </i>
   </energy>
  </scstep>
  <scstep>
   <time name="dav">   26.26   26.32</time>
   <time name="total">   26.77   26.84</time>
   <energy>
    <i name="e_fr_energy">   -191.20493904 </i>
    <i name="e_wo_entrp">   -191.02463718 </i>
    <i name="e_0_energy">   -191.11478811 </i>
   </energy>
  </scstep>
  <scstep>
   <time name="dav">   25.65   25.71</time>
   <time name="total">   25.69   25.76</time>
   <energy>
    <i name="alphaZ">     90.74805264 </i>
    <i name="ewald">  44892.80910589 </i>
    <i name="hartreedc"> -50906.42617713 </i>
    <i name="XCdc">   -233.35626690 </i>
    <i name="pawpsdc">   4080.97520354 </i>
    <i name="pawaedc">  -3496.81599316 </i>
    <i name="eentropy">     -0.18037534 </i>
    <i name="bandstr">  -1380.40098549 </i>
    <i name="atom">   6761.44252427 </i>
    <i name="e_fr_energy">   -191.20491168 </i>
    <i name="e_wo_entrp">   -191.02453634 </i>
[...]
      <set comment="kpoint 31">
       <r>  -17.5008    1.0000 </r>
       <r>  -17.3112    1.0000 </r>
       <r>  -16.8865    1.0000 </r>
       <r>  -16.5349    1.0000 </r>
       <r>  -16.4680    1.0000 </r>
       <r>  -16.4097    1.0000 </r>
       <r>  -16.2812    1.0000 </r>
       <r>  -16.1835    1.0000 </r>
       <r>  -16.1036    1.0000 </r>
       <r>  -16.0184    1.0000 </r>
       <r>  -15.9560    1.0000 </r>
       <r>  -15.8377    1.0000 </r>
       <r>  -15.7588    1.0000 </r>
       <r>  -15.6703    1.0000 </r>
       <r>  -15.6181    1.0000 </r>
       <r>  -15.5537    1.0000 </r>
       <r>  -15.4765    1.0000 </r>
       <r>  -15.4165    1.0000 </r>
       <r>   -9.7966    1.0000 </r>
       <r>   -9.4608    1.0000 </r>
       <r>   -9.3740    1.0000 </r>
       <r>   -8.9194    1.0000 </r>
       <r>   -8.7664    1.0000 </r>
       <r>   -8.7359    1.0000 </r>
       <r>   -8.6381    1.0000 </r>
       <r>   -8.4920    1.0000 </r>
       <r>   -8.3665    1.0000 </r>
       <r>   -8.3161    1.0000 </r>
       <r>   -8.2547    1.0000 </r>
       <r>   -8.1720    1.0000 </r>
       <r>   -8.1412    1.0000 </r>
       <r>   -8.0412    1.0000 </r>
       <r>   -7.9342    1.0000 </r>
       <r>   -7.8749    1.0000 </r>
       <r>   -7.7333    1.0000 </r>
       <r>   -7.5836    1.0000 </r>
       <r>   -7.5578    1.0000 </r>
       <r>   -7.4367    1.0000 </r>
       <r>   -7.2783    1.0000 </r>
       <r>   -7.2571    1.0000 </r>
       <r>   -7.0678    1.0000 </r>
       <r>   -6.9999    1.0000 </r>
       <r>   -6.9732    1.0000 </r>
       <r>   -6.8937    1.0000 </r>
       <r>   -6.8215    1.0000 </r>
       <r>   -6.7642    1.0000 </r>
       <r>   -6.7174    1.0000 </r>
       <r>   -6.6715    1.0000 </r>
       <r>   -6.6091    1.0000 </r>
       <r>   -6.4876    1.0000 </r>
       <r>   -6.4310    1.0000 </r>
       <r>   -6.3097    1.0000 </r>
       <r>   -6.2321    1.0000 </r>
       <r>   -6.1680    1.0000 </r>
       <r>   -6.0705    1.0000 </r>
       <r>   -5.9414    1.0000 </r>
       <r>   -5.9032    1.0000 </r>
       <r>   -5.8550    1.0000 </r>
       <r>   -5.8259    1.0000 </r>
       <r>   -5.7883    1.0000 </r>
       <r>   -5.7082    1.0000 </r>
       <r>   -5.6852    1.0000 </r>
       <r>   -5.5959    1.0000 </r>
       <r>   -5.5670    1.0000 </r>
       <r>   -5.3280    1.0000 </r>
       <r>   -5.1152    1.0000 </r>
       <r>   -4.9713    1.0000 </r>
       <r>   -4.9592    1.0000 </r>
       <r>   -4.8516    1.0000 </r>
       <r>   -4.7625    1.0000 </r>
       <r>   -4.5381    1.0000 </r>
       <r>   -4.3778    1.0000 </r>
       <r>   -4.3136    1.0000 </r>
       <r>   -3.8548    1.0000 </r>
       <r>   -3.7600    1.0000 </r>
       <r>   -3.5970    1.0000 </r>
       <r>   -3.5415    0.9999 </r>
       <r>   -3.4568    0.9989 </r>
       <r>   -3.2175    0.9127 </r>
       <r>   -3.0379    0.5348 </r>
       <r>   -2.9755    0.3617 </r>
       <r>   -2.7019    0.0110 </r>
       <r>   -2.6369    0.0030 </r>
       <r>   -2.5816    0.0008 </r>
       <r>   -2.4623    0.0000 </r>
       <r>   -2.4172    0.0000 </r>
       <r>   -2.3418    0.0000 </r>
       <r>   -2.3189    0.0000 </r>
       <r>   -2.1968    0.0000 </r>
       <r>   -2.1001    0.0000 </r>
       <r>   -1.8727    0.0000 </r>
       <r>   -1.7379    0.0000 </r>
       <r>   -1.6658    0.0000 </r>
       <r>   -1.3478    0.0000 </r>
       <r>   -1.2265    0.0000 </r>
       <r>   -1.0577    0.0000 </r>
       <r>   -0.8746    0.0000 </r>
       <r>   -0.8592    0.0000 </r>
       <r>   -0.7785    0.0000 </r>
       <r>   -0.7080    0.0000 </r>
       <r>   -0.6796    0.0000 </r>
       <r>   -0.5954    0.0000 </r>
       <r>   -0.5506    0.0000 </r>
       <r>   -0.4647    0.0000 </r>
       <r>   -0.3801    0.0000 </r>
       <r>   -0.3072    0.0000 </r>
       <r>   -0.0698    0.0000 </r>
       <r>   -0.0365    0.0000 </r>
       <r>    0.1491    0.0000 </r>
       <r>    0.2496    0.0000 </r>
       <r>    0.4582    0.0000 </r>
       <r>    0.6345    0.0000 </r>
       <r>    0.6807    0.0000 </r>
       <r>    1.0905    0.0000 </r>
       <r>    1.3974    0.0000 </r>
       <r>    1.4333    0.0000 </r>
       <r>    1.7199    0.0000 </r>
       <r>    2.1816    0.0000 </r>
       <r>    2.3192    0.0000 </r>
       <r>    2.4452    0.0000 </r>
      </set>
      <set comment="kpoint 32">
       <r>  -17.5340    1.0000 </r>
       <r>  -17.2088    1.0000 </r>
       <r>  -17.0124    1.0000 </r>
       <r>  -16.5439    1.0000 </r>
       <r>  -16.4205    1.0000 </r>
       <r>  -16.3258    1.0000 </r>
       <r>  -16.2327    1.0000 </r>
       <r>  -16.2017    1.0000 </r>
       <r>  -16.1510    1.0000 </r>
       <r>  -16.0285    1.0000 </r>
       <r>  -15.9441    1.0000 </r>
       <r>  -15.9107    1.0000 </r>
       <r>  -15.7792    1.0000 </r>
       <r>  -15.6608    1.0000 </r>
       <r>  -15.6242    1.0000 </r>
       <r>  -15.5252    1.0000 </r>
       <r>  -15.4764    1.0000 </r>
       <r>  -15.4067    1.0000 </r>
       <r>   -9.7139    1.0000 </r>
       <r>   -9.5890    1.0000 </r>
       <r>   -9.4136    1.0000 </r>
       <r>   -8.9755    1.0000 </r>
       <r>   -8.6646    1.0000 </r>
       <r>   -8.6167    1.0000 </r>
       <r>   -8.5218    1.0000 </r>
       <r>   -8.3910    1.0000 </r>
       <r>   -8.3426    1.0000 </r>
       <r>   -8.2983    1.0000 </r>
       <r>   -8.2824    1.0000 </r>
       <r>   -8.2416    1.0000 </r>
       <r>   -8.1958    1.0000 </r>
       <r>   -8.1245    1.0000 </r>
       <r>   -8.1065    1.0000 </r>
       <r>   -7.9119    1.0000 </r>
       <r>   -7.7982    1.0000 </r>
       <r>   -7.5462    1.0000 </r>
       <r>   -7.4739    1.0000 </r>
       <r>   -7.3107    1.0000 </r>
       <r>   -7.2770    1.0000 </r>
       <r>   -7.2421    1.0000 </r>
       <r>   -7.1190    1.0000 </r>
       <r>   -7.0528    1.0000 </r>
       <r>   -6.9964    1.0000 </r>
       <r>   -6.9386    1.0000 </r>
       <r>   -6.8143    1.0000 </r>
       <r>   -6.7607    1.0000 </r>
       <r>   -6.6968    1.0000 </r>
       <r>   -6.6334    1.0000 </r>
       <r>   -6.5581    1.0000 </r>
       <r>   -6.5210    1.0000 </r>
       <r>   -6.4394    1.0000 </r>
       <r>   -6.3507    1.0000 </r>
       <r>   -6.3055    1.0000 </r>
       <r>   -6.1956    1.0000 </r>
       <r>   -6.0773    1.0000 </r>
       <r>   -5.9566    1.0000 </r>
       <r>   -5.9076    1.0000 </r>
       <r>   -5.8581    1.0000 </r>
       <r>   -5.8332    1.0000 </r>
       <r>   -5.7095    1.0000 </r>
       <r>   -5.6729    1.0000 </r>
       <r>   -5.5266    1.0000 </r>
       <r>   -5.4600    1.0000 </r>
       <r>   -5.3783    1.0000 </r>
       <r>   -5.3426    1.0000 </r>
       <r>   -5.2853    1.0000 </r>
       <r>   -5.1360    1.0000 </r>
       <r>   -5.0431    1.0000 </r>
       <r>   -4.9638    1.0000 </r>
       <r>   -4.7375    1.0000 </r>
       <r>   -4.5417    1.0000 </r>
       <r>   -4.4251    1.0000 </r>
       <r>   -4.1163    1.0000 </r>
       <r>   -3.9625    1.0000 </r>
       <r>   -3.7518    1.0000 </r>
       <r>   -3.6208    1.0000 </r>
       <r>   -3.5240    0.9998 </r>
       <r>   -3.4562    0.9988 </r>
       <r>   -3.2011    0.8928 </r>
       <r>   -2.9995    0.4270 </r>
       <r>   -2.8786    0.1493 </r>
       <r>   -2.6894    0.0087 </r>
       <r>   -2.6627    0.0051 </r>
       <r>   -2.5473    0.0004 </r>
       <r>   -2.4741    0.0000 </r>
       <r>   -2.4432    0.0000 </r>
       <r>   -2.3892    0.0000 </r>
       <r>   -2.3197    0.0000 </r>
       <r>   -2.2345    0.0000 </r>
       <r>   -2.1142    0.0000 </r>
       <r>   -1.8642    0.0000 </r>
       <r>   -1.7497    0.0000 </r>
       <r>   -1.5594    0.0000 </r>
       <r>   -1.3527    0.0000 </r>
       <r>   -1.2443    0.0000 </r>
       <r>   -1.0904    0.0000 </r>
       <r>   -0.9108    0.0000 </r>
       <r>   -0.8546    0.0000 </r>
       <r>   -0.7938    0.0000 </r>
       <r>   -0.7347    0.0000 </r>
       <r>   -0.6884    0.0000 </r>
       <r>   -0.6321    0.0000 </r>
       <r>   -0.5722    0.0000 </r>
       <r>   -0.4520    0.0000 </r>
       <r>   -0.2542    0.0000 </r>
       <r>   -0.2139    0.0000 </r>
       <r>   -0.1092    0.0000 </r>
       <r>   -0.0035    0.0000 </r>
       <r>    0.0312    0.0000 </r>
       <r>    0.2511    0.0000 </r>
       <r>    0.4016    0.0000 </r>
       <r>    0.6442    0.0000 </r>
       <r>    0.7344    0.0000 </r>
       <r>    1.1725    0.0000 </r>
       <r>    1.3265    0.0000 </r>
       <r>    1.3879    0.0000 </r>
       <r>    1.6839    0.0000 </r>
       <r>    2.1461    0.0000 </r>
       <r>    2.2853    0.0000 </r>
       <r>    2.6238    0.0000 </r>
      </set>
      <set comment="kpoint 33">
       <r>  -17.5301    1.0000 </r>
       <r>  -17.2674    1.0000 </r>
       <r>  -16.9012    1.0000 </r>
       <r>  -16.5488    1.0000 </r>
       <r>  -16.4536    1.0000 </r>
       <r>  -16.4115    1.0000 </r>
       <r>  -16.2668    1.0000 </r>
       <r>  -16.1824    1.0000 </r>
       <r>  -16.0896    1.0000 </r>
       <r>  -16.0278    1.0000 </r>
       <r>  -15.9496    1.0000 </r>
       <r>  -15.8437    1.0000 </r>
       <r>  -15.7989    1.0000 </r>
       <r>  -15.6542    1.0000 </r>
       <r>  -15.6212    1.0000 </r>
       <r>  -15.5350    1.0000 </r>
       <r>  -15.4725    1.0000 </r>
       <r>  -15.4345    1.0000 </r>
       <r>   -9.7779    1.0000 </r>
       <r>   -9.4742    1.0000 </r>
       <r>   -9.3328    1.0000 </r>
       <r>   -9.0171    1.0000 </r>
       <r>   -8.8152    1.0000 </r>
       <r>   -8.7174    1.0000 </r>
       <r>   -8.5410    1.0000 </r>
       <r>   -8.4288    1.0000 </r>
       <r>   -8.3637    1.0000 </r>
       <r>   -8.3065    1.0000 </r>
       <r>   -8.2623    1.0000 </r>
       <r>   -8.2015    1.0000 </r>
       <r>   -8.1370    1.0000 </r>
       <r>   -8.0583    1.0000 </r>
       <r>   -7.9412    1.0000 </r>
       <r>   -7.8771    1.0000 </r>
       <r>   -7.8222    1.0000 </r>
       <r>   -7.5859    1.0000 </r>
       <r>   -7.5588    1.0000 </r>
       <r>   -7.3643    1.0000 </r>
       <r>   -7.2617    1.0000 </r>
       <r>   -7.1772    1.0000 </r>
       <r>   -7.1425    1.0000 </r>
       <r>   -7.0430    1.0000 </r>
       <r>   -6.9763    1.0000 </r>
       <r>   -6.8842    1.0000 </r>
       <r>   -6.8123    1.0000 </r>
       <r>   -6.7492    1.0000 </r>
       <r>   -6.7084    1.0000 </r>
       <r>   -6.6475    1.0000 </r>
       <r>   -6.5836    1.0000 </r>
       <r>   -6.5157    1.0000 </r>
       <r>   -6.3905    1.0000 </r>
       <r>   -6.3275    1.0000 </r>
       <r>   -6.3039    1.0000 </r>
       <r>   -6.1234    1.0000 </r>
       <r>   -6.0542    1.0000 </r>
       <r>   -5.9606    1.0000 </r>
       <r>   -5.9323    1.0000 </r>
       <r>   -5.8818    1.0000 </r>
       <r>   -5.8331    1.0000 </r>
       <r>   -5.8051    1.0000 </r>
       <r>   -5.7116    1.0000 </r>
       <r>   -5.6698    1.0000 </r>
       <r>   -5.6287    1.0000 </r>
       <r>   -5.5596    1.0000 </r>
       <r>   -5.2802    1.0000 </r>
       <r>   -5.1089    1.0000 </r>
       <r>   -5.0742    1.0000 </r>
       <r>   -4.9346    1.0000 </r>
       <r>   -4.8526    1.0000 </r>
       <r>   -4.7374    1.0000 </r>
       <r>   -4.5106    1.0000 </r>
       <r>   -4.3896    1.0000 </r>
       <r>   -4.2375    1.0000 </r>
       <r>   -3.9645    1.0000 </r>
       <r>   -3.7233    1.0000 </r>
       <r>   -3.6442    1.0000 </r>
       <r>   -3.5369    0.9999 </r>
       <r>   -3.3909    0.9951 </r>
       <r>   -3.1985    0.8893 </r>
       <r>   -3.0599    0.5958 </r>
       <r>   -2.9411    0.2752 </r>
       <r>   -2.7144    0.0139 </r>
       <r>   -2.6527    0.0042 </r>
       <r>   -2.5011    0.0001 </r>
       <r>   -2.4718    0.0000 </r>
       <r>   -2.4010    0.0000 </r>
       <r>   -2.3692    0.0000 </r>
       <r>   -2.3146    0.0000 </r>
       <r>   -2.2243    0.0000 </r>
       <r>   -2.1385    0.0000 </r>
       <r>   -1.8254    0.0000 </r>
       <r>   -1.7608    0.0000 </r>
       <r>   -1.4698    0.0000 </r>
       <r>   -1.3716    0.0000 </r>
       <r>   -1.2578    0.0000 </r>
       <r>   -1.1172    0.0000 </r>
       <r>   -0.9681    0.0000 </r>
       <r>   -0.8385    0.0000 </r>
       <r>   -0.7817    0.0000 </r>
       <r>   -0.7337    0.0000 </r>
       <r>   -0.6748    0.0000 </r>
       <r>   -0.6384    0.0000 </r>
       <r>   -0.5971    0.0000 </r>
       <r>   -0.4915    0.0000 </r>
       <r>   -0.3101    0.0000 </r>
       <r>   -0.2550    0.0000 </r>
       <r>   -0.2196    0.0000 </r>
       <r>   -0.0084    0.0000 </r>
       <r>    0.0515    0.0000 </r>
       <r>    0.3223    0.0000 </r>
       <r>    0.5199    0.0000 </r>
       <r>    0.6338    0.0000 </r>
       <r>    0.7891    0.0000 </r>
       <r>    1.2152    0.0000 </r>
       <r>    1.2830    0.0000 </r>
       <r>    1.3908    0.0000 </r>
       <r>    1.6609    0.0000 </r>
       <r>    2.1757    0.0000 </r>
       <r>    2.3170    0.0000 </r>
       <r>    2.4319    0.0000 </r>
      </set>
      <set comment="kpoint 34">
       <r>  -17.5170    1.0000 </r>
       <r>  -17.3181    1.0000 </r>
       <r>  -16.7473    1.0000 </r>
       <r>  -16.6187    1.0000 </r>
       <r>  -16.5435    1.0000 </r>
       <r>  -16.4213    1.0000 </r>
       <r>  -16.2506    1.0000 </r>
       <r>  -16.1952    1.0000 </r>
       <r>  -16.0833    1.0000 </r>
       <r>  -16.0131    1.0000 </r>
       <r>  -15.9443    1.0000 </r>
       <r>  -15.8233    1.0000 </r>
       <r>  -15.7254    1.0000 </r>
       <r>  -15.6782    1.0000 </r>
       <r>  -15.6501    1.0000 </r>
       <r>  -15.5145    1.0000 </r>
       <r>  -15.4838    1.0000 </r>
       <r>  -15.4623    1.0000 </r>
       <r>   -9.8170    1.0000 </r>
       <r>   -9.3591    1.0000 </r>
       <r>   -9.2127    1.0000 </r>
       <r>   -9.0744    1.0000 </r>
       <r>   -8.9776    1.0000 </r>
       <r>   -8.8145    1.0000 </r>
       <r>   -8.5649    1.0000 </r>
       <r>   -8.4243    1.0000 </r>
       <r>   -8.3792    1.0000 </r>
       <r>   -8.3147    1.0000 </r>
       <r>   -8.2655    1.0000 </r>
       <r>   -8.1671    1.0000 </r>
       <r>   -8.1354    1.0000 </r>
       <r>   -7.9439    1.0000 </r>
       <r>   -7.8868    1.0000 </r>
       <r>   -7.8467    1.0000 </r>
       <r>   -7.7617    1.0000 </r>
       <r>   -7.6204    1.0000 </r>
       <r>   -7.5562    1.0000 </r>
       <r>   -7.4386    1.0000 </r>
       <r>   -7.2765    1.0000 </r>
       <r>   -7.2488    1.0000 </r>
       <r>   -7.1167    1.0000 </r>
       <r>   -7.0483    1.0000 </r>
       <r>   -6.9201    1.0000 </r>
       <r>   -6.8815    1.0000 </r>
       <r>   -6.8171    1.0000 </r>
       <r>   -6.7418    1.0000 </r>
       <r>   -6.6936    1.0000 </r>
       <r>   -6.6234    1.0000 </r>
       <r>   -6.5613    1.0000 </r>
       <r>   -6.4598    1.0000 </r>
       <r>   -6.3662    1.0000 </r>
       <r>   -6.3228    1.0000 </r>
       <r>   -6.2701    1.0000 </r>
       <r>   -6.1161    1.0000 </r>
       <r>   -6.1055    1.0000 </r>
       <r>   -6.0235    1.0000 </r>
       <r>   -6.0098    1.0000 </r>
       <r>   -5.8775    1.0000 </r>
       <r>   -5.8297    1.0000 </r>
       <r>   -5.7781    1.0000 </r>
       <r>   -5.7540    1.0000 </r>
       <r>   -5.7161    1.0000 </r>
       <r>   -5.6954    1.0000 </r>
       <r>   -5.6206    1.0000 </r>
       <r>   -5.4024    1.0000 </r>
       <r>   -5.0617    1.0000 </r>
       <r>   -4.9718    1.0000 </r>
       <r>   -4.8616    1.0000 </r>
       <r>   -4.7260    1.0000 </r>
       <r>   -4.6319    1.0000 </r>
       <r>   -4.5045    1.0000 </r>
       <r>   -4.4788    1.0000 </r>
       <r>   -4.3107    1.0000 </r>
       <r>   -3.9372    1.0000 </r>
       <r>   -3.7018    1.0000 </r>
       <r>   -3.6820    1.0000 </r>
       <r>   -3.5647    0.9999 </r>
       <r>   -3.2885    0.9685 </r>
       <r>   -3.2016    0.8934 </r>
       <r>   -3.1366    0.7839 </r>
       <r>   -3.0178    0.4780 </r>
       <r>   -2.7292    0.0180 </r>
       <r>   -2.6428    0.0034 </r>
       <r>   -2.4950    0.0001 </r>
       <r>   -2.4741    0.0000 </r>
       <r>   -2.3518    0.0000 </r>
       <r>   -2.3472    0.0000 </r>
       <r>   -2.2777    0.0000 </r>
       <r>   -2.2099    0.0000 </r>
       <r>   -2.1772    0.0000 </r>
       <r>   -1.7916    0.0000 </r>
       <r>   -1.7726    0.0000 </r>
       <r>   -1.4249    0.0000 </r>
       <r>   -1.3958    0.0000 </r>
       <r>   -1.2620    0.0000 </r>
       <r>   -1.1268    0.0000 </r>
       <r>   -0.9947    0.0000 </r>
       <r>   -0.8270    0.0000 </r>
       <r>   -0.7672    0.0000 </r>
       <r>   -0.7466    0.0000 </r>
       <r>   -0.6515    0.0000 </r>
       <r>   -0.6124    0.0000 </r>
       <r>   -0.5851    0.0000 </r>
       <r>   -0.5045    0.0000 </r>
       <r>   -0.4069    0.0000 </r>
       <r>   -0.3352    0.0000 </r>
       <r>   -0.3192    0.0000 </r>
       <r>    0.0531    0.0000 </r>
       <r>    0.0752    0.0000 </r>
       <r>    0.4455    0.0000 </r>
       <r>    0.4935    0.0000 </r>
       <r>    0.6267    0.0000 </r>
       <r>    0.8316    0.0000 </r>
       <r>    1.2172    0.0000 </r>
       <r>    1.2738    0.0000 </r>
       <r>    1.4150    0.0000 </r>
       <r>    1.6528    0.0000 </r>
       <r>    2.2654    0.0000 </r>
       <r>    2.2759    0.0000 </r>
       <r>    2.4017    0.0000 </r>
      </set>
     </set>
    </set>
   </array>
  </eigenvalues>
  <separator name="orbital magnetization" >
   <v name="MAGDIPOLOUT">      0.00000000      0.00000000      0.00000000</v>
  </separator>
 </calculation>
 <structure name="finalpos" >
  <crystal>
   <varray name="basis" >
    <v>       8.29034400       4.78955514       0.00000000 </v>
    <v>      -8.27090385       4.75586526       0.00000000 </v>
    <v>       0.00000000       0.00000000      30.00000000 </v>
   </varray>
   <i name="volume">   2371.25127096 </i>
   <varray name="rec_basis" >
    <v>       0.06016906       0.10463974       0.00000000 </v>
    <v>      -0.06059529       0.10488569       0.00000000 </v>
    <v>       0.00000000       0.00000000       0.03333333 </v>
   </varray>
  </crystal>
  <varray name="positions" >
   <v>       0.66210867      -0.00073083       0.00016645 </v>
   <v>       0.66983517       0.66765098      -0.00006430 </v>
   <v>       0.32745375       0.33247875      -0.00010622 </v>
   <v>       0.00658567       0.00854828       0.00032407 </v>
   <v>       0.66363385       0.32459220      -0.00033923 </v>
   <v>       0.31318774       0.66703020       0.00001768 </v>
   <v>       1.00848404       0.34412335      -0.00024360 </v>
   <v>       0.01822596       0.66801935      -0.00000770 </v>
   <v>       0.32824219      -0.01245281       0.00029444 </v>
   <v>       0.11877394       0.22882063       0.94754760 </v>
   <v>       0.22924473       0.11863571       0.05167797 </v>
   <v>       0.10833568       0.55422663       0.94368516 </v>
   <v>       0.22502391       0.44342061       0.05228949 </v>
   <v>       0.11115011       0.88817605       0.94702761 </v>
   <v>       0.22069994       0.77884896       0.05657310 </v>
   <v>       0.43814514       0.22117386       0.94979255 </v>
   <v>       0.55611576       0.10395556       0.05211670 </v>
   <v>       0.44551079       0.55615672       0.95158246 </v>
   <v>       0.55235781       0.44596688       0.04934087 </v>
   <v>       0.44794836       0.89000017       0.94776560 </v>
   <v>       0.55613817       0.77702691       0.04865868 </v>
   <v>       0.77725614       0.21417378       0.94857579 </v>
   <v>       0.88373565       0.11163326       0.05028639 </v>
   <v>       0.77915410       0.55869575       0.95027308 </v>
   <v>       0.89011630       0.44539313       0.05247719 </v>
   <v>       0.77357727       0.88764719       0.95040799 </v>
   <v>       0.88717362       0.77500318       0.04988009 </v>
  </varray>
 </structure>
</modeling>
