       N       E                     dE             d eps       ncg     rms          rms(c)
DAV:   1     0.112568105381E+04    0.11257E+04   -0.35982E+04  8160   0.577E+02
DAV:   2    -0.219634793754E+01   -0.11279E+04   -0.10882E+04 10960   0.173E+02
DAV:   3    -0.199629683273E+03   -0.19743E+03   -0.18927E+03 10960   0.820E+01
DAV:   4    -0.208940747531E+03   -0.93111E+01   -0.89883E+01 11920   0.260E+01
DAV:   5    -0.209286836501E+03   -0.34609E+00   -0.34510E+00 11640   0.376E+00    0.275E+01
DAV:   6    -0.236748027082E+03   -0.27461E+02   -0.11024E+02 12520   0.603E+01    0.594E+01
DAV:   7    -0.196695375401E+03    0.40053E+02   -0.17916E+02 13440   0.152E+02    0.203E+01
DAV:   8    -0.190043254135E+03    0.66521E+01   -0.20755E+01 12000   0.134E+01    0.136E+01
DAV:   9    -0.188247683000E+03    0.17956E+01   -0.31198E+00 11760   0.628E+00    0.921E+00
DAV:  10    -0.187059819217E+03    0.11879E+01   -0.18285E+00 13400   0.774E+00    0.300E+00
DAV:  11    -0.187001358198E+03    0.58461E-01   -0.63030E-01 12840   0.249E+00    0.256E+00
DAV:  12    -0.187127752141E+03   -0.12639E+00   -0.69421E-01 12720   0.464E+00    0.514E+00
DAV:  13    -0.186914331758E+03    0.21342E+00   -0.56173E-01 12800   0.399E+00    0.198E+00
DAV:  14    -0.186901838039E+03    0.12494E-01   -0.13004E-01 13040   0.220E+00    0.190E+00
DAV:  15    -0.186872945675E+03    0.28892E-01   -0.68627E-02 12480   0.163E+00    0.731E-01
DAV:  16    -0.186868359995E+03    0.45857E-02   -0.96482E-03 12480   0.368E-01    0.450E-01
DAV:  17    -0.186866045586E+03    0.23144E-02   -0.74916E-03 12920   0.365E-01    0.198E-01
DAV:  18    -0.186865491450E+03    0.55414E-03   -0.18121E-03 11560   0.126E-01    0.141E-01
DAV:  19    -0.186865316065E+03    0.17538E-03   -0.64086E-04  9960   0.107E-01    0.446E-02
DAV:  20    -0.186866148138E+03   -0.83207E-03   -0.75806E-04  9160   0.506E-02    0.379E-02
DAV:  21    -0.186866781672E+03   -0.63353E-03   -0.19509E-04  8320   0.392E-02    0.358E-02
DAV:  22    -0.186867863148E+03   -0.10815E-02   -0.17094E-04  7640   0.473E-02    0.382E-02
DAV:  23    -0.186869023060E+03   -0.11599E-02   -0.13399E-04  7560   0.456E-02    0.145E-02
DAV:  24    -0.186869617389E+03   -0.59433E-03   -0.29517E-05  6680   0.161E-02    0.456E-03
DAV:  25    -0.186869970089E+03   -0.35270E-03   -0.15829E-05  5600   0.936E-03    0.410E-03
DAV:  26    -0.186870216361E+03   -0.24627E-03   -0.94153E-06  6760   0.702E-03    0.155E-03
DAV:  27    -0.186870305268E+03   -0.88906E-04   -0.32789E-06  7280   0.417E-03
   1 F= -.18687031E+03 E0= -.18669833E+03  d E =-.186870E+03
       N       E                     dE             d eps       ncg     rms          rms(c)
DAV:   1    -0.187506944278E+03   -0.63673E+00   -0.27168E+02  8160   0.350E+01    0.462E+00
DAV:   2    -0.189393677823E+03   -0.18867E+01   -0.20194E+01 12240   0.152E+01    0.891E+00
DAV:   3    -0.189401613902E+03   -0.79361E-02   -0.45621E+00 12320   0.122E+01    0.675E+00
DAV:   4    -0.188785383159E+03    0.61623E+00   -0.62325E-01 12400   0.477E+00    0.218E+00
DAV:   5    -0.188893475511E+03   -0.10809E+00   -0.45467E-01 11240   0.377E+00    0.532E+00
DAV:   6    -0.188758247561E+03    0.13523E+00   -0.75225E-01 12640   0.418E+00    0.226E+00
DAV:   7    -0.188711961159E+03    0.46286E-01   -0.20959E-01 11640   0.172E+00    0.175E+00
DAV:   8    -0.188711121817E+03    0.83934E-03   -0.14252E-01 12920   0.217E+00    0.203E+00
DAV:   9    -0.188680412391E+03    0.30709E-01   -0.49699E-02 12000   0.125E+00    0.500E-01
DAV:  10    -0.188677560992E+03    0.28514E-02   -0.62801E-03 11200   0.284E-01    0.297E-01
DAV:  11    -0.188677115244E+03    0.44575E-03   -0.32812E-03 12880   0.241E-01    0.135E-01
DAV:  12    -0.188676998687E+03    0.11656E-03   -0.11509E-03 11800   0.108E-01    0.968E-02
DAV:  13    -0.188677013607E+03   -0.14920E-04   -0.25415E-04  7400   0.649E-02
   2 F= -.18867701E+03 E0= -.18853549E+03  d E =-.180671E+01
       N       E                     dE             d eps       ncg     rms          rms(c)
DAV:   1    -0.190595000655E+03   -0.19180E+01   -0.31141E+01  9120   0.142E+01    0.444E+00
DAV:   2    -0.190557756272E+03    0.37244E-01   -0.27956E+00 11200   0.950E+00    0.732E+00
DAV:   3    -0.190080814218E+03    0.47694E+00   -0.13984E+00 12360   0.858E+00    0.423E+00
DAV:   4    -0.189876657978E+03    0.20416E+00   -0.76208E-01 12720   0.420E+00    0.265E+00
DAV:   5    -0.189916565010E+03   -0.39907E-01   -0.47480E-01 12240   0.403E+00    0.374E+00
DAV:   6    -0.189772458868E+03    0.14411E+00   -0.21527E-01 12280   0.315E+00    0.678E-01
DAV:   7    -0.189765793031E+03    0.66658E-02   -0.16768E-02 12160   0.514E-01    0.248E-01
DAV:   8    -0.189766795483E+03   -0.10025E-02   -0.48165E-03 11680   0.385E-01    0.393E-01
DAV:   9    -0.189765738564E+03    0.10569E-02   -0.26298E-03 10800   0.332E-01    0.147E-01
DAV:  10    -0.189765938978E+03   -0.20041E-03   -0.91174E-04 10200   0.126E-01    0.125E-01
DAV:  11    -0.189765761603E+03    0.17738E-03   -0.43726E-04  8680   0.745E-02    0.170E-02
DAV:  12    -0.189765782081E+03   -0.20479E-04   -0.63029E-05  7440   0.246E-02
   3 F= -.18976578E+03 E0= -.18964551E+03  d E =-.108877E+01
       N       E                     dE             d eps       ncg     rms          rms(c)
DAV:   1    -0.191335565282E+03   -0.15698E+01   -0.76298E+01  8160   0.199E+01    0.461E+00
DAV:   2    -0.191178589828E+03    0.15698E+00   -0.54245E+00 13200   0.789E+00    0.483E+00
DAV:   3    -0.191283702093E+03   -0.10511E+00   -0.16095E+00 12240   0.913E+00    0.650E+00
DAV:   4    -0.190883101672E+03    0.40060E+00   -0.12624E+00 12840   0.734E+00    0.269E+00
DAV:   5    -0.190805112260E+03    0.77989E-01   -0.33650E-01 12280   0.296E+00    0.208E+00
DAV:   6    -0.190775151348E+03    0.29961E-01   -0.17433E-01 12560   0.275E+00    0.158E+00
DAV:   7    -0.190755246431E+03    0.19905E-01   -0.60668E-02 11800   0.146E+00    0.476E-01
DAV:   8    -0.190752357508E+03    0.28889E-02   -0.88410E-03 11720   0.463E-01    0.321E-01
DAV:   9    -0.190751776278E+03    0.58123E-03   -0.28542E-03 11240   0.367E-01    0.215E-01
DAV:  10    -0.190751892667E+03   -0.11639E-03   -0.15315E-03 11360   0.209E-01    0.138E-01
DAV:  11    -0.190751667898E+03    0.22477E-03   -0.91877E-04 10000   0.111E-01    0.471E-02
DAV:  12    -0.190751663610E+03    0.42886E-05   -0.14167E-04  7480   0.442E-02
   4 F= -.19075166E+03 E0= -.19064661E+03  d E =-.985882E+00
       N       E                     dE             d eps       ncg     rms          rms(c)
DAV:   1    -0.192124343105E+03   -0.13727E+01   -0.16503E+02  8160   0.287E+01    0.571E+00
DAV:   2    -0.191856757711E+03    0.26759E+00   -0.95752E+00 11280   0.814E+00    0.381E+00
DAV:   3    -0.191993270620E+03   -0.13651E+00   -0.20047E+00 11880   0.847E+00    0.731E+00
DAV:   4    -0.191749643700E+03    0.24363E+00   -0.24438E+00 11480   0.106E+01    0.452E+00
DAV:   5    -0.191582209494E+03    0.16743E+00   -0.76146E-01 12280   0.572E+00    0.340E+00
DAV:   6    -0.191438358458E+03    0.14385E+00   -0.27071E-01 12320   0.375E+00    0.120E+00
DAV:   7    -0.191430976333E+03    0.73821E-02   -0.73818E-02 12320   0.145E+00    0.862E-01
DAV:   8    -0.191428765485E+03    0.22108E-02   -0.35441E-02 12080   0.125E+00    0.776E-01
DAV:   9    -0.191422104698E+03    0.66608E-02   -0.10650E-02 12440   0.698E-01    0.182E-01
DAV:  10    -0.191422407481E+03   -0.30278E-03   -0.23495E-03 11040   0.179E-01    0.109E-01
DAV:  11    -0.191422254983E+03    0.15250E-03   -0.65311E-04 11120   0.975E-02    0.544E-02
DAV:  12    -0.191422238929E+03    0.16054E-04   -0.10680E-04  7000   0.454E-02
   5 F= -.19142224E+03 E0= -.19131961E+03  d E =-.670575E+00
       N       E                     dE             d eps       ncg     rms          rms(c)
DAV:   1    -0.191493475522E+03   -0.71221E-01   -0.59811E+00  8160   0.516E+00    0.682E-01
DAV:   2    -0.191564650826E+03   -0.71175E-01   -0.31961E-01 13520   0.317E+00    0.239E+00
DAV:   3    -0.191507421183E+03    0.57230E-01   -0.12090E-01 12360   0.243E+00    0.497E-01
DAV:   4    -0.191509207307E+03   -0.17861E-02   -0.18473E-02 11400   0.871E-01    0.690E-01
DAV:   5    -0.191504533327E+03    0.46740E-02   -0.10501E-02 11480   0.680E-01    0.224E-01
DAV:   6    -0.191504407316E+03    0.12601E-03   -0.27511E-03 10520   0.245E-01    0.193E-01
DAV:   7    -0.191504997994E+03   -0.59068E-03   -0.36638E-03 11520   0.399E-01    0.337E-01
DAV:   8    -0.191503881719E+03    0.11163E-02   -0.20090E-03  9520   0.295E-01    0.413E-02
DAV:   9    -0.191503893758E+03   -0.12039E-04   -0.10399E-04  5800   0.419E-02
   6 F= -.19150389E+03 E0= -.19139890E+03  d E =-.816548E-01
       N       E                     dE             d eps       ncg     rms          rms(c)
DAV:   1    -0.191550476379E+03   -0.46595E-01   -0.22955E+00  8160   0.318E+00    0.364E-01
DAV:   2    -0.191566266224E+03   -0.15790E-01   -0.75985E-02 13600   0.130E+00    0.112E+00
DAV:   3    -0.191553660490E+03    0.12606E-01   -0.31309E-02 12240   0.121E+00    0.326E-01
DAV:   4    -0.191554139442E+03   -0.47895E-03   -0.63377E-03 11080   0.496E-01    0.399E-01
DAV:   5    -0.191552595897E+03    0.15435E-02   -0.36004E-03 11040   0.401E-01    0.124E-01
DAV:   6    -0.191552546716E+03    0.49181E-04   -0.79580E-04 10080   0.121E-01
   7 F= -.19155255E+03 E0= -.19144676E+03  d E =-.486530E-01
       N       E                     dE             d eps       ncg     rms          rms(c)
DAV:   1    -0.191522309360E+03    0.30287E-01   -0.81049E-01  8160   0.190E+00    0.242E-01
DAV:   2    -0.191531602440E+03   -0.92931E-02   -0.35054E-02 13520   0.106E+00    0.875E-01
DAV:   3    -0.191523339901E+03    0.82625E-02   -0.13772E-02 11360   0.859E-01    0.175E-01
DAV:   4    -0.191523576615E+03   -0.23671E-03   -0.19333E-03  9880   0.290E-01    0.222E-01
DAV:   5    -0.191523066209E+03    0.51041E-03   -0.10633E-03 10160   0.221E-01    0.682E-02
DAV:   6    -0.191523064780E+03    0.14288E-05   -0.22318E-04  6400   0.791E-02
   8 F= -.19152306E+03 E0= -.19141775E+03  d E =0.294819E-01
       N       E                     dE             d eps       ncg     rms          rms(c)
DAV:   1    -0.191381288843E+03    0.14178E+00   -0.18885E+01  8160   0.922E+00    0.995E-01
DAV:   2    -0.191476260987E+03   -0.94972E-01   -0.57547E-01 12880   0.319E+00    0.244E+00
DAV:   3    -0.191409847616E+03    0.66413E-01   -0.13898E-01 11920   0.276E+00    0.849E-01
DAV:   4    -0.191412338124E+03   -0.24905E-02   -0.36191E-02 12120   0.122E+00    0.105E+00
DAV:   5    -0.191401998482E+03    0.10340E-01   -0.25537E-02 11320   0.111E+00    0.353E-01
DAV:   6    -0.191401965480E+03    0.33003E-04   -0.64153E-03 11000   0.396E-01    0.269E-01
DAV:   7    -0.191401439113E+03    0.52637E-03   -0.47907E-03 12880   0.426E-01    0.316E-01
DAV:   8    -0.191400515575E+03    0.92354E-03   -0.20713E-03  9960   0.303E-01    0.701E-02
DAV:   9    -0.191400488831E+03    0.26743E-04   -0.18796E-04  6280   0.663E-02
   9 F= -.19140049E+03 E0= -.19129857E+03  d E =0.122576E+00
       N       E                     dE             d eps       ncg     rms          rms(c)
DAV:   1    -0.191339883653E+03    0.60632E-01   -0.11292E+01  8160   0.711E+00    0.754E-01
DAV:   2    -0.191387293362E+03   -0.47410E-01   -0.27985E-01 13480   0.242E+00    0.185E+00
DAV:   3    -0.191351600287E+03    0.35693E-01   -0.79321E-02 12080   0.211E+00    0.670E-01
DAV:   4    -0.191352955460E+03   -0.13552E-02   -0.21066E-02 11280   0.976E-01    0.788E-01
DAV:   5    -0.191347051839E+03    0.59036E-02   -0.15589E-02 11080   0.894E-01    0.319E-01
DAV:   6    -0.191346255098E+03    0.79674E-03   -0.40279E-03 11040   0.323E-01    0.152E-01
DAV:   7    -0.191345831166E+03    0.42393E-03   -0.12855E-03 11520   0.137E-01    0.634E-02
DAV:   8    -0.191345798673E+03    0.32492E-04   -0.27142E-04  7800   0.948E-02
  10 F= -.19134580E+03 E0= -.19124679E+03  d E =0.546902E-01
       N       E                     dE             d eps       ncg     rms          rms(c)
DAV:   1    -0.191353696519E+03   -0.78654E-02   -0.81285E+00  8160   0.607E+00    0.610E-01
DAV:   2    -0.191373320837E+03   -0.19624E-01   -0.17799E-01 13600   0.155E+00    0.118E+00
DAV:   3    -0.191364972624E+03    0.83482E-02   -0.52658E-02 11840   0.156E+00    0.731E-01
DAV:   4    -0.191360721746E+03    0.42509E-02   -0.11106E-02 12280   0.709E-01    0.375E-01
DAV:   5    -0.191360464749E+03    0.25700E-03   -0.72538E-03 11560   0.668E-01    0.399E-01
DAV:   6    -0.191358988973E+03    0.14758E-02   -0.40100E-03 11640   0.426E-01    0.130E-01
DAV:   7    -0.191358716342E+03    0.27263E-03   -0.84038E-04 10640   0.125E-01    0.553E-02
DAV:   8    -0.191358701000E+03    0.15342E-04   -0.17937E-04  7240   0.884E-02
  11 F= -.19135870E+03 E0= -.19125895E+03  d E =-.129023E-01
       N       E                     dE             d eps       ncg     rms          rms(c)
DAV:   1    -0.191394090174E+03   -0.35374E-01   -0.66141E+00  8160   0.550E+00    0.611E-01
DAV:   2    -0.191419595700E+03   -0.25506E-01   -0.18608E-01 13280   0.200E+00    0.134E+00
DAV:   3    -0.191402447144E+03    0.17149E-01   -0.54515E-02 12320   0.167E+00    0.537E-01
DAV:   4    -0.191402623681E+03   -0.17654E-03   -0.13559E-02 11800   0.793E-01    0.608E-01
DAV:   5    -0.191399580191E+03    0.30435E-02   -0.94853E-03 11800   0.746E-01    0.333E-01
DAV:   6    -0.191398494971E+03    0.10852E-02   -0.35901E-03 11560   0.330E-01    0.126E-01
DAV:   7    -0.191398536422E+03   -0.41451E-04   -0.13351E-03 10480   0.212E-01    0.171E-01
DAV:   8    -0.191398246884E+03    0.28954E-03   -0.67220E-04  8720   0.185E-01    0.520E-02
DAV:   9    -0.191398229502E+03    0.17382E-04   -0.78953E-05  6120   0.519E-02
  12 F= -.19139823E+03 E0= -.19129695E+03  d E =-.395285E-01
       N       E                     dE             d eps       ncg     rms          rms(c)
DAV:   1    -0.191436751050E+03   -0.38504E-01   -0.41455E+00  8160   0.437E+00    0.498E-01
DAV:   2    -0.191453242013E+03   -0.16491E-01   -0.13390E-01 13240   0.158E+00    0.104E+00
DAV:   3    -0.191443395689E+03    0.98463E-02   -0.35993E-02 12240   0.135E+00    0.474E-01
DAV:   4    -0.191442713774E+03    0.68191E-03   -0.96475E-03 11040   0.661E-01    0.459E-01
DAV:   5    -0.191440955967E+03    0.17578E-02   -0.58485E-03 11360   0.585E-01    0.265E-01
DAV:   6    -0.191440255004E+03    0.70096E-03   -0.26240E-03 11360   0.292E-01    0.117E-01
DAV:   7    -0.191440323476E+03   -0.68473E-04   -0.10373E-03 10560   0.197E-01    0.164E-01
DAV:   8    -0.191440055566E+03    0.26791E-03   -0.51406E-04  8760   0.169E-01    0.450E-02
DAV:   9    -0.191440046640E+03    0.89263E-05   -0.60703E-05  6000   0.439E-02
  13 F= -.19144005E+03 E0= -.19133824E+03  d E =-.418171E-01
       N       E                     dE             d eps       ncg     rms          rms(c)
DAV:   1    -0.191431051096E+03    0.90045E-02   -0.17768E-01  8160   0.904E-01    0.101E-01
DAV:   2    -0.191431477279E+03   -0.42618E-03   -0.51660E-03 13080   0.255E-01    0.159E-01
DAV:   3    -0.191431349635E+03    0.12764E-03   -0.12436E-03 10840   0.245E-01    0.129E-01
DAV:   4    -0.191431212484E+03    0.13715E-03   -0.42319E-04  8200   0.142E-01    0.673E-02
DAV:   5    -0.191431183901E+03    0.28583E-04   -0.16846E-04  6680   0.101E-01
  14 F= -.19143118E+03 E0= -.19132934E+03  d E =0.886274E-02
       N       E                     dE             d eps       ncg     rms          rms(c)
DAV:   1    -0.191425012725E+03    0.61998E-02   -0.53015E-01  8160   0.161E+00    0.275E-01
DAV:   2    -0.191425701113E+03   -0.68839E-03   -0.20633E-02 11840   0.570E-01    0.415E-01
DAV:   3    -0.191425217771E+03    0.48334E-03   -0.86779E-03 12200   0.660E-01    0.376E-01
DAV:   4    -0.191423770580E+03    0.14472E-02   -0.35479E-03 11000   0.398E-01    0.145E-01
DAV:   5    -0.191423917192E+03   -0.14661E-03   -0.15769E-03 10160   0.284E-01    0.200E-01
DAV:   6    -0.191423449545E+03    0.46765E-03   -0.95074E-04  9440   0.226E-01    0.502E-02
DAV:   7    -0.191423465562E+03   -0.16017E-04   -0.15210E-04  5800   0.771E-02
  15 F= -.19142347E+03 E0= -.19132154E+03  d E =0.771834E-02
       N       E                     dE             d eps       ncg     rms          rms(c)
DAV:   1    -0.191464368436E+03   -0.40919E-01   -0.34923E+00  8160   0.407E+00    0.527E-01
DAV:   2    -0.191473184629E+03   -0.88162E-02   -0.11258E-01 13320   0.132E+00    0.873E-01
DAV:   3    -0.191468378410E+03    0.48062E-02   -0.32804E-02 12200   0.129E+00    0.590E-01
DAV:   4    -0.191465987675E+03    0.23907E-02   -0.12024E-02 11320   0.758E-01    0.450E-01
DAV:   5    -0.191464579026E+03    0.14086E-02   -0.69150E-03 11160   0.642E-01    0.325E-01
DAV:   6    -0.191463471168E+03    0.11079E-02   -0.35099E-03 11160   0.368E-01    0.127E-01
DAV:   7    -0.191463429919E+03    0.41249E-04   -0.10196E-03  9960   0.193E-01    0.143E-01
DAV:   8    -0.191463252130E+03    0.17779E-03   -0.50676E-04  8400   0.167E-01    0.653E-02
DAV:   9    -0.191463207533E+03    0.44597E-04   -0.84045E-05  5920   0.612E-02
  16 F= -.19146321E+03 E0= -.19136132E+03  d E =-.397420E-01
       N       E                     dE             d eps       ncg     rms          rms(c)
DAV:   1    -0.191504040973E+03   -0.40789E-01   -0.38475E+00  8160   0.421E+00    0.475E-01
DAV:   2    -0.191519018173E+03   -0.14977E-01   -0.12123E-01 13440   0.148E+00    0.104E+00
DAV:   3    -0.191510181983E+03    0.88362E-02   -0.33025E-02 11680   0.129E+00    0.485E-01
DAV:   4    -0.191509303182E+03    0.87880E-03   -0.86369E-03 12360   0.656E-01    0.432E-01
DAV:   5    -0.191507575154E+03    0.17280E-02   -0.51877E-03 11200   0.560E-01    0.243E-01
DAV:   6    -0.191507147547E+03    0.42761E-03   -0.23788E-03 10440   0.286E-01    0.150E-01
DAV:   7    -0.191507314898E+03   -0.16735E-03   -0.15224E-03 10640   0.289E-01    0.218E-01
DAV:   8    -0.191506816619E+03    0.49828E-03   -0.76006E-04  8600   0.207E-01    0.352E-02
DAV:   9    -0.191506814554E+03    0.20649E-05   -0.58907E-05  5720   0.362E-02
  17 F= -.19150681E+03 E0= -.19140542E+03  d E =-.436070E-01
       N       E                     dE             d eps       ncg     rms          rms(c)
DAV:   1    -0.191488389730E+03    0.18427E-01   -0.63822E-01  8160   0.170E+00    0.173E-01
DAV:   2    -0.191490071131E+03   -0.16814E-02   -0.16833E-02 13080   0.460E-01    0.311E-01
DAV:   3    -0.191489458527E+03    0.61260E-03   -0.39222E-03 11800   0.442E-01    0.213E-01
DAV:   4    -0.191489041123E+03    0.41740E-03   -0.10325E-03  9560   0.207E-01    0.840E-02
DAV:   5    -0.191488984684E+03    0.56439E-04   -0.36334E-04  8800   0.115E-01
  18 F= -.19148898E+03 E0= -.19138725E+03  d E =0.178299E-01
       N       E                     dE             d eps       ncg     rms          rms(c)
DAV:   1    -0.191505472162E+03   -0.16431E-01   -0.77480E-01  8160   0.187E+00    0.223E-01
DAV:   2    -0.191510763596E+03   -0.52914E-02   -0.28029E-02 12520   0.758E-01    0.651E-01
DAV:   3    -0.191506751883E+03    0.40117E-02   -0.92687E-03 11480   0.714E-01    0.227E-01
DAV:   4    -0.191506276434E+03    0.47545E-03   -0.13610E-03  9680   0.212E-01    0.975E-02
DAV:   5    -0.191506255048E+03    0.21386E-04   -0.61652E-04 10360   0.158E-01
  19 F= -.19150626E+03 E0= -.19140501E+03  d E =-.172704E-01
       N       E                     dE             d eps       ncg     rms          rms(c)
DAV:   1    -0.191521971337E+03   -0.15695E-01   -0.49862E-01  8160   0.154E+00    0.189E-01
DAV:   2    -0.191523547731E+03   -0.15764E-02   -0.15254E-02 13600   0.468E-01    0.355E-01
DAV:   3    -0.191522722930E+03    0.82480E-03   -0.40270E-03 11480   0.480E-01    0.226E-01
DAV:   4    -0.191522192130E+03    0.53080E-03   -0.91650E-04  9680   0.198E-01    0.736E-02
DAV:   5    -0.191522347434E+03   -0.15530E-03   -0.66119E-04  9400   0.176E-01    0.148E-01
DAV:   6    -0.191522163863E+03    0.18357E-03   -0.56084E-04  8560   0.178E-01    0.653E-02
DAV:   7    -0.191522123327E+03    0.40537E-04   -0.12218E-04  5560   0.706E-02
  20 F= -.19152212E+03 E0= -.19142102E+03  d E =-.158683E-01
       N       E                     dE             d eps       ncg     rms          rms(c)
DAV:   1    -0.191495148681E+03    0.27015E-01   -0.24701E+00  8160   0.339E+00    0.433E-01
DAV:   2    -0.191498414061E+03   -0.32654E-02   -0.73942E-02 12640   0.823E-01    0.477E-01
DAV:   3    -0.191500728033E+03   -0.23140E-02   -0.19777E-02 12240   0.101E+00    0.736E-01
DAV:   4    -0.191495495829E+03    0.52322E-02   -0.10032E-02 11520   0.722E-01    0.206E-01
DAV:   5    -0.191494867199E+03    0.62863E-03   -0.22443E-03 10400   0.193E-01    0.107E-01
DAV:   6    -0.191494938616E+03   -0.71417E-04   -0.12266E-03 11560   0.196E-01    0.155E-01
DAV:   7    -0.191494761558E+03    0.17706E-03   -0.71393E-04  9240   0.198E-01    0.858E-02
DAV:   8    -0.191494698994E+03    0.62564E-04   -0.15561E-04  6040   0.929E-02
  21 F= -.19149470E+03 E0= -.19139337E+03  d E =0.274243E-01
       N       E                     dE             d eps       ncg     rms          rms(c)
DAV:   1    -0.191489305180E+03    0.54564E-02   -0.82120E-02  8160   0.618E-01    0.748E-02
DAV:   2    -0.191489619237E+03   -0.31406E-03   -0.25674E-03 13440   0.185E-01    0.152E-01
DAV:   3    -0.191489442674E+03    0.17656E-03   -0.73398E-04  9120   0.197E-01    0.890E-02
DAV:   4    -0.191489405258E+03    0.37415E-04   -0.19231E-04  6120   0.965E-02
  22 F= -.19148941E+03 E0= -.19138813E+03  d E =0.529374E-02
       N       E                     dE             d eps       ncg     rms          rms(c)
DAV:   1    -0.191502803231E+03   -0.13361E-01   -0.11333E+00  8160   0.227E+00    0.266E-01
DAV:   2    -0.191504998210E+03   -0.21950E-02   -0.34166E-02 12240   0.536E-01    0.282E-01
DAV:   3    -0.191505313725E+03   -0.31552E-03   -0.77362E-03 11480   0.566E-01    0.396E-01
DAV:   4    -0.191503848837E+03    0.14649E-02   -0.32373E-03 10520   0.413E-01    0.161E-01
DAV:   5    -0.191503832042E+03    0.16795E-04   -0.13243E-03  9600   0.265E-01    0.184E-01
DAV:   6    -0.191503564695E+03    0.26735E-03   -0.10083E-03  9600   0.227E-01    0.848E-02
DAV:   7    -0.191503542404E+03    0.22291E-04   -0.34425E-04  8040   0.113E-01
  23 F= -.19150354E+03 E0= -.19140273E+03  d E =-.141371E-01
       N       E                     dE             d eps       ncg     rms          rms(c)
DAV:   1    -0.191506268469E+03   -0.27038E-02   -0.39543E+00  8160   0.431E+00    0.542E-01
DAV:   2    -0.191511520240E+03   -0.52518E-02   -0.10544E-01 12280   0.896E-01    0.562E-01
DAV:   3    -0.191511739863E+03   -0.21962E-03   -0.26210E-02 12200   0.107E+00    0.726E-01
DAV:   4    -0.191506677679E+03    0.50622E-02   -0.12510E-02 11760   0.845E-01    0.312E-01
DAV:   5    -0.191506761565E+03   -0.83886E-04   -0.57945E-03 11440   0.546E-01    0.416E-01
DAV:   6    -0.191505311116E+03    0.14504E-02   -0.46360E-03 11080   0.493E-01    0.169E-01
DAV:   7    -0.191505092790E+03    0.21833E-03   -0.11943E-03  9640   0.199E-01    0.910E-02
DAV:   8    -0.191505066863E+03    0.25927E-04   -0.42129E-04  9560   0.150E-01
  24 F= -.19150507E+03 E0= -.19140344E+03  d E =-.152446E-02
       N       E                     dE             d eps       ncg     rms          rms(c)
DAV:   1    -0.191500835192E+03    0.42576E-02   -0.77762E-02  8160   0.605E-01    0.734E-02
DAV:   2    -0.191501118107E+03   -0.28291E-03   -0.22275E-03 12840   0.177E-01    0.152E-01
DAV:   3    -0.191500919745E+03    0.19836E-03   -0.71815E-04  8800   0.197E-01    0.895E-02
DAV:   4    -0.191500862766E+03    0.56978E-04   -0.19548E-04  6400   0.903E-02
  25 F= -.19150086E+03 E0= -.19139937E+03  d E =0.420410E-02
       N       E                     dE             d eps       ncg     rms          rms(c)
DAV:   1    -0.191482259465E+03    0.18660E-01   -0.20342E+00  8160   0.303E+00    0.376E-01
DAV:   2    -0.191492181340E+03   -0.99219E-02   -0.58360E-02 13600   0.114E+00    0.940E-01
DAV:   3    -0.191484273307E+03    0.79080E-02   -0.22692E-02 12240   0.110E+00    0.402E-01
DAV:   4    -0.191483132301E+03    0.11410E-02   -0.50845E-03 10160   0.439E-01    0.240E-01
DAV:   5    -0.191482980033E+03    0.15227E-03   -0.31912E-03 11400   0.406E-01    0.273E-01
DAV:   6    -0.191482297139E+03    0.68289E-03   -0.19168E-03  9760   0.316E-01    0.117E-01
DAV:   7    -0.191482413483E+03   -0.11634E-03   -0.89156E-04 10200   0.208E-01    0.143E-01
DAV:   8    -0.191482184920E+03    0.22856E-03   -0.41246E-04  9000   0.150E-01    0.328E-02
DAV:   9    -0.191482176661E+03    0.82599E-05   -0.39693E-05  5880   0.329E-02
  26 F= -.19148218E+03 E0= -.19138122E+03  d E =0.186861E-01
       N       E                     dE             d eps       ncg     rms          rms(c)
DAV:   1    -0.191525138378E+03   -0.42953E-01   -0.41515E+00  8160   0.437E+00    0.549E-01
DAV:   2    -0.191543695919E+03   -0.18558E-01   -0.14402E-01 13600   0.172E+00    0.125E+00
DAV:   3    -0.191530893497E+03    0.12802E-01   -0.42403E-02 12240   0.151E+00    0.567E-01
DAV:   4    -0.191529984367E+03    0.90913E-03   -0.12492E-02 12280   0.782E-01    0.529E-01
DAV:   5    -0.191527349423E+03    0.26349E-02   -0.79110E-03 10720   0.680E-01    0.290E-01
DAV:   6    -0.191526545674E+03    0.80375E-03   -0.32381E-03 10880   0.312E-01    0.128E-01
DAV:   7    -0.191526289786E+03    0.25589E-03   -0.90626E-04 10640   0.133E-01    0.719E-02
DAV:   8    -0.191526289784E+03    0.26457E-08   -0.34443E-04  9160   0.133E-01
  27 F= -.19152629E+03 E0= -.19142503E+03  d E =-.441131E-01
       N       E                     dE             d eps       ncg     rms          rms(c)
DAV:   1    -0.191551165869E+03   -0.24876E-01   -0.14947E+00  8160   0.258E+00    0.269E-01
DAV:   2    -0.191556212352E+03   -0.50465E-02   -0.40690E-02 13560   0.808E-01    0.570E-01
DAV:   3    -0.191553824123E+03    0.23882E-02   -0.93887E-03 12360   0.732E-01    0.324E-01
DAV:   4    -0.191553079601E+03    0.74452E-03   -0.25082E-03 10520   0.322E-01    0.172E-01
DAV:   5    -0.191552853734E+03    0.22587E-03   -0.11875E-03 10520   0.259E-01    0.142E-01
DAV:   6    -0.191552802119E+03    0.51615E-04   -0.87651E-04 10960   0.209E-01
  28 F= -.19155280E+03 E0= -.19145205E+03  d E =-.265123E-01
       N       E                     dE             d eps       ncg     rms          rms(c)
DAV:   1    -0.191572463126E+03   -0.19609E-01   -0.86321E-01  8160   0.198E+00    0.257E-01
DAV:   2    -0.191582554383E+03   -0.10091E-01   -0.37165E-02 13480   0.992E-01    0.957E-01
DAV:   3    -0.191573513728E+03    0.90407E-02   -0.18010E-02 11560   0.949E-01    0.180E-01
DAV:   4    -0.191573778041E+03   -0.26431E-03   -0.18974E-03 11320   0.295E-01    0.229E-01
DAV:   5    -0.191573243175E+03    0.53487E-03   -0.10758E-03 10000   0.250E-01    0.883E-02
DAV:   6    -0.191573323693E+03   -0.80518E-04   -0.44997E-04  8920   0.153E-01
  29 F= -.19157332E+03 E0= -.19147333E+03  d E =-.205216E-01
       N       E                     dE             d eps       ncg     rms          rms(c)
DAV:   1    -0.191581822840E+03   -0.85797E-02   -0.46836E-01  8160   0.147E+00    0.199E-01
DAV:   2    -0.191586520137E+03   -0.46973E-02   -0.17487E-02 13480   0.714E-01    0.656E-01
DAV:   3    -0.191582197960E+03    0.43222E-02   -0.80204E-03 11000   0.690E-01    0.156E-01
DAV:   4    -0.191582066896E+03    0.13106E-03   -0.94381E-04 10000   0.181E-01    0.104E-01
DAV:   5    -0.191582019682E+03    0.47215E-04   -0.53323E-04  9960   0.173E-01
  30 F= -.19158202E+03 E0= -.19148204E+03  d E =-.869599E-02
       N       E                     dE             d eps       ncg     rms          rms(c)
DAV:   1    -0.191604271218E+03   -0.22204E-01   -0.40664E+00  8160   0.429E+00    0.542E-01
DAV:   2    -0.191641324365E+03   -0.37053E-01   -0.15290E-01 13560   0.207E+00    0.181E+00
DAV:   3    -0.191609051686E+03    0.32273E-01   -0.71065E-02 12440   0.190E+00    0.407E-01
DAV:   4    -0.191608218597E+03    0.83309E-03   -0.75971E-03 11400   0.512E-01    0.344E-01
DAV:   5    -0.191607455016E+03    0.76358E-03   -0.45438E-03 11800   0.504E-01    0.290E-01
DAV:   6    -0.191606824886E+03    0.63013E-03   -0.26739E-03 11920   0.356E-01    0.183E-01
DAV:   7    -0.191607069921E+03   -0.24503E-03   -0.18870E-03 11120   0.329E-01    0.230E-01
DAV:   8    -0.191606533207E+03    0.53671E-03   -0.88559E-04  9080   0.229E-01    0.464E-02
DAV:   9    -0.191606506595E+03    0.26612E-04   -0.84789E-05  5720   0.450E-02
  31 F= -.19160651E+03 E0= -.19150723E+03  d E =-.244869E-01
       N       E                     dE             d eps       ncg     rms          rms(c)
DAV:   1    -0.191650625301E+03   -0.44092E-01   -0.36354E+00  8160   0.405E+00    0.481E-01
DAV:   2    -0.191671396163E+03   -0.20771E-01   -0.12104E-01 13600   0.170E+00    0.135E+00
DAV:   3    -0.191655618869E+03    0.15777E-01   -0.39195E-02 12320   0.146E+00    0.454E-01
DAV:   4    -0.191655317434E+03    0.30143E-03   -0.87220E-03 12320   0.652E-01    0.440E-01
DAV:   5    -0.191653385427E+03    0.19320E-02   -0.55589E-03 10960   0.574E-01    0.235E-01
DAV:   6    -0.191652922342E+03    0.46308E-03   -0.23012E-03 10800   0.269E-01    0.126E-01
DAV:   7    -0.191653014619E+03   -0.92277E-04   -0.12234E-03 10920   0.241E-01    0.183E-01
DAV:   8    -0.191652657941E+03    0.35668E-03   -0.56529E-04  8600   0.182E-01    0.308E-02
DAV:   9    -0.191652658118E+03   -0.17719E-06   -0.43323E-05  5880   0.315E-02
  32 F= -.19165266E+03 E0= -.19155385E+03  d E =-.461515E-01
       N       E                     dE             d eps       ncg     rms          rms(c)
DAV:   1    -0.191677233039E+03   -0.24575E-01   -0.10283E+00  8160   0.214E+00    0.230E-01
DAV:   2    -0.191682468569E+03   -0.52355E-02   -0.31574E-02 12920   0.743E-01    0.638E-01
DAV:   3    -0.191678982709E+03    0.34859E-02   -0.10246E-02 12280   0.713E-01    0.239E-01
DAV:   4    -0.191678595990E+03    0.38672E-03   -0.16058E-03 10200   0.242E-01    0.148E-01
DAV:   5    -0.191678445742E+03    0.15025E-03   -0.85752E-04 10520   0.217E-01    0.119E-01
DAV:   6    -0.191678400541E+03    0.45201E-04   -0.54400E-04  8680   0.160E-01
  33 F= -.19167840E+03 E0= -.19158024E+03  d E =-.257424E-01
       N       E                     dE             d eps       ncg     rms          rms(c)
DAV:   1    -0.191713439052E+03   -0.34993E-01   -0.21167E+00  8160   0.307E+00    0.350E-01
DAV:   2    -0.191728179542E+03   -0.14740E-01   -0.68416E-02 13520   0.127E+00    0.111E+00
DAV:   3    -0.191716676030E+03    0.11504E-01   -0.23686E-02 12280   0.117E+00    0.312E-01
DAV:   4    -0.191716814142E+03   -0.13811E-03   -0.42301E-03 11480   0.452E-01    0.323E-01
DAV:   5    -0.191715695383E+03    0.11188E-02   -0.23632E-03 10280   0.376E-01    0.123E-01
DAV:   6    -0.191715748354E+03   -0.52971E-04   -0.91172E-04 11000   0.181E-01
  34 F= -.19171575E+03 E0= -.19161784E+03  d E =-.373478E-01
       N       E                     dE             d eps       ncg     rms          rms(c)
DAV:   1    -0.191731862048E+03   -0.16167E-01   -0.41927E-01  8160   0.140E+00    0.267E-01
DAV:   2    -0.191746650566E+03   -0.14789E-01   -0.35327E-02 12760   0.126E+00    0.121E+00
DAV:   3    -0.191731830728E+03    0.14820E-01   -0.22695E-02 11400   0.113E+00    0.136E-01
DAV:   4    -0.191732186933E+03   -0.35620E-03   -0.15475E-03 10560   0.276E-01    0.203E-01
DAV:   5    -0.191731799899E+03    0.38703E-03   -0.91225E-04 10480   0.221E-01    0.880E-02
DAV:   6    -0.191731819529E+03   -0.19630E-04   -0.33644E-04  8640   0.140E-01
  35 F= -.19173182E+03 E0= -.19163432E+03  d E =-.160712E-01
       N       E                     dE             d eps       ncg     rms          rms(c)
DAV:   1    -0.191811554557E+03   -0.79755E-01   -0.13794E+01  8160   0.787E+00    0.927E-01
DAV:   2    -0.191917316895E+03   -0.10576E+00   -0.50965E-01 12640   0.357E+00    0.326E+00
DAV:   3    -0.191836318622E+03    0.80998E-01   -0.25126E-01 11920   0.323E+00    0.906E-01
DAV:   4    -0.191833642601E+03    0.26760E-02   -0.36725E-02 11440   0.128E+00    0.817E-01
DAV:   5    -0.191826863793E+03    0.67788E-02   -0.19623E-02 11240   0.103E+00    0.437E-01
DAV:   6    -0.191825664452E+03    0.11993E-02   -0.83607E-03 12200   0.553E-01    0.355E-01
DAV:   7    -0.191826441846E+03   -0.77739E-03   -0.74638E-03 11840   0.671E-01    0.424E-01
DAV:   8    -0.191824334871E+03    0.21070E-02   -0.28947E-03 11280   0.392E-01    0.533E-02
DAV:   9    -0.191824313039E+03    0.21832E-04   -0.24401E-04  7320   0.569E-02
  36 F= -.19182431E+03 E0= -.19172713E+03  d E =-.924935E-01
       N       E                     dE             d eps       ncg     rms          rms(c)
DAV:   1    -0.191869075041E+03   -0.44740E-01   -0.52767E+00  8160   0.484E+00    0.528E-01
DAV:   2    -0.191901871994E+03   -0.32797E-01   -0.18531E-01 12560   0.191E+00    0.159E+00
DAV:   3    -0.191879709080E+03    0.22163E-01   -0.57010E-02 12560   0.172E+00    0.506E-01
DAV:   4    -0.191878544382E+03    0.11647E-02   -0.91004E-03 11280   0.598E-01    0.409E-01
DAV:   5    -0.191877016018E+03    0.15284E-02   -0.48931E-03 11040   0.534E-01    0.225E-01
DAV:   6    -0.191877017166E+03   -0.11478E-05   -0.23952E-03 12480   0.317E-01    0.208E-01
DAV:   7    -0.191876938223E+03    0.78943E-04   -0.22467E-03 11160   0.346E-01    0.194E-01
DAV:   8    -0.191876528144E+03    0.41008E-03   -0.91710E-04  9640   0.209E-01    0.438E-02
DAV:   9    -0.191876503808E+03    0.24336E-04   -0.89169E-05  6360   0.387E-02
  37 F= -.19187650E+03 E0= -.19178001E+03  d E =-.521908E-01
       N       E                     dE             d eps       ncg     rms          rms(c)
DAV:   1    -0.191898378196E+03   -0.21850E-01   -0.10517E+00  8160   0.221E+00    0.317E-01
DAV:   2    -0.191907752837E+03   -0.93746E-02   -0.52775E-02 12840   0.116E+00    0.924E-01
DAV:   3    -0.191900094380E+03    0.76585E-02   -0.18731E-02 12120   0.967E-01    0.286E-01
DAV:   4    -0.191900240209E+03   -0.14583E-03   -0.45960E-03 11360   0.468E-01    0.322E-01
DAV:   5    -0.191899139937E+03    0.11003E-02   -0.28731E-03 10000   0.390E-01    0.134E-01
DAV:   6    -0.191898978215E+03    0.16172E-03   -0.99613E-04  9960   0.152E-01    0.651E-02
DAV:   7    -0.191898894140E+03    0.84075E-04   -0.26915E-04  8000   0.696E-02
  38 F= -.19189889E+03 E0= -.19180236E+03  d E =-.223903E-01
       N       E                     dE             d eps       ncg     rms          rms(c)
DAV:   1    -0.191927311123E+03   -0.28333E-01   -0.26056E+00  8160   0.342E+00    0.387E-01
DAV:   2    -0.191944596457E+03   -0.17285E-01   -0.99744E-02 12040   0.136E+00    0.115E+00
DAV:   3    -0.191932925900E+03    0.11671E-01   -0.31979E-02 12600   0.125E+00    0.373E-01
DAV:   4    -0.191932124568E+03    0.80133E-03   -0.46596E-03 11240   0.408E-01    0.270E-01
DAV:   5    -0.191931569918E+03    0.55465E-03   -0.25145E-03 11000   0.381E-01    0.188E-01
DAV:   6    -0.191931428647E+03    0.14127E-03   -0.13021E-03 10760   0.243E-01    0.132E-01
DAV:   7    -0.191931449027E+03   -0.20381E-04   -0.10220E-03 10360   0.228E-01    0.140E-01
DAV:   8    -0.191931233548E+03    0.21548E-03   -0.47560E-04  8800   0.162E-01    0.336E-02
DAV:   9    -0.191931220106E+03    0.13443E-04   -0.53984E-05  6280   0.334E-02
  39 F= -.19193122E+03 E0= -.19183523E+03  d E =-.323260E-01
       N       E                     dE             d eps       ncg     rms          rms(c)
DAV:   1    -0.191952472874E+03   -0.21239E-01   -0.14638E+00  8160   0.260E+00    0.344E-01
DAV:   2    -0.191965021222E+03   -0.12548E-01   -0.71196E-02 13040   0.129E+00    0.103E+00
DAV:   3    -0.191955667315E+03    0.93539E-02   -0.23646E-02 12280   0.108E+00    0.306E-01
DAV:   4    -0.191955702741E+03   -0.35425E-04   -0.48374E-03 11480   0.471E-01    0.325E-01
DAV:   5    -0.191954608343E+03    0.10944E-02   -0.29206E-03 10640   0.407E-01    0.148E-01
DAV:   6    -0.191954588635E+03    0.19708E-04   -0.11978E-03  9800   0.217E-01    0.142E-01
DAV:   7    -0.191954552375E+03    0.36260E-04   -0.10084E-03 10080   0.241E-01    0.136E-01
DAV:   8    -0.191954327678E+03    0.22470E-03   -0.37419E-04  7760   0.131E-01    0.201E-02
DAV:   9    -0.191954327494E+03    0.18461E-06   -0.40909E-05  6600   0.249E-02
  40 F= -.19195433E+03 E0= -.19185874E+03  d E =-.231074E-01
       N       E                     dE             d eps       ncg     rms          rms(c)
DAV:   1    -0.191974542127E+03   -0.20214E-01   -0.15003E+00  8160   0.262E+00    0.307E-01
DAV:   2    -0.191983937396E+03   -0.93953E-02   -0.60743E-02 11920   0.103E+00    0.821E-01
DAV:   3    -0.191978019273E+03    0.59181E-02   -0.17606E-02 12600   0.930E-01    0.306E-01
DAV:   4    -0.191977350926E+03    0.66835E-03   -0.28562E-03 11240   0.320E-01    0.196E-01
DAV:   5    -0.191977227386E+03    0.12354E-03   -0.18193E-03 10440   0.318E-01    0.192E-01
DAV:   6    -0.191976961808E+03    0.26558E-03   -0.97291E-04  9840   0.218E-01    0.823E-02
DAV:   7    -0.191976879482E+03    0.82326E-04   -0.35103E-04  8560   0.802E-02
  41 F= -.19197688E+03 E0= -.19188262E+03  d E =-.225520E-01
       N       E                     dE             d eps       ncg     rms          rms(c)
DAV:   1    -0.191987421601E+03   -0.10460E-01   -0.31843E-01  8160   0.123E+00    0.170E-01
DAV:   2    -0.191989806340E+03   -0.23847E-02   -0.15183E-02 12400   0.570E-01    0.438E-01
DAV:   3    -0.191988063974E+03    0.17424E-02   -0.45790E-03 11600   0.501E-01    0.154E-01
DAV:   4    -0.191988032865E+03    0.31109E-04   -0.10338E-03  9040   0.215E-01    0.150E-01
DAV:   5    -0.191987837323E+03    0.19554E-03   -0.69692E-04  8440   0.203E-01    0.876E-02
DAV:   6    -0.191987818395E+03    0.18928E-04   -0.31586E-04  7640   0.124E-01
  42 F= -.19198782E+03 E0= -.19189402E+03  d E =-.109389E-01
       N       E                     dE             d eps       ncg     rms          rms(c)
DAV:   1    -0.192011175150E+03   -0.23338E-01   -0.16471E+00  8160   0.278E+00    0.354E-01
DAV:   2    -0.192021090862E+03   -0.99157E-02   -0.65814E-02 13160   0.116E+00    0.864E-01
DAV:   3    -0.192014382526E+03    0.67083E-02   -0.17715E-02 12400   0.101E+00    0.312E-01
DAV:   4    -0.192014368591E+03    0.13935E-04   -0.42334E-03 11440   0.449E-01    0.331E-01
DAV:   5    -0.192013311643E+03    0.10569E-02   -0.28962E-03 10800   0.412E-01    0.157E-01
DAV:   6    -0.192013508256E+03   -0.19661E-03   -0.14230E-03 10240   0.267E-01    0.197E-01
DAV:   7    -0.192013185088E+03    0.32317E-03   -0.11031E-03  9840   0.260E-01    0.995E-02
DAV:   8    -0.192013049128E+03    0.13596E-03   -0.25866E-04  7120   0.101E-01    0.172E-02
DAV:   9    -0.192013048173E+03    0.95517E-06   -0.44598E-05  7520   0.237E-02
  43 F= -.19201305E+03 E0= -.19192174E+03  d E =-.252298E-01
       N       E                     dE             d eps       ncg     rms          rms(c)
DAV:   1    -0.192020791194E+03   -0.77421E-02   -0.14013E-01  8160   0.811E-01    0.104E-01
DAV:   2    -0.192021486916E+03   -0.69572E-03   -0.53246E-03 11880   0.309E-01    0.224E-01
DAV:   3    -0.192021013129E+03    0.47379E-03   -0.13844E-03 10240   0.279E-01    0.948E-02
DAV:   4    -0.192020967142E+03    0.45987E-04   -0.28585E-04  7920   0.121E-01
  44 F= -.19202097E+03 E0= -.19193052E+03  d E =-.791897E-02
       N       E                     dE             d eps       ncg     rms          rms(c)
DAV:   1    -0.192031586205E+03   -0.10573E-01   -0.29844E-01  8160   0.120E+00    0.186E-01
DAV:   2    -0.192034274863E+03   -0.26887E-02   -0.14202E-02 12440   0.588E-01    0.504E-01
DAV:   3    -0.192031911656E+03    0.23632E-02   -0.56423E-03 11920   0.560E-01    0.167E-01
DAV:   4    -0.192031736184E+03    0.17547E-03   -0.95379E-04  9640   0.188E-01    0.121E-01
DAV:   5    -0.192031737061E+03   -0.87727E-06   -0.74933E-04  9360   0.218E-01
  45 F= -.19203174E+03 E0= -.19194302E+03  d E =-.107699E-01
       N       E                     dE             d eps       ncg     rms          rms(c)
DAV:   1    -0.192047353765E+03   -0.15618E-01   -0.48945E-01  8160   0.154E+00    0.212E-01
DAV:   2    -0.192050565368E+03   -0.32116E-02   -0.18184E-02 12600   0.644E-01    0.530E-01
DAV:   3    -0.192047801267E+03    0.27641E-02   -0.59371E-03 11800   0.610E-01    0.155E-01
DAV:   4    -0.192047685628E+03    0.11564E-03   -0.85627E-04 10040   0.184E-01    0.132E-01
DAV:   5    -0.192047661562E+03    0.24066E-04   -0.89564E-04 10840   0.227E-01
  46 F= -.19204766E+03 E0= -.19196030E+03  d E =-.159245E-01
       N       E                     dE             d eps       ncg     rms          rms(c)
DAV:   1    -0.192044258603E+03    0.34270E-02   -0.12568E-01  8160   0.781E-01    0.191E-01
DAV:   2    -0.192053805229E+03   -0.95466E-02   -0.19574E-02 11840   0.993E-01    0.102E+00
DAV:   3    -0.192044138148E+03    0.96671E-02   -0.14454E-02 10200   0.875E-01    0.756E-02
DAV:   4    -0.192044138384E+03   -0.23664E-06   -0.43436E-04  8560   0.115E-01
  47 F= -.19204414E+03 E0= -.19195622E+03  d E =0.352318E-02
       N       E                     dE             d eps       ncg     rms          rms(c)
DAV:   1    -0.192067884113E+03   -0.23746E-01   -0.13077E+00  8160   0.247E+00    0.329E-01
DAV:   2    -0.192078413136E+03   -0.10529E-01   -0.53751E-02 12680   0.120E+00    0.916E-01
DAV:   3    -0.192069695044E+03    0.87181E-02   -0.16129E-02 12480   0.103E+00    0.220E-01
DAV:   4    -0.192069729608E+03   -0.34564E-04   -0.23360E-03 11160   0.362E-01    0.242E-01
DAV:   5    -0.192069280474E+03    0.44913E-03   -0.19953E-03 11360   0.357E-01    0.162E-01
DAV:   6    -0.192069273571E+03    0.69033E-05   -0.11204E-03 10560   0.239E-01    0.165E-01
DAV:   7    -0.192069081051E+03    0.19252E-03   -0.69058E-04  9560   0.217E-01    0.866E-02
DAV:   8    -0.192068983793E+03    0.97258E-04   -0.12905E-04  6120   0.808E-02
  48 F= -.19206898E+03 E0= -.19198417E+03  d E =-.248454E-01
       N       E                     dE             d eps       ncg     rms          rms(c)
DAV:   1    -0.192071845262E+03   -0.27642E-02   -0.48389E-02  8160   0.483E-01    0.925E-02
DAV:   2    -0.192073250107E+03   -0.14048E-02   -0.36974E-03 11720   0.423E-01    0.376E-01
DAV:   3    -0.192071788105E+03    0.14620E-02   -0.20081E-03 10120   0.358E-01    0.436E-02
DAV:   4    -0.192071791801E+03   -0.36961E-05   -0.95683E-05  6040   0.713E-02
  49 F= -.19207179E+03 E0= -.19198735E+03  d E =-.280801E-02
       N       E                     dE             d eps       ncg     rms          rms(c)
DAV:   1    -0.192104622535E+03   -0.32834E-01   -0.18440E+00  8160   0.297E+00    0.392E-01
DAV:   2    -0.192115301786E+03   -0.10679E-01   -0.65584E-02 12720   0.122E+00    0.940E-01
DAV:   3    -0.192106649497E+03    0.86523E-02   -0.19533E-02 12440   0.112E+00    0.309E-01
DAV:   4    -0.192106271989E+03    0.37751E-03   -0.37538E-03 11520   0.402E-01    0.260E-01
DAV:   5    -0.192105781645E+03    0.49034E-03   -0.30392E-03 11840   0.425E-01    0.218E-01
DAV:   6    -0.192105516391E+03    0.26525E-03   -0.15242E-03 10600   0.289E-01    0.149E-01
DAV:   7    -0.192105433665E+03    0.82726E-04   -0.83710E-04 10080   0.241E-01
  50 F= -.19210543E+03 E0= -.19202419E+03  d E =-.336419E-01
       N       E                     dE             d eps       ncg     rms          rms(c)
DAV:   1    -0.192107993374E+03   -0.24770E-02   -0.16260E-02  8160   0.303E-01    0.446E-02
DAV:   2    -0.192108138174E+03   -0.14480E-03   -0.95290E-04 12400   0.128E-01    0.101E-01
DAV:   3    -0.192108035795E+03    0.10238E-03   -0.24221E-04  8760   0.130E-01    0.420E-02
DAV:   4    -0.192108030049E+03    0.57460E-05   -0.45474E-05  6240   0.496E-02
  51 F= -.19210803E+03 E0= -.19202718E+03  d E =-.259638E-02
       N       E                     dE             d eps       ncg     rms          rms(c)
DAV:   1    -0.192138253419E+03   -0.30218E-01   -0.14877E+00  8160   0.264E+00    0.350E-01
DAV:   2    -0.192146994898E+03   -0.87415E-02   -0.52331E-02 12480   0.111E+00    0.834E-01
DAV:   3    -0.192139863760E+03    0.71311E-02   -0.13975E-02 12000   0.983E-01    0.268E-01
DAV:   4    -0.192139916960E+03   -0.53199E-04   -0.32338E-03 11320   0.427E-01    0.276E-01
DAV:   5    -0.192139161972E+03    0.75499E-03   -0.24099E-03 11360   0.408E-01    0.157E-01
DAV:   6    -0.192139029676E+03    0.13230E-03   -0.91792E-04 10600   0.197E-01    0.106E-01
DAV:   7    -0.192139015163E+03    0.14513E-04   -0.48589E-04  8880   0.194E-01
  52 F= -.19213902E+03 E0= -.19206102E+03  d E =-.309851E-01
       N       E                     dE             d eps       ncg     rms          rms(c)
DAV:   1    -0.192170889541E+03   -0.31860E-01   -0.18192E+00  8160   0.291E+00    0.377E-01
DAV:   2    -0.192180226662E+03   -0.93371E-02   -0.64586E-02 12480   0.112E+00    0.830E-01
DAV:   3    -0.192173501035E+03    0.67256E-02   -0.15851E-02 12080   0.105E+00    0.317E-01
DAV:   4    -0.192172997617E+03    0.50342E-03   -0.33780E-03 11440   0.416E-01    0.238E-01
DAV:   5    -0.192172508356E+03    0.48926E-03   -0.22877E-03 11920   0.391E-01    0.177E-01
DAV:   6    -0.192172339919E+03    0.16844E-03   -0.10825E-03 10920   0.236E-01    0.115E-01
DAV:   7    -0.192172285549E+03    0.54370E-04   -0.50071E-04  8920   0.192E-01
  53 F= -.19217229E+03 E0= -.19209715E+03  d E =-.332704E-01
       N       E                     dE             d eps       ncg     rms          rms(c)
DAV:   1    -0.192238928319E+03   -0.66588E-01   -0.15170E+01  8160   0.845E+00    0.103E+00
DAV:   2    -0.192294502187E+03   -0.55574E-01   -0.51705E-01 13240   0.278E+00    0.178E+00
DAV:   3    -0.192266001772E+03    0.28500E-01   -0.94797E-02 11920   0.262E+00    0.985E-01
DAV:   4    -0.192258517345E+03    0.74844E-02   -0.27487E-02 12360   0.131E+00    0.662E-01
DAV:   5    -0.192254804948E+03    0.37124E-02   -0.16416E-02 12320   0.110E+00    0.479E-01
DAV:   6    -0.192253000374E+03    0.18046E-02   -0.77178E-03 12320   0.618E-01    0.242E-01
DAV:   7    -0.192251776925E+03    0.12234E-02   -0.22874E-03 11120   0.212E-01    0.660E-02
DAV:   8    -0.192251822949E+03   -0.46024E-04   -0.36405E-04 10360   0.142E-01
  54 F= -.19225182E+03 E0= -.19218317E+03  d E =-.795374E-01
       N       E                     dE             d eps       ncg     rms          rms(c)
DAV:   1    -0.192268441084E+03   -0.16664E-01   -0.19207E+00  8160   0.295E+00    0.362E-01
DAV:   2    -0.192274790034E+03   -0.63490E-02   -0.81612E-02 11480   0.879E-01    0.415E-01
DAV:   3    -0.192275320369E+03   -0.53033E-03   -0.10745E-02 12600   0.880E-01    0.487E-01
DAV:   4    -0.192272734913E+03    0.25855E-02   -0.38964E-03 12120   0.555E-01    0.173E-01
DAV:   5    -0.192272761972E+03   -0.27059E-04   -0.15327E-03 10760   0.337E-01    0.189E-01
DAV:   6    -0.192272465125E+03    0.29685E-03   -0.10889E-03 10480   0.250E-01    0.894E-02
DAV:   7    -0.192272401657E+03    0.63468E-04   -0.36738E-04  9440   0.139E-01
  55 F= -.19227240E+03 E0= -.19220472E+03  d E =-.205787E-01
       N       E                     dE             d eps       ncg     rms          rms(c)
DAV:   1    -0.192288150618E+03   -0.15685E-01   -0.57951E+00  8160   0.515E+00    0.656E-01
DAV:   2    -0.192313471517E+03   -0.25321E-01   -0.21844E-01 11600   0.195E+00    0.117E+00
DAV:   3    -0.192299158381E+03    0.14313E-01   -0.38126E-02 12080   0.172E+00    0.556E-01
DAV:   4    -0.192297563857E+03    0.15945E-02   -0.10474E-02 12280   0.851E-01    0.476E-01
DAV:   5    -0.192295390691E+03    0.21732E-02   -0.65042E-03 10840   0.719E-01    0.272E-01
DAV:   6    -0.192294816065E+03    0.57463E-03   -0.27965E-03 12240   0.326E-01    0.141E-01
DAV:   7    -0.192294460850E+03    0.35522E-03   -0.92890E-04 10600   0.164E-01    0.820E-02
DAV:   8    -0.192294413134E+03    0.47715E-04   -0.23035E-04 10080   0.129E-01
  56 F= -.19229441E+03 E0= -.19222843E+03  d E =-.220115E-01
       N       E                     dE             d eps       ncg     rms          rms(c)
DAV:   1    -0.192296080099E+03   -0.16192E-02   -0.28451E-01  8160   0.116E+00    0.162E-01
DAV:   2    -0.192298065917E+03   -0.19858E-02   -0.12002E-02 11880   0.584E-01    0.390E-01
DAV:   3    -0.192296362509E+03    0.17034E-02   -0.31307E-03 11800   0.492E-01    0.117E-01
DAV:   4    -0.192296317008E+03    0.45500E-04   -0.59326E-04  9680   0.199E-01
  57 F= -.19229632E+03 E0= -.19223020E+03  d E =-.190387E-02
       N       E                     dE             d eps       ncg     rms          rms(c)
DAV:   1    -0.192299447111E+03   -0.30846E-02   -0.22527E-01  8160   0.102E+00    0.135E-01
DAV:   2    -0.192300926709E+03   -0.14796E-02   -0.10942E-02 12800   0.428E-01    0.263E-01
DAV:   3    -0.192300056825E+03    0.86988E-03   -0.18262E-03 12680   0.368E-01    0.935E-02
DAV:   4    -0.192299959104E+03    0.97721E-04   -0.26279E-04  8440   0.109E-01
  58 F= -.19229996E+03 E0= -.19223412E+03  d E =-.364210E-02
       N       E                     dE             d eps       ncg     rms          rms(c)
DAV:   1    -0.192302959226E+03   -0.29024E-02   -0.20354E-01  8160   0.964E-01    0.139E-01
DAV:   2    -0.192304298262E+03   -0.13390E-02   -0.97273E-03 11920   0.462E-01    0.285E-01
DAV:   3    -0.192303402239E+03    0.89602E-03   -0.18683E-03 12120   0.385E-01    0.109E-01
DAV:   4    -0.192303373750E+03    0.28489E-04   -0.41171E-04  8920   0.172E-01
  59 F= -.19230337E+03 E0= -.19223782E+03  d E =-.341465E-02
       N       E                     dE             d eps       ncg     rms          rms(c)
DAV:   1    -0.192305913073E+03   -0.25108E-02   -0.21036E-01  8160   0.985E-01    0.133E-01
DAV:   2    -0.192306369474E+03   -0.45640E-03   -0.84470E-03 11640   0.256E-01    0.942E-02
DAV:   3    -0.192306439243E+03   -0.69769E-04   -0.75278E-04 11680   0.196E-01
  60 F= -.19230644E+03 E0= -.19224116E+03  d E =-.306549E-02
       N       E                     dE             d eps       ncg     rms          rms(c)
DAV:   1    -0.192307455683E+03   -0.10862E-02   -0.47497E-02  8160   0.483E-01    0.104E-01
DAV:   2    -0.192308076090E+03   -0.62041E-03   -0.30639E-03 12480   0.348E-01    0.230E-01
DAV:   3    -0.192307405013E+03    0.67108E-03   -0.99804E-04 11080   0.296E-01    0.615E-02
DAV:   4    -0.192307409445E+03   -0.44322E-05   -0.17479E-04  7360   0.958E-02
  61 F= -.19230741E+03 E0= -.19224234E+03  d E =-.970202E-03
       N       E                     dE             d eps       ncg     rms          rms(c)
DAV:   1    -0.192308839208E+03   -0.14342E-02   -0.97303E-02  8160   0.672E-01    0.970E-02
DAV:   2    -0.192309657248E+03   -0.81804E-03   -0.51231E-03 12560   0.316E-01    0.225E-01
DAV:   3    -0.192309101117E+03    0.55613E-03   -0.10603E-03 10400   0.295E-01    0.750E-02
DAV:   4    -0.192309049034E+03    0.52082E-04   -0.96262E-05  6040   0.759E-02
  62 F= -.19230905E+03 E0= -.19224408E+03  d E =-.163959E-02
       N       E                     dE             d eps       ncg     rms          rms(c)
DAV:   1    -0.192310861657E+03   -0.17605E-02   -0.30956E-01  8160   0.119E+00    0.151E-01
DAV:   2    -0.192312124465E+03   -0.12628E-02   -0.14931E-02 11560   0.384E-01    0.187E-01
DAV:   3    -0.192312039648E+03    0.84817E-04   -0.16894E-03 12160   0.364E-01    0.183E-01
DAV:   4    -0.192311670393E+03    0.36926E-03   -0.55231E-04  9520   0.212E-01    0.762E-02
DAV:   5    -0.192311671213E+03   -0.82000E-06   -0.27698E-04  9440   0.144E-01
  63 F= -.19231167E+03 E0= -.19224686E+03  d E =-.262218E-02
       N       E                     dE             d eps       ncg     rms          rms(c)
DAV:   1    -0.192312860679E+03   -0.11903E-02   -0.24740E-01  8160   0.106E+00    0.137E-01
DAV:   2    -0.192313916753E+03   -0.10561E-02   -0.11750E-02 11600   0.388E-01    0.191E-01
DAV:   3    -0.192313666053E+03    0.25070E-03   -0.13941E-03 11880   0.342E-01    0.140E-01
DAV:   4    -0.192313465257E+03    0.20080E-03   -0.39787E-04  8800   0.180E-01    0.744E-02
DAV:   5    -0.192313444111E+03    0.21146E-04   -0.24135E-04  8960   0.131E-01
  64 F= -.19231344E+03 E0= -.19224892E+03  d E =-.177290E-02
       N       E                     dE             d eps       ncg     rms          rms(c)
DAV:   1    -0.192313877624E+03   -0.41237E-03   -0.65273E-01  8160   0.172E+00    0.219E-01
DAV:   2    -0.192316783371E+03   -0.29057E-02   -0.31373E-02 11800   0.636E-01    0.314E-01
DAV:   3    -0.192315904602E+03    0.87877E-03   -0.36308E-03 12800   0.521E-01    0.190E-01
DAV:   4    -0.192315430453E+03    0.47415E-03   -0.87103E-04 10120   0.239E-01    0.913E-02
DAV:   5    -0.192315540953E+03   -0.11050E-03   -0.57650E-04 11080   0.205E-01    0.139E-01
DAV:   6    -0.192315392724E+03    0.14823E-03   -0.46596E-04  9040   0.185E-01    0.603E-02
DAV:   7    -0.192315328754E+03    0.63970E-04   -0.11957E-04  6720   0.637E-02
  65 F= -.19231533E+03 E0= -.19225141E+03  d E =-.188464E-02
       N       E                     dE             d eps       ncg     rms          rms(c)
DAV:   1    -0.192315405985E+03   -0.13261E-04   -0.35841E-03  8800   0.142E-01    0.354E-02
DAV:   2    -0.192315400703E+03    0.52822E-05   -0.15522E-04  7360   0.830E-02
  66 F= -.19231540E+03 E0= -.19225137E+03  d E =-.719486E-04
