<?xml version="1.0" encoding="ISO-8859-1"?>
<modeling>
 <generator>
  <i name="program" type="string">vasp </i>
  <i name="version" type="string">5.4.1  </i>
  <i name="subversion" type="string">05Feb16 (build Jul 05 2020 17:13:04) complex                          parallel </i>
  <i name="platform" type="string">IFC91_ompi </i>
  <i name="date" type="string">2024 05 11 </i>
  <i name="time" type="string">08:32:54 </i>
 </generator>
 <incar>
  <i type="int" name="ISTART">     0</i>
  <i type="string" name="PREC">normal</i>
  <i type="string" name="ALGO"> Normal</i>
  <i type="int" name="ISPIN">     1</i>
  <i type="int" name="ICHARG">     2</i>
  <i type="int" name="IBRION">     1</i>
  <i type="int" name="NSW">   100</i>
  <i type="int" name="ISIF">     3</i>
  <i type="int" name="ISYM">     0</i>
  <i name="SYMPREC">      0.00000001</i>
  <i name="POTIM">      0.50000000</i>
  <i type="logical" name="LREAL"> F  </i>
  <i type="logical" name="LPLANE"> F  </i>
  <i type="int" name="ISMEAR">     0</i>
  <i type="logical" name="LWAVE"> F  </i>
  <i type="logical" name="LCHARG"> F  </i>
  <v type="int" name="KPOINT_BSE">    -1     0     0     0</v>
 </incar>
 <kpoints>
  <generation param="Gamma">
   <v type="int" name="divisions">       8        8        1 </v>
   <v name="usershift">      0.00000000       0.00000000       0.00000000 </v>
   <v name="genvec1">      0.12500000       0.00000000       0.00000000 </v>
   <v name="genvec2">     -0.00000000       0.12500000       0.00000000 </v>
   <v name="genvec3">      0.00000000       0.00000000       1.00000000 </v>
   <v name="shift">      0.00000000       0.00000000       0.00000000 </v>
  </generation>
  <varray name="kpointlist" >
   <v>       0.00000000       0.00000000       0.00000000 </v>
   <v>       0.12500000       0.00000000       0.00000000 </v>
   <v>       0.25000000       0.00000000       0.00000000 </v>
   <v>       0.37500000       0.00000000       0.00000000 </v>
   <v>       0.50000000       0.00000000       0.00000000 </v>
   <v>       0.00000000       0.12500000       0.00000000 </v>
   <v>       0.12500000       0.12500000       0.00000000 </v>
   <v>       0.25000000       0.12500000       0.00000000 </v>
   <v>       0.37500000       0.12500000       0.00000000 </v>
   <v>       0.50000000       0.12500000       0.00000000 </v>
   <v>      -0.37500000       0.12500000       0.00000000 </v>
   <v>      -0.25000000       0.12500000       0.00000000 </v>
   <v>      -0.12500000       0.12500000       0.00000000 </v>
   <v>       0.00000000       0.25000000       0.00000000 </v>
   <v>       0.12500000       0.25000000       0.00000000 </v>
   <v>       0.25000000       0.25000000       0.00000000 </v>
   <v>       0.37500000       0.25000000       0.00000000 </v>
   <v>       0.50000000       0.25000000       0.00000000 </v>
   <v>      -0.37500000       0.25000000       0.00000000 </v>
   <v>      -0.25000000       0.25000000       0.00000000 </v>
   <v>      -0.12500000       0.25000000       0.00000000 </v>
   <v>      -0.00000000       0.37500000       0.00000000 </v>
   <v>       0.12500000       0.37500000       0.00000000 </v>
   <v>       0.25000000       0.37500000       0.00000000 </v>
   <v>       0.37500000       0.37500000       0.00000000 </v>
   <v>       0.50000000       0.37500000       0.00000000 </v>
   <v>      -0.37500000       0.37500000       0.00000000 </v>
   <v>      -0.25000000       0.37500000       0.00000000 </v>
   <v>      -0.12500000       0.37500000       0.00000000 </v>
   <v>       0.00000000       0.50000000       0.00000000 </v>
   <v>       0.12500000       0.50000000       0.00000000 </v>
   <v>       0.25000000       0.50000000       0.00000000 </v>
   <v>       0.37500000       0.50000000       0.00000000 </v>
   <v>       0.50000000       0.50000000       0.00000000 </v>
  </varray>
  <varray name="weights" >
   <v>       0.01562500 </v>
   <v>       0.03125000 </v>
   <v>       0.03125000 </v>
   <v>       0.03125000 </v>
   <v>       0.01562500 </v>
   <v>       0.03125000 </v>
   <v>       0.03125000 </v>
   <v>       0.03125000 </v>
   <v>       0.03125000 </v>
   <v>       0.03125000 </v>
   <v>       0.03125000 </v>
   <v>       0.03125000 </v>
   <v>       0.03125000 </v>
   <v>       0.03125000 </v>
   <v>       0.03125000 </v>
   <v>       0.03125000 </v>
   <v>       0.03125000 </v>
   <v>       0.03125000 </v>
   <v>       0.03125000 </v>
   <v>       0.03125000 </v>
   <v>       0.03125000 </v>
   <v>       0.03125000 </v>
   <v>       0.03125000 </v>
   <v>       0.03125000 </v>
   <v>       0.03125000 </v>
   <v>       0.03125000 </v>
   <v>       0.03125000 </v>
   <v>       0.03125000 </v>
   <v>       0.03125000 </v>
   <v>       0.01562500 </v>
   <v>       0.03125000 </v>
   <v>       0.03125000 </v>
   <v>       0.03125000 </v>
   <v>       0.01562500 </v>
  </varray>
 </kpoints>
 <parameters>
  <separator name="general" >
   <i type="string" name="SYSTEM">unknown system</i>
   <i type="logical" name="LCOMPAT"> F  </i>
  </separator>
  <separator name="electronic" >
   <i type="string" name="PREC">normal</i>
   <i name="ENMAX">    280.00000000</i>
   <i name="ENAUG">    373.43800000</i>
   <i name="EDIFF">      0.00010000</i>
   <i type="int" name="IALGO">    38</i>
   <i type="int" name="IWAVPR">    11</i>
   <i type="int" name="NBANDS">   120</i>
   <i name="NELECT">    159.00000000</i>
   <i type="int" name="TURBO">     0</i>
   <i type="int" name="IRESTART">     0</i>
   <i type="int" name="NREBOOT">     0</i>
   <i type="int" name="NMIN">     0</i>
   <i name="EREF">      0.00000000</i>
   <separator name="electronic smearing" >
    <i type="int" name="ISMEAR">     0</i>
    <i name="SIGMA">      0.20000000</i>
    <i name="KSPACING">      0.50000000</i>
    <i type="logical" name="KGAMMA"> T  </i>
   </separator>
   <separator name="electronic projectors" >
    <i type="logical" name="LREAL"> F  </i>
    <v name="ROPT">      0.00000000      0.00000000      0.00000000      0.00000000</v>
    <i type="int" name="LMAXPAW">  -100</i>
    <i type="int" name="LMAXMIX">     2</i>
    <i type="logical" name="NLSPLINE"> F  </i>
   </separator>
   <separator name="electronic startup" >
    <i type="int" name="ISTART">     0</i>
    <i type="int" name="ICHARG">     2</i>
    <i type="int" name="INIWAV">     1</i>
   </separator>
   <separator name="electronic spin" >
    <i type="int" name="ISPIN">     1</i>
    <i type="logical" name="LNONCOLLINEAR"> F  </i>
    <v name="MAGMOM">      1.00000000      1.00000000      1.00000000      1.00000000      1.00000000      1.00000000      1.00000000      1.00000000      1.00000000      1.00000000      1.00000000      1.00000000      1.00000000      1.00000000      1.00000000      1.00000000      1.00000000      1.00000000      1.00000000      1.00000000
      1.00000000      1.00000000      1.00000000      1.00000000      1.00000000      1.00000000      1.00000000</v>
    <i name="NUPDOWN">     -1.00000000</i>
    <i type="logical" name="LSORBIT"> F  </i>
    <v name="SAXIS">      0.00000000      0.00000000      1.00000000</v>
    <i type="logical" name="LSPIRAL"> F  </i>
    <v name="QSPIRAL">      0.00000000      0.00000000      0.00000000</v>
    <i type="logical" name="LZEROZ"> F  </i>
   </separator>
   <separator name="electronic exchange-correlation" >
    <i type="logical" name="LASPH"> F  </i>
    <i type="logical" name="LMETAGGA"> F  </i>
   </separator>
   <separator name="electronic convergence" >
    <i type="int" name="NELM">    60</i>
    <i type="int" name="NELMDL">    -5</i>
    <i type="int" name="NELMIN">     2</i>
    <i name="ENINI">    280.00000000</i>
    <separator name="electronic convergence detail" >
     <i type="logical" name="LDIAG"> T  </i>
     <i type="logical" name="LSUBROT"> F  </i>
     <i name="WEIMIN">      0.00100000</i>
     <i name="EBREAK">      0.00000021</i>
     <i name="DEPER">      0.30000000</i>
     <i type="int" name="NRMM">     4</i>
     <i name="TIME">      0.40000000</i>
    </separator>
   </separator>
   <separator name="electronic mixer" >
    <i name="AMIX">      0.40000000</i>
    <i name="BMIX">      1.00000000</i>
    <i name="AMIN">      0.10000000</i>
    <i name="AMIX_MAG">      1.60000000</i>
    <i name="BMIX_MAG">      1.00000000</i>
    <separator name="electronic mixer details" >
     <i type="int" name="IMIX">     4</i>
     <i type="logical" name="MIXFIRST"> F  </i>
     <i type="int" name="MAXMIX">   -45</i>
     <i name="WC">    100.00000000</i>
     <i type="int" name="INIMIX">     1</i>
     <i type="int" name="MIXPRE">     1</i>
     <i type="int" name="MREMOVE">     5</i>
    </separator>
   </separator>
   <separator name="electronic dipolcorrection" >
    <i type="logical" name="LDIPOL"> F  </i>
    <i type="logical" name="LMONO"> F  </i>
    <i type="int" name="IDIPOL">     0</i>
    <i name="EPSILON">      1.00000000</i>
    <v name="DIPOL">   -100.00000000   -100.00000000   -100.00000000</v>
    <i name="EFIELD">      0.00000000</i>
   </separator>
  </separator>
  <separator name="grids" >
   <i type="int" name="NGX">    42</i>
   <i type="int" name="NGY">    42</i>
   <i type="int" name="NGZ">   126</i>
   <i type="int" name="NGXF">    84</i>
   <i type="int" name="NGYF">    84</i>
   <i type="int" name="NGZF">   252</i>
   <i type="logical" name="ADDGRID"> F  </i>
  </separator>
  <separator name="ionic" >
   <i type="int" name="NSW">   100</i>
   <i type="int" name="IBRION">     1</i>
   <i type="int" name="ISIF">     3</i>
   <i name="PSTRESS">      0.00000000</i>
   <i name="EDIFFG">      0.00100000</i>
   <i type="int" name="NFREE">     0</i>
   <i name="POTIM">      0.50000000</i>
   <i name="SMASS">     -3.00000000</i>
   <i name="SCALEE">      1.00000000</i>
  </separator>
  <separator name="ionic md" >
   <i name="TEBEG">      0.00010000</i>
   <i name="TEEND">      0.00010000</i>
   <i type="int" name="NBLOCK">     1</i>
   <i type="int" name="KBLOCK">   100</i>
   <i type="int" name="NPACO">   256</i>
   <i name="APACO">     16.00000000</i>
  </separator>
  <separator name="symmetry" >
   <i type="int" name="ISYM">     0</i>
   <i name="SYMPREC">      0.00000001</i>
  </separator>
  <separator name="dos" >
   <i type="logical" name="LORBIT"> F  </i>
   <v name="RWIGS">     -1.00000000     -1.00000000     -1.00000000     -1.00000000</v>
   <i type="int" name="NEDOS">   301</i>
   <i name="EMIN">     10.00000000</i>
   <i name="EMAX">    -10.00000000</i>
   <i name="EFERMI">      0.00000000</i>
  </separator>
  <separator name="writing" >
   <i type="int" name="NWRITE">     2</i>
   <i type="logical" name="LWAVE"> F  </i>
   <i type="logical" name="LCHARG"> F  </i>
   <i type="logical" name="LPARD"> F  </i>
   <i type="logical" name="LVTOT"> F  </i>
   <i type="logical" name="LVHAR"> F  </i>
   <i type="logical" name="LELF"> F  </i>
   <i type="logical" name="LOPTICS"> F  </i>
   <v name="STM">      0.00000000      0.00000000      0.00000000      0.00000000      0.00000000      0.00000000      0.00000000</v>
  </separator>
  <separator name="performance" >
   <i type="int" name="NPAR">    40</i>
   <i type="int" name="NSIM">     4</i>
   <i type="int" name="NBLK">    -1</i>
   <i type="logical" name="LPLANE"> F  </i>
   <i type="logical" name="LSCALAPACK"> T  </i>
   <i type="logical" name="LSCAAWARE"> F  </i>
   <i type="logical" name="LSCALU"> F  </i>
   <i type="logical" name="LASYNC"> F  </i>
   <i type="logical" name="LORBITALREAL"> F  </i>
  </separator>
  <separator name="miscellaneous" >
   <i type="int" name="IDIOT">     3</i>
   <i type="logical" name="LMUSIC"> F  </i>
   <v name="POMASS">     50.94100000     95.94000000    183.85000000     32.06600000</v>
   <v name="DARWINR">      0.00000000      0.00000000      0.00000000      0.00000000</v>
   <v name="DARWINV">      1.00000000      1.00000000      1.00000000      1.00000000</v>
   <i type="logical" name="LCORR"> T  </i>
  </separator>
  <i type="logical" name="GGA_COMPAT"> T  </i>
  <i type="logical" name="LBERRY"> F  </i>
  <i type="int" name="ICORELEVEL">     0</i>
  <i type="logical" name="LDAU"> F  </i>
  <i type="int" name="I_CONSTRAINED_M">     0</i>
  <separator name="electronic exchange-correlation" >
   <i type="string" name="GGA">--</i>
   <i type="int" name="VOSKOWN">     0</i>
   <i type="logical" name="LHFCALC"> F  </i>
   <i type="string" name="PRECFOCK"></i>
   <i type="logical" name="LSYMGRAD"> F  </i>
   <i type="logical" name="LHFONE"> F  </i>
   <i type="logical" name="LRHFCALC"> F  </i>
   <i type="logical" name="LTHOMAS"> F  </i>
   <i type="logical" name="LMODELHF"> F  </i>
   <i name="ENCUT4O">     -1.00000000</i>
   <i type="int" name="EXXOEP">     0</i>
   <i type="int" name="FOURORBIT">     0</i>
   <i name="AEXX">      0.00000000</i>
   <i name="HFALPHA">      0.00000000</i>
   <i name="MCALPHA">      0.00000000</i>
   <i name="ALDAX">      1.00000000</i>
   <i name="AGGAX">      1.00000000</i>
   <i name="ALDAC">      1.00000000</i>
   <i name="AGGAC">      1.00000000</i>
   <i type="int" name="NKREDX">     1</i>
   <i type="int" name="NKREDY">     1</i>
   <i type="int" name="NKREDZ">     1</i>
   <i type="logical" name="SHIFTRED"> F  </i>
   <i type="logical" name="ODDONLY"> F  </i>
   <i type="logical" name="EVENONLY"> F  </i>
   <i type="int" name="LMAXFOCK">     0</i>
   <i type="int" name="NMAXFOCKAE">     0</i>
   <i type="logical" name="LFOCKAEDFT"> F  </i>
   <i name="HFSCREEN">      0.00000000</i>
   <i name="HFSCREENC">      0.00000000</i>
   <i type="int" name="NBANDSGWLOW">     0</i>
  </separator>
  <separator name="vdW DFT" >
   <i type="logical" name="LUSE_VDW"> F  </i>
   <i name="Zab_VDW">     -0.84910000</i>
   <i name="PARAM1">      0.12340000</i>
   <i name="PARAM2">      1.00000000</i>
   <i name="PARAM3">      0.00000000</i>
  </separator>
  <separator name="model GW" >
   <i type="int" name="MODEL_GW">     0</i>
   <i name="MODEL_EPS0">     58.26239943</i>
   <i name="MODEL_ALPHA">      1.00000000</i>
  </separator>
  <separator name="linear response parameters" >
   <i type="logical" name="LEPSILON"> F  </i>
   <i type="logical" name="LRPA"> F  </i>
   <i type="logical" name="LNABLA"> F  </i>
   <i type="logical" name="LVEL"> F  </i>
   <i type="int" name="KINTER">     0</i>
   <i name="CSHIFT">      0.10000000</i>
   <i name="OMEGAMAX">     -1.00000000</i>
   <i name="DEG_THRESHOLD">      0.00200000</i>
  </separator>
  <separator name="orbital magnetization" >
   <i type="logical" name="NUCIND"> F  </i>
   <v name="MAGPOS">      0.00000000      0.00000000      0.00000000</v>
   <i type="logical" name="LNICSALL"> T  </i>
   <i type="logical" name="ORBITALMAG"> F  </i>
   <i type="logical" name="LMAGBLOCH"> F  </i>
   <i type="logical" name="LCHIMAG"> F  </i>
   <i type="logical" name="LGAUGE"> T  </i>
   <i type="int" name="MAGATOM">     0</i>
   <v name="MAGDIPOL">      0.00000000      0.00000000      0.00000000</v>
   <v name="AVECCONST">      0.00000000      0.00000000      0.00000000</v>
  </separator>
  <separator name="response functions" >
   <i type="logical" name="LADDER"> F  </i>
   <i type="logical" name="LFXC"> F  </i>
   <i type="logical" name="LHARTREE"> T  </i>
   <i type="int" name="IBSE">     0</i>
   <v type="int" name="KPOINT">    -1     0     0     0</v>
   <i type="logical" name="LTCTE"> F  </i>
   <i type="logical" name="LTETE"> F  </i>
   <i type="logical" name="LTRIPLET"> F  </i>
   <i type="logical" name="LFXCEPS"> F  </i>
   <i type="logical" name="LFXHEG"> F  </i>
   <i type="int" name="NATURALO">     0</i>
   <i type="logical" name="L2ORDER"> F  </i>
   <i type="logical" name="LUSEW"> F  </i>
   <i name="ENCUTGW">     -2.00000000</i>
   <i name="ENCUTGWSOFT">     -2.00000000</i>
   <i name="ENCUTLF">     -1.00000000</i>
   <i type="int" name="LMAXMP2">    -1</i>
   <i name="SCISSOR">      0.00000000</i>
   <i type="int" name="NOMEGA">     0</i>
   <i type="int" name="NOMEGAR">     0</i>
   <i type="int" name="NBANDSGW">    -1</i>
   <i type="int" name="NBANDSO">    -1</i>
   <i type="int" name="NBANDSV">    -1</i>
   <i type="int" name="NELM">     1</i>
   <i type="int" name="NELMHF">     1</i>
   <i type="int" name="DIM">     3</i>
   <i type="int" name="ANTIRES">     0</i>
   <i name="OMEGAMAX">    -30.00000000</i>
   <i name="OMEGAMIN">    -30.00000000</i>
   <i name="OMEGATL">   -200.00000000</i>
   <i type="int" name="OMEGAGRID">     0</i>
   <i name="CSHIFT">     -0.10000000</i>
   <i type="logical" name="SELFENERGY"> F  </i>
   <i type="logical" name="LSPECTRAL"> F  </i>
   <i type="logical" name="LSPECTRALGW"> F  </i>
   <i type="logical" name="LSINGLES"> F  </i>
   <i type="logical" name="LFERMIGW"> F  </i>
   <i type="logical" name="ODDONLYGW"> F  </i>
   <i type="logical" name="EVENONLYGW"> F  </i>
   <i type="int" name="NKREDLFX">     1</i>
   <i type="int" name="NKREDLFY">     1</i>
   <i type="int" name="NKREDLFZ">     1</i>
   <i type="int" name="MAXMEM">  1800</i>
   <i type="int" name="TELESCOPE">     0</i>
   <i type="int" name="TAUPAR">     1</i>
   <i type="int" name="OMEGAPAR">    -1</i>
   <i name="LAMBDA">      1.00000000</i>
  </separator>
  <separator name="External order field" >
   <i name="OFIELD_KAPPA">      0.00000000</i>
   <v name="OFIELD_K">      0.00000000      0.00000000      0.00000000</v>
   <i name="OFIELD_Q6_NEAR">      0.00000000</i>
   <i name="OFIELD_Q6_FAR">      0.00000000</i>
   <i name="OFIELD_A">      0.00000000</i>
  </separator>
 </parameters>
 <atominfo>
  <atoms>      27 </atoms>
  <types>       4 </types>
  <array name="atoms" >
   <dimension dim="1">ion</dimension>
   <field type="string">element</field>
   <field type="int">atomtype</field>
   <set>
    <rc><c>V </c><c>   1</c></rc>
    <rc><c>V </c><c>   1</c></rc>
    <rc><c>V </c><c>   1</c></rc>
    <rc><c>Mo</c><c>   2</c></rc>
    <rc><c>Mo</c><c>   2</c></rc>
    <rc><c>Mo</c><c>   2</c></rc>
    <rc><c>W </c><c>   3</c></rc>
    <rc><c>W </c><c>   3</c></rc>
    <rc><c>W </c><c>   3</c></rc>
    <rc><c>S </c><c>   4</c></rc>
    <rc><c>S </c><c>   4</c></rc>
    <rc><c>S </c><c>   4</c></rc>
    <rc><c>S </c><c>   4</c></rc>
    <rc><c>S </c><c>   4</c></rc>
    <rc><c>S </c><c>   4</c></rc>
    <rc><c>S </c><c>   4</c></rc>
    <rc><c>S </c><c>   4</c></rc>
    <rc><c>S </c><c>   4</c></rc>
    <rc><c>S </c><c>   4</c></rc>
    <rc><c>S </c><c>   4</c></rc>
    <rc><c>S </c><c>   4</c></rc>
    <rc><c>S </c><c>   4</c></rc>
    <rc><c>S </c><c>   4</c></rc>
    <rc><c>S </c><c>   4</c></rc>
    <rc><c>S </c><c>   4</c></rc>
    <rc><c>S </c><c>   4</c></rc>
    <rc><c>S </c><c>   4</c></rc>
   </set>
  </array>
  <array name="atomtypes" >
   <dimension dim="1">type</dimension>
   <field type="int">atomspertype</field>
   <field type="string">element</field>
   <field>mass</field>
   <field>valence</field>
   <field type="string">pseudopotential</field>
   <set>
    <rc><c>   3</c><c>V </c><c>     50.94100000</c><c>      5.00000000</c><c> PAW_PBE V 08Apr2002                    </c></rc>
    <rc><c>   3</c><c>Mo</c><c>     95.94000000</c><c>      6.00000000</c><c> PAW_PBE Mo 08Apr2002                   </c></rc>
    <rc><c>   3</c><c>W </c><c>    183.85000000</c><c>      6.00000000</c><c> PAW_PBE W 08Apr2002                    </c></rc>
    <rc><c>  18</c><c>S </c><c>     32.06600000</c><c>      6.00000000</c><c>  PAW_PBE S 17Jan2003                   </c></rc>
   </set>
  </array>
 </atominfo>
 <structure name="initialpos" >
  <crystal>
   <varray name="basis" >
    <v>       8.66999996       5.03999989       0.00000000 </v>
    <v>      -8.66999982       5.04000013       0.00000000 </v>
    <v>       0.00000000       0.00000000      30.00000000 </v>
   </varray>
   <i name="volume">   2621.80797419 </i>
   <varray name="rec_basis" >
    <v>       0.05767013       0.09920635       0.00000000 </v>
    <v>      -0.05767013       0.09920635       0.00000000 </v>
    <v>       0.00000000       0.00000000       0.03333333 </v>
   </varray>
  </crystal>
  <varray name="positions" >
   <v>       0.00000000       0.66666669       0.00000000 </v>
   <v>       0.66666669       0.00000000       0.00000000 </v>
   <v>       0.00000000       0.00000000       0.00000000 </v>
   <v>       0.33333334       0.00000000       0.00000000 </v>
   <v>       0.33333334       0.33333334       0.00000000 </v>
   <v>       0.66666669       0.66666669       0.00000000 </v>
   <v>       1.00000000       0.33333334       0.00000000 </v>
   <v>       0.33333334       0.66666669       0.00000000 </v>
   <v>       0.66666669       0.33333334       0.00000000 </v>
   <v>       0.11068511       0.22244981       0.95539999 </v>
   <v>       0.22244981       0.11068511       0.04460000 </v>
   <v>       0.11068511       0.55578315       0.95539999 </v>
   <v>       0.22244981       0.44401845       0.04460000 </v>
   <v>       0.11068511       0.88911647       0.95539999 </v>
   <v>       0.22244981       0.77735180       0.04460000 </v>
   <v>       0.44401845       0.22244981       0.95539999 </v>
   <v>       0.55578315       0.11068511       0.04460000 </v>
   <v>       0.44401845       0.55578315       0.95539999 </v>
   <v>       0.55578315       0.44401845       0.04460000 </v>
   <v>       0.44401845       0.88911647       0.95539999 </v>
   <v>       0.55578315       0.77735180       0.04460000 </v>
   <v>       0.77735180       0.22244981       0.95539999 </v>
   <v>       0.88911647       0.11068511       0.04460000 </v>
   <v>       0.77735180       0.55578315       0.95539999 </v>
   <v>       0.88911647       0.44401845       0.04460000 </v>
   <v>       0.77735180       0.88911647       0.95539999 </v>
   <v>       0.88911647       0.77735180       0.04460000 </v>
  </varray>
 </structure>
 <calculation>
  <scstep>
   <time name="dav">   21.68   21.74</time>
   <time name="total">   21.73   21.79</time>
   <energy>
    <i name="alphaZ">     81.65567618 </i>
    <i name="ewald">  41890.25208822 </i>
    <i name="hartreedc"> -47722.88713394 </i>
    <i name="XCdc">   -242.92853618 </i>
    <i name="pawpsdc">   3467.42045192 </i>
    <i name="pawaedc">  -2871.19716117 </i>
    <i name="eentropy">     -0.53190833 </i>
    <i name="bandstr">   -237.54494715 </i>
    <i name="atom">   6761.44252427 </i>
    <i name="e_fr_energy">   1125.68105381 </i>
    <i name="e_wo_entrp">   1126.21296214 </i>
    <i name="e_0_energy">   1125.94700797 </i>
   </energy>
  </scstep>
  <scstep>
   <time name="dav">   27.60   27.66</time>
   <time name="total">   27.60   27.67</time>
   <energy>
    <i name="e_fr_energy">     -2.19634794 </i>
    <i name="e_wo_entrp">     -2.02394573 </i>
    <i name="e_0_energy">     -2.11014683 </i>
   </energy>
  </scstep>
  <scstep>
   <time name="dav">   27.53   27.60</time>
   <time name="total">   27.53   27.61</time>
   <energy>
    <i name="e_fr_energy">   -199.62968327 </i>
    <i name="e_wo_entrp">   -199.36151609 </i>
    <i name="e_0_energy">   -199.49559968 </i>
   </energy>
  </scstep>
  <scstep>
   <time name="dav">   29.54   29.61</time>
   <time name="total">   29.54   29.62</time>
   <energy>
    <i name="e_fr_energy">   -208.94074753 </i>
    <i name="e_wo_entrp">   -208.62249135 </i>
    <i name="e_0_energy">   -208.78161944 </i>
   </energy>
  </scstep>
  <scstep>
   <time name="dav">   28.85   28.92</time>
   <time name="total">   29.31   29.39</time>
   <energy>
    <i name="e_fr_energy">   -209.28683650 </i>
    <i name="e_wo_entrp">   -208.97139587 </i>
    <i name="e_0_energy">   -209.12911618 </i>
   </energy>
  </scstep>
  <scstep>
   <time name="dav">   30.64   30.71</time>
   <time name="total">   31.13   31.22</time>
   <energy>
    <i name="e_fr_energy">   -236.74802708 </i>
    <i name="e_wo_entrp">   -236.46099262 </i>
    <i name="e_0_energy">   -236.60450985 </i>
   </energy>
  </scstep>
  <scstep>
   <time name="dav">   32.58   32.66</time>
   <time name="total">   33.09   33.17</time>
   <energy>
    <i name="e_fr_energy">   -196.69537540 </i>
    <i name="e_wo_entrp">   -196.37463259 </i>
    <i name="e_0_energy">   -196.53500399 </i>
   </energy>
  </scstep>
  <scstep>
   <time name="dav">   29.69   29.76</time>
   <time name="total">   30.20   30.28</time>
   <energy>
    <i name="e_fr_energy">   -190.04325413 </i>
    <i name="e_wo_entrp">   -189.76978726 </i>
    <i name="e_0_energy">   -189.90652070 </i>
   </energy>
  </scstep>
  <scstep>
   <time name="dav">   29.15   29.22</time>
   <time name="total">   29.67   29.75</time>
   <energy>
    <i name="e_fr_energy">   -188.24768300 </i>
    <i name="e_wo_entrp">   -187.90932751 </i>
    <i name="e_0_energy">   -188.07850525 </i>
   </energy>
  </scstep>
  <scstep>
   <time name="dav">   32.52   32.60</time>
   <time name="total">   33.05   33.14</time>
   <energy>
    <i name="e_fr_energy">   -187.05981922 </i>
    <i name="e_wo_entrp">   -186.71649785 </i>
    <i name="e_0_energy">   -186.88815854 </i>
   </energy>
  </scstep>
  <scstep>
   <time name="dav">   31.38   31.46</time>
   <time name="total">   31.91   32.00</time>
   <energy>
    <i name="e_fr_energy">   -187.00135820 </i>
    <i name="e_wo_entrp">   -186.65008389 </i>
    <i name="e_0_energy">   -186.82572104 </i>
   </energy>
  </scstep>
  <scstep>
   <time name="dav">   31.12   31.19</time>
   <time name="total">   31.65   31.73</time>
   <energy>
    <i name="e_fr_energy">   -187.12775214 </i>
    <i name="e_wo_entrp">   -186.79428637 </i>
    <i name="e_0_energy">   -186.96101926 </i>
   </energy>
  </scstep>
  <scstep>
   <time name="dav">   31.27   31.35</time>
   <time name="total">   31.81   31.89</time>
   <energy>
    <i name="e_fr_energy">   -186.91433176 </i>
    <i name="e_wo_entrp">   -186.57730506 </i>
    <i name="e_0_energy">   -186.74581841 </i>
   </energy>
  </scstep>
  <scstep>
   <time name="dav">   31.75   31.82</time>
   <time name="total">   32.28   32.37</time>
   <energy>
    <i name="e_fr_energy">   -186.90183804 </i>
    <i name="e_wo_entrp">   -186.55902325 </i>
    <i name="e_0_energy">   -186.73043064 </i>
   </energy>
  </scstep>
  <scstep>
   <time name="dav">   30.61   30.68</time>
   <time name="total">   31.14   31.22</time>
   <energy>
    <i name="e_fr_energy">   -186.87294567 </i>
    <i name="e_wo_entrp">   -186.52674654 </i>
    <i name="e_0_energy">   -186.69984611 </i>
   </energy>
  </scstep>
  <scstep>
   <time name="dav">   30.60   30.67</time>
   <time name="total">   31.13   31.21</time>
   <energy>
    <i name="e_fr_energy">   -186.86835999 </i>
    <i name="e_wo_entrp">   -186.52274741 </i>
    <i name="e_0_energy">   -186.69555370 </i>
   </energy>
  </scstep>
  <scstep>
   <time name="dav">   31.48   31.56</time>
   <time name="total">   32.02   32.10</time>
   <energy>
    <i name="e_fr_energy">   -186.86604559 </i>
    <i name="e_wo_entrp">   -186.52217518 </i>
    <i name="e_0_energy">   -186.69411038 </i>
   </energy>
  </scstep>
  <scstep>
   <time name="dav">   28.70   28.77</time>
   <time name="total">   29.23   29.31</time>
   <energy>
    <i name="e_fr_energy">   -186.86549145 </i>
    <i name="e_wo_entrp">   -186.52159539 </i>
    <i name="e_0_energy">   -186.69354342 </i>
   </energy>
  </scstep>
  <scstep>
   <time name="dav">   25.45   25.51</time>
   <time name="total">   25.99   26.05</time>
   <energy>
    <i name="e_fr_energy">   -186.86531606 </i>
    <i name="e_wo_entrp">   -186.52115068 </i>
    <i name="e_0_energy">   -186.69323337 </i>
   </energy>
  </scstep>
  <scstep>
   <time name="dav">   23.71   23.76</time>
   <time name="total">   24.24   24.30</time>
   <energy>
    <i name="e_fr_energy">   -186.86614814 </i>
    <i name="e_wo_entrp">   -186.52215375 </i>
    <i name="e_0_energy">   -186.69415094 </i>
   </energy>
  </scstep>
  <scstep>
   <time name="dav">   22.02   22.07</time>
   <time name="total">   22.55   22.61</time>
   <energy>
    <i name="e_fr_energy">   -186.86678167 </i>
    <i name="e_wo_entrp">   -186.52289467 </i>
    <i name="e_0_energy">   -186.69483817 </i>
   </energy>
  </scstep>
  <scstep>
   <time name="dav">   20.61   20.66</time>
   <time name="total">   21.14   21.20</time>
   <energy>
    <i name="e_fr_energy">   -186.86786315 </i>
    <i name="e_wo_entrp">   -186.52383027 </i>
    <i name="e_0_energy">   -186.69584671 </i>
   </energy>
  </scstep>
  <scstep>
   <time name="dav">   20.47   20.52</time>
   <time name="total">   21.00   21.06</time>
   <energy>
    <i name="e_fr_energy">   -186.86902306 </i>
    <i name="e_wo_entrp">   -186.52511502 </i>
    <i name="e_0_energy">   -186.69706904 </i>
   </energy>
  </scstep>
  <scstep>
   <time name="dav">   18.70   18.75</time>
   <time name="total">   19.24   19.29</time>
   <energy>
    <i name="e_fr_energy">   -186.86961739 </i>
    <i name="e_wo_entrp">   -186.52566773 </i>
    <i name="e_0_energy">   -186.69764256 </i>
   </energy>
  </scstep>
  <scstep>
   <time name="dav">   16.45   16.49</time>
   <time name="total">   16.99   17.04</time>
   <energy>
    <i name="e_fr_energy">   -186.86997009 </i>
    <i name="e_wo_entrp">   -186.52599897 </i>
    <i name="e_0_energy">   -186.69798453 </i>
   </energy>
  </scstep>
  <scstep>
   <time name="dav">   18.83   18.88</time>
   <time name="total">   19.37   19.42</time>
   <energy>
    <i name="e_fr_energy">   -186.87021636 </i>
    <i name="e_wo_entrp">   -186.52626180 </i>
    <i name="e_0_energy">   -186.69823908 </i>
   </energy>
  </scstep>
  <scstep>
   <time name="dav">   19.98   20.03</time>
   <time name="total">   20.02   20.07</time>
   <energy>
    <i name="alphaZ">     81.65567618 </i>
    <i name="ewald">  41890.25208822 </i>
    <i name="hartreedc"> -47833.01540678 </i>
    <i name="XCdc">   -231.60443099 </i>
    <i name="pawpsdc">   4192.12210298 </i>
    <i name="pawaedc">  -3610.13622939 </i>
    <i name="eentropy">     -0.34396015 </i>
    <i name="bandstr">  -1437.24266961 </i>
    <i name="atom">   6761.44252427 </i>
    <i name="e_fr_energy">   -186.87030527 </i>
    <i name="e_wo_entrp">   -186.52634512 </i>
    <i name="e_0_energy">   -186.69832519 </i>
   </energy>
  </scstep>
  <structure>
   <crystal>
    <varray name="basis" >
     <v>       8.66999996       5.03999989       0.00000000 </v>
     <v>      -8.66999982       5.04000013       0.00000000 </v>
     <v>       0.00000000       0.00000000      30.00000000 </v>
    </varray>
    <i name="volume">   2621.80797419 </i>
    <varray name="rec_basis" >
     <v>       0.05767013       0.09920635       0.00000000 </v>
     <v>      -0.05767013       0.09920635       0.00000000 </v>
     <v>       0.00000000       0.00000000       0.03333333 </v>
    </varray>
   </crystal>
   <varray name="positions" >
    <v>       0.00000000       0.66666669       0.00000000 </v>
    <v>       0.66666669       0.00000000       0.00000000 </v>
    <v>       0.00000000       0.00000000       0.00000000 </v>
    <v>       0.33333334       0.00000000       0.00000000 </v>
    <v>       0.33333334       0.33333334       0.00000000 </v>
    <v>       0.66666669       0.66666669       0.00000000 </v>
    <v>       1.00000000       0.33333334       0.00000000 </v>
    <v>       0.33333334       0.66666669       0.00000000 </v>
    <v>       0.66666669       0.33333334       0.00000000 </v>
    <v>       0.11068511       0.22244981       0.95539999 </v>
    <v>       0.22244981       0.11068511       0.04460000 </v>
    <v>       0.11068511       0.55578315       0.95539999 </v>
    <v>       0.22244981       0.44401845       0.04460000 </v>
    <v>       0.11068511       0.88911647       0.95539999 </v>
    <v>       0.22244981       0.77735180       0.04460000 </v>
    <v>       0.44401845       0.22244981       0.95539999 </v>
    <v>       0.55578315       0.11068511       0.04460000 </v>
    <v>       0.44401845       0.55578315       0.95539999 </v>
    <v>       0.55578315       0.44401845       0.04460000 </v>
    <v>       0.44401845       0.88911647       0.95539999 </v>
    <v>       0.55578315       0.77735180       0.04460000 </v>
    <v>       0.77735180       0.22244981       0.95539999 </v>
    <v>       0.88911647       0.11068511       0.04460000 </v>
    <v>       0.77735180       0.55578315       0.95539999 </v>
    <v>       0.88911647       0.44401845       0.04460000 </v>
    <v>       0.77735180       0.88911647       0.95539999 </v>
    <v>       0.88911647       0.77735180       0.04460000 </v>
   </varray>
  </structure>
  <varray name="forces" >
   <v>      -0.28548713       0.14735094      -0.07241106 </v>
   <v>       0.08769222      -0.20187575       0.06077484 </v>
   <v>       0.21425834       0.02835038      -0.01791596 </v>
   <v>      -0.30037142       0.13887730       0.02504717 </v>
   <v>       0.26501560       0.12146090       0.01839011 </v>
   <v>      -0.00091977      -0.19705787      -0.04256508 </v>
   <v>       0.32970494       0.09432028       0.02175490 </v>
   <v>       0.23748078       0.17841462      -0.10106656 </v>
   <v>      -0.55386503      -0.31854514       0.12579881 </v>
   <v>       0.35977226      -0.68714387      -2.15517156 </v>
   <v>      -0.52312075      -0.68946087       2.14996876 </v>
   <v>      -0.62396887       0.01131316      -2.15132975 </v>
   <v>      -0.25625421      -0.01083181       2.88655031 </v>
   <v>      -0.31540248      -0.68751633      -1.44886489 </v>
   <v>      -0.37728118      -0.69492419       2.10632802 </v>
   <v>       0.19731748       0.13577081      -2.93703143 </v>
   <v>       0.68941241       0.17307279       2.12757661 </v>
   <v>      -0.06809193      -0.01686951      -2.90368021 </v>
   <v>       0.06898585      -0.00531370       2.94669642 </v>
   <v>       0.61188547       0.52519657      -2.13873107 </v>
   <v>      -0.61951344       0.58058356       2.18781155 </v>
   <v>       0.47981619      -0.56180334      -2.10706826 </v>
   <v>       0.21568056      -0.53297378       1.43557894 </v>
   <v>       0.62531053       0.58575838      -2.16048581 </v>
   <v>      -0.45894467       0.55570610       2.11760617 </v>
   <v>      -0.31956132       0.66083371      -1.39531422 </v>
   <v>       0.32044957       0.66730668       1.42175326 </v>
  </varray>
  <varray name="stress" >
   <v>       7.27489721       0.08347885      -1.54048576 </v>
   <v>       0.08347897       4.49015882       0.06349872 </v>
   <v>      -1.54048593       0.06349865      30.29563061 </v>
  </varray>
  <energy>
   <i name="e_fr_energy">   -186.87030527 </i>
   <i name="e_wo_entrp">   -186.69832519 </i>
   <i name="e_0_energy">     -0.34396015 </i>
  </energy>
  <time name="totalsc">  776.77  778.85</time>
 </calculation>
 <calculation>
  <scstep>
   <time name="dav">   21.59   21.64</time>
   <time name="total">   22.13   22.19</time>
   <energy>
    <i name="alphaZ">     78.91887488 </i>
    <i name="ewald">  39378.81168466 </i>
    <i name="hartreedc"> -45336.28251720 </i>
    <i name="XCdc">   -239.06308221 </i>
    <i name="pawpsdc">   4192.10169273 </i>
    <i name="pawaedc">  -3610.11597414 </i>
    <i name="eentropy">     -0.28588042 </i>
    <i name="bandstr">  -1413.03426686 </i>
    <i name="atom">   6761.44252427 </i>
    <i name="e_fr_energy">   -187.50694428 </i>
    <i name="e_wo_entrp">   -187.22106386 </i>
    <i name="e_0_energy">   -187.36400407 </i>
   </energy>
  </scstep>
  <scstep>
   <time name="dav">   30.16   30.24</time>
   <time name="total">   30.70   30.78</time>
   <energy>
    <i name="e_fr_energy">   -189.39367782 </i>
    <i name="e_wo_entrp">   -189.06618633 </i>
    <i name="e_0_energy">   -189.22993208 </i>
   </energy>
  </scstep>
  <scstep>
   <time name="dav">   30.16   30.23</time>
   <time name="total">   30.71   30.79</time>
   <energy>
    <i name="e_fr_energy">   -189.40161390 </i>
    <i name="e_wo_entrp">   -189.12150532 </i>
    <i name="e_0_energy">   -189.26155961 </i>
   </energy>
  </scstep>
  <scstep>
   <time name="dav">   30.26   30.33</time>
   <time name="total">   30.81   30.89</time>
   <energy>
    <i name="e_fr_energy">   -188.78538316 </i>
    <i name="e_wo_entrp">   -188.50098661 </i>
    <i name="e_0_energy">   -188.64318488 </i>
   </energy>
  </scstep>
  <scstep>
   <time name="dav">   27.95   28.01</time>
   <time name="total">   28.49   28.57</time>
   <energy>
    <i name="e_fr_energy">   -188.89347551 </i>
    <i name="e_wo_entrp">   -188.60218688 </i>
    <i name="e_0_energy">   -188.74783120 </i>
   </energy>
  </scstep>
  <scstep>
   <time name="dav">   30.79   30.86</time>
   <time name="total">   31.33   31.41</time>
   <energy>
    <i name="e_fr_energy">   -188.75824756 </i>
    <i name="e_wo_entrp">   -188.47094202 </i>
    <i name="e_0_energy">   -188.61459479 </i>
   </energy>
  </scstep>
  <scstep>
   <time name="dav">   28.82   28.89</time>
   <time name="total">   29.37   29.44</time>
   <energy>
    <i name="e_fr_energy">   -188.71196116 </i>
    <i name="e_wo_entrp">   -188.42628000 </i>
    <i name="e_0_energy">   -188.56912058 </i>
   </energy>
  </scstep>
  <scstep>
   <time name="dav">   31.43   31.51</time>
   <time name="total">   31.98   32.06</time>
   <energy>
    <i name="e_fr_energy">   -188.71112182 </i>
    <i name="e_wo_entrp">   -188.42659335 </i>
    <i name="e_0_energy">   -188.56885758 </i>
   </energy>
  </scstep>
  <scstep>
   <time name="dav">   29.55   29.62</time>
   <time name="total">   30.10   30.18</time>
   <energy>
    <i name="e_fr_energy">   -188.68041239 </i>
    <i name="e_wo_entrp">   -188.39666823 </i>
    <i name="e_0_energy">   -188.53854031 </i>
   </energy>
  </scstep>
  <scstep>
   <time name="dav">   27.84   27.91</time>
   <time name="total">   28.39   28.46</time>
   <energy>
    <i name="e_fr_energy">   -188.67756099 </i>
    <i name="e_wo_entrp">   -188.39379382 </i>
    <i name="e_0_energy">   -188.53567741 </i>
   </energy>
  </scstep>
  <scstep>
   <time name="dav">   31.35   31.43</time>
   <time name="total">   31.90   31.99</time>
   <energy>
    <i name="e_fr_energy">   -188.67711524 </i>
    <i name="e_wo_entrp">   -188.39393645 </i>
    <i name="e_0_energy">   -188.53552585 </i>
   </energy>
  </scstep>
  <scstep>
   <time name="dav">   29.25   29.32</time>
   <time name="total">   29.80   29.88</time>
   <energy>
    <i name="e_fr_energy">   -188.67699869 </i>
    <i name="e_wo_entrp">   -188.39415971 </i>
    <i name="e_0_energy">   -188.53557920 </i>
   </energy>
  </scstep>
  <scstep>
   <time name="dav">   20.23   20.28</time>
   <time name="total">   20.27   20.32</time>
   <energy>
    <i name="alphaZ">     78.91887488 </i>
    <i name="ewald">  39378.81168466 </i>
    <i name="hartreedc"> -45347.05388885 </i>
    <i name="XCdc">   -237.97507083 </i>
    <i name="pawpsdc">   3950.53947368 </i>
    <i name="pawaedc">  -3365.05225969 </i>
    <i name="eentropy">     -0.28304461 </i>
    <i name="bandstr">  -1408.02530713 </i>
    <i name="atom">   6761.44252427 </i>
    <i name="e_fr_energy">   -188.67701361 </i>
    <i name="e_wo_entrp">   -188.39396900 </i>
    <i name="e_0_energy">   -188.53549130 </i>
   </energy>
  </scstep>
  <structure>
   <crystal>
    <varray name="basis" >
     <v>       8.85564829       5.10828438       0.00000000 </v>
     <v>      -8.85318781       5.10405225       0.00000000 </v>
     <v>       0.00000000       0.00000000      30.00000000 </v>
    </varray>
    <i name="volume">   2712.72877685 </i>
    <varray name="rec_basis" >
     <v>       0.05644559       0.09790718       0.00000000 </v>
     <v>      -0.05649239       0.09793439       0.00000000 </v>
     <v>       0.00000000       0.00000000       0.03333333 </v>
    </varray>
   </crystal>
   <varray name="positions" >
    <v>      -0.00008905       0.66816618      -0.00011644 </v>
    <v>       0.66594449      -0.00121015       0.00009773 </v>
    <v>       0.00073179      -0.00046042      -0.00002881 </v>
    <v>       0.33316233       0.00150034       0.00004028 </v>
    <v>       0.33465197       0.33317734       0.00002957 </v>
    <v>       0.66572101       0.66572613      -0.00006845 </v>
    <v>       1.00136871       0.33286747       0.00003498 </v>
    <v>       0.33484794       0.66685987      -0.00016252 </v>
    <v>       0.66360120       0.33334973       0.00020230 </v>
    <v>       0.10839740       0.21816021       0.95193428 </v>
    <v>       0.21769466       0.10884077       0.04805734 </v>
    <v>       0.10900327       0.55757328       0.95194046 </v>
    <v>       0.22168503       0.44467955       0.04924183 </v>
    <v>       0.10651717       0.88670353       0.95307009 </v>
    <v>       0.21807426       0.77507556       0.04798716 </v>
    <v>       0.44521722       0.22255064       0.95067698 </v>
    <v>       0.55852953       0.10959538       0.04802133 </v>
    <v>       0.44374827       0.55589186       0.95073062 </v>
    <v>       0.55594965       0.44380109       0.04933855 </v>
    <v>       0.44823440       0.88992768       0.95196072 </v>
    <v>       0.55683823       0.78185404       0.04811819 </v>
    <v>       0.77599794       0.21842611       0.95201164 </v>
    <v>       0.88716572       0.10753425       0.04690854 </v>
    <v>       0.78189494       0.55684687       0.95192574 </v>
    <v>       0.89049921       0.44795491       0.04800530 </v>
    <v>       0.77962546       0.89316827       0.95315620 </v>
    <v>       0.89320172       0.77965397       0.04688630 </v>
   </varray>
  </structure>
  <varray name="forces" >
   <v>      -0.15925460       0.12209855       0.05839632 </v>
   <v>       0.05094757      -0.20223823      -0.07617721 </v>
   <v>       0.15210855       0.06402123      -0.00532892 </v>
   <v>      -0.26067992       0.30482478       0.08754988 </v>
   <v>       0.28863253       0.29533389       0.00938603 </v>
   <v>      -0.00235731      -0.48879492      -0.08110745 </v>
   <v>       0.26216533       0.23593433      -0.01606816 </v>
   <v>       0.28455013       0.03891694      -0.04227324 </v>
   <v>      -0.61431189      -0.37881835       0.03900719 </v>
   <v>      -0.10318627      -0.05259116       0.02922678 </v>
   <v>      -0.03212562      -0.08397380       0.07523501 </v>
   <v>       0.08740048       0.01001615       0.08644475 </v>
   <v>      -0.08982084       0.00463979       0.01076545 </v>
   <v>      -0.02637803      -0.04060141      -0.03044429 </v>
   <v>       0.10942029      -0.04885543      -0.17464254 </v>
   <v>       0.04737316       0.11071130      -0.23211736 </v>
   <v>      -0.02346632       0.11847136       0.02327149 </v>
   <v>      -0.14165752      -0.01602001      -0.16962660 </v>
   <v>       0.13905126      -0.00911421       0.27409958 </v>
   <v>       0.07656221      -0.05099163       0.05436469 </v>
   <v>      -0.08014317      -0.03463750       0.05771601 </v>
   <v>      -0.05541743       0.07140535       0.29584734 </v>
   <v>      -0.04455687       0.06871549      -0.10580563 </v>
   <v>       0.08748379      -0.05560398       0.02448611 </v>
   <v>       0.05571293      -0.06970445      -0.25407714 </v>
   <v>       0.00332092       0.04259188       0.14582506 </v>
   <v>      -0.01137337       0.04426406      -0.08395318 </v>
  </varray>
  <varray name="stress" >
   <v>     -19.88848488      -0.01249467       0.03465277 </v>
   <v>      -0.01249461     -19.49023345      -0.03069796 </v>
   <v>       0.03465279      -0.03069805      -1.74098763 </v>
  </varray>
  <energy>
   <i name="e_fr_energy">   -188.67701361 </i>
   <i name="e_wo_entrp">   -188.53549130 </i>
   <i name="e_0_energy">     -0.28304461 </i>
  </energy>
  <time name="totalsc">  418.24  419.35</time>
 </calculation>
 <calculation>
  <scstep>
   <time name="dav">   23.57   23.63</time>
   <time name="total">   24.11   24.17</time>
   <energy>
    <i name="alphaZ">     82.33781984 </i>
    <i name="ewald">  41299.34360017 </i>
    <i name="hartreedc"> -47298.05356894 </i>
    <i name="XCdc">   -233.85791105 </i>
    <i name="pawpsdc">   3949.79031082 </i>
    <i name="pawaedc">  -3364.29600322 </i>
    <i name="eentropy">     -0.23742570 </i>
    <i name="bandstr">  -1387.06434684 </i>
    <i name="atom">   6761.44252427 </i>
    <i name="e_fr_energy">   -190.59500066 </i>
    <i name="e_wo_entrp">   -190.35757495 </i>
    <i name="e_0_energy">   -190.47628780 </i>
   </energy>
  </scstep>
  <scstep>
   <time name="dav">   27.87   27.94</time>
   <time name="total">   28.40   28.49</time>
   <energy>
    <i name="e_fr_energy">   -190.55775627 </i>
    <i name="e_wo_entrp">   -190.31407580 </i>
    <i name="e_0_energy">   -190.43591604 </i>
   </energy>
  </scstep>
  <scstep>
   <time name="dav">   30.23   30.30</time>
   <time name="total">   30.75   30.83</time>
   <energy>
    <i name="e_fr_energy">   -190.08081422 </i>
    <i name="e_wo_entrp">   -189.82972962 </i>
    <i name="e_0_energy">   -189.95527192 </i>
   </energy>
  </scstep>
  <scstep>
   <time name="dav">   30.99   31.06</time>
   <time name="total">   31.52   31.60</time>
   <energy>
    <i name="e_fr_energy">   -189.87665798 </i>
    <i name="e_wo_entrp">   -189.63721468 </i>
    <i name="e_0_energy">   -189.75693633 </i>
   </energy>
  </scstep>
  <scstep>
   <time name="dav">   29.95   30.02</time>
   <time name="total">   30.47   30.55</time>
   <energy>
    <i name="e_fr_energy">   -189.91656501 </i>
    <i name="e_wo_entrp">   -189.66963899 </i>
    <i name="e_0_energy">   -189.79310200 </i>
   </energy>
  </scstep>
  <scstep>
   <time name="dav">   30.04   30.11</time>
   <time name="total">   30.57   30.65</time>
   <energy>
    <i name="e_fr_energy">   -189.77245887 </i>
    <i name="e_wo_entrp">   -189.53201785 </i>
    <i name="e_0_energy">   -189.65223836 </i>
   </energy>
  </scstep>
  <scstep>
   <time name="dav">   29.89   29.96</time>
   <time name="total">   30.42   30.50</time>
   <energy>
    <i name="e_fr_energy">   -189.76579303 </i>
    <i name="e_wo_entrp">   -189.52527510 </i>
    <i name="e_0_energy">   -189.64553407 </i>
   </energy>
  </scstep>
  <scstep>
   <time name="dav">   28.90   28.97</time>
   <time name="total">   29.43   29.51</time>
   <energy>
    <i name="e_fr_energy">   -189.76679548 </i>
    <i name="e_wo_entrp">   -189.52630362 </i>
    <i name="e_0_energy">   -189.64654955 </i>
   </energy>
  </scstep>
  <scstep>
   <time name="dav">   27.01   27.07</time>
   <time name="total">   27.54   27.61</time>
   <energy>
    <i name="e_fr_energy">   -189.76573856 </i>
    <i name="e_wo_entrp">   -189.52528109 </i>
    <i name="e_0_energy">   -189.64550983 </i>
   </energy>
  </scstep>
  <scstep>
   <time name="dav">   25.78   25.84</time>
   <time name="total">   26.31   26.38</time>
   <energy>
    <i name="e_fr_energy">   -189.76593898 </i>
    <i name="e_wo_entrp">   -189.52534228 </i>
    <i name="e_0_energy">   -189.64564063 </i>
   </energy>
  </scstep>
  <scstep>
   <time name="dav">   22.71   22.76</time>
   <time name="total">   23.24   23.30</time>
   <energy>
    <i name="e_fr_energy">   -189.76576160 </i>
    <i name="e_wo_entrp">   -189.52519199 </i>
    <i name="e_0_energy">   -189.64547679 </i>
   </energy>
  </scstep>
  <scstep>
   <time name="dav">   20.32   20.37</time>
   <time name="total">   20.35   20.41</time>
   <energy>
    <i name="alphaZ">     82.33781984 </i>
    <i name="ewald">  41299.34360017 </i>
    <i name="hartreedc"> -47271.61460986 </i>
    <i name="XCdc">   -235.24733209 </i>
    <i name="pawpsdc">   4038.79344284 </i>
    <i name="pawaedc">  -3454.49938652 </i>
    <i name="eentropy">     -0.24054522 </i>
    <i name="bandstr">  -1410.08129551 </i>
    <i name="atom">   6761.44252427 </i>
    <i name="e_fr_energy">   -189.76578208 </i>
    <i name="e_wo_entrp">   -189.52523686 </i>
    <i name="e_0_energy">   -189.64550947 </i>
   </energy>
  </scstep>
  <structure>
   <crystal>
    <varray name="basis" >
     <v>       8.66789381       5.00206949       0.00000000 </v>
     <v>      -8.66562145       4.99816105       0.00000000 </v>
     <v>       0.00000000       0.00000000      30.00000000 </v>
    </varray>
    <i name="volume">   2600.08709667 </i>
    <varray name="rec_basis" >
     <v>       0.05766916       0.09998459       0.00000000 </v>
     <v>      -0.05771425       0.10001081       0.00000000 </v>
     <v>       0.00000000       0.00000000       0.03333333 </v>
    </varray>
   </crystal>
   <varray name="positions" >
    <v>      -0.00003867       0.66852226      -0.00008337 </v>
    <v>       0.66565688      -0.00159563       0.00005458 </v>
    <v>       0.00098420      -0.00049989      -0.00003183 </v>
    <v>       0.33341944       0.00225790       0.00008987 </v>
    <v>       0.33542019       0.33339176       0.00003489 </v>
    <v>       0.66490551       0.66491493      -0.00011439 </v>
    <v>       1.00201272       0.33300844       0.00002588 </v>
    <v>       0.33518563       0.66665147      -0.00018647 </v>
    <v>       0.66238168       0.33330903       0.00022439 </v>
    <v>       0.10821092       0.21817174       0.95195084 </v>
    <v>       0.21752413       0.10873186       0.04809996 </v>
    <v>       0.10910377       0.55750604       0.95198943 </v>
    <v>       0.22160659       0.44477350       0.04924793 </v>
    <v>       0.10642432       0.88666128       0.95305284 </v>
    <v>       0.21809793       0.77488921       0.04788824 </v>
    <v>       0.44544686       0.22268941       0.95054550 </v>
    <v>       0.55870413       0.10981507       0.04803451 </v>
    <v>       0.44358574       0.55600119       0.95063453 </v>
    <v>       0.55606786       0.44365244       0.04949381 </v>
    <v>       0.44822300       0.88976932       0.95199152 </v>
    <v>       0.55670372       0.78187333       0.04815089 </v>
    <v>       0.77606359       0.21859814       0.95217922 </v>
    <v>       0.88723731       0.10769138       0.04684860 </v>
    <v>       0.78188634       0.55667034       0.95193961 </v>
    <v>       0.89043667       0.44778542       0.04786138 </v>
    <v>       0.77969951       0.89323597       0.95323880 </v>
    <v>       0.89326446       0.77973855       0.04683875 </v>
   </varray>
  </structure>
  <varray name="forces" >
   <v>      -0.10147926       0.10196473       0.07582540 </v>
   <v>       0.02875330      -0.22100657      -0.08807520 </v>
   <v>       0.12959654       0.08515364       0.00023219 </v>
   <v>      -0.24199743       0.35215082       0.07842337 </v>
   <v>       0.28825746       0.35591808       0.00424995 </v>
   <v>      -0.00587076      -0.57642995      -0.06376979 </v>
   <v>       0.23488113       0.28585531      -0.02204522 </v>
   <v>       0.30325646      -0.01520197      -0.00816827 </v>
   <v>      -0.62733729      -0.39098966       0.00110717 </v>
   <v>       0.03867052      -0.10367143      -0.47476533 </v>
   <v>      -0.08537319      -0.14295864       0.57045777 </v>
   <v>      -0.06285893       0.02113140      -0.42701335 </v>
   <v>      -0.00442493       0.02162070       0.57151613 </v>
   <v>      -0.05961106      -0.09099709      -0.48675252 </v>
   <v>       0.00413855      -0.09800219       0.29676873 </v>
   <v>       0.00617524       0.03853588      -0.80596082 </v>
   <v>       0.08988363       0.05541503       0.53161393 </v>
   <v>      -0.05253369      -0.02575317      -0.74331385 </v>
   <v>       0.03766937      -0.00317581       0.86804942 </v>
   <v>       0.05701835       0.07760001      -0.43718203 </v>
   <v>      -0.06626948       0.09189698       0.56270362 </v>
   <v>      -0.00623324      -0.04193082      -0.17432618 </v>
   <v>       0.04137985      -0.07008905       0.35635216 </v>
   <v>       0.08981486       0.06235167      -0.46990668 </v>
   <v>      -0.02305906       0.03916259       0.22383085 </v>
   <v>      -0.02114697       0.09996883      -0.29064393 </v>
   <v>       0.00870002       0.09148067       0.35079246 </v>
  </varray>
  <varray name="stress" >
   <v>     -10.15254516      -0.02362419       0.00528580 </v>
   <v>      -0.02362408      -9.84305480      -0.04672962 </v>
   <v>       0.00528599      -0.04672965       6.48094527 </v>
  </varray>
  <energy>
   <i name="e_fr_energy">   -189.76578208 </i>
   <i name="e_wo_entrp">   -189.64550947 </i>
   <i name="e_0_energy">     -0.24054522 </i>
  </energy>
  <time name="totalsc">  375.13  376.14</time>
 </calculation>
 <calculation>
  <scstep>
   <time name="dav">   21.54   21.60</time>
   <time name="total">   22.06   22.12</time>
   <energy>
    <i name="alphaZ">     85.81775892 </i>
    <i name="ewald">  42831.51733082 </i>
    <i name="hartreedc"> -48848.26652064 </i>
    <i name="XCdc">   -232.95954471 </i>
    <i name="pawpsdc">   4038.80325968 </i>
    <i name="pawaedc">  -3454.50649919 </i>
    <i name="eentropy">     -0.20384102 </i>
    <i name="bandstr">  -1372.98003342 </i>
    <i name="atom">   6761.44252427 </i>
    <i name="e_fr_energy">   -191.33556528 </i>
    <i name="e_wo_entrp">   -191.13172426 </i>
    <i name="e_0_energy">   -191.23364477 </i>
   </energy>
  </scstep>
  <scstep>
   <time name="dav">   32.11   32.18</time>
   <time name="total">   32.62   32.71</time>
   <energy>
    <i name="e_fr_energy">   -191.17858983 </i>
    <i name="e_wo_entrp">   -190.96905299 </i>
    <i name="e_0_energy">   -191.07382141 </i>
   </energy>
  </scstep>
  <scstep>
   <time name="dav">   29.95   30.02</time>
   <time name="total">   30.46   30.54</time>
   <energy>
    <i name="e_fr_energy">   -191.28370209 </i>
    <i name="e_wo_entrp">   -191.06245261 </i>
    <i name="e_0_energy">   -191.17307735 </i>
   </energy>
  </scstep>
  <scstep>
   <time name="dav">   31.27   31.34</time>
   <time name="total">   31.79   31.87</time>
   <energy>
    <i name="e_fr_energy">   -190.88310167 </i>
    <i name="e_wo_entrp">   -190.67568980 </i>
    <i name="e_0_energy">   -190.77939573 </i>
   </energy>
  </scstep>
  <scstep>
   <time name="dav">   30.01   30.08</time>
   <time name="total">   30.52   30.60</time>
   <energy>
    <i name="e_fr_energy">   -190.80511226 </i>
    <i name="e_wo_entrp">   -190.59419383 </i>
    <i name="e_0_energy">   -190.69965304 </i>
   </energy>
  </scstep>
  <scstep>
   <time name="dav">   30.69   30.76</time>
   <time name="total">   31.21   31.29</time>
   <energy>
    <i name="e_fr_energy">   -190.77515135 </i>
    <i name="e_wo_entrp">   -190.56422921 </i>
    <i name="e_0_energy">   -190.66969028 </i>
   </energy>
  </scstep>
  <scstep>
   <time name="dav">   29.04   29.11</time>
   <time name="total">   29.56   29.64</time>
   <energy>
    <i name="e_fr_energy">   -190.75524643 </i>
    <i name="e_wo_entrp">   -190.54515022 </i>
    <i name="e_0_energy">   -190.65019833 </i>
   </energy>
  </scstep>
  <scstep>
   <time name="dav">   28.89   28.96</time>
   <time name="total">   29.41   29.49</time>
   <energy>
    <i name="e_fr_energy">   -190.75235751 </i>
    <i name="e_wo_entrp">   -190.54223268 </i>
    <i name="e_0_energy">   -190.64729509 </i>
   </energy>
  </scstep>
  <scstep>
   <time name="dav">   27.96   28.03</time>
   <time name="total">   28.48   28.55</time>
   <energy>
    <i name="e_fr_energy">   -190.75177628 </i>
    <i name="e_wo_entrp">   -190.54168903 </i>
    <i name="e_0_energy">   -190.64673265 </i>
   </energy>
  </scstep>
  <scstep>
   <time name="dav">   28.15   28.22</time>
   <time name="total">   28.66   28.74</time>
   <energy>
    <i name="e_fr_energy">   -190.75189267 </i>
    <i name="e_wo_entrp">   -190.54154752 </i>
    <i name="e_0_energy">   -190.64672009 </i>
   </energy>
  </scstep>
  <scstep>
   <time name="dav">   25.37   25.43</time>
   <time name="total">   25.88   25.95</time>
   <energy>
    <i name="e_fr_energy">   -190.75166790 </i>
    <i name="e_wo_entrp">   -190.54157262 </i>
    <i name="e_0_energy">   -190.64662026 </i>
   </energy>
  </scstep>
  <scstep>
   <time name="dav">   20.37   20.42</time>
   <time name="total">   20.41   20.47</time>
   <energy>
    <i name="alphaZ">     85.81775892 </i>
    <i name="ewald">  42831.51733082 </i>
    <i name="hartreedc"> -48819.64723032 </i>
    <i name="XCdc">   -234.28943824 </i>
    <i name="pawpsdc">   4063.73826510 </i>
    <i name="pawaedc">  -3479.62586709 </i>
    <i name="eentropy">     -0.21011592 </i>
    <i name="bandstr">  -1399.49489115 </i>
    <i name="atom">   6761.44252427 </i>
    <i name="e_fr_energy">   -190.75166361 </i>
    <i name="e_wo_entrp">   -190.54154769 </i>
    <i name="e_0_energy">   -190.64660565 </i>
   </energy>
  </scstep>
  <structure>
   <crystal>
    <varray name="basis" >
     <v>       8.48563160       4.90111938       0.00000000 </v>
     <v>      -8.48444253       4.89908422       0.00000000 </v>
     <v>       0.00000000       0.00000000      30.00000000 </v>
    </varray>
    <i name="volume">   2494.65268752 </i>
    <varray name="rec_basis" >
     <v>       0.05891503       0.10203155       0.00000000 </v>
     <v>      -0.05893950       0.10204585       0.00000000 </v>
     <v>       0.00000000       0.00000000       0.03333333 </v>
    </varray>
   </crystal>
   <varray name="positions" >
    <v>       0.00026620       0.66939446       0.00008844 </v>
    <v>       0.66429773      -0.00309908      -0.00013789 </v>
    <v>       0.00200616      -0.00034981      -0.00002662 </v>
    <v>       0.33489575       0.00543042       0.00024448 </v>
    <v>       0.33884168       0.33473109       0.00003932 </v>
    <v>       0.66105006       0.66111106      -0.00023168 </v>
    <v>       1.00473715       0.33411398      -0.00002484 </v>
    <v>       0.33607792       0.66529754      -0.00017439 </v>
    <v>       0.65761698       0.33311631       0.00019446 </v>
    <v>       0.10777800       0.21705044       0.95053940 </v>
    <v>       0.21609632       0.10807433       0.04970207 </v>
    <v>       0.10882044       0.55810999       0.95066880 </v>
    <v>       0.22189137       0.44484433       0.05090794 </v>
    <v>       0.10546530       0.88622875       0.95165712 </v>
    <v>       0.21722477       0.77428921       0.04890345 </v>
    <v>       0.44547099       0.22278758       0.94838896 </v>
    <v>       0.55938170       0.10951640       0.04956735 </v>
    <v>       0.44333863       0.55587708       0.94860783 </v>
    <v>       0.55605295       0.44365724       0.05179599 </v>
    <v>       0.44920802       0.89039866       0.95066847 </v>
    <v>       0.55737581       0.78298476       0.04974524 </v>
    <v>       0.77556623       0.21800403       0.95141856 </v>
    <v>       0.88672494       0.10663212       0.04797932 </v>
    <v>       0.78289929       0.55702748       0.95054639 </v>
    <v>       0.89075709       0.44849958       0.04873110 </v>
    <v>       0.78035729       0.89411730       0.95226597 </v>
    <v>       0.89401567       0.78036923       0.04793465 </v>
   </varray>
  </structure>
  <varray name="forces" >
   <v>      -0.02710009       0.08950698       0.07976090 </v>
   <v>       0.03072303      -0.24736344      -0.08245751 </v>
   <v>       0.08245169       0.08239540       0.00809281 </v>
   <v>      -0.24322061       0.37801642       0.03934171 </v>
   <v>       0.24467944       0.39373901      -0.00092440 </v>
   <v>      -0.02367112      -0.59766078      -0.00700246 </v>
   <v>       0.26113053       0.35165673      -0.03264611 </v>
   <v>       0.34136811      -0.08213882       0.03385734 </v>
   <v>      -0.63042409      -0.39036516      -0.03689783 </v>
   <v>       0.09134336       0.01183153      -0.31721868 </v>
   <v>      -0.05059991      -0.00700334       0.40217001 </v>
   <v>      -0.02713206       0.05720249      -0.31797529 </v>
   <v>       0.08386679       0.04338504       0.41357525 </v>
   <v>      -0.01805666       0.02247483      -0.36414340 </v>
   <v>       0.00075090       0.04390847       0.14471975 </v>
   <v>      -0.03843410      -0.01620288      -0.61630147 </v>
   <v>      -0.00471808       0.04212679       0.38924238 </v>
   <v>       0.01903222      -0.04360497      -0.59923613 </v>
   <v>      -0.03051896      -0.01133400       0.70467221 </v>
   <v>      -0.01487137       0.00415649      -0.25898245 </v>
   <v>       0.01864226       0.01952959       0.38312158 </v>
   <v>      -0.06142657       0.01177389       0.00817937 </v>
   <v>       0.03746918      -0.01852634       0.23485529 </v>
   <v>      -0.00217207      -0.02759398      -0.30503315 </v>
   <v>      -0.03663272      -0.04796239       0.07064887 </v>
   <v>       0.05733758      -0.03388156      -0.19699011 </v>
   <v>      -0.05981670      -0.02806600       0.22357154 </v>
  </varray>
  <varray name="stress" >
   <v>      -5.78177605       0.08062339      -0.04724072 </v>
   <v>       0.08062356      -5.72046487       0.05534629 </v>
   <v>      -0.04724050       0.05534606       4.48415430 </v>
  </varray>
  <energy>
   <i name="e_fr_energy">   -190.75166361 </i>
   <i name="e_wo_entrp">   -190.64660565 </i>
   <i name="e_0_energy">     -0.21011592 </i>
  </energy>
  <time name="totalsc">  383.24  384.25</time>
 </calculation>
 <calculation>
  <scstep>
   <time name="dav">   21.62   21.67</time>
   <time name="total">   22.13   22.19</time>
   <energy>
    <i name="alphaZ">     90.17943464 </i>
    <i name="ewald">  44666.74230150 </i>
    <i name="hartreedc"> -50710.23402935 </i>
    <i name="XCdc">   -231.83208859 </i>
    <i name="pawpsdc">   4063.71380879 </i>
    <i name="pawaedc">  -3479.59614056 </i>
    <i name="eentropy">     -0.19688622 </i>
    <i name="bandstr">  -1352.34326758 </i>
    <i name="atom">   6761.44252427 </i>
    <i name="e_fr_energy">   -192.12434311 </i>
    <i name="e_wo_entrp">   -191.92745688 </i>
    <i name="e_0_energy">   -192.02590000 </i>
   </energy>
  </scstep>
  <scstep>
   <time name="dav">   28.04   28.11</time>
   <time name="total">   28.55   28.62</time>
   <energy>
    <i name="e_fr_energy">   -191.85675771 </i>
    <i name="e_wo_entrp">   -191.65317434 </i>
    <i name="e_0_energy">   -191.75496602 </i>
   </energy>
  </scstep>
  <scstep>
   <time name="dav">   29.19   29.26</time>
   <time name="total">   29.69   29.77</time>
   <energy>
    <i name="e_fr_energy">   -191.99327062 </i>
    <i name="e_wo_entrp">   -191.78912071 </i>
    <i name="e_0_energy">   -191.89119567 </i>
   </energy>
  </scstep>
  <scstep>
   <time name="dav">   28.41   28.47</time>
   <time name="total">   28.92   28.99</time>
   <energy>
    <i name="e_fr_energy">   -191.74964370 </i>
    <i name="e_wo_entrp">   -191.54886328 </i>
    <i name="e_0_energy">   -191.64925349 </i>
   </energy>
  </scstep>
  <scstep>
   <time name="dav">   30.01   30.08</time>
   <time name="total">   30.52   30.60</time>
   <energy>
    <i name="e_fr_energy">   -191.58220949 </i>
    <i name="e_wo_entrp">   -191.37854116 </i>
    <i name="e_0_energy">   -191.48037533 </i>
   </energy>
  </scstep>
  <scstep>
   <time name="dav">   30.12   30.19</time>
   <time name="total">   30.63   30.71</time>
   <energy>
    <i name="e_fr_energy">   -191.43835846 </i>
    <i name="e_wo_entrp">   -191.23228129 </i>
    <i name="e_0_energy">   -191.33531987 </i>
   </energy>
  </scstep>
  <scstep>
   <time name="dav">   30.11   30.18</time>
   <time name="total">   30.62   30.70</time>
   <energy>
    <i name="e_fr_energy">   -191.43097633 </i>
    <i name="e_wo_entrp">   -191.22679781 </i>
    <i name="e_0_energy">   -191.32888707 </i>
   </energy>
  </scstep>
  <scstep>
   <time name="dav">   29.72   29.80</time>
   <time name="total">   30.23   30.31</time>
   <energy>
    <i name="e_fr_energy">   -191.42876549 </i>
    <i name="e_wo_entrp">   -191.22372162 </i>
    <i name="e_0_energy">   -191.32624355 </i>
   </energy>
  </scstep>
  <scstep>
   <time name="dav">   30.38   30.46</time>
   <time name="total">   30.89   30.97</time>
   <energy>
    <i name="e_fr_energy">   -191.42210470 </i>
    <i name="e_wo_entrp">   -191.21705206 </i>
    <i name="e_0_energy">   -191.31957838 </i>
   </energy>
  </scstep>
  <scstep>
   <time name="dav">   27.56   27.62</time>
   <time name="total">   28.06   28.14</time>
   <energy>
    <i name="e_fr_energy">   -191.42240748 </i>
    <i name="e_wo_entrp">   -191.21707819 </i>
    <i name="e_0_energy">   -191.31974283 </i>
   </energy>
  </scstep>
  <scstep>
   <time name="dav">   27.69   27.75</time>
   <time name="total">   28.20   28.27</time>
   <energy>
    <i name="e_fr_energy">   -191.42225498 </i>
    <i name="e_wo_entrp">   -191.21706873 </i>
    <i name="e_0_energy">   -191.31966185 </i>
   </energy>
  </scstep>
  <scstep>
   <time name="dav">   19.36   19.41</time>
   <time name="total">   19.40   19.45</time>
   <energy>
    <i name="alphaZ">     90.17943464 </i>
    <i name="ewald">  44666.74230150 </i>
    <i name="hartreedc"> -50676.27372833 </i>
    <i name="XCdc">   -233.35997120 </i>
    <i name="pawpsdc">   4085.94165562 </i>
    <i name="pawaedc">  -3501.92262753 </i>
    <i name="eentropy">     -0.20526479 </i>
    <i name="bandstr">  -1383.96656311 </i>
    <i name="atom">   6761.44252427 </i>
    <i name="e_fr_energy">   -191.42223893 </i>
    <i name="e_wo_entrp">   -191.21697414 </i>
    <i name="e_0_energy">   -191.31960653 </i>
   </energy>
  </scstep>
  <structure>
   <crystal>
    <varray name="basis" >
     <v>       8.27819288       4.78596768       0.00000000 </v>
     <v>      -8.27268261       4.77644901       0.00000000 </v>
     <v>       0.00000000       0.00000000      30.00000000 </v>
    </varray>
    <i name="volume">   2373.99473394 </i>
    <varray name="rec_basis" >
     <v>       0.06035964       0.10454129       0.00000000 </v>
     <v>      -0.06047993       0.10461093       0.00000000 </v>
     <v>       0.00000000       0.00000000       0.03333333 </v>
    </varray>
   </crystal>
   <varray name="positions" >
    <v>       0.00116181       0.67062562       0.00042323 </v>
    <v>       0.66142450      -0.00633128      -0.00048315 </v>
    <v>       0.00367858       0.00013586       0.00000709 </v>
    <v>       0.33794377       0.01186936       0.00041413 </v>
    <v>       0.34557499       0.33790676       0.00003333 </v>
    <v>       0.65332489       0.65369836      -0.00027309 </v>
    <v>       1.01087998       0.33668986      -0.00015591 </v>
    <v>       0.33744133       0.66182265      -0.00002758 </v>
    <v>       0.64828462       0.33277589       0.00002957 </v>
    <v>       0.10841746       0.21602011       0.94868664 </v>
    <v>       0.21513081       0.10807233       0.05189246 </v>
    <v>       0.10901801       0.55926374       0.94882968 </v>
    <v>       0.22309074       0.44473748       0.05320309 </v>
    <v>       0.10518267       0.88639366       0.94968199 </v>
    <v>       0.21721848       0.77461730       0.05002970 </v>
    <v>       0.44485544       0.22276951       0.94525129 </v>
    <v>       0.55998624       0.10962710       0.05170497 </v>
    <v>       0.44301894       0.55512727       0.94556314 </v>
    <v>       0.55562415       0.44386907       0.05529363 </v>
    <v>       0.44968506       0.89101377       0.94905034 </v>
    <v>       0.55817683       0.78363848       0.05187496 </v>
    <v>       0.77499236       0.21803197       0.95089009 </v>
    <v>       0.88642245       0.10550269       0.04944137 </v>
    <v>       0.78312866       0.55710268       0.94874800 </v>
    <v>       0.89024933       0.44874911       0.04956746 </v>
    <v>       0.78062083       0.89379940       0.95099594 </v>
    <v>       0.89368152       0.78068569       0.04932752 </v>
   </varray>
  </structure>
  <varray name="forces" >
   <v>       0.01743561       0.10037879       0.01936792 </v>
   <v>       0.05307656      -0.31910758      -0.02188063 </v>
   <v>       0.04292119       0.05930734       0.02008134 </v>
   <v>      -0.21662005       0.22531810      -0.01701191 </v>
   <v>      -0.09293117       0.03077030      -0.03387385 </v>
   <v>      -0.10789373      -0.22029512       0.05266869 </v>
   <v>       0.31978867       0.43740494      -0.06498353 </v>
   <v>       0.34903033      -0.16792521      -0.05284232 </v>
   <v>      -0.25017185      -0.15305743       0.05843252 </v>
   <v>       0.09236212       0.13480357      -0.06337119 </v>
   <v>      -0.00450173       0.16605985       0.06800798 </v>
   <v>       0.03299014       0.10266620      -0.05916900 </v>
   <v>       0.16258775       0.06521065       0.23599818 </v>
   <v>       0.02472982       0.09847905      -0.02295421 </v>
   <v>       0.05449503       0.22323956      -0.12444092 </v>
   <v>      -0.11207589      -0.05537243      -0.29338011 </v>
   <v>      -0.10516262       0.07512042       0.05436910 </v>
   <v>       0.03553026      -0.06569271      -0.24529011 </v>
   <v>      -0.04431655      -0.01506071       0.28985419 </v>
   <v>      -0.06812106      -0.12325355       0.06976804 </v>
   <v>       0.07280497      -0.07542654       0.11877141 </v>
   <v>      -0.16947655       0.11726101       0.33604739 </v>
   <v>      -0.00211400       0.05252303      -0.07233502 </v>
   <v>      -0.09166816      -0.15202845       0.01452314 </v>
   <v>      -0.01997307      -0.20049109      -0.24135079 </v>
   <v>       0.12673475      -0.19624681       0.04840200 </v>
   <v>      -0.09946077      -0.14458519      -0.07340830 </v>
  </varray>
  <varray name="stress" >
   <v>      -0.03941577       0.19699693       0.14999920 </v>
   <v>       0.19699699       0.44215919       0.31975942 </v>
   <v>       0.14999921       0.31975953      -0.55728804 </v>
  </varray>
  <energy>
   <i name="e_fr_energy">   -191.42223893 </i>
   <i name="e_wo_entrp">   -191.31960653 </i>
   <i name="e_0_energy">     -0.20526479 </i>
  </energy>
  <time name="totalsc">  380.14  381.14</time>
 </calculation>
 <calculation>
  <scstep>
   <time name="dav">   21.60   21.65</time>
   <time name="total">   22.11   22.17</time>
   <energy>
    <i name="alphaZ">     90.05800608 </i>
    <i name="ewald">  44593.30577300 </i>
    <i name="hartreedc"> -50602.23078516 </i>
    <i name="XCdc">   -233.51879122 </i>
    <i name="pawpsdc">   4085.87598989 </i>
    <i name="pawaedc">  -3501.85263821 </i>
    <i name="eentropy">     -0.20894769 </i>
    <i name="bandstr">  -1384.36460649 </i>
    <i name="atom">   6761.44252427 </i>
    <i name="e_fr_energy">   -191.49347552 </i>
    <i name="e_wo_entrp">   -191.28452783 </i>
    <i name="e_0_energy">   -191.38900168 </i>
   </energy>
  </scstep>
  <scstep>
   <time name="dav">   32.75   32.83</time>
   <time name="total">   33.25   33.34</time>
   <energy>
    <i name="e_fr_energy">   -191.56465083 </i>
    <i name="e_wo_entrp">   -191.35041630 </i>
    <i name="e_0_energy">   -191.45753356 </i>
   </energy>
  </scstep>
  <scstep>
   <time name="dav">   30.20   30.27</time>
   <time name="total">   30.71   30.79</time>
   <energy>
    <i name="e_fr_energy">   -191.50742118 </i>
    <i name="e_wo_entrp">   -191.29758871 </i>
    <i name="e_0_energy">   -191.40250494 </i>
   </energy>
  </scstep>
  <scstep>
   <time name="dav">   28.23   28.30</time>
   <time name="total">   28.74   29.03</time>
   <energy>
    <i name="e_fr_energy">   -191.50920731 </i>
    <i name="e_wo_entrp">   -191.29972226 </i>
    <i name="e_0_energy">   -191.40446479 </i>
   </energy>
  </scstep>
  <scstep>
   <time name="dav">   28.41   28.47</time>
   <time name="total">   28.91   28.99</time>
   <energy>
    <i name="e_fr_energy">   -191.50453333 </i>
    <i name="e_wo_entrp">   -191.29439483 </i>
    <i name="e_0_energy">   -191.39946408 </i>
   </energy>
  </scstep>
  <scstep>
   <time name="dav">   26.44   26.51</time>
   <time name="total">   26.95   27.02</time>
   <energy>
    <i name="e_fr_energy">   -191.50440732 </i>
    <i name="e_wo_entrp">   -191.29425536 </i>
    <i name="e_0_energy">   -191.39933134 </i>
   </energy>
  </scstep>
  <scstep>
   <time name="dav">   28.52   28.59</time>
   <time name="total">   29.03   29.11</time>
   <energy>
    <i name="e_fr_energy">   -191.50499799 </i>
    <i name="e_wo_entrp">   -191.29509797 </i>
    <i name="e_0_energy">   -191.40004798 </i>
   </energy>
  </scstep>
  <scstep>
   <time name="dav">   24.36   24.42</time>
   <time name="total">   24.86   24.93</time>
   <energy>
    <i name="e_fr_energy">   -191.50388172 </i>
    <i name="e_wo_entrp">   -191.29375129 </i>
    <i name="e_0_energy">   -191.39881651 </i>
   </energy>
  </scstep>
  <scstep>
   <time name="dav">   16.88   16.92</time>
   <time name="total">   16.91   16.96</time>
   <energy>
    <i name="alphaZ">     90.05800608 </i>
    <i name="ewald">  44593.30577300 </i>
    <i name="hartreedc"> -50604.13558903 </i>
    <i name="XCdc">   -233.45817159 </i>
    <i name="pawpsdc">   4082.66233804 </i>
    <i name="pawaedc">  -3498.59200452 </i>
    <i name="eentropy">     -0.20999085 </i>
    <i name="bandstr">  -1382.57677917 </i>
    <i name="atom">   6761.44252427 </i>
    <i name="e_fr_energy">   -191.50389376 </i>
    <i name="e_wo_entrp">   -191.29390291 </i>
    <i name="e_0_energy">   -191.39889833 </i>
   </energy>
  </scstep>
  <structure>
   <crystal>
    <varray name="basis" >
     <v>       8.28104255       4.79639146       0.00000000 </v>
     <v>      -8.27066883       4.77844310       0.00000000 </v>
     <v>       0.00000000       0.00000000      30.00000000 </v>
    </varray>
    <i name="volume">   2377.19567937 </i>
    <varray name="rec_basis" >
     <v>       0.06030353       0.10437511       0.00000000 </v>
     <v>      -0.06053004       0.10450603       0.00000000 </v>
     <v>       0.00000000       0.00000000       0.03333333 </v>
    </varray>
   </crystal>
   <varray name="positions" >
    <v>       0.00170000       0.67106111       0.00045026 </v>
    <v>       0.66002497      -0.00803274      -0.00051405 </v>
    <v>       0.00407749       0.00030149       0.00003846 </v>
    <v>       0.33840813       0.01354073       0.00038541 </v>
    <v>       0.34539068       0.33829241      -0.00002012 </v>
    <v>       0.65200587       0.65299363      -0.00018934 </v>
    <v>       1.01389947       0.33791478      -0.00025725 </v>
    <v>       0.33759405       0.66002538      -0.00011268 </v>
    <v>       0.64690732       0.33273777       0.00012374 </v>
    <v>       0.10934431       0.21643817       0.94860971 </v>
    <v>       0.21595456       0.10891073       0.05197324 </v>
    <v>       0.10962136       0.55966458       0.94875913 </v>
    <v>       0.22386627       0.44459612       0.05354785 </v>
    <v>       0.10574743       0.88681110       0.94966974 </v>
    <v>       0.21848471       0.77556622       0.04981760 </v>
    <v>       0.44426767       0.22281707       0.94482478 </v>
    <v>       0.56005052       0.11030308       0.05176475 </v>
    <v>       0.44279778       0.55470792       0.94521150 </v>
    <v>       0.55542764       0.44391832       0.05571080 </v>
    <v>       0.44887064       0.89058828       0.94918137 </v>
    <v>       0.55800007       0.78304510       0.05203649 </v>
    <v>       0.77509646       0.21910300       0.95143051 </v>
    <v>       0.88668221       0.10578535       0.04930831 </v>
    <v>       0.78210645       0.55660799       0.94879357 </v>
    <v>       0.88920141       0.44780546       0.04917356 </v>
    <v>       0.78000624       0.89246254       0.95108891 </v>
    <v>       0.89268077       0.78024889       0.04919365 </v>
   </varray>
  </structure>
  <varray name="forces" >
   <v>      -0.01911260       0.08725377       0.04563076 </v>
   <v>       0.08335870      -0.37750717      -0.03076648 </v>
   <v>       0.05731779       0.05091852       0.04689254 </v>
   <v>      -0.27364570       0.28931860      -0.01126082 </v>
   <v>      -0.07558040       0.03675600       0.00063697 </v>
   <v>      -0.12602115      -0.22400758       0.02567397 </v>
   <v>       0.35582900       0.49612358      -0.03486647 </v>
   <v>       0.40272502      -0.18388466      -0.00879625 </v>
   <v>      -0.34971521      -0.24130693      -0.01969811 </v>
   <v>       0.06772343       0.06340935      -0.10829679 </v>
   <v>      -0.01344602       0.09733361       0.04969185 </v>
   <v>       0.03127001       0.08151015      -0.06198926 </v>
   <v>       0.09212057       0.05524044       0.23165400 </v>
   <v>       0.01280499       0.05951087      -0.00689618 </v>
   <v>       0.05478311       0.16182356      -0.17808450 </v>
   <v>      -0.07425817       0.00100296      -0.16938975 </v>
   <v>      -0.05843045       0.03357605       0.02826085 </v>
   <v>       0.03351236      -0.03121703      -0.20574100 </v>
   <v>      -0.05138926      -0.03074372       0.17985549 </v>
   <v>      -0.04740051      -0.10572520       0.08640993 </v>
   <v>       0.01669326      -0.06374636       0.11540977 </v>
   <v>      -0.07417084       0.11393478       0.37626805 </v>
   <v>      -0.01789402       0.05352837      -0.12733190 </v>
   <v>      -0.05714554      -0.08890941       0.05326743 </v>
   <v>       0.01667991      -0.12505499      -0.25173801 </v>
   <v>       0.07619496      -0.11918664       0.07123367 </v>
   <v>      -0.06280326      -0.08995091      -0.09602976 </v>
  </varray>
  <varray name="stress" >
   <v>      -0.19001226      -0.02605768      -0.00190457 </v>
   <v>      -0.02605762      -0.08663656       0.13024721 </v>
   <v>      -0.00190465       0.13024729      -1.27910153 </v>
  </varray>
  <energy>
   <i name="e_fr_energy">   -191.50389376 </i>
   <i name="e_wo_entrp">   -191.39889833 </i>
   <i name="e_0_energy">     -0.20999085 </i>
  </energy>
  <time name="totalsc">  283.86  284.82</time>
 </calculation>
 <calculation>
  <scstep>
   <time name="dav">   21.62   21.67</time>
   <time name="total">   22.13   22.19</time>
   <energy>
    <i name="alphaZ">     90.10846712 </i>
    <i name="ewald">  44617.38239051 </i>
    <i name="hartreedc"> -50628.70926468 </i>
    <i name="XCdc">   -233.42069051 </i>
    <i name="pawpsdc">   4082.48888922 </i>
    <i name="pawaedc">  -3498.41677171 </i>
    <i name="eentropy">     -0.21085486 </i>
    <i name="bandstr">  -1382.21516575 </i>
    <i name="atom">   6761.44252427 </i>
    <i name="e_fr_energy">   -191.55047638 </i>
    <i name="e_wo_entrp">   -191.33962152 </i>
    <i name="e_0_energy">   -191.44504895 </i>
   </energy>
  </scstep>
  <scstep>
   <time name="dav">   32.91   32.98</time>
   <time name="total">   33.41   33.50</time>
   <energy>
    <i name="e_fr_energy">   -191.56626622 </i>
    <i name="e_wo_entrp">   -191.35208082 </i>
    <i name="e_0_energy">   -191.45917352 </i>
   </energy>
  </scstep>
  <scstep>
   <time name="dav">   29.95   30.02</time>
   <time name="total">   30.46   30.54</time>
   <energy>
    <i name="e_fr_energy">   -191.55366049 </i>
    <i name="e_wo_entrp">   -191.34245954 </i>
    <i name="e_0_energy">   -191.44806001 </i>
   </energy>
  </scstep>
  <scstep>
   <time name="dav">   27.54   27.61</time>
   <time name="total">   28.05   28.13</time>
   <energy>
    <i name="e_fr_energy">   -191.55413944 </i>
    <i name="e_wo_entrp">   -191.34308924 </i>
    <i name="e_0_energy">   -191.44861434 </i>
   </energy>
  </scstep>
  <scstep>
   <time name="dav">   27.50   27.57</time>
   <time name="total">   28.01   28.09</time>
   <energy>
    <i name="e_fr_energy">   -191.55259590 </i>
    <i name="e_wo_entrp">   -191.34101924 </i>
    <i name="e_0_energy">   -191.44680757 </i>
   </energy>
  </scstep>
  <scstep>
   <time name="dav">   25.56   25.62</time>
   <time name="total">   25.60   25.67</time>
   <energy>
    <i name="alphaZ">     90.10846712 </i>
    <i name="ewald">  44617.38239051 </i>
    <i name="hartreedc"> -50628.66804810 </i>
    <i name="XCdc">   -233.42784554 </i>
    <i name="pawpsdc">   4083.61466016 </i>
    <i name="pawaedc">  -3499.55657121 </i>
    <i name="eentropy">     -0.21157139 </i>
    <i name="bandstr">  -1382.23655254 </i>
    <i name="atom">   6761.44252427 </i>
    <i name="e_fr_energy">   -191.55254672 </i>
    <i name="e_wo_entrp">   -191.34097533 </i>
[...]
      <set comment="kpoint 31">
       <r>  -17.5615    1.0000 </r>
       <r>  -17.2835    1.0000 </r>
       <r>  -16.9059    1.0000 </r>
       <r>  -16.7178    1.0000 </r>
       <r>  -16.5391    1.0000 </r>
       <r>  -16.4610    1.0000 </r>
       <r>  -16.3478    1.0000 </r>
       <r>  -16.2061    1.0000 </r>
       <r>  -16.1515    1.0000 </r>
       <r>  -16.0376    1.0000 </r>
       <r>  -15.9405    1.0000 </r>
       <r>  -15.8906    1.0000 </r>
       <r>  -15.7782    1.0000 </r>
       <r>  -15.5999    1.0000 </r>
       <r>  -15.5334    1.0000 </r>
       <r>  -15.4303    1.0000 </r>
       <r>  -15.3189    1.0000 </r>
       <r>  -15.3049    1.0000 </r>
       <r>   -9.7832    1.0000 </r>
       <r>   -9.5253    1.0000 </r>
       <r>   -9.3192    1.0000 </r>
       <r>   -9.0164    1.0000 </r>
       <r>   -8.8705    1.0000 </r>
       <r>   -8.7537    1.0000 </r>
       <r>   -8.6009    1.0000 </r>
       <r>   -8.5527    1.0000 </r>
       <r>   -8.4692    1.0000 </r>
       <r>   -8.3133    1.0000 </r>
       <r>   -8.2676    1.0000 </r>
       <r>   -8.2124    1.0000 </r>
       <r>   -8.1162    1.0000 </r>
       <r>   -8.0288    1.0000 </r>
       <r>   -7.9736    1.0000 </r>
       <r>   -7.8946    1.0000 </r>
       <r>   -7.8595    1.0000 </r>
       <r>   -7.7595    1.0000 </r>
       <r>   -7.5750    1.0000 </r>
       <r>   -7.4467    1.0000 </r>
       <r>   -7.3582    1.0000 </r>
       <r>   -7.2601    1.0000 </r>
       <r>   -7.1580    1.0000 </r>
       <r>   -7.0871    1.0000 </r>
       <r>   -6.9806    1.0000 </r>
       <r>   -6.9248    1.0000 </r>
       <r>   -6.8630    1.0000 </r>
       <r>   -6.6920    1.0000 </r>
       <r>   -6.6233    1.0000 </r>
       <r>   -6.5859    1.0000 </r>
       <r>   -6.5429    1.0000 </r>
       <r>   -6.5037    1.0000 </r>
       <r>   -6.4585    1.0000 </r>
       <r>   -6.3470    1.0000 </r>
       <r>   -6.3142    1.0000 </r>
       <r>   -6.2181    1.0000 </r>
       <r>   -6.1695    1.0000 </r>
       <r>   -6.0337    1.0000 </r>
       <r>   -5.9709    1.0000 </r>
       <r>   -5.8867    1.0000 </r>
       <r>   -5.8294    1.0000 </r>
       <r>   -5.7150    1.0000 </r>
       <r>   -5.6947    1.0000 </r>
       <r>   -5.5067    1.0000 </r>
       <r>   -5.4937    1.0000 </r>
       <r>   -5.4253    1.0000 </r>
       <r>   -5.1957    1.0000 </r>
       <r>   -5.0861    1.0000 </r>
       <r>   -5.0516    1.0000 </r>
       <r>   -4.9032    1.0000 </r>
       <r>   -4.8242    1.0000 </r>
       <r>   -4.6844    1.0000 </r>
       <r>   -4.6062    1.0000 </r>
       <r>   -4.4999    1.0000 </r>
       <r>   -4.3505    1.0000 </r>
       <r>   -4.2338    1.0000 </r>
       <r>   -4.1499    1.0000 </r>
       <r>   -3.9213    1.0000 </r>
       <r>   -3.8372    1.0000 </r>
       <r>   -3.7469    0.9998 </r>
       <r>   -3.6105    0.9954 </r>
       <r>   -3.1440    0.2449 </r>
       <r>   -3.0018    0.0450 </r>
       <r>   -2.9269    0.0130 </r>
       <r>   -2.6770    0.0000 </r>
       <r>   -2.6085    0.0000 </r>
       <r>   -2.4970    0.0000 </r>
       <r>   -2.4336    0.0000 </r>
       <r>   -2.2422    0.0000 </r>
       <r>   -2.1242    0.0000 </r>
       <r>   -2.0752    0.0000 </r>
       <r>   -1.9860    0.0000 </r>
       <r>   -1.7007    0.0000 </r>
       <r>   -1.4583    0.0000 </r>
       <r>   -1.3381    0.0000 </r>
       <r>   -1.3068    0.0000 </r>
       <r>   -1.2626    0.0000 </r>
       <r>   -1.1677    0.0000 </r>
       <r>   -1.0658    0.0000 </r>
       <r>   -0.9800    0.0000 </r>
       <r>   -0.9082    0.0000 </r>
       <r>   -0.8937    0.0000 </r>
       <r>   -0.8021    0.0000 </r>
       <r>   -0.7619    0.0000 </r>
       <r>   -0.6150    0.0000 </r>
       <r>   -0.5630    0.0000 </r>
       <r>   -0.5059    0.0000 </r>
       <r>   -0.2961    0.0000 </r>
       <r>   -0.2516    0.0000 </r>
       <r>   -0.0791    0.0000 </r>
       <r>   -0.0323    0.0000 </r>
       <r>    0.1952    0.0000 </r>
       <r>    0.3283    0.0000 </r>
       <r>    0.5028    0.0000 </r>
       <r>    0.7022    0.0000 </r>
       <r>    0.9952    0.0000 </r>
       <r>    1.2543    0.0000 </r>
       <r>    1.3141    0.0000 </r>
       <r>    1.4705    0.0000 </r>
       <r>    2.1450    0.0000 </r>
       <r>    2.3018    0.0000 </r>
       <r>    2.3922    0.0000 </r>
      </set>
      <set comment="kpoint 32">
       <r>  -17.5641    1.0000 </r>
       <r>  -17.2451    1.0000 </r>
       <r>  -16.9961    1.0000 </r>
       <r>  -16.7171    1.0000 </r>
       <r>  -16.5044    1.0000 </r>
       <r>  -16.3882    1.0000 </r>
       <r>  -16.3146    1.0000 </r>
       <r>  -16.2304    1.0000 </r>
       <r>  -16.1549    1.0000 </r>
       <r>  -16.1136    1.0000 </r>
       <r>  -15.9486    1.0000 </r>
       <r>  -15.8770    1.0000 </r>
       <r>  -15.7941    1.0000 </r>
       <r>  -15.5689    1.0000 </r>
       <r>  -15.5413    1.0000 </r>
       <r>  -15.4262    1.0000 </r>
       <r>  -15.3192    1.0000 </r>
       <r>  -15.3035    1.0000 </r>
       <r>   -9.7316    1.0000 </r>
       <r>   -9.6390    1.0000 </r>
       <r>   -9.3699    1.0000 </r>
       <r>   -9.0088    1.0000 </r>
       <r>   -8.7362    1.0000 </r>
       <r>   -8.6487    1.0000 </r>
       <r>   -8.5938    1.0000 </r>
       <r>   -8.4885    1.0000 </r>
       <r>   -8.4154    1.0000 </r>
       <r>   -8.3804    1.0000 </r>
       <r>   -8.2823    1.0000 </r>
       <r>   -8.2664    1.0000 </r>
       <r>   -8.1716    1.0000 </r>
       <r>   -8.0882    1.0000 </r>
       <r>   -8.0026    1.0000 </r>
       <r>   -7.9180    1.0000 </r>
       <r>   -7.8742    1.0000 </r>
       <r>   -7.8019    1.0000 </r>
       <r>   -7.5560    1.0000 </r>
       <r>   -7.4368    1.0000 </r>
       <r>   -7.3181    1.0000 </r>
       <r>   -7.2901    1.0000 </r>
       <r>   -7.1425    1.0000 </r>
       <r>   -7.0267    1.0000 </r>
       <r>   -6.9634    1.0000 </r>
       <r>   -6.9364    1.0000 </r>
       <r>   -6.8348    1.0000 </r>
       <r>   -6.7428    1.0000 </r>
       <r>   -6.6561    1.0000 </r>
       <r>   -6.5972    1.0000 </r>
       <r>   -6.5377    1.0000 </r>
       <r>   -6.5028    1.0000 </r>
       <r>   -6.4345    1.0000 </r>
       <r>   -6.4032    1.0000 </r>
       <r>   -6.3465    1.0000 </r>
       <r>   -6.1852    1.0000 </r>
       <r>   -6.1250    1.0000 </r>
       <r>   -6.0317    1.0000 </r>
       <r>   -5.9548    1.0000 </r>
       <r>   -5.8792    1.0000 </r>
       <r>   -5.7796    1.0000 </r>
       <r>   -5.7287    1.0000 </r>
       <r>   -5.6526    1.0000 </r>
       <r>   -5.5655    1.0000 </r>
       <r>   -5.4932    1.0000 </r>
       <r>   -5.4055    1.0000 </r>
       <r>   -5.1761    1.0000 </r>
       <r>   -5.0861    1.0000 </r>
       <r>   -4.9810    1.0000 </r>
       <r>   -4.8635    1.0000 </r>
       <r>   -4.8328    1.0000 </r>
       <r>   -4.7883    1.0000 </r>
       <r>   -4.7299    1.0000 </r>
       <r>   -4.5186    1.0000 </r>
       <r>   -4.3534    1.0000 </r>
       <r>   -4.2267    1.0000 </r>
       <r>   -4.1260    1.0000 </r>
       <r>   -3.9217    1.0000 </r>
       <r>   -3.8298    1.0000 </r>
       <r>   -3.6878    0.9992 </r>
       <r>   -3.6316    0.9971 </r>
       <r>   -3.1830    0.3392 </r>
       <r>   -2.9812    0.0328 </r>
       <r>   -2.8601    0.0035 </r>
       <r>   -2.7019    0.0001 </r>
       <r>   -2.6049    0.0000 </r>
       <r>   -2.5203    0.0000 </r>
       <r>   -2.4324    0.0000 </r>
       <r>   -2.2690    0.0000 </r>
       <r>   -2.1368    0.0000 </r>
       <r>   -2.0477    0.0000 </r>
       <r>   -1.9759    0.0000 </r>
       <r>   -1.7148    0.0000 </r>
       <r>   -1.4612    0.0000 </r>
       <r>   -1.3792    0.0000 </r>
       <r>   -1.2864    0.0000 </r>
       <r>   -1.2481    0.0000 </r>
       <r>   -1.1485    0.0000 </r>
       <r>   -1.0372    0.0000 </r>
       <r>   -0.9803    0.0000 </r>
       <r>   -0.8946    0.0000 </r>
       <r>   -0.8721    0.0000 </r>
       <r>   -0.7814    0.0000 </r>
       <r>   -0.7274    0.0000 </r>
       <r>   -0.6306    0.0000 </r>
       <r>   -0.5836    0.0000 </r>
       <r>   -0.5345    0.0000 </r>
       <r>   -0.3251    0.0000 </r>
       <r>   -0.3055    0.0000 </r>
       <r>   -0.0473    0.0000 </r>
       <r>    0.0488    0.0000 </r>
       <r>    0.1689    0.0000 </r>
       <r>    0.3101    0.0000 </r>
       <r>    0.5716    0.0000 </r>
       <r>    0.7641    0.0000 </r>
       <r>    0.9807    0.0000 </r>
       <r>    1.2008    0.0000 </r>
       <r>    1.2660    0.0000 </r>
       <r>    1.4231    0.0000 </r>
       <r>    2.1149    0.0000 </r>
       <r>    2.2674    0.0000 </r>
       <r>    2.5813    0.0000 </r>
      </set>
      <set comment="kpoint 33">
       <r>  -17.5416    1.0000 </r>
       <r>  -17.3182    1.0000 </r>
       <r>  -16.8989    1.0000 </r>
       <r>  -16.7145    1.0000 </r>
       <r>  -16.5041    1.0000 </r>
       <r>  -16.4836    1.0000 </r>
       <r>  -16.3246    1.0000 </r>
       <r>  -16.2235    1.0000 </r>
       <r>  -16.1826    1.0000 </r>
       <r>  -16.0749    1.0000 </r>
       <r>  -15.8872    1.0000 </r>
       <r>  -15.8579    1.0000 </r>
       <r>  -15.7948    1.0000 </r>
       <r>  -15.6061    1.0000 </r>
       <r>  -15.5536    1.0000 </r>
       <r>  -15.4207    1.0000 </r>
       <r>  -15.3181    1.0000 </r>
       <r>  -15.3017    1.0000 </r>
       <r>   -9.8163    1.0000 </r>
       <r>   -9.5405    1.0000 </r>
       <r>   -9.3117    1.0000 </r>
       <r>   -8.9965    1.0000 </r>
       <r>   -8.8184    1.0000 </r>
       <r>   -8.7299    1.0000 </r>
       <r>   -8.6477    1.0000 </r>
       <r>   -8.5924    1.0000 </r>
       <r>   -8.4331    1.0000 </r>
       <r>   -8.2890    1.0000 </r>
       <r>   -8.2468    1.0000 </r>
       <r>   -8.1807    1.0000 </r>
       <r>   -8.1279    1.0000 </r>
       <r>   -8.0335    1.0000 </r>
       <r>   -8.0038    1.0000 </r>
       <r>   -7.9197    1.0000 </r>
       <r>   -7.8417    1.0000 </r>
       <r>   -7.8261    1.0000 </r>
       <r>   -7.5233    1.0000 </r>
       <r>   -7.4350    1.0000 </r>
       <r>   -7.4033    1.0000 </r>
       <r>   -7.3057    1.0000 </r>
       <r>   -7.1333    1.0000 </r>
       <r>   -7.0328    1.0000 </r>
       <r>   -6.9523    1.0000 </r>
       <r>   -6.8924    1.0000 </r>
       <r>   -6.8410    1.0000 </r>
       <r>   -6.7643    1.0000 </r>
       <r>   -6.6580    1.0000 </r>
       <r>   -6.5948    1.0000 </r>
       <r>   -6.5235    1.0000 </r>
       <r>   -6.5117    1.0000 </r>
       <r>   -6.4625    1.0000 </r>
       <r>   -6.3825    1.0000 </r>
       <r>   -6.2941    1.0000 </r>
       <r>   -6.2067    1.0000 </r>
       <r>   -6.1427    1.0000 </r>
       <r>   -6.0479    1.0000 </r>
       <r>   -5.9956    1.0000 </r>
       <r>   -5.8979    1.0000 </r>
       <r>   -5.8429    1.0000 </r>
       <r>   -5.7175    1.0000 </r>
       <r>   -5.6620    1.0000 </r>
       <r>   -5.5399    1.0000 </r>
       <r>   -5.4702    1.0000 </r>
       <r>   -5.3927    1.0000 </r>
       <r>   -5.1889    1.0000 </r>
       <r>   -5.0938    1.0000 </r>
       <r>   -5.0429    1.0000 </r>
       <r>   -4.8610    1.0000 </r>
       <r>   -4.8169    1.0000 </r>
       <r>   -4.6784    1.0000 </r>
       <r>   -4.6333    1.0000 </r>
       <r>   -4.5532    1.0000 </r>
       <r>   -4.3525    1.0000 </r>
       <r>   -4.2504    1.0000 </r>
       <r>   -4.1281    1.0000 </r>
       <r>   -3.9986    1.0000 </r>
       <r>   -3.8174    1.0000 </r>
       <r>   -3.7157    0.9996 </r>
       <r>   -3.5992    0.9943 </r>
       <r>   -3.2166    0.4297 </r>
       <r>   -2.9640    0.0248 </r>
       <r>   -2.8092    0.0011 </r>
       <r>   -2.7402    0.0002 </r>
       <r>   -2.6309    0.0000 </r>
       <r>   -2.5385    0.0000 </r>
       <r>   -2.4093    0.0000 </r>
       <r>   -2.2545    0.0000 </r>
       <r>   -2.1287    0.0000 </r>
       <r>   -2.0251    0.0000 </r>
       <r>   -1.9505    0.0000 </r>
       <r>   -1.7281    0.0000 </r>
       <r>   -1.4657    0.0000 </r>
       <r>   -1.3922    0.0000 </r>
       <r>   -1.2797    0.0000 </r>
       <r>   -1.2137    0.0000 </r>
       <r>   -1.1292    0.0000 </r>
       <r>   -1.0452    0.0000 </r>
       <r>   -0.9756    0.0000 </r>
       <r>   -0.9259    0.0000 </r>
       <r>   -0.8517    0.0000 </r>
       <r>   -0.7867    0.0000 </r>
       <r>   -0.6948    0.0000 </r>
       <r>   -0.6276    0.0000 </r>
       <r>   -0.5667    0.0000 </r>
       <r>   -0.5525    0.0000 </r>
       <r>   -0.4393    0.0000 </r>
       <r>   -0.3633    0.0000 </r>
       <r>   -0.0457    0.0000 </r>
       <r>    0.0800    0.0000 </r>
       <r>    0.2380    0.0000 </r>
       <r>    0.3520    0.0000 </r>
       <r>    0.6194    0.0000 </r>
       <r>    0.8477    0.0000 </r>
       <r>    0.9902    0.0000 </r>
       <r>    1.1312    0.0000 </r>
       <r>    1.2236    0.0000 </r>
       <r>    1.3803    0.0000 </r>
       <r>    2.1461    0.0000 </r>
       <r>    2.3003    0.0000 </r>
       <r>    2.4023    0.0000 </r>
      </set>
      <set comment="kpoint 34">
       <r>  -17.5166    1.0000 </r>
       <r>  -17.3737    1.0000 </r>
       <r>  -16.7844    1.0000 </r>
       <r>  -16.6942    1.0000 </r>
       <r>  -16.6324    1.0000 </r>
       <r>  -16.5012    1.0000 </r>
       <r>  -16.3233    1.0000 </r>
       <r>  -16.2232    1.0000 </r>
       <r>  -16.1874    1.0000 </r>
       <r>  -16.0587    1.0000 </r>
       <r>  -15.8649    1.0000 </r>
       <r>  -15.8122    1.0000 </r>
       <r>  -15.7655    1.0000 </r>
       <r>  -15.6752    1.0000 </r>
       <r>  -15.5568    1.0000 </r>
       <r>  -15.4188    1.0000 </r>
       <r>  -15.3177    1.0000 </r>
       <r>  -15.3003    1.0000 </r>
       <r>   -9.8539    1.0000 </r>
       <r>   -9.4701    1.0000 </r>
       <r>   -9.2356    1.0000 </r>
       <r>   -9.0104    1.0000 </r>
       <r>   -8.8911    1.0000 </r>
       <r>   -8.8322    1.0000 </r>
       <r>   -8.6963    1.0000 </r>
       <r>   -8.6048    1.0000 </r>
       <r>   -8.4408    1.0000 </r>
       <r>   -8.2848    1.0000 </r>
       <r>   -8.2086    1.0000 </r>
       <r>   -8.1779    1.0000 </r>
       <r>   -8.1005    1.0000 </r>
       <r>   -8.0066    1.0000 </r>
       <r>   -7.9513    1.0000 </r>
       <r>   -7.8934    1.0000 </r>
       <r>   -7.8218    1.0000 </r>
       <r>   -7.7407    1.0000 </r>
       <r>   -7.5563    1.0000 </r>
       <r>   -7.5037    1.0000 </r>
       <r>   -7.3830    1.0000 </r>
       <r>   -7.3404    1.0000 </r>
       <r>   -7.1264    1.0000 </r>
       <r>   -7.0368    1.0000 </r>
       <r>   -7.0112    1.0000 </r>
       <r>   -6.8816    1.0000 </r>
       <r>   -6.8328    1.0000 </r>
       <r>   -6.7051    1.0000 </r>
       <r>   -6.6334    1.0000 </r>
       <r>   -6.6100    1.0000 </r>
       <r>   -6.5137    1.0000 </r>
       <r>   -6.4907    1.0000 </r>
       <r>   -6.4249    1.0000 </r>
       <r>   -6.4213    1.0000 </r>
       <r>   -6.3038    1.0000 </r>
       <r>   -6.2599    1.0000 </r>
       <r>   -6.2024    1.0000 </r>
       <r>   -6.0668    1.0000 </r>
       <r>   -5.9749    1.0000 </r>
       <r>   -5.8325    1.0000 </r>
       <r>   -5.8287    1.0000 </r>
       <r>   -5.7856    1.0000 </r>
       <r>   -5.6655    1.0000 </r>
       <r>   -5.5866    1.0000 </r>
       <r>   -5.4633    1.0000 </r>
       <r>   -5.3846    1.0000 </r>
       <r>   -5.1924    1.0000 </r>
       <r>   -5.1179    1.0000 </r>
       <r>   -4.9897    1.0000 </r>
       <r>   -4.9109    1.0000 </r>
       <r>   -4.8110    1.0000 </r>
       <r>   -4.6214    1.0000 </r>
       <r>   -4.5648    1.0000 </r>
       <r>   -4.5029    1.0000 </r>
       <r>   -4.3059    1.0000 </r>
       <r>   -4.2722    1.0000 </r>
       <r>   -4.2132    1.0000 </r>
       <r>   -4.0346    1.0000 </r>
       <r>   -3.8164    1.0000 </r>
       <r>   -3.7375    0.9998 </r>
       <r>   -3.5821    0.9920 </r>
       <r>   -3.2289    0.4642 </r>
       <r>   -2.9580    0.0225 </r>
       <r>   -2.7827    0.0006 </r>
       <r>   -2.7719    0.0004 </r>
       <r>   -2.6476    0.0000 </r>
       <r>   -2.5445    0.0000 </r>
       <r>   -2.3933    0.0000 </r>
       <r>   -2.2348    0.0000 </r>
       <r>   -2.1167    0.0000 </r>
       <r>   -2.0214    0.0000 </r>
       <r>   -1.9354    0.0000 </r>
       <r>   -1.7354    0.0000 </r>
       <r>   -1.4722    0.0000 </r>
       <r>   -1.3844    0.0000 </r>
       <r>   -1.2832    0.0000 </r>
       <r>   -1.1841    0.0000 </r>
       <r>   -1.1365    0.0000 </r>
       <r>   -1.0438    0.0000 </r>
       <r>   -0.9719    0.0000 </r>
       <r>   -0.9514    0.0000 </r>
       <r>   -0.8374    0.0000 </r>
       <r>   -0.7744    0.0000 </r>
       <r>   -0.6935    0.0000 </r>
       <r>   -0.6366    0.0000 </r>
       <r>   -0.5948    0.0000 </r>
       <r>   -0.5714    0.0000 </r>
       <r>   -0.4723    0.0000 </r>
       <r>   -0.3589    0.0000 </r>
       <r>   -0.0594    0.0000 </r>
       <r>    0.0932    0.0000 </r>
       <r>    0.2525    0.0000 </r>
       <r>    0.3997    0.0000 </r>
       <r>    0.6342    0.0000 </r>
       <r>    0.8941    0.0000 </r>
       <r>    1.0323    0.0000 </r>
       <r>    1.0621    0.0000 </r>
       <r>    1.2123    0.0000 </r>
       <r>    1.3606    0.0000 </r>
       <r>    2.2256    0.0000 </r>
       <r>    2.2599    0.0000 </r>
       <r>    2.3821    0.0000 </r>
      </set>
     </set>
    </set>
   </array>
  </eigenvalues>
  <separator name="orbital magnetization" >
   <v name="MAGDIPOLOUT">      0.00000000      0.00000000      0.00000000</v>
  </separator>
 </calculation>
 <structure name="finalpos" >
  <crystal>
   <varray name="basis" >
    <v>       8.32438351       4.83156573       0.00000000 </v>
    <v>      -8.30475716       4.79767860       0.00000000 </v>
    <v>       0.00000000       0.00000000      30.00000000 </v>
   </varray>
   <i name="volume">   2401.88090275 </i>
   <varray name="rec_basis" >
    <v>       0.05992402       0.10372817       0.00000000 </v>
    <v>      -0.06034728       0.10397331       0.00000000 </v>
    <v>       0.00000000       0.00000000       0.03333333 </v>
   </varray>
  </crystal>
  <varray name="positions" >
   <v>       0.03894049       0.68999645      -0.00280287 </v>
   <v>       0.62910679      -0.02553311       0.00243193 </v>
   <v>       0.03124130       0.01443730      -0.00144825 </v>
   <v>       0.33531006       0.02132977      -0.00004852 </v>
   <v>       0.33911796       0.33650439      -0.00016796 </v>
   <v>       0.63027501       0.64590639       0.00177499 </v>
   <v>       1.03469657       0.34643294      -0.00109998 </v>
   <v>       0.33560590       0.64763962      -0.00020897 </v>
   <v>       0.63090018       0.32428848       0.00149727 </v>
   <v>       0.11041397       0.21681893       0.94539411 </v>
   <v>       0.21833004       0.11152614       0.05398183 </v>
   <v>       0.11477125       0.55849855       0.94539851 </v>
   <v>       0.22699170       0.44438826       0.05617901 </v>
   <v>       0.11217281       0.89295016       0.94591315 </v>
   <v>       0.22765357       0.78111173       0.04961459 </v>
   <v>       0.44203880       0.22439969       0.94350746 </v>
   <v>       0.55475298       0.11047593       0.05429612 </v>
   <v>       0.43932724       0.55021092       0.94349134 </v>
   <v>       0.55120824       0.44197345       0.05761662 </v>
   <v>       0.44012180       0.88554400       0.94980049 </v>
   <v>       0.55038223       0.77655374       0.05570261 </v>
   <v>       0.77541944       0.21779471       0.95795853 </v>
   <v>       0.88646687       0.10619120       0.04415279 </v>
   <v>       0.78230216       0.55857848       0.95455402 </v>
   <v>       0.89101969       0.45079536       0.04278837 </v>
   <v>       0.77750669       0.89141494       0.95728413 </v>
   <v>       0.89214074       0.77798604       0.04243858 </v>
  </varray>
 </structure>
</modeling>
