 vasp.5.4.1 05Feb16 (build Jul 05 2020 17:13:04) complex                        
  
 executed on           IFC91_ompi date 2024.05.08  01:54:26
 running on   40 total cores
 distrk:  each k-point on   40 cores,    1 groups
 distr:  one band on NCORES_PER_BAND=   1 cores,   40 groups


--------------------------------------------------------------------------------------------------------


 INCAR:
 POTCAR:   PAW_PBE V 08Apr2002                    
 POTCAR:   PAW_PBE Mo 08Apr2002                   
 POTCAR:   PAW_PBE W 08Apr2002                    
 POTCAR:    PAW_PBE S 17Jan2003                   

 ----------------------------------------------------------------------------- 
|                                                                             |
|           W    W    AA    RRRRR   N    N  II  N    N   GGGG   !!!           |
|           W    W   A  A   R    R  NN   N  II  NN   N  G    G  !!!           |
|           W    W  A    A  R    R  N N  N  II  N N  N  G       !!!           |
|           W WW W  AAAAAA  RRRRR   N  N N  II  N  N N  G  GGG   !            |
|           WW  WW  A    A  R   R   N   NN  II  N   NN  G    G                |
|           W    W  A    A  R    R  N    N  II  N    N   GGGG   !!!           |
|                                                                             |
|      For optimal performance we recommend to set                            |
|        NCORE= 4 - approx SQRT( number of cores)                             |
|      NCORE specifies how many cores store one orbital (NPAR=cpu/NCORE).     |
|      This setting can  greatly improve the performance of VASP for DFT.     |
|      The default, NPAR=number of cores might be grossly inefficient         |
|      on modern multi-core architectures or massively parallel machines.     |
|      Do your own testing !!!!                                               |
|      Unfortunately you need to use the default for GW and RPA calculations. |
|      (for HF NCORE is supported but not extensively tested yet)             |
|                                                                             |
 ----------------------------------------------------------------------------- 

 POTCAR:   PAW_PBE V 08Apr2002                    
   VRHFIN =V: p6 d4 s1                                                          
   LEXCH  = PE                                                                  
   EATOM  =   170.8679 eV,   12.5584 Ry                                         
                                                                                
   TITEL  = PAW_PBE V 08Apr2002                                                 
   LULTRA =        F    use ultrasoft PP ?                                      
   IUNSCR =        1    unscreen: 0-lin 1-nonlin 2-no                           
   RPACOR =    2.000    partial core radius                                     
   POMASS =   50.941; ZVAL   =    5.000    mass and valenz                      
   RCORE  =    2.700    outmost cutoff radius                                   
   RWIGS  =    2.500; RWIGS  =    1.323    wigner-seitz radius (au A)           
   ENMAX  =  192.543; ENMIN  =  144.408 eV                                      
   RCLOC  =    1.779    cutoff for local pot                                    
   LCOR   =        T    correct aug charges                                     
   LPAW   =        T    paw PP                                                  
   EAUG   =  358.662                                                            
   DEXC   =    -.034                                                            
   RMAX   =    3.323    core radius for proj-oper                               
   RAUG   =    1.300    factor for augmentation sphere                          
   RDEP   =    2.762    radius for radial grids                                 
   QCUT   =   -3.762; QGAM   =    7.524    optimization parameters              
                                                                                
   Description                                                                  
     l     E      TYP  RCUT    TYP  RCUT                                        
     2   .000     23  2.700                                                     
     2   .000     23  2.700                                                     
     0   .000     23  2.700                                                     
     0  2.000     23  2.700                                                     
     1   .000     23  2.700                                                     
     1  2.000     23  2.700                                                     
     3   .000      7   .000                                                     
  local pseudopotential read in
  partial core-charges read in
  atomic valenz-charges read in
  non local Contribution for L=           2  read in
    real space projection operators read in
  non local Contribution for L=           2  read in
    real space projection operators read in
  non local Contribution for L=           0  read in
    real space projection operators read in
  non local Contribution for L=           0  read in
    real space projection operators read in
  non local Contribution for L=           1  read in
    real space projection operators read in
  non local Contribution for L=           1  read in
    real space projection operators read in
    PAW grid and wavefunctions read in
 
   number of l-projection  operators is LMAX  =           6
   number of lm-projection operators is LMMAX =          18
 
 POTCAR:   PAW_PBE Mo 08Apr2002                   
   VRHFIN =Mo: 4p5s4d                                                           
   LEXCH  = PE                                                                  
   EATOM  =   217.5180 eV,   15.9871 Ry                                         
                                                                                
   TITEL  = PAW_PBE Mo 08Apr2002                                                
   LULTRA =        F    use ultrasoft PP ?                                      
   IUNSCR =        1    unscreen: 0-lin 1-nonlin 2-no                           
   RPACOR =    2.200    partial core radius                                     
   POMASS =   95.940; ZVAL   =    6.000    mass and valenz                      
   RCORE  =    2.750    outmost cutoff radius                                   
   RWIGS  =    2.750; RWIGS  =    1.455    wigner-seitz radius (au A)           
   ENMAX  =  224.584; ENMIN  =  168.438 eV                                      
   RCLOC  =    2.111    cutoff for local pot                                    
   LCOR   =        T    correct aug charges                                     
   LPAW   =        T    paw PP                                                  
   EAUG   =  345.278                                                            
   DEXC   =    -.088                                                            
   RMAX   =    3.077    core radius for proj-oper                               
   RAUG   =    1.300    factor for augmentation sphere                          
   RDEP   =    2.815    radius for radial grids                                 
   QCUT   =   -4.063; QGAM   =    8.126    optimization parameters              
                                                                                
   Description                                                                  
     l     E      TYP  RCUT    TYP  RCUT                                        
     2   .000     23  2.500                                                     
     2   .000     23  2.500                                                     
     0   .000     23  2.600                                                     
     0  1.000     23  2.600                                                     
     1   .400     23  2.750                                                     
     1  2.000     23  2.750                                                     
     3   .000      7   .000                                                     
  local pseudopotential read in
  partial core-charges read in
  atomic valenz-charges read in
  non local Contribution for L=           2  read in
    real space projection operators read in
  non local Contribution for L=           2  read in
    real space projection operators read in
  non local Contribution for L=           0  read in
    real space projection operators read in
  non local Contribution for L=           0  read in
    real space projection operators read in
  non local Contribution for L=           1  read in
    real space projection operators read in
  non local Contribution for L=           1  read in
    real space projection operators read in
    PAW grid and wavefunctions read in
 
   number of l-projection  operators is LMAX  =           6
   number of lm-projection operators is LMMAX =          18
 
 POTCAR:   PAW_PBE W 08Apr2002                    
   VRHFIN =W : 6s5d                                                             
   LEXCH  = PE                                                                  
   EATOM  =   204.6100 eV,   15.0384 Ry                                         
                                                                                
   TITEL  = PAW_PBE W 08Apr2002                                                 
   LULTRA =        F    use ultrasoft PP ?                                      
   IUNSCR =        1    unscreen: 0-lin 1-nonlin 2-no                           
   RPACOR =    2.330    partial core radius                                     
   POMASS =  183.850; ZVAL   =    6.000    mass and valenz                      
   RCORE  =    2.750    outmost cutoff radius                                   
   RWIGS  =    2.750; RWIGS  =    1.455    wigner-seitz radius (au A)           
   ENMAX  =  223.057; ENMIN  =  167.293 eV                                      
   RCLOC  =    2.147    cutoff for local pot                                    
   LCOR   =        T    correct aug charges                                     
   LPAW   =        T    paw PP                                                  
   EAUG   =  373.438                                                            
   DEXC   =    -.060                                                            
   RMAX   =    3.087    core radius for proj-oper                               
   RAUG   =    1.300    factor for augmentation sphere                          
   RDEP   =    2.886    radius for radial grids                                 
   QCUT   =   -4.049; QGAM   =    8.098    optimization parameters              
                                                                                
   Description                                                                  
     l     E      TYP  RCUT    TYP  RCUT                                        
     2   .000     23  2.500                                                     
     2   .000     23  2.500                                                     
     0   .000     23  2.500                                                     
     0   .000     23  2.500                                                     
     1   .200     23  2.750                                                     
     1  2.000     23  2.750                                                     
     3   .000      7   .000                                                     
  local pseudopotential read in
  partial core-charges read in
  atomic valenz-charges read in
  non local Contribution for L=           2  read in
    real space projection operators read in
  non local Contribution for L=           2  read in
    real space projection operators read in
  non local Contribution for L=           0  read in
    real space projection operators read in
  non local Contribution for L=           0  read in
    real space projection operators read in
  non local Contribution for L=           1  read in
    real space projection operators read in
  non local Contribution for L=           1  read in
    real space projection operators read in
    PAW grid and wavefunctions read in
 
   number of l-projection  operators is LMAX  =           6
   number of lm-projection operators is LMMAX =          18
 
 POTCAR:    PAW_PBE S 17Jan2003                   
   VRHFIN =S : s2p4                                                             
   LEXCH  = PE                                                                  
   EATOM  =   276.8230 eV,   20.3459 Ry                                         
                                                                                
   TITEL  = PAW_PBE S 17Jan2003                                                 
   LULTRA =        F    use ultrasoft PP ?                                      
   IUNSCR =        1    unscreen: 0-lin 1-nonlin 2-no                           
   RPACOR =    1.500    partial core radius                                     
   POMASS =   32.066; ZVAL   =    6.000    mass and valenz                      
   RCORE  =    1.900    outmost cutoff radius                                   
   RWIGS  =    2.200; RWIGS  =    1.164    wigner-seitz radius (au A)           
   ENMAX  =  280.000; ENMIN  =  194.016 eV                                      
   ICORE  =        2    local potential                                         
   LCOR   =        T    correct aug charges                                     
   LPAW   =        T    paw PP                                                  
   EAUG   =  335.092                                                            
   DEXC   =     .000                                                            
   RMAX   =    2.867    core radius for proj-oper                               
   RAUG   =    1.300    factor for augmentation sphere                          
   RDEP   =    1.954    radius for radial grids                                 
   QCUT   =   -4.360; QGAM   =    8.721    optimization parameters              
                                                                                
   Description                                                                  
     l     E      TYP  RCUT    TYP  RCUT                                        
     0   .000     23  1.900                                                     
     0   .000     23  1.900                                                     
     1   .000     23  1.900                                                     
     1   .000     23  1.900                                                     
     2   .000     23  1.900                                                     
  local pseudopotential read in
  partial core-charges read in
  atomic valenz-charges read in
  non local Contribution for L=           0  read in
    real space projection operators read in
  non local Contribution for L=           0  read in
    real space projection operators read in
  non local Contribution for L=           1  read in
    real space projection operators read in
  non local Contribution for L=           1  read in
    real space projection operators read in
    PAW grid and wavefunctions read in
 
   number of l-projection  operators is LMAX  =           4
   number of lm-projection operators is LMMAX =           8
 

 ----------------------------------------------------------------------------- 
|                                                                             |
|  ADVICE TO THIS USER RUNNING 'VASP/VAMP'   (HEAR YOUR MASTER'S VOICE ...):  |
|                                                                             |
|      You have a (more or less) 'large supercell' and for larger cells       |
|      it might be more efficient to use real space projection operators      |
|      So try LREAL= Auto  in the INCAR   file.                               |
|      Mind: If you want to do a very accurate calculations keep the          |
|      reciprocal projection scheme          (i.e. LREAL=.FALSE.)             |
|                                                                             |
 ----------------------------------------------------------------------------- 

 PAW_PBE V 08Apr2002                    :
 energy of atom  1       EATOM= -170.8679
 kinetic energy error for atom=    0.0047 (will be added to EATOM!!)
 PAW_PBE Mo 08Apr2002                   :
 energy of atom  2       EATOM= -217.5180
 kinetic energy error for atom=    0.0215 (will be added to EATOM!!)
 PAW_PBE W 08Apr2002                    :
 energy of atom  3       EATOM= -204.6100
 kinetic energy error for atom=    0.0205 (will be added to EATOM!!)
  PAW_PBE S 17Jan2003                   :
 energy of atom  4       EATOM= -276.8230
 kinetic energy error for atom=    0.0122 (will be added to EATOM!!)
 
 
 POSCAR: crystal structure from VMoWS2 with Hexag
  positions in cartesian coordinates
  No initial velocities read in
 exchange correlation table for  LEXCH =        8
   RHO(1)=    0.500       N(1)  =     2000
   RHO(2)=  100.500       N(2)  =     4000
 


--------------------------------------------------------------------------------------------------------


 ion  position               nearest neighbor table
   1  1.000  0.333  0.000-  25 2.34  10 2.34  13 2.36  12 2.36  22 2.36  23 2.36
   2  0.667  0.000  0.000-  17 2.34  26 2.34  23 2.36  22 2.36  21 2.36  20 2.36
   3  0.667  0.667  0.000-  21 2.34  24 2.34  27 2.36  26 2.36  19 2.36  18 2.36
   4  0.333  0.000  0.000-  11 2.34  20 2.34  17 2.36  16 2.36  15 2.36  14 2.36   5 3.34   6 3.34
                             7 3.34   8 3.36   9 3.36
   5  0.333  0.667  0.000-  15 2.34  18 2.34  20 2.36  21 2.36  13 2.36  12 2.36   4 3.34   6 3.34
                             8 3.34
   6  0.333  0.333  0.000-  13 2.34  16 2.34  19 2.36  18 2.36  11 2.36  10 2.36   5 3.34   4 3.34
                             9 3.34   7 3.36
   7  0.000  0.000  0.000-  23 2.34  14 2.34  11 2.36  10 2.36  27 2.36  26 2.36   8 3.34   4 3.34
                             6 3.36
   8  0.000  0.667  0.000-  27 2.34  12 2.34  14 2.36  15 2.36  24 2.36  25 2.36   7 3.34   5 3.34
                             4 3.36   9 3.36
   9  0.667  0.333  0.000-  19 2.34  22 2.34  25 2.36  24 2.36  17 2.36  16 2.36   6 3.34   8 3.36
                             4 3.36
  10  0.111  0.222  0.955-   1 2.34   7 2.36   6 2.36
  11  0.222  0.111  0.045-   4 2.34   7 2.36   6 2.36
  12  0.111  0.556  0.955-   8 2.34   1 2.36   5 2.36
  13  0.222  0.444  0.045-   6 2.34   1 2.36   5 2.36
  14  0.111  0.889  0.955-   7 2.34   8 2.36   4 2.36
  15  0.222  0.777  0.045-   5 2.34   8 2.36   4 2.36
  16  0.444  0.222  0.955-   6 2.34   4 2.36   9 2.36
  17  0.556  0.111  0.045-   2 2.34   4 2.36   9 2.36
  18  0.444  0.556  0.955-   5 2.34   6 2.36   3 2.36
  19  0.556  0.444  0.045-   9 2.34   6 2.36   3 2.36
  20  0.444  0.889  0.955-   4 2.34   5 2.36   2 2.36
  21  0.556  0.777  0.045-   3 2.34   5 2.36   2 2.36
  22  0.777  0.222  0.955-   9 2.34   2 2.36   1 2.36
  23  0.889  0.111  0.045-   7 2.34   2 2.36   1 2.36
  24  0.777  0.556  0.955-   3 2.34   9 2.36   8 2.36
  25  0.889  0.444  0.045-   1 2.34   9 2.36   8 2.36
  26  0.777  0.889  0.955-   2 2.34   3 2.36   7 2.36
  27  0.889  0.777  0.045-   8 2.34   3 2.36   7 2.36
 

IMPORTANT INFORMATION: All symmetrisations will be switched off!
NOSYMM: (Re-)initialisation of all symmetry stuff for point group C_1.

 
 
 KPOINTS: K-POINTS 	#supercell of CrS2 in hexagona

Automatic generation of k-mesh.
Space group operators:
 irot       det(A)        alpha          n_x          n_y          n_z        tau_x        tau_y        tau_z
    1     1.000000     0.000000     1.000000     0.000000     0.000000     0.000000     0.000000     0.000000
 
 Subroutine IBZKPT returns following result:
 ===========================================
 
 Found     34 irreducible k-points:
 
 Following reciprocal coordinates:
            Coordinates               Weight
  0.000000  0.000000  0.000000      1.000000
  0.125000  0.000000  0.000000      2.000000
  0.250000  0.000000  0.000000      2.000000
  0.375000  0.000000  0.000000      2.000000
  0.500000  0.000000  0.000000      1.000000
  0.000000  0.125000  0.000000      2.000000
  0.125000  0.125000  0.000000      2.000000
  0.250000  0.125000  0.000000      2.000000
  0.375000  0.125000  0.000000      2.000000
  0.500000  0.125000  0.000000      2.000000
 -0.375000  0.125000  0.000000      2.000000
 -0.250000  0.125000  0.000000      2.000000
 -0.125000  0.125000  0.000000      2.000000
  0.000000  0.250000  0.000000      2.000000
  0.125000  0.250000  0.000000      2.000000
  0.250000  0.250000  0.000000      2.000000
  0.375000  0.250000  0.000000      2.000000
  0.500000  0.250000  0.000000      2.000000
 -0.375000  0.250000  0.000000      2.000000
 -0.250000  0.250000  0.000000      2.000000
 -0.125000  0.250000  0.000000      2.000000
 -0.000000  0.375000  0.000000      2.000000
  0.125000  0.375000  0.000000      2.000000
  0.250000  0.375000  0.000000      2.000000
  0.375000  0.375000  0.000000      2.000000
  0.500000  0.375000  0.000000      2.000000
 -0.375000  0.375000  0.000000      2.000000
 -0.250000  0.375000  0.000000      2.000000
 -0.125000  0.375000  0.000000      2.000000
  0.000000  0.500000  0.000000      1.000000
  0.125000  0.500000  0.000000      2.000000
  0.250000  0.500000  0.000000      2.000000
  0.375000  0.500000  0.000000      2.000000
  0.500000  0.500000  0.000000      1.000000
 
 Following cartesian coordinates:
            Coordinates               Weight
  0.000000  0.000000  0.000000      1.000000
  0.007209  0.012401  0.000000      2.000000
  0.014418  0.024802  0.000000      2.000000
  0.021626  0.037202  0.000000      2.000000
  0.028835  0.049603  0.000000      1.000000
 -0.007209  0.012401  0.000000      2.000000
  0.000000  0.024802  0.000000      2.000000
  0.007209  0.037202  0.000000      2.000000
  0.014418  0.049603  0.000000      2.000000
  0.021626  0.062004  0.000000      2.000000
 -0.028835 -0.024802  0.000000      2.000000
 -0.021626 -0.012401  0.000000      2.000000
 -0.014418  0.000000  0.000000      2.000000
 -0.014418  0.024802  0.000000      2.000000
 -0.007209  0.037202  0.000000      2.000000
  0.000000  0.049603  0.000000      2.000000
  0.007209  0.062004  0.000000      2.000000
  0.014418  0.074405  0.000000      2.000000
 -0.036044 -0.012401  0.000000      2.000000
 -0.028835  0.000000  0.000000      2.000000
 -0.021626  0.012401  0.000000      2.000000
 -0.021626  0.037202  0.000000      2.000000
 -0.014418  0.049603  0.000000      2.000000
 -0.007209  0.062004  0.000000      2.000000
  0.000000  0.074405  0.000000      2.000000
  0.007209  0.086806  0.000000      2.000000
 -0.043253  0.000000  0.000000      2.000000
 -0.036044  0.012401  0.000000      2.000000
 -0.028835  0.024802  0.000000      2.000000
 -0.028835  0.049603  0.000000      1.000000
 -0.021626  0.062004  0.000000      2.000000
 -0.014418  0.074405  0.000000      2.000000
 -0.007209  0.086806  0.000000      2.000000
  0.000000  0.099206  0.000000      1.000000
 


--------------------------------------------------------------------------------------------------------




 Dimension of arrays:
   k-points           NKPTS =     34   k-points in BZ     NKDIM =     34   number of bands    NBANDS=    120
   number of dos      NEDOS =    301   number of ions     NIONS =     27
   non local maximal  LDIM  =      6   non local SUM 2l+1 LMDIM =     18
   total plane-waves  NPLWV = 222264
   max r-space proj   IRMAX =      1   max aug-charges    IRDMAX=   5642
   dimension x,y,z NGX =    42 NGY =   42 NGZ =  126
   dimension x,y,z NGXF=    84 NGYF=   84 NGZF=  252
   support grid    NGXF=    84 NGYF=   84 NGZF=  252
   ions per type =               3   3   3  18
 NGX,Y,Z   is equivalent  to a cutoff of   6.96,  6.96,  6.98 a.u.
 NGXF,Y,Z  is equivalent  to a cutoff of  13.92, 13.92, 13.96 a.u.


 I would recommend the setting:
   dimension x,y,z NGX =    41 NGY =   41 NGZ =  123
 SYSTEM =  unknown system                          
 POSCAR =  crystal structure from VMoWS2 with Hexag

 Startparameter for this run:
   NWRITE =      2    write-flag & timer
   PREC   = normal    normal or accurate (medium, high low for compatibility)
   ISTART =      0    job   : 0-new  1-cont  2-samecut
   ICHARG =      2    charge: 1-file 2-atom 10-const
   ISPIN  =      1    spin polarized calculation?
   LNONCOLLINEAR =      F non collinear calculations
   LSORBIT =      F    spin-orbit coupling
   INIWAV =      1    electr: 0-lowe 1-rand  2-diag
   LASPH  =      F    aspherical Exc in radial PAW
   METAGGA=      F    non-selfconsistent MetaGGA calc.

 Electronic Relaxation 1
   ENCUT  =  280.0 eV  20.58 Ry    4.54 a.u.  13.68 13.68 40.93*2*pi/ulx,y,z
   ENINI  =  280.0     initial cutoff
   ENAUG  =  373.4 eV  augmentation charge cutoff
   NELM   =     60;   NELMIN=  2; NELMDL= -5     # of ELM steps 
   EDIFF  = 0.1E-03   stopping-criterion for ELM
   LREAL  =      F    real-space projection
   NLSPLINE    = F    spline interpolate recip. space projectors
   LCOMPAT=      F    compatible to vasp.4.4
   GGA_COMPAT  = T    GGA compatible to vasp.4.4-vasp.4.6
   LMAXPAW     = -100 max onsite density
   LMAXMIX     =    2 max onsite mixed and CHGCAR
   VOSKOWN=      0    Vosko Wilk Nusair interpolation
   ROPT   =    0.00000   0.00000   0.00000   0.00000
 Ionic relaxation
   EDIFFG = 0.1E-02   stopping-criterion for IOM
   NSW    =    100    number of steps for IOM
   NBLOCK =      1;   KBLOCK =    100    inner block; outer block 
   IBRION =      1    ionic relax: 0-MD 1-quasi-New 2-CG
   NFREE  =      0    steps in history (QN), initial steepest desc. (CG)
   ISIF   =      3    stress and relaxation
   IWAVPR =     11    prediction:  0-non 1-charg 2-wave 3-comb
   ISYM   =      0    0-nonsym 1-usesym 2-fastsym
   LCORR  =      T    Harris-Foulkes like correction to forces

   POTIM  = 0.5000    time-step for ionic-motion
   TEIN   =    0.0    initial temperature
   TEBEG  =    0.0;   TEEND  =   0.0 temperature during run
   SMASS  =  -3.00    Nose mass-parameter (am)
   estimated Nose-frequenzy (Omega)   =  0.10E-29 period in steps =****** mass=  -0.230E-26a.u.
   SCALEE = 1.0000    scale energy and forces
   NPACO  =    256;   APACO  = 16.0  distance and # of slots for P.C.
   PSTRESS=    0.0 pullay stress

  Mass of Ions in am
   POMASS =  50.94 95.94183.85 32.07
  Ionic Valenz
   ZVAL   =   5.00  6.00  6.00  6.00
  Atomic Wigner-Seitz radii
   RWIGS  =  -1.00 -1.00 -1.00 -1.00
  virtual crystal weights 
   VCA    =   1.00  1.00  1.00  1.00
   NELECT =     159.0000    total number of electrons
   NUPDOWN=      -1.0000    fix difference up-down

 DOS related values:
   EMIN   =  10.00;   EMAX   =-10.00  energy-range for DOS
   EFERMI =   0.00
   ISMEAR =     0;   SIGMA  =   0.20  broadening in eV -4-tet -1-fermi 0-gaus

 Electronic relaxation 2 (details)
   IALGO  =     38    algorithm
   LDIAG  =      T    sub-space diagonalisation (order eigenvalues)
   LSUBROT=      F    optimize rotation matrix (better conditioning)
   TURBO    =      0    0=normal 1=particle mesh
   IRESTART =      0    0=no restart 2=restart with 2 vectors
   NREBOOT  =      0    no. of reboots
   NMIN     =      0    reboot dimension
   EREF     =   0.00    reference energy to select bands
   IMIX   =      4    mixing-type and parameters
     AMIX     =   0.40;   BMIX     =  1.00
     AMIX_MAG =   1.60;   BMIX_MAG =  1.00
     AMIN     =   0.10
     WC   =   100.;   INIMIX=   1;  MIXPRE=   1;  MAXMIX= -45

 Intra band minimization:
   WEIMIN = 0.0010     energy-eigenvalue tresh-hold
   EBREAK =  0.21E-06  absolut break condition
   DEPER  =   0.30     relativ break condition  

   TIME   =   0.40     timestep for ELM

  volume/ion in A,a.u.               =      97.10       655.29
  Fermi-wavevector in a.u.,A,eV,Ry     =   0.643191  1.215456  5.628665  0.413695
  Thomas-Fermi vector in A             =   1.710110
 
 Write flags
   LWAVE  =      F    write WAVECAR
   LCHARG =      F    write CHGCAR
   LVTOT  =      F    write LOCPOT, total local potential
   LVHAR  =      F    write LOCPOT, Hartree potential only
   LELF   =      F    write electronic localiz. function (ELF)
   LORBIT =      0    0 simple, 1 ext, 2 COOP (PROOUT)


 Dipole corrections
   LMONO  =      F    monopole corrections only (constant potential shift)
   LDIPOL =      F    correct potential (dipole corrections)
   IDIPOL =      0    1-x, 2-y, 3-z, 4-all directions 
   EPSILON=  1.0000000 bulk dielectric constant

 Exchange correlation treatment:
   GGA     =    --    GGA type
   LEXCH   =     8    internal setting for exchange type
   VOSKOWN=      0    Vosko Wilk Nusair interpolation
   LHFCALC =     F    Hartree Fock is set to
   LHFONE  =     F    Hartree Fock one center treatment
   AEXX    =    0.0000 exact exchange contribution

 Linear response parameters
   LEPSILON=     F    determine dielectric tensor
   LRPA    =     F    only Hartree local field effects (RPA)
   LNABLA  =     F    use nabla operator in PAW spheres
   LVEL    =     F    velocity operator in full k-point grid
   LINTERFAST=   F  fast interpolation
   KINTER  =     0    interpolate to denser k-point grid
   CSHIFT  =0.1000    complex shift for real part using Kramers Kronig
   OMEGAMAX=  -1.0    maximum frequency
   DEG_THRESHOLD= 0.2000000E-02 threshold for treating states as degnerate
   RTIME   =    0.100 relaxation time in fs

 Orbital magnetization related:
   ORBITALMAG=     F  switch on orbital magnetization
   LCHIMAG   =     F  perturbation theory with respect to B field
   DQ        =  0.001000  dq finite difference perturbation B field



--------------------------------------------------------------------------------------------------------


 quasi-Newton-method for relaxation of ions
 charge density and potential will be updated during run
 non-spin polarized calculation
 Variant of blocked Davidson
 Davidson routine will perform the subspace rotation
 perform sub-space diagonalisation
    after iterative eigenvector-optimisation
 modified Broyden-mixing scheme, WC =      100.0
 initial mixing is a Kerker type mixing with AMIX =  0.4000 and BMIX =      1.0000
 Hartree-type preconditioning will be used
 using additional bands           40
 reciprocal scheme for non local part
 use partial core corrections
 calculate Harris-corrections to forces 
   (improved forces if not selfconsistent)
 use gradient corrections 
 use of overlap-Matrix (Vanderbilt PP)
 Gauss-broadening in eV      SIGMA  =   0.20


--------------------------------------------------------------------------------------------------------


  energy-cutoff  :      280.00
  volume of cell :     2621.81
      direct lattice vectors                 reciprocal lattice vectors
     8.669999960  5.039999894  0.000000000     0.057670129  0.099206348  0.000000000
    -8.669999821  5.040000133  0.000000000    -0.057670126  0.099206350  0.000000000
     0.000000000  0.000000000 30.000000000     0.000000000  0.000000000  0.033333333

  length of vectors
    10.028484344 10.028484344 30.000000000     0.114750788  0.114750788  0.033333333


 
 k-points in units of 2pi/SCALE and weight: K-POINTS 	#supercell of CrS2 in hexagona
   0.00000000  0.00000000  0.00000000       0.016
   0.00720877  0.01240079  0.00000000       0.031
   0.01441753  0.02480159  0.00000000       0.031
   0.02162630  0.03720238  0.00000000       0.031
   0.02883506  0.04960317  0.00000000       0.016
  -0.00720877  0.01240079  0.00000000       0.031
   0.00000000  0.02480159  0.00000000       0.031
   0.00720877  0.03720238  0.00000000       0.031
   0.01441753  0.04960317  0.00000000       0.031
   0.02162630  0.06200397  0.00000000       0.031
  -0.02883506 -0.02480159  0.00000000       0.031
  -0.02162630 -0.01240079  0.00000000       0.031
  -0.01441753  0.00000000  0.00000000       0.031
  -0.01441753  0.02480159  0.00000000       0.031
  -0.00720877  0.03720238  0.00000000       0.031
   0.00000000  0.04960317  0.00000000       0.031
   0.00720877  0.06200397  0.00000000       0.031
   0.01441753  0.07440476  0.00000000       0.031
  -0.03604383 -0.01240079  0.00000000       0.031
  -0.02883506  0.00000000  0.00000000       0.031
  -0.02162630  0.01240079  0.00000000       0.031
  -0.02162630  0.03720238  0.00000000       0.031
  -0.01441753  0.04960317  0.00000000       0.031
  -0.00720877  0.06200397  0.00000000       0.031
   0.00000000  0.07440476  0.00000000       0.031
   0.00720877  0.08680556  0.00000000       0.031
  -0.04325260  0.00000000  0.00000000       0.031
  -0.03604383  0.01240079  0.00000000       0.031
  -0.02883506  0.02480159  0.00000000       0.031
  -0.02883506  0.04960317  0.00000000       0.016
  -0.02162630  0.06200397  0.00000000       0.031
  -0.01441753  0.07440476  0.00000000       0.031
  -0.00720876  0.08680556  0.00000000       0.031
   0.00000000  0.09920635  0.00000000       0.016
 
 k-points in reciprocal lattice and weights: K-POINTS 	#supercell of CrS2 in hexagona
   0.00000000  0.00000000  0.00000000       0.016
   0.12500000  0.00000000  0.00000000       0.031
   0.25000000  0.00000000  0.00000000       0.031
   0.37500000  0.00000000  0.00000000       0.031
   0.50000000  0.00000000  0.00000000       0.016
   0.00000000  0.12500000  0.00000000       0.031
   0.12500000  0.12500000  0.00000000       0.031
   0.25000000  0.12500000  0.00000000       0.031
   0.37500000  0.12500000  0.00000000       0.031
   0.50000000  0.12500000  0.00000000       0.031
  -0.37500000  0.12500000  0.00000000       0.031
  -0.25000000  0.12500000  0.00000000       0.031
  -0.12500000  0.12500000  0.00000000       0.031
   0.00000000  0.25000000  0.00000000       0.031
   0.12500000  0.25000000  0.00000000       0.031
   0.25000000  0.25000000  0.00000000       0.031
   0.37500000  0.25000000  0.00000000       0.031
   0.50000000  0.25000000  0.00000000       0.031
  -0.37500000  0.25000000  0.00000000       0.031
  -0.25000000  0.25000000  0.00000000       0.031
  -0.12500000  0.25000000  0.00000000       0.031
  -0.00000000  0.37500000  0.00000000       0.031
   0.12500000  0.37500000  0.00000000       0.031
   0.25000000  0.37500000  0.00000000       0.031
   0.37500000  0.37500000  0.00000000       0.031
   0.50000000  0.37500000  0.00000000       0.031
  -0.37500000  0.37500000  0.00000000       0.031
  -0.25000000  0.37500000  0.00000000       0.031
  -0.12500000  0.37500000  0.00000000       0.031
   0.00000000  0.50000000  0.00000000       0.016
   0.12500000  0.50000000  0.00000000       0.031
   0.25000000  0.50000000  0.00000000       0.031
   0.37500000  0.50000000  0.00000000       0.031
   0.50000000  0.50000000  0.00000000       0.016
 
 position of ions in fractional coordinates (direct lattice) 
   1.00000000  0.33333334  0.00000000
   0.66666669  0.00000000  0.00000000
   0.66666669  0.66666669  0.00000000
   0.33333334  0.00000000  0.00000000
   0.33333334  0.66666669  0.00000000
   0.33333334  0.33333334  0.00000000
   0.00000000  0.00000000  0.00000000
   0.00000000  0.66666669  0.00000000
   0.66666669  0.33333334  0.00000000
   0.11068511  0.22244981  0.95539999
   0.22244981  0.11068511  0.04460000
   0.11068511  0.55578315  0.95539999
   0.22244981  0.44401845  0.04460000
   0.11068511  0.88911647  0.95539999
   0.22244981  0.77735180  0.04460000
   0.44401845  0.22244981  0.95539999
   0.55578315  0.11068511  0.04460000
   0.44401845  0.55578315  0.95539999
   0.55578315  0.44401845  0.04460000
   0.44401845  0.88911647  0.95539999
   0.55578315  0.77735180  0.04460000
   0.77735180  0.22244981  0.95539999
   0.88911647  0.11068511  0.04460000
   0.77735180  0.55578315  0.95539999
   0.88911647  0.44401845  0.04460000
   0.77735180  0.88911647  0.95539999
   0.88911647  0.77735180  0.04460000
 
 position of ions in cartesian coordinates  (Angst):
   5.77999993  6.71999999  0.00000000
   5.78000015  3.36000003  0.00000000
   0.00000009  6.72000022  0.00000000
   2.89000007  1.68000002  0.00000000
  -2.88999998  5.04000020  0.00000000
   0.00000005  3.36000011  0.00000000
   0.00000000  0.00000000  0.00000000
  -5.78000005  3.36000019  0.00000000
   2.89000012  5.04000012  0.00000000
  -0.96899991  1.67900001 28.66199970
   0.96899995  1.67899998  1.33799996
  -3.85899993  3.35900011 28.66199970
  -1.92100007  3.35900008  1.33799996
  -6.74899970  5.03900005 28.66199970
  -4.81100010  5.03900017  1.33799996
   1.92100017  3.35900003 28.66199970
   3.85900003  3.35900000  1.33799996
  -0.96899986  5.03900012 28.66199970
   0.96900000  5.03900009  1.33799996
  -3.85899963  6.71900006 28.66199970
  -1.92100003  6.71900019  1.33799996
   4.81100024  5.03900004 28.66199970
   6.74899984  5.03899987  1.33799996
   1.92100021  6.71900014 28.66199970
   3.85899981  6.71899996  1.33799996
  -0.96899956  8.39900008 28.66199970
   0.96899979  8.39900005  1.33799996
 


--------------------------------------------------------------------------------------------------------


 k-point  1 :   0.0000 0.0000 0.0000  plane waves:   27959
 k-point  2 :   0.1250 0.0000 0.0000  plane waves:   27889
 k-point  3 :   0.2500 0.0000 0.0000  plane waves:   27875
 k-point  4 :   0.3750 0.0000 0.0000  plane waves:   27893
 k-point  5 :   0.5000 0.0000 0.0000  plane waves:   27932
 k-point  6 :   0.0000 0.1250 0.0000  plane waves:   27889
 k-point  7 :   0.1250 0.1250 0.0000  plane waves:   27906
 k-point  8 :   0.2500 0.1250 0.0000  plane waves:   27898
 k-point  9 :   0.3750 0.1250 0.0000  plane waves:   27888
 k-point 10 :   0.5000 0.1250 0.0000  plane waves:   27873
 k-point 11 :  -0.3750 0.1250 0.0000  plane waves:   27874
 k-point 12 :  -0.2500 0.1250 0.0000  plane waves:   27895
 k-point 13 :  -0.1250 0.1250 0.0000  plane waves:   27879
 k-point 14 :   0.0000 0.2500 0.0000  plane waves:   27875
 k-point 15 :   0.1250 0.2500 0.0000  plane waves:   27898
 k-point 16 :   0.2500 0.2500 0.0000  plane waves:   27920
 k-point 17 :   0.3750 0.2500 0.0000  plane waves:   27901
 k-point 18 :   0.5000 0.2500 0.0000  plane waves:   27875
 k-point 19 :  -0.3750 0.2500 0.0000  plane waves:   27894
 k-point 20 :  -0.2500 0.2500 0.0000  plane waves:   27870
 k-point 21 :  -0.1250 0.2500 0.0000  plane waves:   27895
 k-point 22 :  -0.0000 0.3750 0.0000  plane waves:   27893
 k-point 23 :   0.1250 0.3750 0.0000  plane waves:   27888
 k-point 24 :   0.2500 0.3750 0.0000  plane waves:   27901
 k-point 25 :   0.3750 0.3750 0.0000  plane waves:   27860
 k-point 26 :   0.5000 0.3750 0.0000  plane waves:   27895
 k-point 27 :  -0.3750 0.3750 0.0000  plane waves:   27858
 k-point 28 :  -0.2500 0.3750 0.0000  plane waves:   27894
 k-point 29 :  -0.1250 0.3750 0.0000  plane waves:   27874
 k-point 30 :   0.0000 0.5000 0.0000  plane waves:   27932
 k-point 31 :   0.1250 0.5000 0.0000  plane waves:   27873
 k-point 32 :   0.2500 0.5000 0.0000  plane waves:   27875
 k-point 33 :   0.3750 0.5000 0.0000  plane waves:   27895
 k-point 34 :   0.5000 0.5000 0.0000  plane waves:   27910

 maximum and minimum number of plane-waves per node :     27959    27858

 maximum number of plane-waves:     27959
 maximum index in each direction: 
   IXMAX=   14   IYMAX=   13   IZMAX=   40
   IXMIN=  -14   IYMIN=  -14   IZMIN=  -40

 WARNING: aliasing errors must be expected set NGX to  58 to avoid them
 WARNING: aliasing errors must be expected set NGY to  56 to avoid them
 WARNING: aliasing errors must be expected set NGZ to 162 to avoid them
 aliasing errors are usually negligible using standard VASP settings
 and one can safely disregard these warnings

 serial   3D FFT for wavefunctions

 total amount of memory used by VASP on root node   650782. kBytes
========================================================================

   base      :      30000. kBytes
   nonl-proj :     559647. kBytes
   fftplans  :       2414. kBytes
   grid      :      12150. kBytes
   one-center:        419. kBytes
   wavefun   :      46152. kBytes
 
     INWAV:  cpu time    0.0000: real time    0.0000
 Broyden mixing: mesh for mixing (old mesh)
   NGX = 27   NGY = 27   NGZ = 81
  (NGX  = 84   NGY  = 84   NGZ  =252)
  gives a total of  59049 points

 initial charge density was supplied:
 charge density of overlapping atoms calculated
 number of electron     159.0000000 magnetization 
 keeping initial charge density in first step


--------------------------------------------------------------------------------------------------------


 Maximum index for augmentation-charges          140 (set IRDMAX)


--------------------------------------------------------------------------------------------------------


 First call to EWALD:  gamma=   0.129
 Maximum number of real-space cells 4x 4x 2
 Maximum number of reciprocal cells 2x 2x 5

 FEWALD executed in parallel
    FEWALD:  cpu time    0.0015: real time    0.0015


----------------------------------------- Iteration    1(   1)  ---------------------------------------


    POTLOK:  cpu time    0.0374: real time    0.0376
    SETDIJ:  cpu time    0.0032: real time    0.0033
     EDDAV:  cpu time   21.6568: real time   21.7130
       DOS:  cpu time    0.0014: real time    0.0016
    --------------------------------------------
      LOOP:  cpu time   21.7041: real time   21.7629

 eigenvalue-minimisations  :  8160
 total energy-change (2. order) : 0.1123763E+04  (-0.3587034E+04)
 number of electron     159.0000000 magnetization 
 augmentation part      159.0000000 magnetization 

 Free energy of the ion-electron system (eV)
  ---------------------------------------------------
  alpha Z        PSCENC =        81.65567618
  Ewald energy   TEWEN  =     41890.23009673
  -Hartree energ DENC   =    -47722.85867641
  -exchange      EXHF   =         0.00000000
  -V(xc)+E(xc)   XCENC  =      -242.92976591
  PAW double counting   =      3467.42045192    -2871.19716117
  entropy T*S    EENTRO =        -0.52430965
  eigenvalues    EBANDS =      -239.47545617
  atomic energy  EATOM  =      6761.44252427
  Solvation  Ediel_sol  =         0.00000000
  ---------------------------------------------------
  free energy    TOTEN  =      1123.76337979 eV

  energy without entropy =     1124.28768944  energy(sigma->0) =     1124.02553461


--------------------------------------------------------------------------------------------------------




----------------------------------------- Iteration    1(   2)  ---------------------------------------


     EDDAV:  cpu time   28.4736: real time   28.5422
       DOS:  cpu time    0.0010: real time    0.0010
    --------------------------------------------
      LOOP:  cpu time   28.4755: real time   28.5525

 eigenvalue-minimisations  : 11400
 total energy-change (2. order) :-0.1128824E+04  (-0.1087381E+04)
 number of electron     159.0000000 magnetization 
 augmentation part      159.0000000 magnetization 

 Free energy of the ion-electron system (eV)
  ---------------------------------------------------
  alpha Z        PSCENC =        81.65567618
  Ewald energy   TEWEN  =     41890.23009673
  -Hartree energ DENC   =    -47722.85867641
  -exchange      EXHF   =         0.00000000
  -V(xc)+E(xc)   XCENC  =      -242.92976591
  PAW double counting   =      3467.42045192    -2871.19716117
  entropy T*S    EENTRO =        -0.21986596
  eigenvalues    EBANDS =     -1368.60384634
  atomic energy  EATOM  =      6761.44252427
  Solvation  Ediel_sol  =         0.00000000
  ---------------------------------------------------
  free energy    TOTEN  =        -5.06056670 eV

  energy without entropy =       -4.84070074  energy(sigma->0) =       -4.95063372


--------------------------------------------------------------------------------------------------------




----------------------------------------- Iteration    1(   3)  ---------------------------------------


     EDDAV:  cpu time   27.2926: real time   27.3588
       DOS:  cpu time    0.0011: real time    0.0011
    --------------------------------------------
      LOOP:  cpu time   27.2948: real time   27.3669

 eigenvalue-minimisations  : 10880
 total energy-change (2. order) :-0.1949592E+03  (-0.1875800E+03)
 number of electron     159.0000000 magnetization 
 augmentation part      159.0000000 magnetization 

 Free energy of the ion-electron system (eV)
  ---------------------------------------------------
  alpha Z        PSCENC =        81.65567618
  Ewald energy   TEWEN  =     41890.23009673
  -Hartree energ DENC   =    -47722.85867641
  -exchange      EXHF   =         0.00000000
  -V(xc)+E(xc)   XCENC  =      -242.92976591
  PAW double counting   =      3467.42045192    -2871.19716117
  entropy T*S    EENTRO =        -0.26283191
  eigenvalues    EBANDS =     -1563.52012062
  atomic energy  EATOM  =      6761.44252427
  Solvation  Ediel_sol  =         0.00000000
  ---------------------------------------------------
  free energy    TOTEN  =      -200.01980692 eV

  energy without entropy =     -199.75697501  energy(sigma->0) =     -199.88839097


--------------------------------------------------------------------------------------------------------




----------------------------------------- Iteration    1(   4)  ---------------------------------------


     EDDAV:  cpu time   29.5167: real time   29.5879
       DOS:  cpu time    0.0010: real time    0.0010
    --------------------------------------------
      LOOP:  cpu time   29.5186: real time   29.5966

 eigenvalue-minimisations  : 11960
 total energy-change (2. order) :-0.8923177E+01  (-0.8664340E+01)
 number of electron     159.0000000 magnetization 
 augmentation part      159.0000000 magnetization 

 Free energy of the ion-electron system (eV)
  ---------------------------------------------------
  alpha Z        PSCENC =        81.65567618
  Ewald energy   TEWEN  =     41890.23009673
  -Hartree energ DENC   =    -47722.85867641
  -exchange      EXHF   =         0.00000000
  -V(xc)+E(xc)   XCENC  =      -242.92976591
  PAW double counting   =      3467.42045192    -2871.19716117
  entropy T*S    EENTRO =        -0.29802604
  eigenvalues    EBANDS =     -1572.40810313
  atomic energy  EATOM  =      6761.44252427
  Solvation  Ediel_sol  =         0.00000000
  ---------------------------------------------------
  free energy    TOTEN  =      -208.94298356 eV

  energy without entropy =     -208.64495752  energy(sigma->0) =     -208.79397054


--------------------------------------------------------------------------------------------------------




----------------------------------------- Iteration    1(   5)  ---------------------------------------


     EDDAV:  cpu time   28.5418: real time   28.6106
       DOS:  cpu time    0.0010: real time    0.0010
    CHARGE:  cpu time    0.4626: real time    0.4638
    MIXING:  cpu time    0.0018: real time    0.0021
    --------------------------------------------
      LOOP:  cpu time   29.0081: real time   29.0841

 eigenvalue-minimisations  : 11520
 total energy-change (2. order) :-0.3342311E+00  (-0.3334020E+00)
 number of electron     159.0000111 magnetization 
 augmentation part       -9.7924368 magnetization 

 Broyden mixing:
  rms(total) = 0.27465E+01    rms(broyden)= 0.27461E+01
  rms(prec ) = 0.29319E+01
  weight for this iteration     100.00

 Free energy of the ion-electron system (eV)
  ---------------------------------------------------
  alpha Z        PSCENC =        81.65567618
  Ewald energy   TEWEN  =     41890.23009673
  -Hartree energ DENC   =    -47722.85867641
  -exchange      EXHF   =         0.00000000
  -V(xc)+E(xc)   XCENC  =      -242.92976591
  PAW double counting   =      3467.42045192    -2871.19716117
  entropy T*S    EENTRO =        -0.29497229
  eigenvalues    EBANDS =     -1572.74538800
  atomic energy  EATOM  =      6761.44252427
  Solvation  Ediel_sol  =         0.00000000
  ---------------------------------------------------
  free energy    TOTEN  =      -209.27721468 eV

  energy without entropy =     -208.98224240  energy(sigma->0) =     -209.12972854


--------------------------------------------------------------------------------------------------------




----------------------------------------- Iteration    1(   6)  ---------------------------------------


    POTLOK:  cpu time    0.0338: real time    0.0339
    SETDIJ:  cpu time    0.0026: real time    0.0026
     EDDAV:  cpu time   30.8287: real time   30.9029
       DOS:  cpu time    0.0010: real time    0.0010
    CHARGE:  cpu time    0.4570: real time    0.4581
    MIXING:  cpu time    0.0023: real time    0.0197
    --------------------------------------------
      LOOP:  cpu time   31.3264: real time   31.4280

 eigenvalue-minimisations  : 12680
 total energy-change (2. order) :-0.2793151E+02  (-0.1074822E+02)
 number of electron     159.0000106 magnetization 
 augmentation part        7.0880553 magnetization 

 Broyden mixing:
  rms(total) = 0.59399E+01    rms(broyden)= 0.59393E+01
  rms(prec ) = 0.65224E+01
  weight for this iteration     100.00

 eigenvalues of (default mixing * dielectric matrix)
  average eigenvalue GAMMA=   0.2933
  0.2933

 Free energy of the ion-electron system (eV)
  ---------------------------------------------------
  alpha Z        PSCENC =        81.65567618
  Ewald energy   TEWEN  =     41890.23009673
  -Hartree energ DENC   =    -47701.22417999
  -exchange      EXHF   =         0.00000000
  -V(xc)+E(xc)   XCENC  =      -233.63213124
  PAW double counting   =      3676.51559519    -3082.60472031
  entropy T*S    EENTRO =        -0.26915442
  eigenvalues    EBANDS =     -1629.32243490
  atomic energy  EATOM  =      6761.44252427
  Solvation  Ediel_sol  =         0.00000000
  ---------------------------------------------------
  free energy    TOTEN  =      -237.20872848 eV

  energy without entropy =     -236.93957406  energy(sigma->0) =     -237.07415127


--------------------------------------------------------------------------------------------------------




----------------------------------------- Iteration    1(   7)  ---------------------------------------


    POTLOK:  cpu time    0.0310: real time    0.0313
    SETDIJ:  cpu time    0.0024: real time    0.0025
     EDDAV:  cpu time   31.9691: real time   32.0462
       DOS:  cpu time    0.0009: real time    0.0009
    CHARGE:  cpu time    0.4669: real time    0.4681
    MIXING:  cpu time    0.0012: real time    0.0012
    --------------------------------------------
      LOOP:  cpu time   32.4728: real time   32.5599

 eigenvalue-minimisations  : 13200
 total energy-change (2. order) : 0.4057050E+02  (-0.1773423E+02)
 number of electron     159.0000087 magnetization 
 augmentation part       -6.2313236 magnetization 

 Broyden mixing:
  rms(total) = 0.20349E+01    rms(broyden)= 0.20330E+01
  rms(prec ) = 0.22591E+01
  weight for this iteration     100.00

 eigenvalues of (default mixing * dielectric matrix)
  average eigenvalue GAMMA=   0.5410
  0.8707  0.2112

 Free energy of the ion-electron system (eV)
  ---------------------------------------------------
  alpha Z        PSCENC =        81.65567618
  Ewald energy   TEWEN  =     41890.23009673
  -Hartree energ DENC   =    -47738.74442314
  -exchange      EXHF   =         0.00000000
  -V(xc)+E(xc)   XCENC  =      -235.01355096
  PAW double counting   =      3764.30196722    -3178.34389430
  entropy T*S    EENTRO =        -0.33397533
  eigenvalues    EBANDS =     -1541.83265046
  atomic energy  EATOM  =      6761.44252427
  Solvation  Ediel_sol  =         0.00000000
  ---------------------------------------------------
  free energy    TOTEN  =      -196.63822979 eV

  energy without entropy =     -196.30425445  energy(sigma->0) =     -196.47124212


--------------------------------------------------------------------------------------------------------




----------------------------------------- Iteration    1(   8)  ---------------------------------------


    POTLOK:  cpu time    0.0359: real time    0.0360
    SETDIJ:  cpu time    0.0023: real time    0.0023
     EDDAV:  cpu time   28.6688: real time   28.7379
       DOS:  cpu time    0.0011: real time    0.0011
    CHARGE:  cpu time    0.4725: real time    0.4736
    MIXING:  cpu time    0.0013: real time    0.0106
    --------------------------------------------
      LOOP:  cpu time   29.1829: real time   29.2645

 eigenvalue-minimisations  : 11600
 total energy-change (2. order) : 0.6552275E+01  (-0.2033680E+01)
 number of electron     159.0000095 magnetization 
 augmentation part       -6.3961552 magnetization 

 Broyden mixing:
  rms(total) = 0.13704E+01    rms(broyden)= 0.13699E+01
  rms(prec ) = 0.14807E+01
  weight for this iteration     100.00

 eigenvalues of (default mixing * dielectric matrix)
  average eigenvalue GAMMA=   0.5275
  1.0502  0.2570  0.2754

 Free energy of the ion-electron system (eV)
  ---------------------------------------------------
  alpha Z        PSCENC =        81.65567618
  Ewald energy   TEWEN  =     41890.23009673
  -Hartree energ DENC   =    -47761.60234594
  -exchange      EXHF   =         0.00000000
  -V(xc)+E(xc)   XCENC  =      -235.04227624
  PAW double counting   =      3903.18650557    -3318.78867585
  entropy T*S    EENTRO =        -0.26937757
  eigenvalues    EBANDS =     -1510.89808209
  atomic energy  EATOM  =      6761.44252427
  Solvation  Ediel_sol  =         0.00000000
  ---------------------------------------------------
  free energy    TOTEN  =      -190.08595495 eV

  energy without entropy =     -189.81657738  energy(sigma->0) =     -189.95126616


--------------------------------------------------------------------------------------------------------




----------------------------------------- Iteration    1(   9)  ---------------------------------------


    POTLOK:  cpu time    0.0303: real time    0.0305
    SETDIJ:  cpu time    0.0023: real time    0.0023
     EDDAV:  cpu time   29.7349: real time   29.8065
       DOS:  cpu time    0.0010: real time    0.0010
    CHARGE:  cpu time    0.4835: real time    0.4846
    MIXING:  cpu time    0.0012: real time    0.0012
    --------------------------------------------
      LOOP:  cpu time   30.2544: real time   30.3350

 eigenvalue-minimisations  : 12080
 total energy-change (2. order) : 0.1774996E+01  (-0.3503312E+00)
 number of electron     159.0000093 magnetization 
 augmentation part       -5.7201690 magnetization 

 Broyden mixing:
  rms(total) = 0.93788E+00    rms(broyden)= 0.93747E+00
  rms(prec ) = 0.10098E+01
  weight for this iteration     100.00

 eigenvalues of (default mixing * dielectric matrix)
  average eigenvalue GAMMA=   0.6974
  1.7127  0.5773  0.2198  0.2799

 Free energy of the ion-electron system (eV)
  ---------------------------------------------------
  alpha Z        PSCENC =        81.65567618
  Ewald energy   TEWEN  =     41890.23009673
  -Hartree energ DENC   =    -47765.66810396
  -exchange      EXHF   =         0.00000000
  -V(xc)+E(xc)   XCENC  =      -234.36004416
  PAW double counting   =      3961.50023373    -3377.82018350
  entropy T*S    EENTRO =        -0.32807091
  eigenvalues    EBANDS =     -1504.96308727
  atomic energy  EATOM  =      6761.44252427
  Solvation  Ediel_sol  =         0.00000000
  ---------------------------------------------------
  free energy    TOTEN  =      -188.31095889 eV

  energy without entropy =     -187.98288798  energy(sigma->0) =     -188.14692344


--------------------------------------------------------------------------------------------------------




----------------------------------------- Iteration    1(  10)  ---------------------------------------


    POTLOK:  cpu time    0.0304: real time    0.0317
    SETDIJ:  cpu time    0.0025: real time    0.0025
     EDDAV:  cpu time   32.4651: real time   32.5434
       DOS:  cpu time    0.0010: real time    0.0010
    CHARGE:  cpu time    0.4901: real time    0.4913
    MIXING:  cpu time    0.0013: real time    0.0013
    --------------------------------------------
      LOOP:  cpu time   32.9926: real time   33.0806

 eigenvalue-minimisations  : 13440
 total energy-change (2. order) : 0.1186126E+01  (-0.1769560E+00)
 number of electron     159.0000092 magnetization 
 augmentation part       -4.3932192 magnetization 

 Broyden mixing:
  rms(total) = 0.33652E+00    rms(broyden)= 0.33617E+00
  rms(prec ) = 0.36786E+00
  weight for this iteration     100.00

 eigenvalues of (default mixing * dielectric matrix)
  average eigenvalue GAMMA=   0.6975
  1.8726  0.6170  0.5147  0.2239  0.2590

 Free energy of the ion-electron system (eV)
  ---------------------------------------------------
  alpha Z        PSCENC =        81.65567618
  Ewald energy   TEWEN  =     41890.23009673
  -Hartree energ DENC   =    -47777.99989354
  -exchange      EXHF   =         0.00000000
  -V(xc)+E(xc)   XCENC  =      -232.73786577
  PAW double counting   =      4090.05861100    -3508.02497907
  entropy T*S    EENTRO =        -0.34247967
  eigenvalues    EBANDS =     -1491.40652271
  atomic energy  EATOM  =      6761.44252427
  Solvation  Ediel_sol  =         0.00000000
  ---------------------------------------------------
  free energy    TOTEN  =      -187.12483257 eV

  energy without entropy =     -186.78235290  energy(sigma->0) =     -186.95359274


--------------------------------------------------------------------------------------------------------




----------------------------------------- Iteration    1(  11)  ---------------------------------------


    POTLOK:  cpu time    0.0316: real time    0.0317
    SETDIJ:  cpu time    0.0024: real time    0.0024
     EDDAV:  cpu time   30.7563: real time   30.8298
       DOS:  cpu time    0.0010: real time    0.0010
    CHARGE:  cpu time    0.4972: real time    0.4984
    MIXING:  cpu time    0.0012: real time    0.0012
    --------------------------------------------
      LOOP:  cpu time   31.2908: real time   31.3731

 eigenvalue-minimisations  : 12560
 total energy-change (2. order) : 0.1102621E+00  (-0.6550977E-01)
 number of electron     159.0000092 magnetization 
 augmentation part       -4.2810290 magnetization 

 Broyden mixing:
  rms(total) = 0.23754E+00    rms(broyden)= 0.23720E+00
  rms(prec ) = 0.26112E+00
  weight for this iteration     100.00

 eigenvalues of (default mixing * dielectric matrix)
  average eigenvalue GAMMA=   0.8662
  1.9114  1.9114  0.6173  0.2859  0.2215  0.2500

 Free energy of the ion-electron system (eV)
  ---------------------------------------------------
  alpha Z        PSCENC =        81.65567618
  Ewald energy   TEWEN  =     41890.23009673
  -Hartree energ DENC   =    -47783.98642295
  -exchange      EXHF   =         0.00000000
  -V(xc)+E(xc)   XCENC  =      -232.39284157
  PAW double counting   =      4127.04152470    -3545.30637778
  entropy T*S    EENTRO =        -0.34893579
  eigenvalues    EBANDS =     -1485.34981431
  atomic energy  EATOM  =      6761.44252427
  Solvation  Ediel_sol  =         0.00000000
  ---------------------------------------------------
  free energy    TOTEN  =      -187.01457051 eV

  energy without entropy =     -186.66563472  energy(sigma->0) =     -186.84010262


--------------------------------------------------------------------------------------------------------




----------------------------------------- Iteration    1(  12)  ---------------------------------------


    POTLOK:  cpu time    0.0315: real time    0.0316
    SETDIJ:  cpu time    0.0025: real time    0.0025
     EDDAV:  cpu time   31.2510: real time   31.3264
       DOS:  cpu time    0.0010: real time    0.0010
    CHARGE:  cpu time    0.4949: real time    0.4961
    MIXING:  cpu time    0.0014: real time    0.0014
    --------------------------------------------
      LOOP:  cpu time   31.7832: real time   31.8672

 eigenvalue-minimisations  : 12840
 total energy-change (2. order) :-0.2073027E-01  (-0.4871166E-01)
 number of electron     159.0000089 magnetization 
 augmentation part       -4.4644474 magnetization 

 Broyden mixing:
  rms(total) = 0.35223E+00    rms(broyden)= 0.35213E+00
  rms(prec ) = 0.38993E+00
  weight for this iteration     100.00

 eigenvalues of (default mixing * dielectric matrix)
  average eigenvalue GAMMA=   0.7960
  1.9966  1.9966  0.6194  0.2756  0.2756  0.2173  0.1910

 Free energy of the ion-electron system (eV)
  ---------------------------------------------------
  alpha Z        PSCENC =        81.65567618
  Ewald energy   TEWEN  =     41890.23009673
  -Hartree energ DENC   =    -47796.69552948
  -exchange      EXHF   =         0.00000000
  -V(xc)+E(xc)   XCENC  =      -232.07409672
  PAW double counting   =      4179.44287521    -3597.67350641
  entropy T*S    EENTRO =        -0.33421032
  eigenvalues    EBANDS =     -1473.02913023
  atomic energy  EATOM  =      6761.44252427
  Solvation  Ediel_sol  =         0.00000000
  ---------------------------------------------------
  free energy    TOTEN  =      -187.03530078 eV

  energy without entropy =     -186.70109046  energy(sigma->0) =     -186.86819562


--------------------------------------------------------------------------------------------------------




----------------------------------------- Iteration    1(  13)  ---------------------------------------


    POTLOK:  cpu time    0.0415: real time    0.0416
    SETDIJ:  cpu time    0.0027: real time    0.0027
     EDDAV:  cpu time   32.2232: real time   32.3011
       DOS:  cpu time    0.0010: real time    0.0010
    CHARGE:  cpu time    0.4992: real time    0.5005
    MIXING:  cpu time    0.0014: real time    0.0014
    --------------------------------------------
      LOOP:  cpu time   32.7709: real time   33.0736

 eigenvalue-minimisations  : 13280
 total energy-change (2. order) : 0.1022581E+00  (-0.2858392E-01)
 number of electron     159.0000089 magnetization 
 augmentation part       -4.4217807 magnetization 

 Broyden mixing:
  rms(total) = 0.18918E+00    rms(broyden)= 0.18902E+00
  rms(prec ) = 0.20966E+00
  weight for this iteration     100.00

 eigenvalues of (default mixing * dielectric matrix)
  average eigenvalue GAMMA=   0.7792
  2.2765  1.7119  0.7458  0.5917  0.2987  0.2241  0.2425  0.1424

 Free energy of the ion-electron system (eV)
  ---------------------------------------------------
  alpha Z        PSCENC =        81.65567618
  Ewald energy   TEWEN  =     41890.23009673
  -Hartree energ DENC   =    -47799.23410851
  -exchange      EXHF   =         0.00000000
  -V(xc)+E(xc)   XCENC  =      -231.99107644
  PAW double counting   =      4187.49151332    -3605.71066926
  entropy T*S    EENTRO =        -0.33631216
  eigenvalues    EBANDS =     -1470.48068685
  atomic energy  EATOM  =      6761.44252427
  Solvation  Ediel_sol  =         0.00000000
  ---------------------------------------------------
  free energy    TOTEN  =      -186.93304273 eV

  energy without entropy =     -186.59673057  energy(sigma->0) =     -186.76488665


--------------------------------------------------------------------------------------------------------




----------------------------------------- Iteration    1(  14)  ---------------------------------------


    POTLOK:  cpu time    0.0305: real time    0.0309
    SETDIJ:  cpu time    0.0023: real time    0.0023
     EDDAV:  cpu time   31.3088: real time   31.3842
       DOS:  cpu time    0.0012: real time    0.0012
    CHARGE:  cpu time    0.4948: real time    0.4960
    MIXING:  cpu time    0.0015: real time    0.0015
    --------------------------------------------
      LOOP:  cpu time   31.8403: real time   31.9252

 eigenvalue-minimisations  : 12840
 total energy-change (2. order) : 0.2895789E-01  (-0.1055729E-01)
 number of electron     159.0000089 magnetization 
 augmentation part       -4.1696208 magnetization 

 Broyden mixing:
  rms(total) = 0.99753E-01    rms(broyden)= 0.99609E-01
  rms(prec ) = 0.11185E+00
  weight for this iteration     100.00

 eigenvalues of (default mixing * dielectric matrix)
  average eigenvalue GAMMA=   0.7372
  2.2896  1.6475  0.9556  0.6010  0.2987  0.2570  0.2243  0.2243  0.1371

 Free energy of the ion-electron system (eV)
  ---------------------------------------------------
  alpha Z        PSCENC =        81.65567618
  Ewald energy   TEWEN  =     41890.23009673
  -Hartree energ DENC   =    -47802.61735544
  -exchange      EXHF   =         0.00000000
  -V(xc)+E(xc)   XCENC  =      -231.87309992
  PAW double counting   =      4192.37094927    -3610.56402071
  entropy T*S    EENTRO =        -0.34126555
  eigenvalues    EBANDS =     -1467.20758966
  atomic energy  EATOM  =      6761.44252427
  Solvation  Ediel_sol  =         0.00000000
  ---------------------------------------------------
  free energy    TOTEN  =      -186.90408484 eV

  energy without entropy =     -186.56281929  energy(sigma->0) =     -186.73345206


--------------------------------------------------------------------------------------------------------




----------------------------------------- Iteration    1(  15)  ---------------------------------------


    POTLOK:  cpu time    0.0306: real time    0.0319
    SETDIJ:  cpu time    0.0024: real time    0.0025
     EDDAV:  cpu time   30.3629: real time   30.4362
       DOS:  cpu time    0.0010: real time    0.0010
    CHARGE:  cpu time    0.4955: real time    0.4967
    MIXING:  cpu time    0.0016: real time    0.0016
    --------------------------------------------
      LOOP:  cpu time   30.8964: real time   30.9797

 eigenvalue-minimisations  : 12400
 total energy-change (2. order) : 0.5229915E-02  (-0.4349540E-02)
 number of electron     159.0000090 magnetization 
 augmentation part       -4.1166370 magnetization 

 Broyden mixing:
  rms(total) = 0.99061E-01    rms(broyden)= 0.98988E-01
  rms(prec ) = 0.10999E+00
  weight for this iteration     100.00

 eigenvalues of (default mixing * dielectric matrix)
  average eigenvalue GAMMA=   0.7003
  2.2879  1.6372  1.0904  0.5988  0.3553  0.3018  0.2260  0.2370  0.1434  0.1257

 Free energy of the ion-electron system (eV)
  ---------------------------------------------------
  alpha Z        PSCENC =        81.65567618
  Ewald energy   TEWEN  =     41890.23009673
  -Hartree energ DENC   =    -47804.68633682
  -exchange      EXHF   =         0.00000000
  -V(xc)+E(xc)   XCENC  =      -231.83832362
  PAW double counting   =      4192.82964864    -3610.99710202
  entropy T*S    EENTRO =        -0.34324069
  eigenvalues    EBANDS =     -1465.19179759
  atomic energy  EATOM  =      6761.44252427
  Solvation  Ediel_sol  =         0.00000000
  ---------------------------------------------------
  free energy    TOTEN  =      -186.89885492 eV

  energy without entropy =     -186.55561423  energy(sigma->0) =     -186.72723458


--------------------------------------------------------------------------------------------------------




----------------------------------------- Iteration    1(  16)  ---------------------------------------


    POTLOK:  cpu time    0.0317: real time    0.0317
    SETDIJ:  cpu time    0.0023: real time    0.0023
     EDDAV:  cpu time   30.9778: real time   31.0525
       DOS:  cpu time    0.0011: real time    0.0011
    CHARGE:  cpu time    0.4944: real time    0.4956
    MIXING:  cpu time    0.0016: real time    0.0016
    --------------------------------------------
      LOOP:  cpu time   31.5098: real time   31.5938

 eigenvalue-minimisations  : 12720
 total energy-change (2. order) : 0.6181327E-02  (-0.1609568E-02)
 number of electron     159.0000090 magnetization 
 augmentation part       -4.1290220 magnetization 

 Broyden mixing:
  rms(total) = 0.48191E-01    rms(broyden)= 0.48148E-01
  rms(prec ) = 0.54361E-01
  weight for this iteration     100.00

 eigenvalues of (default mixing * dielectric matrix)
  average eigenvalue GAMMA=   0.7666
  2.3712  1.9384  1.4969  0.6985  0.6253  0.3083  0.2699  0.2241  0.2417  0.1401
  0.1182

 Free energy of the ion-electron system (eV)
  ---------------------------------------------------
  alpha Z        PSCENC =        81.65567618
  Ewald energy   TEWEN  =     41890.23009673
  -Hartree energ DENC   =    -47806.20528272
  -exchange      EXHF   =         0.00000000
  -V(xc)+E(xc)   XCENC  =      -231.81905225
  PAW double counting   =      4193.11620436    -3611.26691774
  entropy T*S    EENTRO =        -0.34351758
  eigenvalues    EBANDS =     -1463.70240483
  atomic energy  EATOM  =      6761.44252427
  Solvation  Ediel_sol  =         0.00000000
  ---------------------------------------------------
  free energy    TOTEN  =      -186.89267359 eV

  energy without entropy =     -186.54915601  energy(sigma->0) =     -186.72091480


--------------------------------------------------------------------------------------------------------




----------------------------------------- Iteration    1(  17)  ---------------------------------------


    POTLOK:  cpu time    0.0294: real time    0.0306
    SETDIJ:  cpu time    0.0025: real time    0.0025
     EDDAV:  cpu time   31.2726: real time   31.3480
       DOS:  cpu time    0.0011: real time    0.0011
    CHARGE:  cpu time    0.4965: real time    0.4977
    MIXING:  cpu time    0.0018: real time    0.0018
    --------------------------------------------
      LOOP:  cpu time   31.8060: real time   31.8909

 eigenvalue-minimisations  : 12880
 total energy-change (2. order) : 0.2645778E-02  (-0.7341548E-03)
 number of electron     159.0000090 magnetization 
 augmentation part       -4.1947216 magnetization 

 Broyden mixing:
  rms(total) = 0.17556E-01    rms(broyden)= 0.17496E-01
  rms(prec ) = 0.21453E-01
  weight for this iteration     100.00

 eigenvalues of (default mixing * dielectric matrix)
  average eigenvalue GAMMA=   0.7805
  2.3403  2.3403  1.4340  0.8632  0.6041  0.4916  0.3083  0.2236  0.2578  0.2450
  0.1400  0.1179

 Free energy of the ion-electron system (eV)
  ---------------------------------------------------
  alpha Z        PSCENC =        81.65567618
  Ewald energy   TEWEN  =     41890.23009673
  -Hartree energ DENC   =    -47811.86873412
  -exchange      EXHF   =         0.00000000
  -V(xc)+E(xc)   XCENC  =      -231.74582361
  PAW double counting   =      4194.73184868    -3612.82178475
  entropy T*S    EENTRO =        -0.34152527
  eigenvalues    EBANDS =     -1458.17230592
  atomic energy  EATOM  =      6761.44252427
  Solvation  Ediel_sol  =         0.00000000
  ---------------------------------------------------
  free energy    TOTEN  =      -186.89002782 eV

  energy without entropy =     -186.54850254  energy(sigma->0) =     -186.71926518


--------------------------------------------------------------------------------------------------------




----------------------------------------- Iteration    1(  18)  ---------------------------------------


    POTLOK:  cpu time    0.0309: real time    0.0309
    SETDIJ:  cpu time    0.0023: real time    0.0023
     EDDAV:  cpu time   28.9312: real time   29.0011
       DOS:  cpu time    0.0010: real time    0.0010
    CHARGE:  cpu time    0.4980: real time    0.4992
    MIXING:  cpu time    0.0020: real time    0.0020
    --------------------------------------------
      LOOP:  cpu time   29.4664: real time   29.5457

 eigenvalue-minimisations  : 11720
 total energy-change (2. order) : 0.5303401E-03  (-0.1914320E-03)
 number of electron     159.0000090 magnetization 
 augmentation part       -4.2062345 magnetization 

 Broyden mixing:
  rms(total) = 0.16626E-01    rms(broyden)= 0.16617E-01
  rms(prec ) = 0.19454E-01
  weight for this iteration     100.00

 eigenvalues of (default mixing * dielectric matrix)
  average eigenvalue GAMMA=   0.7873
  2.3676  2.3676  1.2636  1.2636  0.6718  0.6234  0.3869  0.3060  0.2238  0.2590
  0.2437  0.1400  0.1178

 Free energy of the ion-electron system (eV)
  ---------------------------------------------------
  alpha Z        PSCENC =        81.65567618
  Ewald energy   TEWEN  =     41890.23009673
  -Hartree energ DENC   =    -47815.31113951
  -exchange      EXHF   =         0.00000000
  -V(xc)+E(xc)   XCENC  =      -231.71208979
  PAW double counting   =      4194.96721555    -3613.02445056
  entropy T*S    EENTRO =        -0.34137150
  eigenvalues    EBANDS =     -1454.79595885
  atomic energy  EATOM  =      6761.44252427
  Solvation  Ediel_sol  =         0.00000000
  ---------------------------------------------------
  free energy    TOTEN  =      -186.88949748 eV

  energy without entropy =     -186.54812598  energy(sigma->0) =     -186.71881173


--------------------------------------------------------------------------------------------------------




----------------------------------------- Iteration    1(  19)  ---------------------------------------


    POTLOK:  cpu time    0.0308: real time    0.0308
    SETDIJ:  cpu time    0.0023: real time    0.0023
     EDDAV:  cpu time   27.8628: real time   27.9299
       DOS:  cpu time    0.0010: real time    0.0010
    CHARGE:  cpu time    0.4943: real time    0.4955
    MIXING:  cpu time    0.0018: real time    0.0018
    --------------------------------------------
      LOOP:  cpu time   28.3939: real time   28.4702

 eigenvalue-minimisations  : 11200
 total energy-change (2. order) : 0.2097638E-03  (-0.7728171E-04)
 number of electron     159.0000090 magnetization 
 augmentation part       -4.1826225 magnetization 

 Broyden mixing:
  rms(total) = 0.46418E-02    rms(broyden)= 0.46270E-02
  rms(prec ) = 0.75852E-02
  weight for this iteration     100.00

 eigenvalues of (default mixing * dielectric matrix)
  average eigenvalue GAMMA=   0.8822
  2.6831  2.6831  1.5701  1.4909  0.9978  0.6293  0.6293  0.3766  0.3066  0.2238
  0.2592  0.2437  0.1400  0.1178

 Free energy of the ion-electron system (eV)
  ---------------------------------------------------
  alpha Z        PSCENC =        81.65567618
  Ewald energy   TEWEN  =     41890.23009673
  -Hartree energ DENC   =    -47817.76820033
  -exchange      EXHF   =         0.00000000
  -V(xc)+E(xc)   XCENC  =      -231.69154599
  PAW double counting   =      4194.42021955    -3612.46372039
  entropy T*S    EENTRO =        -0.34183294
  eigenvalues    EBANDS =     -1452.37250479
  atomic energy  EATOM  =      6761.44252427
  Solvation  Ediel_sol  =         0.00000000
  ---------------------------------------------------
  free energy    TOTEN  =      -186.88928771 eV

  energy without entropy =     -186.54745477  energy(sigma->0) =     -186.71837124


--------------------------------------------------------------------------------------------------------




----------------------------------------- Iteration    1(  20)  ---------------------------------------


    POTLOK:  cpu time    0.0308: real time    0.0311
    SETDIJ:  cpu time    0.0025: real time    0.0025
     EDDAV:  cpu time   23.7546: real time   23.8119
       DOS:  cpu time    0.0010: real time    0.0010
    CHARGE:  cpu time    0.4962: real time    0.4974
    MIXING:  cpu time    0.0020: real time    0.0020
    --------------------------------------------
      LOOP:  cpu time   24.2883: real time   24.3553

 eigenvalue-minimisations  :  9240
 total energy-change (2. order) :-0.8824470E-03  (-0.8224522E-04)
 number of electron     159.0000090 magnetization 
 augmentation part       -4.1876058 magnetization 

 Broyden mixing:
  rms(total) = 0.44509E-02    rms(broyden)= 0.44498E-02
  rms(prec ) = 0.58794E-02
  weight for this iteration     100.00

 eigenvalues of (default mixing * dielectric matrix)
  average eigenvalue GAMMA=   0.9199
  3.1194  2.5626  1.8777  1.5012  0.9017  0.9017  0.6331  0.6331  0.3767  0.3066
  0.2238  0.2592  0.2437  0.1400  0.1178

 Free energy of the ion-electron system (eV)
  ---------------------------------------------------
  alpha Z        PSCENC =        81.65567618
  Ewald energy   TEWEN  =     41890.23009673
  -Hartree energ DENC   =    -47824.30014006
  -exchange      EXHF   =         0.00000000
  -V(xc)+E(xc)   XCENC  =      -231.63618054
  PAW double counting   =      4193.11526059    -3611.13738393
  entropy T*S    EENTRO =        -0.34150585
  eigenvalues    EBANDS =     -1445.91851756
  atomic energy  EATOM  =      6761.44252427
  Solvation  Ediel_sol  =         0.00000000
  ---------------------------------------------------
  free energy    TOTEN  =      -186.89017016 eV

  energy without entropy =     -186.54866431  energy(sigma->0) =     -186.71941724


--------------------------------------------------------------------------------------------------------




----------------------------------------- Iteration    1(  21)  ---------------------------------------


    POTLOK:  cpu time    0.0321: real time    0.0322
    SETDIJ:  cpu time    0.0023: real time    0.0023
     EDDAV:  cpu time   21.9423: real time   21.9952
       DOS:  cpu time    0.0011: real time    0.0011
    CHARGE:  cpu time    0.4968: real time    0.4979
    MIXING:  cpu time    0.0019: real time    0.0019
    --------------------------------------------
      LOOP:  cpu time   22.4775: real time   22.5399

 eigenvalue-minimisations  :  8320
 total energy-change (2. order) :-0.8695408E-03  (-0.2287943E-04)
 number of electron     159.0000090 magnetization 
 augmentation part       -4.1805553 magnetization 

 Broyden mixing:
  rms(total) = 0.35300E-02    rms(broyden)= 0.35257E-02
  rms(prec ) = 0.45434E-02
  weight for this iteration     100.00

 eigenvalues of (default mixing * dielectric matrix)
  average eigenvalue GAMMA=   0.9536
  3.6098  2.4308  2.1699  1.5921  1.0507  1.0507  0.6365  0.6365  0.4126  0.3766
  0.3067  0.2238  0.2437  0.2592  0.1400  0.1178

 Free energy of the ion-electron system (eV)
  ---------------------------------------------------
  alpha Z        PSCENC =        81.65567618
  Ewald energy   TEWEN  =     41890.23009673
  -Hartree energ DENC   =    -47827.10238836
  -exchange      EXHF   =         0.00000000
  -V(xc)+E(xc)   XCENC  =      -231.61708927
  PAW double counting   =      4192.74330744    -3610.76547076
  entropy T*S    EENTRO =        -0.34163463
  eigenvalues    EBANDS =     -1443.13606130
  atomic energy  EATOM  =      6761.44252427
  Solvation  Ediel_sol  =         0.00000000
  ---------------------------------------------------
  free energy    TOTEN  =      -186.89103970 eV

  energy without entropy =     -186.54940507  energy(sigma->0) =     -186.72022239


--------------------------------------------------------------------------------------------------------




----------------------------------------- Iteration    1(  22)  ---------------------------------------


    POTLOK:  cpu time    0.0314: real time    0.0316
    SETDIJ:  cpu time    0.0023: real time    0.0023
     EDDAV:  cpu time   18.8546: real time   18.9001
       DOS:  cpu time    0.0010: real time    0.0010
    CHARGE:  cpu time    0.4960: real time    0.4972
    MIXING:  cpu time    0.0020: real time    0.0020
    --------------------------------------------
      LOOP:  cpu time   19.3886: real time   19.4431

 eigenvalue-minimisations  :  6800
 total energy-change (2. order) :-0.8101792E-03  (-0.1065685E-04)
 number of electron     159.0000090 magnetization 
 augmentation part       -4.1793679 magnetization 

 Broyden mixing:
  rms(total) = 0.33982E-02    rms(broyden)= 0.33968E-02
  rms(prec ) = 0.40124E-02
  weight for this iteration     100.00

 eigenvalues of (default mixing * dielectric matrix)
  average eigenvalue GAMMA=   1.0834
  4.8884  2.5248  2.5248  1.7275  1.4713  0.9903  0.9903  0.6275  0.6275  0.2238
  0.2437  0.2592  0.3066  0.3817  0.3728  0.1400  0.1178

 Free energy of the ion-electron system (eV)
  ---------------------------------------------------
  alpha Z        PSCENC =        81.65567618
  Ewald energy   TEWEN  =     41890.23009673
  -Hartree energ DENC   =    -47829.23262960
[...]
    104      -0.5426      0.00000
    105      -0.5054      0.00000
    106      -0.3684      0.00000
    107      -0.2838      0.00000
    108      -0.0925      0.00000
    109      -0.0487      0.00000
    110       0.0983      0.00000
    111       0.3716      0.00000
    112       0.6285      0.00000
    113       0.7101      0.00000
    114       0.9613      0.00000
    115       1.1855      0.00000
    116       1.3105      0.00000
    117       1.6465      0.00000
    118       2.1485      0.00000
    119       2.3042      0.00000
    120       2.4031      0.00000

 k-point    34 :       0.5000    0.5000    0.0000
  band No.  band energies     occupation 
      1     -17.5381      2.00000
      2     -17.2896      2.00000
      3     -16.7952      2.00000
      4     -16.6916      2.00000
      5     -16.6775      2.00000
      6     -16.4748      2.00000
      7     -16.3503      2.00000
      8     -16.1619      2.00000
      9     -16.1176      2.00000
     10     -16.0194      2.00000
     11     -15.9116      2.00000
     12     -15.8601      2.00000
     13     -15.7352      2.00000
     14     -15.6607      2.00000
     15     -15.5657      2.00000
     16     -15.4623      2.00000
     17     -15.3661      2.00000
     18     -15.3249      2.00000
     19      -9.7826      2.00000
     20      -9.3339      2.00000
     21      -9.2389      2.00000
     22      -9.1131      2.00000
     23      -8.9611      2.00000
     24      -8.9000      2.00000
     25      -8.5899      2.00000
     26      -8.5267      2.00000
     27      -8.4481      2.00000
     28      -8.2881      2.00000
     29      -8.2566      2.00000
     30      -8.1831      2.00000
     31      -8.1237      2.00000
     32      -8.0203      2.00000
     33      -7.9735      2.00000
     34      -7.8599      2.00000
     35      -7.7459      2.00000
     36      -7.7287      2.00000
     37      -7.6031      2.00000
     38      -7.4888      2.00000
     39      -7.4111      2.00000
     40      -7.3242      2.00000
     41      -7.2014      2.00000
     42      -7.0284      2.00000
     43      -6.9956      2.00000
     44      -6.9158      2.00000
     45      -6.7513      2.00000
     46      -6.7081      2.00000
     47      -6.6397      2.00000
     48      -6.6119      2.00000
     49      -6.5292      2.00000
     50      -6.4746      2.00000
     51      -6.4361      2.00000
     52      -6.3532      2.00000
     53      -6.3242      2.00000
     54      -6.2647      2.00000
     55      -6.1726      2.00000
     56      -6.0511      2.00000
     57      -6.0224      2.00000
     58      -5.8283      2.00000
     59      -5.8075      2.00000
     60      -5.7190      2.00000
     61      -5.6905      2.00000
     62      -5.5573      2.00000
     63      -5.5423      2.00000
     64      -5.4046      2.00000
     65      -5.2230      2.00000
     66      -5.0673      2.00000
     67      -5.0328      2.00000
     68      -4.9455      2.00000
     69      -4.8398      2.00000
     70      -4.6462      2.00000
     71      -4.5368      2.00000
     72      -4.4478      2.00000
     73      -4.3208      2.00000
     74      -4.2714      2.00000
     75      -4.2065      2.00000
     76      -3.9810      2.00000
     77      -3.8524      1.99999
     78      -3.7764      1.99992
     79      -3.6069      1.99376
     80      -3.1016      0.40175
     81      -3.0110      0.13909
     82      -2.9202      0.03395
     83      -2.6590      0.00007
     84      -2.6181      0.00002
     85      -2.4810      0.00000
     86      -2.3864      0.00000
     87      -2.1902      0.00000
     88      -2.1334      0.00000
     89      -2.0724      0.00000
     90      -1.9258      0.00000
     91      -1.6615      0.00000
     92      -1.4276      0.00000
     93      -1.4024      0.00000
     94      -1.2986      0.00000
     95      -1.2489      0.00000
     96      -1.1857      0.00000
     97      -1.0891      0.00000
     98      -0.9884      0.00000
     99      -0.9393      0.00000
    100      -0.8867      0.00000
    101      -0.8463      0.00000
    102      -0.7945      0.00000
    103      -0.5922      0.00000
    104      -0.5556      0.00000
    105      -0.4432      0.00000
    106      -0.3719      0.00000
    107      -0.3096      0.00000
    108      -0.1299      0.00000
    109      -0.0366      0.00000
    110       0.0843      0.00000
    111       0.3757      0.00000
    112       0.6213      0.00000
    113       0.7079      0.00000
    114       0.9817      0.00000
    115       1.2057      0.00000
    116       1.3276      0.00000
    117       1.6558      0.00000
    118       2.2285      0.00000
    119       2.2575      0.00000
    120       2.3979      0.00000


--------------------------------------------------------------------------------------------------------


 soft charge-density along one line, spin component           1
         0         1         2         3         4         5         6         7         8         9
 total charge-density along one line
 
 pseudopotential strength for first ion, spin component:           1
 -7.225   0.005  -0.016   0.004   0.001   0.676  -0.002   0.005
  0.005  -7.116   0.001   0.011  -0.004  -0.002   0.642  -0.000
 -0.016   0.001  -7.092   0.008   0.025   0.005  -0.000   0.637
  0.004   0.011   0.008  -7.154   0.021  -0.001  -0.003  -0.002
  0.001  -0.004   0.025   0.021  -7.224  -0.000   0.001  -0.008
  0.676  -0.002   0.005  -0.001  -0.000   0.332   0.001  -0.001
 -0.002   0.642  -0.000  -0.003   0.001   0.001   0.342   0.000
  0.005  -0.000   0.637  -0.002  -0.008  -0.001   0.000   0.343
 -0.001  -0.003  -0.002   0.654  -0.005   0.000   0.001   0.001
 -0.000   0.001  -0.008  -0.005   0.675   0.000  -0.000   0.002
 -0.005  -0.002  -0.020  -0.005   0.007   0.001   0.001   0.005
 -0.002  -0.000  -0.007  -0.001   0.002   0.000   0.000   0.002
  0.003   0.006  -0.001   0.003  -0.006   0.001  -0.001  -0.001
  0.003   0.009   0.004   0.005  -0.002  -0.000  -0.000  -0.001
  0.005   0.003  -0.000   0.002   0.002   0.001  -0.000  -0.001
  0.002   0.004   0.000   0.003  -0.003  -0.000  -0.001  -0.000
  0.003   0.007   0.001   0.004  -0.002  -0.000  -0.001  -0.000
  0.003   0.003   0.000  -0.000   0.001  -0.000  -0.000  -0.000
 total augmentation occupancy for first ion, spin component:           1
  0.795   0.154  -0.027   0.014   0.026   0.422   0.218   0.003   0.013   0.010   0.045  -0.002  -0.005   0.067  -0.016  -0.002
  0.154   1.068   0.027  -0.006  -0.007   0.216   0.639   0.033  -0.007  -0.015   0.022   0.005   0.065   0.077   0.072   0.002
 -0.027   0.027   0.841   0.038   0.050   0.004   0.033   0.339   0.016  -0.000   0.165   0.004   0.069   0.004   0.045   0.003
  0.014  -0.006   0.038   1.086  -0.132   0.013  -0.007   0.016   0.643  -0.205   0.010   0.003   0.064   0.049  -0.020   0.002
  0.026  -0.007   0.050  -0.132   0.840   0.010  -0.015   0.002  -0.208   0.439  -0.026  -0.000   0.005  -0.041  -0.008   0.003
  0.422   0.216   0.004   0.013   0.010   0.370   0.217   0.008   0.013  -0.009  -0.014  -0.001   0.017   0.074   0.028   0.000
  0.218   0.639   0.033  -0.007  -0.015   0.217   0.575   0.023   0.004  -0.012   0.048   0.006   0.059   0.089   0.069   0.004
  0.003   0.033   0.339   0.016   0.002   0.008   0.023   0.270   0.011  -0.002   0.043   0.009   0.019   0.001   0.010   0.004
  0.013  -0.007   0.016   0.643  -0.208   0.013   0.004   0.011   0.569  -0.207   0.018   0.003   0.069   0.054  -0.020   0.006
  0.010  -0.015  -0.000  -0.205   0.439  -0.009  -0.012  -0.002  -0.207   0.365   0.006   0.000  -0.027  -0.042   0.018   0.000
  0.045   0.022   0.165   0.010  -0.026  -0.014   0.048   0.043   0.018   0.006   1.385   0.136   0.044   0.026   0.028   0.002
 -0.002   0.005   0.004   0.003  -0.000  -0.001   0.006   0.009   0.003   0.000   0.136   0.026   0.009   0.002   0.005   0.001
 -0.005   0.065   0.069   0.064   0.005   0.017   0.059   0.019   0.069  -0.027   0.044   0.009   0.355   0.013   0.007   0.026
  0.067   0.077   0.004   0.049  -0.041   0.074   0.089   0.001   0.054  -0.042   0.026   0.002   0.013   0.419   0.006   0.000
 -0.016   0.072   0.045  -0.020  -0.008   0.028   0.069   0.010  -0.020   0.018   0.028   0.005   0.007   0.006   0.344  -0.001
 -0.002   0.002   0.003   0.002   0.003   0.000   0.004   0.004   0.006   0.000   0.002   0.001   0.026   0.000  -0.001   0.003
  0.003  -0.001  -0.000  -0.001  -0.002   0.005   0.005  -0.000   0.003  -0.003   0.001   0.000   0.000   0.028  -0.000   0.000
 -0.002   0.002   0.001  -0.001  -0.001  -0.000   0.005   0.002  -0.002  -0.000   0.001   0.000  -0.001  -0.000   0.027  -0.000


------------------------ aborting loop because EDIFF is reached ----------------------------------------


    CHARGE:  cpu time    0.4563: real time    0.4574
    FORLOC:  cpu time    0.0063: real time    0.0063
    FORNL :  cpu time    5.2108: real time    5.2233
    STRESS:  cpu time   32.5909: real time   32.6689
    FORCOR:  cpu time    0.0336: real time    0.0336
    FORHAR:  cpu time    0.0123: real time    0.0123
    MIXING:  cpu time    0.0010: real time    0.0010
    OFIELD:  cpu time    0.0000: real time    0.0000

  FORCE on cell =-STRESS in cart. coord.  units (eV):
  Direction    XX          YY          ZZ          XY          YZ          ZX
  --------------------------------------------------------------------------------------
  Alpha Z    89.19163    89.19163    89.19163
  Ewald   49217.93027 49176.55305-54132.19582   -38.55486    16.73590    11.63604
  Hartree 49923.86461 49897.98343-49553.32836   -24.15359    11.03172     6.62930
  E(xc)    -609.69619  -610.83548  -617.71799    -1.03667    -0.77195    -0.53720
  Local  ************************101123.26917    53.58941   -36.53604   -23.20821
  n-local  1214.22790  1215.60531  1248.49484     1.50691    -2.84448    -1.05935
  augment  -213.61471  -212.40307  -214.86136     0.27019     0.49491     0.68498
  Kinetic  2007.45797  2015.35908  2055.06956     8.38400    11.72338     5.78094
  Fock        0.00000     0.00000     0.00000     0.00000     0.00000     0.00000
  -------------------------------------------------------------------------------------
  Total       0.04155     0.04248    -2.07832     0.00539    -0.16654    -0.07350
  in kB       0.02774     0.02835    -1.38727     0.00360    -0.11117    -0.04906
  external pressure =       -0.44 kB  Pullay stress =        0.00 kB


 VOLUME and BASIS-vectors are now :
 -----------------------------------------------------------------------------
  energy-cutoff  :      280.00
  volume of cell :     2400.29
      direct lattice vectors                 reciprocal lattice vectors
     8.329144699  4.824151470  0.000000000     0.059898555  0.103872416  0.000000000
    -8.310786703  4.792457273  0.000000000    -0.060294685  0.104101863  0.000000000
     0.000000000  0.000000000 30.000000000     0.000000000  0.000000000  0.033333333

  length of vectors
     9.625335777  9.593582352 30.000000000     0.119905445  0.120302315  0.033333333


 FORCES acting on ions
    electron-ion (+dipol)            ewald-force                    non-local-force                 convergence-correction
 -----------------------------------------------------------------------------------------------
   0.117E+02 0.194E+02 0.197E+02   -.124E+02 -.207E+02 -.195E+02   0.717E+00 0.127E+01 -.230E+00   -.282E-02 -.174E-01 -.380E-01
   -.148E+02 -.218E+02 -.998E+01   0.159E+02 0.229E+02 0.978E+01   -.110E+01 -.115E+01 0.202E+00   0.107E-01 0.231E-01 0.208E-01
   -.110E+02 -.190E+02 -.194E+02   0.115E+02 0.203E+02 0.192E+02   -.449E+00 -.135E+01 0.179E+00   -.332E-01 0.143E-01 0.326E-01
   -.745E+01 -.450E+01 -.231E+01   0.721E+01 0.431E+01 0.237E+01   0.185E+00 0.146E+00 -.671E-01   0.446E-01 0.297E-01 0.297E-02
   -.195E+02 0.534E+01 -.190E+01   0.195E+02 -.539E+01 0.187E+01   0.424E-01 0.288E-01 0.244E-01   0.156E-01 0.258E-01 -.628E-03
   0.195E+02 -.121E+02 -.892E+00   -.193E+02 0.121E+02 0.942E+00   -.962E-01 0.687E-01 -.488E-01   -.265E-01 -.128E-02 -.565E-02
   0.223E+02 0.284E+02 0.119E+02   -.230E+02 -.291E+02 -.116E+02   0.764E+00 0.691E+00 -.270E+00   -.597E-01 -.147E-01 -.699E-02
   0.131E+02 0.345E+02 0.150E+02   -.132E+02 -.353E+02 -.148E+02   0.133E+00 0.861E+00 -.207E+00   0.144E-01 -.310E-01 -.316E-02
   -.144E+02 -.313E+02 -.107E+02   0.148E+02 0.323E+02 0.106E+02   -.452E+00 -.101E+01 0.161E+00   0.582E-01 0.205E-02 0.412E-02
   0.201E+02 0.146E+02 0.602E+03   -.207E+02 -.151E+02 -.606E+03   0.748E+00 0.483E+00 0.373E+01   -.769E-01 -.107E-01 0.335E-01
   0.138E+02 0.107E+02 -.629E+03   -.146E+02 -.112E+02 0.633E+03   0.769E+00 0.470E+00 -.344E+01   -.848E-02 0.530E-03 0.277E-01
   0.300E+01 0.241E+02 0.606E+03   -.309E+01 -.247E+02 -.610E+03   0.322E-01 0.690E+00 0.388E+01   0.411E-01 -.658E-01 0.275E-01
   0.327E+01 0.562E+01 -.569E+03   -.432E+01 -.727E+01 0.572E+03   0.108E+01 0.170E+01 -.307E+01   -.283E-01 -.499E-01 -.177E-01
   0.122E+02 0.221E+02 0.627E+03   -.125E+02 -.228E+02 -.630E+03   0.279E+00 0.722E+00 0.375E+01   -.746E-02 -.484E-02 -.209E-01
   0.111E+01 0.153E+02 -.627E+03   -.112E+01 -.164E+02 0.631E+03   -.175E-01 0.110E+01 -.340E+01   0.158E-01 0.127E-01 0.259E-01
   -.664E+01 -.187E+02 0.625E+03   0.670E+01 0.199E+02 -.628E+03   -.611E-01 -.117E+01 0.338E+01   0.151E-01 0.867E-02 -.187E-01
   -.165E+02 -.212E+02 -.603E+03   0.171E+02 0.221E+02 0.606E+03   -.658E+00 -.850E+00 -.335E+01   0.818E-01 0.112E-01 -.537E-01
   -.276E+01 -.806E+01 0.566E+03   0.383E+01 0.998E+01 -.569E+03   -.106E+01 -.193E+01 0.299E+01   -.476E-02 0.167E-01 -.749E-02
   -.375E+01 -.247E+02 -.603E+03   0.379E+01 0.255E+02 0.607E+03   -.118E-01 -.792E+00 -.375E+01   -.801E-02 0.279E-01 -.310E-02
   -.140E+02 -.155E+02 0.604E+03   0.151E+02 0.164E+02 -.607E+03   -.122E+01 -.929E+00 0.296E+01   0.413E-01 0.668E-01 0.425E-01
   -.164E+02 -.158E+02 -.589E+03   0.170E+02 0.165E+02 0.592E+03   -.598E+00 -.750E+00 -.339E+01   -.162E-01 0.692E-01 -.637E-01
   -.925E+01 -.119E+02 0.495E+03   0.936E+01 0.118E+02 -.500E+03   -.154E+00 0.955E-01 0.478E+01   0.526E-01 -.176E-01 0.639E-01
   0.969E+01 0.641E+01 -.485E+03   -.977E+01 -.638E+01 0.490E+03   0.141E+00 0.249E-01 -.477E+01   -.617E-01 -.253E-01 -.546E-01
   0.463E+00 -.610E+01 0.491E+03   -.854E+00 0.564E+01 -.496E+03   0.375E+00 0.453E+00 0.496E+01   0.270E-03 -.479E-02 -.575E-02
   -.116E-01 0.923E+01 -.489E+03   0.394E+00 -.887E+01 0.494E+03   -.419E+00 -.329E+00 -.504E+01   0.548E-01 -.228E-01 -.216E-01
   -.338E+01 -.219E+01 0.485E+03   0.291E+01 0.152E+01 -.489E+03   0.544E+00 0.655E+00 0.472E+01   -.734E-01 -.364E-02 0.399E-01
   0.101E+02 0.178E+02 -.507E+03   -.102E+02 -.180E+02 0.512E+03   0.167E+00 0.225E+00 -.501E+01   -.278E-01 -.193E-01 0.388E-02
 -----------------------------------------------------------------------------------------------
   0.311E+00 0.568E+00 0.358E+00   -.604E-13 0.533E-13 0.455E-12   -.318E+00 -.585E+00 -.357E+00   0.111E-01 0.197E-01 0.358E-02
 
 
 POSITION                                       TOTAL-FORCE (eV/Angst)
 -----------------------------------------------------------------------------------
      5.71640      6.69848     -0.07178         0.002902      0.023351     -0.049398
      5.41488      2.98273      0.04305         0.003844      0.004533      0.020684
     -0.15815      6.12770      0.07042        -0.008288     -0.010489      0.048200
      2.73985      1.58071      0.00801        -0.007858     -0.009455     -0.003463
     -2.93553      4.86362      0.00411        -0.014359     -0.002747     -0.005218
      0.17047      3.11150      0.00252         0.017119     -0.007636     -0.004273
      0.16927      0.24105     -0.04274         0.001041     -0.004708     -0.013791
     -5.41681      3.47803     -0.05133        -0.009973      0.000326     -0.010986
      2.65236      4.54141      0.04009         0.013433     -0.003009      0.011996
     -0.92459      1.62368     28.35140         0.022464      0.007942     -0.024804
      0.96197      1.61869      1.69844        -0.004001     -0.014505     -0.007396
     -3.67304      3.21232     28.33946        -0.015501      0.026641     -0.027596
     -1.82687      3.22700      1.51680         0.000610     -0.001033     -0.024809
     -6.44994      4.81767     28.28279        -0.002453      0.000153     -0.008661
     -4.62209      4.83682      1.69158        -0.010248     -0.015423     -0.007086
      1.86474      3.16420     28.31536         0.017088      0.010127      0.006165
      3.74099      3.19451      1.64327        -0.010440     -0.007208      0.020807
     -0.93743      4.77215     28.49381         0.004374      0.006856      0.020348
      0.90718      4.79279      1.65104         0.017089     -0.016460      0.020292
     -3.68774      6.43572     28.38309         0.003000      0.014585      0.003830
     -1.85701      6.41743      1.60534        -0.017895     -0.010813      0.038252
      4.66191      4.82181     28.68890         0.006213      0.005972      0.000445
      6.45975      4.83883      1.27233        -0.003496      0.023495     -0.019282
      1.82342      6.42059     28.70630        -0.016329     -0.010933      0.018843
      3.73990      6.41795      1.28451         0.018147      0.008846     -0.015303
     -0.90964      7.98406     28.72821        -0.000048     -0.017612      0.012033
      0.92516      7.98484      1.34500        -0.006436     -0.000798      0.000171
 -----------------------------------------------------------------------------------
    total drift:                                0.003741      0.002282      0.005070


--------------------------------------------------------------------------------------------------------



  FREE ENERGIE OF THE ION-ELECTRON SYSTEM (eV)
  ---------------------------------------------------
  free  energy   TOTEN  =      -192.46208572 eV

  energy  without entropy=     -192.33490509  energy(sigma->0) =     -192.39849540
 
 d Force = 0.9843609E-03[ 0.907E-03, 0.106E-02]  d Energy = 0.8694015E-03 0.115E-03
 d Force = 0.2288836E+01[ 0.229E+01, 0.229E+01]  d Ewald  = 0.2591432E+01-0.303E+00


--------------------------------------------------------------------------------------------------------


    POTLOK:  cpu time    0.0338: real time    0.0339


--------------------------------------------------------------------------------------------------------


 Quasi-Newton relaxation of ions (Broydens 2nd method)
  g(Force)  = 0.930E-03   g(Stress)= 0.641E-05

 retain information from N=  1 steps
 eigenvalues of (default step * inverse Hessian matrix)
  average eigenvalue of G=   0.2774
 eigenvalue spectrum of G is  0.2774


--------------------------------------------------------------------------------------------------------


  
 reached required accuracy - stopping structural energy minimisation
     LOOP+:  cpu time  134.4406: real time  134.7774
    4ORBIT:  cpu time    0.0000: real time    0.0000

 total amount of memory used by VASP on root node   650782. kBytes
========================================================================

   base      :      30000. kBytes
   nonl-proj :     559647. kBytes
   fftplans  :       2414. kBytes
   grid      :      12150. kBytes
   one-center:        419. kBytes
   wavefun   :      46152. kBytes
 
  
  
 General timing and accounting informations for this job:
 ========================================================
  
                  Total CPU time used (sec):     6250.980
                            User time (sec):     6229.493
                          System time (sec):       21.487
                         Elapsed time (sec):     6268.019
  
                   Maximum memory used (kb):      741132.
                   Average memory used (kb):           0.
  
                          Minor page faults:      1047783
                          Major page faults:            7
                 Voluntary context switches:         5646
